<event>
 7    1  0.4878192E-011  0.5052886E+02  0.7816164E-02  0.1300439E+00
        -11   -1    0    0    0    0  0.00000000000E+00  0.00000000000E+00  0.45593999997E+02  0.45594000000E+02  0.51100000000E-03 0. -1.
         11   -1    0    0    0    0 -0.00000000000E+00 -0.00000000000E+00 -0.45593999997E+02  0.45594000000E+02  0.51100000000E-03 0.  1.
    9900012    2    1    2    0    0  0.84786100225E+01  0.10836714369E+02  0.38260216032E+02  0.50528864040E+02  0.30000012735E+02 0.  0.
        -12    1    1    2    0    0 -0.84786100225E+01 -0.10836714369E+02 -0.38260216032E+02  0.40659135960E+02  0.00000000000E+00 0.  1.
         11    1    3    3    0    0 -0.64639593089E+01  0.62971973431E+01  0.26924428157E+02  0.28396519085E+02  0.51100000000E-03 0. -1.
        -11    1    3    3    0    0  0.71009983345E+01  0.27098902170E+01  0.11834241427E+02  0.14064741475E+02  0.51100000000E-03 0.  1.
         12    1    3    3    0    0  0.78415709970E+01  0.18296268089E+01 -0.49845355219E+00  0.80676034796E+01  0.00000000000E+00 0. -1.
</event>
<event>
 7    1  0.4878192E-011  0.5052886E+02  0.7816164E-02  0.1300439E+00
        -11   -1    0    0    0    0  0.00000000000E+00  0.00000000000E+00  0.45593999997E+02  0.45594000000E+02  0.51100000000E-03 0.  1.
         11   -1    0    0    0    0 -0.00000000000E+00 -0.00000000000E+00 -0.45593999997E+02  0.45594000000E+02  0.51100000000E-03 0. -1.
    9900012    2    1    2    0    0  0.20510053011E+02  0.16734788959E+02 -0.30861797172E+02  0.50528856370E+02  0.29999989422E+02 0.  0.
        -12    1    1    2    0    0 -0.20510053011E+02 -0.16734788959E+02  0.30861797172E+02  0.40659143630E+02  0.00000000000E+00 0.  1.
         11    1    3    3    0    0  0.19729102760E+01  0.37799136989E+01 -0.83643325151E+01  0.93884067451E+01  0.51100000000E-03 0. -1.
        -11    1    3    3    0    0  0.86826876197E+00  0.28786749684E+01  0.56575058491E+01  0.64068738797E+01  0.51100000000E-03 0.  1.
        -12    1    3    3    0    0  0.17668873974E+02  0.10076200292E+02 -0.28154970506E+02  0.34733575745E+02  0.00000000000E+00 0.  1.
</event>
<event>
 7    1  0.4878192E-011  0.5052886E+02  0.7816164E-02  0.1300439E+00
        -11   -1    0    0    0    0  0.00000000000E+00  0.00000000000E+00  0.45593999997E+02  0.45594000000E+02  0.51100000000E-03 0.  1.
         11   -1    0    0    0    0 -0.00000000000E+00 -0.00000000000E+00 -0.45593999997E+02  0.45594000000E+02  0.51100000000E-03 0. -1.
    9900012    2    1    2    0    0 -0.12247338677E+02 -0.29053179530E+01 -0.38661704829E+02  0.50528860838E+02  0.30000003004E+02 0.  0.
        -12    1    1    2    0    0  0.12247338677E+02  0.29053179530E+01  0.38661704829E+02  0.40659139162E+02  0.00000000000E+00 0.  1.
         11    1    3    3    0    0 -0.17233710934E+02 -0.76035044827E+01 -0.35938112194E+02  0.40575386397E+02  0.51100000000E-03 0. -1.
        -11    1    3    3    0    0  0.42117246457E+00  0.34341889687E+01  0.13419914273E+01  0.37110620273E+01  0.51100000000E-03 0.  1.
         12    1    3    3    0    0  0.45651997918E+01  0.12639975610E+01 -0.40655840625E+01  0.62424124137E+01  0.00000000000E+00 0. -1.
</event>
<event>
 7    1  0.4878192E-011  0.5052886E+02  0.7816164E-02  0.1300439E+00
        -11   -1    0    0    0    0  0.00000000000E+00  0.00000000000E+00  0.45593999997E+02  0.45594000000E+02  0.51100000000E-03 0.  1.
         11   -1    0    0    0    0 -0.00000000000E+00 -0.00000000000E+00 -0.45593999997E+02  0.45594000000E+02  0.51100000000E-03 0. -1.
    9900012    2    1    2    0    0 -0.26292910224E+02  0.15273646816E+02 -0.26991923206E+02  0.50528864083E+02  0.30000012868E+02 0.  0.
        -12    1    1    2    0    0  0.26292910224E+02 -0.15273646816E+02  0.26991923206E+02  0.40659135917E+02  0.00000000000E+00 0.  1.
         11    1    3    3    0    0 -0.14407000108E+02  0.19222566135E+02 -0.10275480560E+02  0.26127652055E+02  0.51100000000E-03 0. -1.
        -11    1    3    3    0    0  0.15255681972E+01 -0.40778687032E+01 -0.37523603361E+01  0.57477456309E+01  0.51100000000E-03 0.  1.
         12    1    3    3    0    0 -0.13411478313E+02  0.12894938456E+00 -0.12964082310E+02  0.18653466397E+02  0.00000000000E+00 0. -1.
</event>
<event>
 7    1  0.4878192E-011  0.5052888E+02  0.7816164E-02  0.1300439E+00
        -11   -1    0    0    0    0  0.00000000000E+00  0.00000000000E+00  0.45593999997E+02  0.45594000000E+02  0.51100000000E-03 0.  1.
         11   -1    0    0    0    0 -0.00000000000E+00 -0.00000000000E+00 -0.45593999997E+02  0.45594000000E+02  0.51100000000E-03 0. -1.
    9900012    2    1    2    0    0 -0.19904874607E+02  0.44525634725E+01 -0.35172925637E+02  0.50528879836E+02  0.30000060750E+02 0.  0.
        -12    1    1    2    0    0  0.19904874607E+02 -0.44525634725E+01  0.35172925637E+02  0.40659120164E+02  0.00000000000E+00 0.  1.
         11    1    3    3    0    0 -0.39758114104E+01 -0.48878805772E+01 -0.19436274764E+02  0.20432014827E+02  0.51100000000E-03 0. -1.
        -11    1    3    3    0    0 -0.17301277482E+02  0.14522817684E+01 -0.86182771403E+01  0.19383447216E+02  0.51100000000E-03 0.  1.
        -12    1    3    3    0    0  0.13722142852E+01  0.78881622813E+01 -0.71183737326E+01  0.10713417794E+02  0.00000000000E+00 0.  1.
</event>
<event>
 7    1  0.4878192E-011  0.5052887E+02  0.7816164E-02  0.1300439E+00
        -11   -1    0    0    0    0  0.00000000000E+00  0.00000000000E+00  0.45593999997E+02  0.45594000000E+02  0.51100000000E-03 0.  1.
         11   -1    0    0    0    0 -0.00000000000E+00 -0.00000000000E+00 -0.45593999997E+02  0.45594000000E+02  0.51100000000E-03 0. -1.
    9900012    2    1    2    0    0 -0.24563754223E+02  0.29683489089E+02 -0.12987587688E+02  0.50528868431E+02  0.30000026081E+02 0.  0.
        -12    1    1    2    0    0  0.24563754223E+02 -0.29683489089E+02  0.12987587688E+02  0.40659131569E+02  0.00000000000E+00 0.  1.
         11    1    3    3    0    0 -0.21406769324E+02  0.13691409807E+02 -0.95997712858E+01  0.27163580110E+02  0.51100000000E-03 0. -1.
        -11    1    3    3    0    0  0.26255630054E+01  0.85050788763E+01  0.54351948418E+01  0.10429347583E+02  0.51100000000E-03 0.  1.
         12    1    3    3    0    0 -0.57825479043E+01  0.74870004065E+01 -0.88230112438E+01  0.12935940737E+02  0.00000000000E+00 0. -1.
</event>
<event>
 7    1  0.4878192E-011  0.5052886E+02  0.7816164E-02  0.1300439E+00
        -11   -1    0    0    0    0  0.00000000000E+00  0.00000000000E+00  0.45593999997E+02  0.45594000000E+02  0.51100000000E-03 0.  1.
         11   -1    0    0    0    0 -0.00000000000E+00 -0.00000000000E+00 -0.45593999997E+02  0.45594000000E+02  0.51100000000E-03 0. -1.
    9900012    2    1    2    0    0  0.14312625253E+02 -0.29855334093E+02 -0.23600291939E+02  0.50528855948E+02  0.29999988141E+02 0.  0.
        -12    1    1    2    0    0 -0.14312625253E+02  0.29855334093E+02  0.23600291939E+02  0.40659144052E+02  0.00000000000E+00 0.  1.
         11    1    3    3    0    0  0.23012956190E+01 -0.14559640213E+02 -0.26418383269E+02  0.30252438901E+02  0.51100000000E-03 0. -1.
        -11    1    3    3    0    0  0.20670948136E+01 -0.20673128185E+01  0.22987848237E+01  0.37190153516E+01  0.51100000000E-03 0.  1.
         12    1    3    3    0    0  0.99442348208E+01 -0.13228381061E+02  0.51930650658E+00  0.16557401696E+02  0.00000000000E+00 0. -1.
</event>
<event>
 7    1  0.4878192E-011  0.5052886E+02  0.7816164E-02  0.1300439E+00
        -11   -1    0    0    0    0  0.00000000000E+00  0.00000000000E+00  0.45593999997E+02  0.45594000000E+02  0.51100000000E-03 0. -1.
         11   -1    0    0    0    0 -0.00000000000E+00 -0.00000000000E+00 -0.45593999997E+02  0.45594000000E+02  0.51100000000E-03 0.  1.
    9900012    2    1    2    0    0 -0.34230501489E+02 -0.17777676397E+02  0.12860522668E+02  0.50528855228E+02  0.29999985952E+02 0.  0.
        -12    1    1    2    0    0  0.34230501489E+02  0.17777676397E+02 -0.12860522668E+02  0.40659144772E+02  0.00000000000E+00 0.  1.
         11    1    3    3    0    0 -0.21859042016E+02 -0.10253238215E+02  0.13533970277E+02  0.27678781828E+02  0.51100000000E-03 0. -1.
        -11    1    3    3    0    0 -0.13564834622E+02 -0.82709317413E+01 -0.62694233747E+01  0.17079775171E+02  0.51100000000E-03 0.  1.
        -12    1    3    3    0    0  0.11933751496E+01  0.74649355865E+00  0.55959757657E+01  0.57702982289E+01  0.00000000000E+00 0.  1.
</event>
<event>
 7    1  0.4878192E-011  0.5052886E+02  0.7816164E-02  0.1300439E+00
        -11   -1    0    0    0    0  0.00000000000E+00  0.00000000000E+00  0.45593999997E+02  0.45594000000E+02  0.51100000000E-03 0.  1.
         11   -1    0    0    0    0 -0.00000000000E+00 -0.00000000000E+00 -0.45593999997E+02  0.45594000000E+02  0.51100000000E-03 0. -1.
    9900012    2    1    2    0    0  0.26512599097E+02  0.23054400587E+02 -0.20463192692E+02  0.50528861390E+02  0.30000004682E+02 0.  0.
        -12    1    1    2    0    0 -0.26512599097E+02 -0.23054400587E+02  0.20463192692E+02  0.40659138610E+02  0.00000000000E+00 0.  1.
         11    1    3    3    0    0  0.22253748413E+02  0.11238468701E+02 -0.13344439474E+02  0.28277315331E+02  0.51100000000E-03 0. -1.
        -11    1    3    3    0    0 -0.25156692491E+01  0.91149637225E+01 -0.10570695993E+02  0.14182763111E+02  0.51100000000E-03 0.  1.
         12    1    3    3    0    0  0.67745199333E+01  0.27009681635E+01  0.34519427747E+01  0.80687829482E+01  0.00000000000E+00 0. -1.
</event>
<event>
 7    1  0.4878192E-011  0.5052886E+02  0.7816164E-02  0.1300439E+00
        -11   -1    0    0    0    0  0.00000000000E+00  0.00000000000E+00  0.45593999997E+02  0.45594000000E+02  0.51100000000E-03 0.  1.
         11   -1    0    0    0    0 -0.00000000000E+00 -0.00000000000E+00 -0.45593999997E+02  0.45594000000E+02  0.51100000000E-03 0. -1.
    9900012    2    1    2    0    0  0.36138479818E+02 -0.88776719442E+01 -0.16381782329E+02  0.50528861114E+02  0.30000003841E+02 0.  0.
        -12    1    1    2    0    0 -0.36138479818E+02  0.88776719442E+01  0.16381782329E+02  0.40659138886E+02  0.00000000000E+00 0.  1.
         11    1    3    3    0    0  0.21565611590E+02 -0.74410479985E+01 -0.25684075627E+01  0.22957384787E+02  0.51100000000E-03 0. -1.
        -11    1    3    3    0    0  0.13577989929E+02  0.37154906010E+00 -0.18208033472E+02  0.22716345269E+02  0.51100000000E-03 0.  1.
        -12    1    3    3    0    0  0.99487829898E+00 -0.18081730057E+01  0.43946587057E+01  0.48551310578E+01  0.00000000000E+00 0.  1.
</event>
<event>
 7    1  0.8968537E-011  0.5052896E+02  0.7816164E-02  0.1300438E+00
        -11   -1    0    0    0    0  0.00000000000E+00  0.00000000000E+00  0.45593999997E+02  0.45594000000E+02  0.51100000000E-03 0. -1.
         11   -1    0    0    0    0 -0.00000000000E+00 -0.00000000000E+00 -0.45593999997E+02  0.45594000000E+02  0.51100000000E-03 0.  1.
    9900012    2    1    2    0    0 -0.33482637380E+02  0.23025816850E+02 -0.13719510342E+01  0.50528960449E+02  0.30000305781E+02 0.  0.
        -12    1    1    2    0    0  0.33482637380E+02 -0.23025816850E+02  0.13719510342E+01  0.40659039551E+02  0.00000000000E+00 0.  1.
         11    1    3    3    0    0 -0.12952992888E+02  0.18645106297E+02 -0.12805546629E+01  0.22738949714E+02  0.51100000000E-03 0. -1.
        -11    1    3    3    0    0  0.90727498718E+00 -0.32704400944E+01  0.33513112549E+01  0.47697184091E+01  0.51100000000E-03 0.  1.
         12    1    3    3    0    0 -0.21436919480E+02  0.76511506467E+01 -0.34427076263E+01  0.23020292326E+02  0.00000000000E+00 0. -1.
</event>
<event>
 7    1  0.4878192E-011  0.5052886E+02  0.7816164E-02  0.1300439E+00
        -11   -1    0    0    0    0  0.00000000000E+00  0.00000000000E+00  0.45593999997E+02  0.45594000000E+02  0.51100000000E-03 0.  1.
         11   -1    0    0    0    0 -0.00000000000E+00 -0.00000000000E+00 -0.45593999997E+02  0.45594000000E+02  0.51100000000E-03 0. -1.
    9900012    2    1    2    0    0  0.23959901865E+01 -0.31822641075E+02 -0.25194127502E+02  0.50528864316E+02  0.30000013576E+02 0.  0.
        -12    1    1    2    0    0 -0.23959901865E+01  0.31822641075E+02  0.25194127502E+02  0.40659135684E+02  0.00000000000E+00 0.  1.
         11    1    3    3    0    0  0.91751706611E+01 -0.11052710367E+02 -0.47080117905E+01  0.15116598109E+02  0.51100000000E-03 0. -1.
        -11    1    3    3    0    0 -0.41784517235E+01 -0.78869459300E+01 -0.20402220796E+02  0.22269126354E+02  0.51100000000E-03 0.  1.
        -12    1    3    3    0    0 -0.26007287510E+01 -0.12882984778E+02 -0.83894914991E-01  0.13143139853E+02  0.00000000000E+00 0.  1.
</event>
<event>
 7    1  0.4878192E-011  0.5052886E+02  0.7816164E-02  0.1300439E+00
        -11   -1    0    0    0    0  0.00000000000E+00  0.00000000000E+00  0.45593999997E+02  0.45594000000E+02  0.51100000000E-03 0. -1.
         11   -1    0    0    0    0 -0.00000000000E+00 -0.00000000000E+00 -0.45593999997E+02  0.45594000000E+02  0.51100000000E-03 0.  1.
    9900012    2    1    2    0    0  0.94292381924E+01  0.32878109205E+02  0.21983739551E+02  0.50528863235E+02  0.30000010290E+02 0.  0.
        -12    1    1    2    0    0 -0.94292381924E+01 -0.32878109205E+02 -0.21983739551E+02  0.40659136765E+02  0.00000000000E+00 0.  1.
         11    1    3    3    0    0 -0.28451466627E+01  0.35451728893E+01  0.24815564912E+01  0.51789220141E+01  0.51100000000E-03 0. -1.
        -11    1    3    3    0    0  0.17611824152E+02  0.28820873719E+02  0.11426880635E+02  0.35656594245E+02  0.51100000000E-03 0.  1.
        -12    1    3    3    0    0 -0.53374392964E+01  0.51206259705E+00  0.80753024249E+01  0.96933469761E+01  0.00000000000E+00 0.  1.
</event>
<event>
 7    1  0.4878192E-011  0.5052886E+02  0.7816164E-02  0.1300439E+00
        -11   -1    0    0    0    0  0.00000000000E+00  0.00000000000E+00  0.45593999997E+02  0.45594000000E+02  0.51100000000E-03 0.  1.
         11   -1    0    0    0    0 -0.00000000000E+00 -0.00000000000E+00 -0.45593999997E+02  0.45594000000E+02  0.51100000000E-03 0. -1.
    9900012    2    1    2    0    0  0.89582213210E+01 -0.32318232016E+02 -0.22987990989E+02  0.50528861057E+02  0.30000003670E+02 0.  0.
        -12    1    1    2    0    0 -0.89582213210E+01  0.32318232016E+02  0.22987990989E+02  0.40659138943E+02  0.00000000000E+00 0.  1.
         11    1    3    3    0    0 -0.84610452688E+01 -0.17237757476E+02 -0.95853500834E+01  0.21461791778E+02  0.51100000000E-03 0. -1.
        -11    1    3    3    0    0  0.13827923463E+02 -0.45535594282E+01 -0.62512438092E+01  0.15843750194E+02  0.51100000000E-03 0.  1.
         12    1    3    3    0    0  0.35913431266E+01 -0.10526915112E+02 -0.71513970963E+01  0.13223319086E+02  0.00000000000E+00 0. -1.
</event>
<event>
 7    1  0.4878192E-011  0.5052886E+02  0.7816164E-02  0.1300439E+00
        -11   -1    0    0    0    0  0.00000000000E+00  0.00000000000E+00  0.45593999997E+02  0.45594000000E+02  0.51100000000E-03 0.  1.
         11   -1    0    0    0    0 -0.00000000000E+00 -0.00000000000E+00 -0.45593999997E+02  0.45594000000E+02  0.51100000000E-03 0. -1.
    9900012    2    1    2    0    0  0.13617442523E+02  0.11259078527E+02 -0.36619171754E+02  0.50528864125E+02  0.30000012994E+02 0.  0.
        -12    1    1    2    0    0 -0.13617442523E+02 -0.11259078527E+02  0.36619171754E+02  0.40659135875E+02  0.00000000000E+00 0.  1.
         11    1    3    3    0    0  0.10419620331E+02 -0.40977950200E+01 -0.11319789819E+02  0.15921622206E+02  0.51100000000E-03 0. -1.
        -11    1    3    3    0    0 -0.51516487566E+01  0.10536430888E+01 -0.12861852861E+02  0.13895211692E+02  0.51100000000E-03 0.  1.
         12    1    3    3    0    0  0.83494709486E+01  0.14303230458E+02 -0.12437529073E+02  0.20712030227E+02  0.00000000000E+00 0. -1.
</event>
<event>
 7    1  0.4878192E-011  0.5052886E+02  0.7816164E-02  0.1300439E+00
        -11   -1    0    0    0    0  0.00000000000E+00  0.00000000000E+00  0.45593999997E+02  0.45594000000E+02  0.51100000000E-03 0.  1.
         11   -1    0    0    0    0 -0.00000000000E+00 -0.00000000000E+00 -0.45593999997E+02  0.45594000000E+02  0.51100000000E-03 0. -1.
    9900012    2    1    2    0    0  0.10768199359E+02 -0.23767634348E+02 -0.31181898482E+02  0.50528863845E+02  0.30000012144E+02 0.  0.
        -12    1    1    2    0    0 -0.10768199359E+02  0.23767634348E+02  0.31181898482E+02  0.40659136155E+02  0.00000000000E+00 0.  1.
         11    1    3    3    0    0 -0.52870944097E+01 -0.14512219839E+02 -0.14490464645E+02  0.21178561279E+02  0.51100000000E-03 0. -1.
        -11    1    3    3    0    0 -0.35808768646E+00  0.29279017203E+01 -0.49911420296E+01  0.57976145349E+01  0.51100000000E-03 0.  1.
         12    1    3    3    0    0  0.16413381455E+02 -0.12183316229E+02 -0.11700291807E+02  0.23552688031E+02  0.00000000000E+00 0. -1.
</event>
<event>
 7    1  0.4878192E-011  0.5052886E+02  0.7816164E-02  0.1300439E+00
        -11   -1    0    0    0    0  0.00000000000E+00  0.00000000000E+00  0.45593999997E+02  0.45594000000E+02  0.51100000000E-03 0. -1.
         11   -1    0    0    0    0 -0.00000000000E+00 -0.00000000000E+00 -0.45593999997E+02  0.45594000000E+02  0.51100000000E-03 0.  1.
    9900012    2    1    2    0    0  0.33103962676E+02  0.20919373418E+02  0.10939525252E+02  0.50528859062E+02  0.29999997606E+02 0.  0.
        -12    1    1    2    0    0 -0.33103962676E+02 -0.20919373418E+02 -0.10939525252E+02  0.40659140938E+02  0.00000000000E+00 0.  1.
         11    1    3    3    0    0  0.28948879409E+02  0.14958291361E+02  0.49031167645E+01  0.32951914265E+02  0.51100000000E-03 0. -1.
        -11    1    3    3    0    0 -0.50258215890E+00 -0.25671577850E+01  0.73217945091E+01  0.77750603222E+01  0.51100000000E-03 0.  1.
         12    1    3    3    0    0  0.46576654253E+01  0.85282398428E+01 -0.12853860217E+01  0.98018844747E+01  0.00000000000E+00 0. -1.
</event>
<event>
 7    1  0.4878192E-011  0.5052886E+02  0.7816164E-02  0.1300439E+00
        -11   -1    0    0    0    0  0.00000000000E+00  0.00000000000E+00  0.45593999997E+02  0.45594000000E+02  0.51100000000E-03 0.  1.
         11   -1    0    0    0    0 -0.00000000000E+00 -0.00000000000E+00 -0.45593999997E+02  0.45594000000E+02  0.51100000000E-03 0. -1.
    9900012    2    1    2    0    0  0.18362236004E+02 -0.30234695631E+02 -0.20046384388E+02  0.50528855174E+02  0.29999985785E+02 0.  0.
        -12    1    1    2    0    0 -0.18362236004E+02  0.30234695631E+02  0.20046384388E+02  0.40659144826E+02  0.00000000000E+00 0.  1.
         11    1    3    3    0    0  0.72341128148E+01 -0.23974359211E+02 -0.26028597953E+02  0.36119111277E+02  0.51100000000E-03 0. -1.
        -11    1    3    3    0    0  0.12241157293E+01 -0.18327182902E+01  0.15305241859E+01  0.26832480680E+01  0.51100000000E-03 0.  1.
         12    1    3    3    0    0  0.99040074602E+01 -0.44276181300E+01  0.44516893793E+01  0.11726495828E+02  0.00000000000E+00 0. -1.
</event>
<event>
 7    1  0.4878192E-011  0.5052884E+02  0.7816164E-02  0.1300439E+00
        -11   -1    0    0    0    0  0.00000000000E+00  0.00000000000E+00  0.45593999997E+02  0.45594000000E+02  0.51100000000E-03 0. -1.
         11   -1    0    0    0    0 -0.00000000000E+00 -0.00000000000E+00 -0.45593999997E+02  0.45594000000E+02  0.51100000000E-03 0.  1.
    9900012    2    1    2    0    0  0.32140228565E+02  0.24740387981E+02 -0.28436412258E+01  0.50528838854E+02  0.29999936181E+02 0.  0.
        -12    1    1    2    0    0 -0.32140228565E+02 -0.24740387981E+02  0.28436412258E+01  0.40659161146E+02  0.00000000000E+00 0.  1.
         11    1    3    3    0    0  0.41456779459E+01 -0.32803960596E+01  0.23678870268E+01  0.57926274843E+01  0.51100000000E-03 0. -1.
        -11    1    3    3    0    0  0.27248778494E+02  0.27835140829E+02  0.51750788190E+00  0.38955857185E+02  0.51100000000E-03 0.  1.
        -12    1    3    3    0    0  0.74577212514E+00  0.18564321166E+00 -0.57290361346E+01  0.57803541843E+01  0.00000000000E+00 0.  1.
</event>
<event>
 7    1  0.4878192E-011  0.5052886E+02  0.7816164E-02  0.1300439E+00
        -11   -1    0    0    0    0  0.00000000000E+00  0.00000000000E+00  0.45593999997E+02  0.45594000000E+02  0.51100000000E-03 0. -1.
         11   -1    0    0    0    0 -0.00000000000E+00 -0.00000000000E+00 -0.45593999997E+02  0.45594000000E+02  0.51100000000E-03 0.  1.
    9900012    2    1    2    0    0  0.31660948738E+02 -0.25193975358E+02 -0.40016854331E+01  0.50528861351E+02  0.30000004564E+02 0.  0.
        -12    1    1    2    0    0 -0.31660948738E+02  0.25193975358E+02  0.40016854331E+01  0.40659138649E+02  0.00000000000E+00 0.  1.
         11    1    3    3    0    0  0.66965570438E+01 -0.18003654262E+02 -0.82917417179E+01  0.20921960329E+02  0.51100000000E-03 0. -1.
        -11    1    3    3    0    0  0.24733802346E+02 -0.98467443079E+01  0.37228755185E+01  0.26880832471E+02  0.51100000000E-03 0.  1.
        -12    1    3    3    0    0  0.23058934859E+00  0.26564232118E+01  0.56718076630E+00  0.27260685518E+01  0.00000000000E+00 0.  1.
</event>
<event>
 7    1  0.4878192E-011  0.5052887E+02  0.7816164E-02  0.1300439E+00
        -11   -1    0    0    0    0  0.00000000000E+00  0.00000000000E+00  0.45593999997E+02  0.45594000000E+02  0.51100000000E-03 0.  1.
         11   -1    0    0    0    0 -0.00000000000E+00 -0.00000000000E+00 -0.45593999997E+02  0.45594000000E+02  0.51100000000E-03 0. -1.
    9900012    2    1    2    0    0  0.15092001047E+02  0.19339779439E+02 -0.32424830722E+02  0.50528865581E+02  0.30000017420E+02 0.  0.
        -12    1    1    2    0    0 -0.15092001047E+02 -0.19339779439E+02  0.32424830722E+02  0.40659134419E+02  0.00000000000E+00 0.  1.
         11    1    3    3    0    0  0.61191116597E+01  0.72267019126E+01  0.33245717940E+01  0.10036011454E+02  0.51100000000E-03 0.  1.
        -11    1    3    3    0    0 -0.25810522101E+01  0.30100135653E+01 -0.11116127255E+02  0.11802131061E+02  0.51100000000E-03 0. -1.
         12    1    3    3    0    0  0.11553941598E+02  0.91030639610E+01 -0.24633275261E+02  0.28690723065E+02  0.00000000000E+00 0. -1.
</event>
<event>
 7    1  0.4878192E-011  0.5052886E+02  0.7816164E-02  0.1300439E+00
        -11   -1    0    0    0    0  0.00000000000E+00  0.00000000000E+00  0.45593999997E+02  0.45594000000E+02  0.51100000000E-03 0.  1.
         11   -1    0    0    0    0 -0.00000000000E+00 -0.00000000000E+00 -0.45593999997E+02  0.45594000000E+02  0.51100000000E-03 0. -1.
    9900012    2    1    2    0    0  0.32156362557E+02 -0.24649187786E+02 -0.33987105443E+01  0.50528863945E+02  0.30000012446E+02 0.  0.
        -12    1    1    2    0    0 -0.32156362557E+02  0.24649187786E+02  0.33987105443E+01  0.40659136055E+02  0.00000000000E+00 0.  1.
         11    1    3    3    0    0  0.20781296038E+02 -0.21899757761E+02 -0.61846090780E+01  0.30817382185E+02  0.51100000000E-03 0. -1.
        -11    1    3    3    0    0  0.10726312084E+01  0.45386982928E+01 -0.32879062008E+01  0.57061937707E+01  0.51100000000E-03 0.  1.
        -12    1    3    3    0    0  0.10302435310E+02 -0.72881283176E+01  0.60738047345E+01  0.14005287989E+02  0.00000000000E+00 0.  1.
</event>
<event>
 7    1  0.4878192E-011  0.5052886E+02  0.7816164E-02  0.1300439E+00
        -11   -1    0    0    0    0  0.00000000000E+00  0.00000000000E+00  0.45593999997E+02  0.45594000000E+02  0.51100000000E-03 0. -1.
         11   -1    0    0    0    0 -0.00000000000E+00 -0.00000000000E+00 -0.45593999997E+02  0.45594000000E+02  0.51100000000E-03 0.  1.
    9900012    2    1    2    0    0 -0.18231555606E+02  0.31141221617E+02  0.18734997599E+02  0.50528862790E+02  0.30000008936E+02 0.  0.
        -12    1    1    2    0    0  0.18231555606E+02 -0.31141221617E+02 -0.18734997599E+02  0.40659137210E+02  0.00000000000E+00 0.  1.
         11    1    3    3    0    0  0.33392313928E+01 -0.36937761374E+01  0.31108445459E+01  0.58712692407E+01  0.51100000000E-03 0. -1.
        -11    1    3    3    0    0 -0.76157525903E+01  0.74057200506E+01  0.69100531367E+01  0.12672537694E+02  0.51100000000E-03 0.  1.
         12    1    3    3    0    0 -0.13955034409E+02  0.27429277704E+02  0.87140999166E+01  0.31985055855E+02  0.00000000000E+00 0. -1.
</event>
<event>
 7    1  0.4878192E-011  0.5052890E+02  0.7816164E-02  0.1300439E+00
        -11   -1    0    0    0    0  0.00000000000E+00  0.00000000000E+00  0.45593999997E+02  0.45594000000E+02  0.51100000000E-03 0.  1.
         11   -1    0    0    0    0 -0.00000000000E+00 -0.00000000000E+00 -0.45593999997E+02  0.45594000000E+02  0.51100000000E-03 0. -1.
    9900012    2    1    2    0    0 -0.20594796773E+02  0.66507102597E+01 -0.34420697836E+02  0.50528904578E+02  0.30000135954E+02 0.  0.
        -12    1    1    2    0    0  0.20594796773E+02 -0.66507102597E+01  0.34420697836E+02  0.40659095422E+02  0.00000000000E+00 0.  1.
         11    1    3    3    0    0 -0.60039616801E+01 -0.92154610254E+01 -0.70555103509E+01  0.13067230171E+02  0.51100000000E-03 0. -1.
        -11    1    3    3    0    0 -0.94163882524E+01  0.11216869890E+02 -0.26726454473E+02  0.30476054646E+02  0.51100000000E-03 0.  1.
        -12    1    3    3    0    0 -0.51744468407E+01  0.46493013954E+01 -0.63873301133E+00  0.69856197601E+01  0.00000000000E+00 0.  1.
</event>
<event>
 7    1  0.4878192E-011  0.5052886E+02  0.7816164E-02  0.1300439E+00
        -11   -1    0    0    0    0  0.00000000000E+00  0.00000000000E+00  0.45593999997E+02  0.45594000000E+02  0.51100000000E-03 0.  1.
         11   -1    0    0    0    0 -0.00000000000E+00 -0.00000000000E+00 -0.45593999997E+02  0.45594000000E+02  0.51100000000E-03 0. -1.
    9900012    2    1    2    0    0 -0.24499985817E+02  0.27916667137E+02 -0.16540129364E+02  0.50528862178E+02  0.30000007075E+02 0.  0.
        -12    1    1    2    0    0  0.24499985817E+02 -0.27916667137E+02  0.16540129364E+02  0.40659137822E+02  0.00000000000E+00 0.  1.
         11    1    3    3    0    0 -0.66253084971E+01  0.22459663322E+02 -0.31086212208E+01  0.23621911764E+02  0.51100000000E-03 0. -1.
        -11    1    3    3    0    0 -0.38784031740E+00  0.41405210680E+01  0.90522006027E+00  0.42560261330E+01  0.51100000000E-03 0.  1.
         12    1    3    3    0    0 -0.17486837003E+02  0.13164827468E+01 -0.14336728204E+02  0.22650924281E+02  0.00000000000E+00 0. -1.
</event>
<event>
 7    1  0.4878192E-011  0.5052886E+02  0.7816164E-02  0.1300439E+00
        -11   -1    0    0    0    0  0.00000000000E+00  0.00000000000E+00  0.45593999997E+02  0.45594000000E+02  0.51100000000E-03 0.  1.
         11   -1    0    0    0    0 -0.00000000000E+00 -0.00000000000E+00 -0.45593999997E+02  0.45594000000E+02  0.51100000000E-03 0. -1.
    9900012    2    1    2    0    0 -0.37473123061E+02 -0.15515437567E+02 -0.28638499291E+01  0.50528863373E+02  0.30000010709E+02 0.  0.
        -12    1    1    2    0    0  0.37473123061E+02  0.15515437567E+02  0.28638499291E+01  0.40659136627E+02  0.00000000000E+00 0.  1.
         11    1    3    3    0    0 -0.20987382702E+02 -0.59827190584E+01  0.35128457175E+01  0.22104371633E+02  0.51100000000E-03 0. -1.
        -11    1    3    3    0    0 -0.81925742450E+00 -0.11829120459E+02 -0.23794868217E+01  0.12093850973E+02  0.51100000000E-03 0.  1.
        -12    1    3    3    0    0 -0.15666482935E+02  0.22964019504E+01 -0.39972088248E+01  0.16330640767E+02  0.00000000000E+00 0.  1.
</event>
<event>
 7    1  0.4878192E-011  0.5052886E+02  0.7816164E-02  0.1300439E+00
        -11   -1    0    0    0    0  0.00000000000E+00  0.00000000000E+00  0.45593999997E+02  0.45594000000E+02  0.51100000000E-03 0.  1.
         11   -1    0    0    0    0 -0.00000000000E+00 -0.00000000000E+00 -0.45593999997E+02  0.45594000000E+02  0.51100000000E-03 0. -1.
    9900012    2    1    2    0    0  0.17028194867E+02  0.17919804261E+02 -0.32281373011E+02  0.50528857748E+02  0.29999993612E+02 0.  0.
        -12    1    1    2    0    0 -0.17028194867E+02 -0.17919804261E+02  0.32281373011E+02  0.40659142252E+02  0.00000000000E+00 0.  1.
         11    1    3    3    0    0  0.11769586929E+02 -0.20161362762E+01 -0.50594087341E+01  0.12968639056E+02  0.51100000000E-03 0. -1.
        -11    1    3    3    0    0  0.88165696554E+00  0.20333272631E+02 -0.17311813939E+02  0.26719247688E+02  0.51100000000E-03 0.  1.
         12    1    3    3    0    0  0.43769509724E+01 -0.39733209318E+00 -0.99101503375E+01  0.10840971004E+02  0.00000000000E+00 0. -1.
</event>
<event>
 7    1  0.4878192E-011  0.5052886E+02  0.7816164E-02  0.1300439E+00
        -11   -1    0    0    0    0  0.00000000000E+00  0.00000000000E+00  0.45593999997E+02  0.45594000000E+02  0.51100000000E-03 0.  1.
         11   -1    0    0    0    0 -0.00000000000E+00 -0.00000000000E+00 -0.45593999997E+02  0.45594000000E+02  0.51100000000E-03 0. -1.
    9900012    2    1    2    0    0  0.12566040022E+02 -0.24049945010E+02 -0.30279706073E+02  0.50528858141E+02  0.29999994806E+02 0.  0.
        -12    1    1    2    0    0 -0.12566040022E+02  0.24049945010E+02  0.30279706073E+02  0.40659141859E+02  0.00000000000E+00 0.  1.
         11    1    3    3    0    0 -0.20982215716E+01 -0.57385386955E+01 -0.69587672460E+01  0.92605508458E+01  0.51100000000E-03 0. -1.
        -11    1    3    3    0    0  0.19404151561E+02 -0.20828168351E+02 -0.21219385109E+02  0.35504872895E+02  0.51100000000E-03 0.  1.
        -12    1    3    3    0    0 -0.47398899670E+01  0.25167620369E+01 -0.21015537183E+01  0.57634343998E+01  0.00000000000E+00 0.  1.
</event>
<event>
 7    1  0.4878192E-011  0.5052886E+02  0.7816164E-02  0.1300439E+00
        -11   -1    0    0    0    0  0.00000000000E+00  0.00000000000E+00  0.45593999997E+02  0.45594000000E+02  0.51100000000E-03 0.  1.
         11   -1    0    0    0    0 -0.00000000000E+00 -0.00000000000E+00 -0.45593999997E+02  0.45594000000E+02  0.51100000000E-03 0. -1.
    9900012    2    1    2    0    0  0.55066208925E+01 -0.33368840655E+01 -0.40146087026E+02  0.50528856226E+02  0.29999988985E+02 0.  0.
        -12    1    1    2    0    0 -0.55066208925E+01  0.33368840655E+01  0.40146087026E+02  0.40659143774E+02  0.00000000000E+00 0.  1.
         11    1    3    3    0    0 -0.55016815779E+01 -0.55288952822E+01 -0.24419045649E+02  0.25634487978E+02  0.51100000000E-03 0. -1.
        -11    1    3    3    0    0  0.12707453483E+02 -0.35537096929E+01 -0.12017063853E+02  0.17847074004E+02  0.51100000000E-03 0.  1.
        -12    1    3    3    0    0 -0.16991510124E+01  0.57457209096E+01 -0.37099775244E+01  0.70472942443E+01  0.00000000000E+00 0.  1.
</event>
<event>
 7    1  0.4878192E-011  0.5052886E+02  0.7816164E-02  0.1300439E+00
        -11   -1    0    0    0    0  0.00000000000E+00  0.00000000000E+00  0.45593999997E+02  0.45594000000E+02  0.51100000000E-03 0.  1.
         11   -1    0    0    0    0 -0.00000000000E+00 -0.00000000000E+00 -0.45593999997E+02  0.45594000000E+02  0.51100000000E-03 0. -1.
    9900012    2    1    2    0    0 -0.25112916601E+02  0.31246799027E+02  0.67929699447E+01  0.50528862400E+02  0.30000007752E+02 0.  0.
        -12    1    1    2    0    0  0.25112916601E+02 -0.31246799027E+02 -0.67929699447E+01  0.40659137600E+02  0.00000000000E+00 0.  1.
         11    1    3    3    0    0  0.10762092100E+01  0.10697094678E+02 -0.62701171911E+01  0.12445900155E+02  0.51100000000E-03 0.  1.
        -11    1    3    3    0    0 -0.11245361459E+02  0.11792662590E+01  0.42270435981E+01  0.12071318118E+02  0.51100000000E-03 0. -1.
         12    1    3    3    0    0 -0.14943764352E+02  0.19370438090E+02  0.88360435376E+01  0.26011644128E+02  0.00000000000E+00 0. -1.
</event>
<event>
 7    1  0.4878192E-011  0.5052875E+02  0.7816164E-02  0.1300439E+00
        -11   -1    0    0    0    0  0.00000000000E+00  0.00000000000E+00  0.45593999997E+02  0.45594000000E+02  0.51100000000E-03 0.  1.
         11   -1    0    0    0    0 -0.00000000000E+00 -0.00000000000E+00 -0.45593999997E+02  0.45594000000E+02  0.51100000000E-03 0. -1.
    9900012    2    1    2    0    0 -0.31257314680E+02 -0.16035832693E+01 -0.25953485693E+02  0.50528749885E+02  0.29999665749E+02 0.  0.
        -12    1    1    2    0    0  0.31257314680E+02  0.16035832693E+01  0.25953485693E+02  0.40659250115E+02  0.00000000000E+00 0.  1.
         11    1    3    3    0    0  0.16956685039E+01 -0.59173942467E+01 -0.12710761467E+02  0.14122829167E+02  0.51100000000E-03 0. -1.
        -11    1    3    3    0    0 -0.31186516829E+02  0.51222516071E+01 -0.13641458243E+02  0.34422749407E+02  0.51100000000E-03 0.  1.
        -12    1    3    3    0    0 -0.17664663551E+01 -0.80844062964E+00  0.39873401753E+00  0.19831713118E+01  0.00000000000E+00 0.  1.
</event>
<event>
 7    1  0.4878192E-011  0.5052885E+02  0.7816164E-02  0.1300439E+00
        -11   -1    0    0    0    0  0.00000000000E+00  0.00000000000E+00  0.45593999997E+02  0.45594000000E+02  0.51100000000E-03 0. -1.
         11   -1    0    0    0    0 -0.00000000000E+00 -0.00000000000E+00 -0.45593999997E+02  0.45594000000E+02  0.51100000000E-03 0.  1.
    9900012    2    1    2    0    0  0.31551420249E+02  0.49685375643E+01  0.25159255814E+02  0.50528848036E+02  0.29999964091E+02 0.  0.
        -12    1    1    2    0    0 -0.31551420249E+02 -0.49685375643E+01 -0.25159255814E+02  0.40659151964E+02  0.00000000000E+00 0.  1.
         11    1    3    3    0    0  0.70235483981E+01 -0.18323198585E+01 -0.54385368899E+01  0.90700227083E+01  0.51100000000E-03 0. -1.
        -11    1    3    3    0    0  0.10152681705E+02  0.84361135384E+01  0.17673006610E+02  0.22058561157E+02  0.51100000000E-03 0.  1.
         12    1    3    3    0    0  0.14375190147E+02 -0.16352561156E+01  0.12924786095E+02  0.19400264171E+02  0.00000000000E+00 0. -1.
</event>
<event>
 7    1  0.4878192E-011  0.5052886E+02  0.7816164E-02  0.1300439E+00
        -11   -1    0    0    0    0  0.00000000000E+00  0.00000000000E+00  0.45593999997E+02  0.45594000000E+02  0.51100000000E-03 0.  1.
         11   -1    0    0    0    0 -0.00000000000E+00 -0.00000000000E+00 -0.45593999997E+02  0.45594000000E+02  0.51100000000E-03 0. -1.
    9900012    2    1    2    0    0  0.19724374948E+02  0.15267505392E+02 -0.32109462826E+02  0.50528864606E+02  0.30000014458E+02 0.  0.
        -12    1    1    2    0    0 -0.19724374948E+02 -0.15267505392E+02  0.32109462826E+02  0.40659135394E+02  0.00000000000E+00 0.  1.
         11    1    3    3    0    0  0.10553616410E+02 -0.74440409625E+00 -0.91895969480E+01  0.14013623697E+02  0.51100000000E-03 0. -1.
        -11    1    3    3    0    0 -0.20723628886E+01  0.16353735345E+02 -0.95804092228E+01  0.19066294575E+02  0.51100000000E-03 0.  1.
        -12    1    3    3    0    0  0.11243121426E+02 -0.34182585727E+00 -0.13339456655E+02  0.17448946334E+02  0.00000000000E+00 0.  1.
</event>
<event>
 7    1  0.4878192E-011  0.5052882E+02  0.7816164E-02  0.1300439E+00
        -11   -1    0    0    0    0  0.00000000000E+00  0.00000000000E+00  0.45593999997E+02  0.45594000000E+02  0.51100000000E-03 0.  1.
         11   -1    0    0    0    0 -0.00000000000E+00 -0.00000000000E+00 -0.45593999997E+02  0.45594000000E+02  0.51100000000E-03 0. -1.
    9900012    2    1    2    0    0 -0.38788113793E+02  0.12176989941E+02 -0.60964276407E+00  0.50528824898E+02  0.29999893761E+02 0.  0.
        -12    1    1    2    0    0  0.38788113793E+02 -0.12176989941E+02  0.60964276407E+00  0.40659175102E+02  0.00000000000E+00 0.  1.
         11    1    3    3    0    0 -0.34503809323E+02  0.74943002265E+00  0.63551889455E+01  0.35092206114E+02  0.51100000000E-03 0. -1.
        -11    1    3    3    0    0 -0.29299429609E+01  0.11955425172E+02 -0.60154198331E+01  0.13700439147E+02  0.51100000000E-03 0.  1.
        -12    1    3    3    0    0 -0.13543615092E+01 -0.52786525338E+00 -0.94941187644E+00  0.17361796377E+01  0.00000000000E+00 0.  1.
</event>
<event>
 7    1  0.4878192E-011  0.5052885E+02  0.7816164E-02  0.1300439E+00
        -11   -1    0    0    0    0  0.00000000000E+00  0.00000000000E+00  0.45593999997E+02  0.45594000000E+02  0.51100000000E-03 0.  1.
         11   -1    0    0    0    0 -0.00000000000E+00 -0.00000000000E+00 -0.45593999997E+02  0.45594000000E+02  0.51100000000E-03 0. -1.
    9900012    2    1    2    0    0 -0.28808083309E+02 -0.23597667180E+02 -0.16322099654E+02  0.50528849770E+02  0.29999969361E+02 0.  0.
        -12    1    1    2    0    0  0.28808083309E+02  0.23597667180E+02  0.16322099654E+02  0.40659150230E+02  0.00000000000E+00 0.  1.
         11    1    3    3    0    0 -0.18194169398E+02 -0.28129088285E+02 -0.19005211328E+02  0.38515859925E+02  0.51100000000E-03 0. -1.
        -11    1    3    3    0    0 -0.85875036894E+01  0.27693346763E+01  0.21380695699E+01  0.92728515524E+01  0.51100000000E-03 0.  1.
         12    1    3    3    0    0 -0.20264102218E+01  0.17620864292E+01  0.54504210352E+00  0.27401382932E+01  0.00000000000E+00 0. -1.
</event>
<event>
 7    1  0.4878192E-011  0.5052886E+02  0.7816164E-02  0.1300439E+00
        -11   -1    0    0    0    0  0.00000000000E+00  0.00000000000E+00  0.45593999997E+02  0.45594000000E+02  0.51100000000E-03 0. -1.
         11   -1    0    0    0    0 -0.00000000000E+00 -0.00000000000E+00 -0.45593999997E+02  0.45594000000E+02  0.51100000000E-03 0.  1.
    9900012    2    1    2    0    0  0.76789803651E+01  0.39794936024E+02 -0.32498849964E+01  0.50528862957E+02  0.30000009444E+02 0.  0.
        -12    1    1    2    0    0 -0.76789803651E+01 -0.39794936024E+02  0.32498849964E+01  0.40659137043E+02  0.00000000000E+00 0.  1.
         11    1    3    3    0    0  0.11830763684E+02  0.37357722806E+02  0.29950411373E+01  0.39300594071E+02  0.51100000000E-03 0. -1.
        -11    1    3    3    0    0 -0.41692756489E+01  0.48166896885E+01 -0.61379213516E+01  0.88463234042E+01  0.51100000000E-03 0.  1.
        -12    1    3    3    0    0  0.17492329516E-01 -0.23794764708E+01 -0.10700478211E+00  0.23819454822E+01  0.00000000000E+00 0.  1.
</event>
<event>
 7    1  0.4878192E-011  0.5052885E+02  0.7816164E-02  0.1300439E+00
        -11   -1    0    0    0    0  0.00000000000E+00  0.00000000000E+00  0.45593999997E+02  0.45594000000E+02  0.51100000000E-03 0.  1.
         11   -1    0    0    0    0 -0.00000000000E+00 -0.00000000000E+00 -0.45593999997E+02  0.45594000000E+02  0.51100000000E-03 0. -1.
    9900012    2    1    2    0    0 -0.26199818280E+02  0.29558818627E+02 -0.96442756108E+01  0.50528852338E+02  0.29999977166E+02 0.  0.
        -12    1    1    2    0    0  0.26199818280E+02 -0.29558818627E+02  0.96442756108E+01  0.40659147662E+02  0.00000000000E+00 0.  1.
         11    1    3    3    0    0 -0.78918857980E+01  0.19299679201E+02 -0.64087882536E+01  0.21813574807E+02  0.51100000000E-03 0. -1.
        -11    1    3    3    0    0 -0.20628471405E+02  0.57369549129E+01  0.18927989053E+01  0.21494863855E+02  0.51100000000E-03 0.  1.
        -12    1    3    3    0    0  0.23205389230E+01  0.45221845131E+01 -0.51282862625E+01  0.72204136761E+01  0.00000000000E+00 0.  1.
</event>
<event>
 7    1  0.4878192E-011  0.5052887E+02  0.7816164E-02  0.1300439E+00
        -11   -1    0    0    0    0  0.00000000000E+00  0.00000000000E+00  0.45593999997E+02  0.45594000000E+02  0.51100000000E-03 0. -1.
         11   -1    0    0    0    0 -0.00000000000E+00 -0.00000000000E+00 -0.45593999997E+02  0.45594000000E+02  0.51100000000E-03 0.  1.
    9900012    2    1    2    0    0  0.40631023829E+02 -0.41481695012E+00  0.14535564613E+01  0.50528868223E+02  0.30000025449E+02 0.  0.
        -12    1    1    2    0    0 -0.40631023829E+02  0.41481695012E+00 -0.14535564613E+01  0.40659131777E+02  0.00000000000E+00 0.  1.
         11    1    3    3    0    0  0.16061926764E+02 -0.12197455915E+02  0.86395175797E+01  0.21940936316E+02  0.51100000000E-03 0. -1.
        -11    1    3    3    0    0  0.17398945789E+02  0.60242545746E+01 -0.56851162668E+01  0.19270067591E+02  0.51100000000E-03 0.  1.
         12    1    3    3    0    0  0.71701512767E+01  0.57583843907E+01 -0.15008448517E+01  0.93178643149E+01  0.00000000000E+00 0. -1.
</event>
<event>
 7    1  0.4878192E-011  0.5052887E+02  0.7816164E-02  0.1300439E+00
        -11   -1    0    0    0    0  0.00000000000E+00  0.00000000000E+00  0.45593999997E+02  0.45594000000E+02  0.51100000000E-03 0.  1.
         11   -1    0    0    0    0 -0.00000000000E+00 -0.00000000000E+00 -0.45593999997E+02  0.45594000000E+02  0.51100000000E-03 0. -1.
    9900012    2    1    2    0    0 -0.11941914604E+02 -0.38469071047E+02 -0.55395337732E+01  0.50528865897E+02  0.30000018379E+02 0.  0.
        -12    1    1    2    0    0  0.11941914604E+02  0.38469071047E+02  0.55395337732E+01  0.40659134103E+02  0.00000000000E+00 0.  1.
         11    1    3    3    0    0 -0.53706411678E+01 -0.37305777493E+02 -0.33039034976E+01  0.37834912442E+02  0.51100000000E-03 0. -1.
        -11    1    3    3    0    0  0.26493741762E+01  0.91156041855E+00 -0.15880992600E+01  0.32205877480E+01  0.51100000000E-03 0.  1.
         12    1    3    3    0    0 -0.92206476121E+01 -0.20748539727E+01 -0.64753101556E+00  0.94733657066E+01  0.00000000000E+00 0. -1.
</event>
<event>
 7    1  0.4878192E-011  0.5052886E+02  0.7816164E-02  0.1300439E+00
        -11   -1    0    0    0    0  0.00000000000E+00  0.00000000000E+00  0.45593999997E+02  0.45594000000E+02  0.51100000000E-03 0.  1.
         11   -1    0    0    0    0 -0.00000000000E+00 -0.00000000000E+00 -0.45593999997E+02  0.45594000000E+02  0.51100000000E-03 0. -1.
    9900012    2    1    2    0    0  0.14508227842E+02  0.37604247224E+02  0.53476513034E+01  0.50528862542E+02  0.30000008182E+02 0.  0.
        -12    1    1    2    0    0 -0.14508227842E+02 -0.37604247224E+02 -0.53476513034E+01  0.40659137458E+02  0.00000000000E+00 0.  1.
         11    1    3    3    0    0 -0.46323423690E+01  0.52232612023E+01  0.39842030903E+01  0.80383411185E+01  0.51100000000E-03 0. -1.
        -11    1    3    3    0    0  0.43423095462E+01  0.22087997364E+02 -0.55490733350E+01  0.23184639201E+02  0.51100000000E-03 0.  1.
        -12    1    3    3    0    0  0.14798260665E+02  0.10292988657E+02  0.69125215480E+01  0.19305882222E+02  0.00000000000E+00 0.  1.
</event>
<event>
 7    1  0.4878192E-011  0.5052886E+02  0.7816164E-02  0.1300439E+00
        -11   -1    0    0    0    0  0.00000000000E+00  0.00000000000E+00  0.45593999997E+02  0.45594000000E+02  0.51100000000E-03 0.  1.
         11   -1    0    0    0    0 -0.00000000000E+00 -0.00000000000E+00 -0.45593999997E+02  0.45594000000E+02  0.51100000000E-03 0. -1.
    9900012    2    1    2    0    0  0.39320809581E+01  0.31519409129E+02 -0.25381705562E+02  0.50528863392E+02  0.30000010766E+02 0.  0.
        -12    1    1    2    0    0 -0.39320809581E+01 -0.31519409129E+02  0.25381705562E+02  0.40659136608E+02  0.00000000000E+00 0.  1.
         11    1    3    3    0    0  0.53174417818E+01  0.23954489826E+02 -0.32866686197E+01  0.24756715468E+02  0.51100000000E-03 0. -1.
        -11    1    3    3    0    0 -0.55625345254E+01  0.36844446966E+01 -0.71650336013E+01  0.97905377706E+01  0.51100000000E-03 0.  1.
         12    1    3    3    0    0  0.41771737017E+01  0.38804746064E+01 -0.14930003341E+02  0.15981610153E+02  0.00000000000E+00 0. -1.
</event>
<event>
 7    1  0.4878192E-011  0.5052886E+02  0.7816164E-02  0.1300439E+00
        -11   -1    0    0    0    0  0.00000000000E+00  0.00000000000E+00  0.45593999997E+02  0.45594000000E+02  0.51100000000E-03 0. -1.
         11   -1    0    0    0    0 -0.00000000000E+00 -0.00000000000E+00 -0.45593999997E+02  0.45594000000E+02  0.51100000000E-03 0.  1.
    9900012    2    1    2    0    0 -0.35495498247E+02 -0.18711595987E+02  0.65659365304E+01  0.50528859051E+02  0.29999997570E+02 0.  0.
        -12    1    1    2    0    0  0.35495498247E+02  0.18711595987E+02 -0.65659365304E+01  0.40659140949E+02  0.00000000000E+00 0.  1.
         11    1    3    3    0    0 -0.13745530175E+02 -0.12380459563E+02  0.13398068859E+02  0.22841270284E+02  0.51100000000E-03 0. -1.
        -11    1    3    3    0    0 -0.23842562992E+02 -0.65223757042E+01 -0.60763884169E+01  0.25454502378E+02  0.51100000000E-03 0.  1.
        -12    1    3    3    0    0  0.20925949193E+01  0.19123927992E+00 -0.75574391210E+00  0.22330863887E+01  0.00000000000E+00 0.  1.
</event>
<event>
 7    1  0.4878192E-011  0.5052886E+02  0.7816164E-02  0.1300439E+00
        -11   -1    0    0    0    0  0.00000000000E+00  0.00000000000E+00  0.45593999997E+02  0.45594000000E+02  0.51100000000E-03 0.  1.
         11   -1    0    0    0    0 -0.00000000000E+00 -0.00000000000E+00 -0.45593999997E+02  0.45594000000E+02  0.51100000000E-03 0. -1.
    9900012    2    1    2    0    0 -0.13167688929E+02  0.27617478551E+02 -0.26777836542E+02  0.50528859784E+02  0.29999999799E+02 0.  0.
        -12    1    1    2    0    0  0.13167688929E+02 -0.27617478551E+02  0.26777836542E+02  0.40659140216E+02  0.00000000000E+00 0.  1.
         11    1    3    3    0    0  0.17336496140E+01  0.19605531344E+02 -0.45042676189E+01  0.20190859994E+02  0.51100000000E-03 0. -1.
        -11    1    3    3    0    0  0.17934980953E+00 -0.22157483519E+01 -0.13874469776E+01  0.26204420409E+01  0.51100000000E-03 0.  1.
         12    1    3    3    0    0 -0.15080688352E+02  0.10227695559E+02 -0.20886121946E+02  0.27717557749E+02  0.00000000000E+00 0. -1.
</event>
<event>
 7    1  0.4878192E-011  0.5052889E+02  0.7816164E-02  0.1300439E+00
        -11   -1    0    0    0    0  0.00000000000E+00  0.00000000000E+00  0.45593999997E+02  0.45594000000E+02  0.51100000000E-03 0. -1.
         11   -1    0    0    0    0 -0.00000000000E+00 -0.00000000000E+00 -0.45593999997E+02  0.45594000000E+02  0.51100000000E-03 0.  1.
    9900012    2    1    2    0    0  0.36851761494E+02  0.26120533460E+01  0.16979053580E+02  0.50528887758E+02  0.30000084828E+02 0.  0.
        -12    1    1    2    0    0 -0.36851761494E+02 -0.26120533460E+01 -0.16979053580E+02  0.40659112242E+02  0.00000000000E+00 0.  1.
         11    1    3    3    0    0  0.18008695267E+02  0.28760774582E+01 -0.48374114422E+01  0.18867577388E+02  0.51100000000E-03 0. -1.
        -11    1    3    3    0    0  0.78464711043E+01  0.34144493514E+01  0.17141743287E+02  0.19158938811E+02  0.51100000000E-03 0.  1.
        -12    1    3    3    0    0  0.10996595122E+02 -0.36784734637E+01  0.46747217343E+01  0.12502371559E+02  0.00000000000E+00 0.  1.
</event>
<event>
 7    1  0.4878192E-011  0.5052886E+02  0.7816164E-02  0.1300439E+00
        -11   -1    0    0    0    0  0.00000000000E+00  0.00000000000E+00  0.45593999997E+02  0.45594000000E+02  0.51100000000E-03 0. -1.
         11   -1    0    0    0    0 -0.00000000000E+00 -0.00000000000E+00 -0.45593999997E+02  0.45594000000E+02  0.51100000000E-03 0.  1.
    9900012    2    1    2    0    0 -0.32118773964E+02 -0.17494974943E+02 -0.17761646239E+02  0.50528857531E+02  0.29999992950E+02 0.  0.
        -12    1    1    2    0    0  0.32118773964E+02  0.17494974943E+02  0.17761646239E+02  0.40659142469E+02  0.00000000000E+00 0.  1.
         11    1    3    3    0    0 -0.17176046191E+02 -0.54783944324E+01  0.22659730549E+01  0.18170415583E+02  0.51100000000E-03 0. -1.
        -11    1    3    3    0    0 -0.10729786236E+01 -0.11411751257E+02 -0.10263906566E+02  0.15385939299E+02  0.51100000000E-03 0.  1.
         12    1    3    3    0    0 -0.13869749150E+02 -0.60482925358E+00 -0.97637127283E+01  0.16972502648E+02  0.00000000000E+00 0. -1.
</event>
<event>
 7    1  0.4878192E-011  0.5052887E+02  0.7816164E-02  0.1300439E+00
        -11   -1    0    0    0    0  0.00000000000E+00  0.00000000000E+00  0.45593999997E+02  0.45594000000E+02  0.51100000000E-03 0.  1.
         11   -1    0    0    0    0 -0.00000000000E+00 -0.00000000000E+00 -0.45593999997E+02  0.45594000000E+02  0.51100000000E-03 0. -1.
    9900012    2    1    2    0    0  0.28323591496E+02  0.17132350122E+02 -0.23609781362E+02  0.50528867792E+02  0.30000024141E+02 0.  0.
        -12    1    1    2    0    0 -0.28323591496E+02 -0.17132350122E+02  0.23609781362E+02  0.40659132208E+02  0.00000000000E+00 0.  1.
         11    1    3    3    0    0  0.14368551900E+02  0.16862440385E+02 -0.91866260038E+01  0.23983145687E+02  0.51100000000E-03 0. -1.
        -11    1    3    3    0    0  0.77399947329E+01 -0.26321574146E+01  0.22814525809E+01  0.84876850354E+01  0.51100000000E-03 0.  1.
         12    1    3    3    0    0  0.62150448635E+01  0.29020671507E+01 -0.16704607939E+02  0.18058037069E+02  0.00000000000E+00 0. -1.
</event>
<event>
 7    1  0.4878192E-011  0.5052886E+02  0.7816164E-02  0.1300439E+00
        -11   -1    0    0    0    0  0.00000000000E+00  0.00000000000E+00  0.45593999997E+02  0.45594000000E+02  0.51100000000E-03 0.  1.
         11   -1    0    0    0    0 -0.00000000000E+00 -0.00000000000E+00 -0.45593999997E+02  0.45594000000E+02  0.51100000000E-03 0. -1.
    9900012    2    1    2    0    0 -0.18510751647E+02  0.35326299575E+02 -0.79101577836E+01  0.50528856325E+02  0.29999989286E+02 0.  0.
        -12    1    1    2    0    0  0.18510751647E+02 -0.35326299575E+02  0.79101577836E+01  0.40659143675E+02  0.00000000000E+00 0.  1.
         11    1    3    3    0    0 -0.21083095770E+01  0.84181673775E+01  0.80150016818E+01  0.11813160605E+02  0.51100000000E-03 0. -1.
        -11    1    3    3    0    0 -0.16088516267E+02  0.14613326855E+02 -0.14946955666E+02  0.26378043168E+02  0.51100000000E-03 0.  1.
        -12    1    3    3    0    0 -0.31392580370E+00  0.12294805342E+02 -0.97820379931E+00  0.12337652552E+02  0.00000000000E+00 0.  1.
</event>
<event>
 7    1  0.4878192E-011  0.5052886E+02  0.7816164E-02  0.1300439E+00
        -11   -1    0    0    0    0  0.00000000000E+00  0.00000000000E+00  0.45593999997E+02  0.45594000000E+02  0.51100000000E-03 0.  1.
         11   -1    0    0    0    0 -0.00000000000E+00 -0.00000000000E+00 -0.45593999997E+02  0.45594000000E+02  0.51100000000E-03 0. -1.
    9900012    2    1    2    0    0 -0.30479851367E+02  0.25279041571E+01 -0.26790934191E+02  0.50528858425E+02  0.29999995668E+02 0.  0.
        -12    1    1    2    0    0  0.30479851367E+02 -0.25279041571E+01  0.26790934191E+02  0.40659141575E+02  0.00000000000E+00 0.  1.
         11    1    3    3    0    0 -0.11104902260E+02  0.86167751695E+01 -0.66628581058E+01  0.15555106779E+02  0.51100000000E-03 0. -1.
        -11    1    3    3    0    0 -0.21292357462E+01 -0.48004828148E+01  0.30361704117E+01  0.60660210310E+01  0.51100000000E-03 0.  1.
         12    1    3    3    0    0 -0.17245713362E+02 -0.12883881976E+01 -0.23164246497E+02  0.28907730614E+02  0.00000000000E+00 0. -1.
</event>
<event>
 7    1  0.4878192E-011  0.5052887E+02  0.7816164E-02  0.1300439E+00
        -11   -1    0    0    0    0  0.00000000000E+00  0.00000000000E+00  0.45593999997E+02  0.45594000000E+02  0.51100000000E-03 0.  1.
         11   -1    0    0    0    0 -0.00000000000E+00 -0.00000000000E+00 -0.45593999997E+02  0.45594000000E+02  0.51100000000E-03 0. -1.
    9900012    2    1    2    0    0 -0.15055081793E+02  0.73586342905E+01 -0.37045375621E+02  0.50528870136E+02  0.30000031266E+02 0.  0.
        -12    1    1    2    0    0  0.15055081793E+02 -0.73586342905E+01  0.37045375621E+02  0.40659129864E+02  0.00000000000E+00 0.  1.
         11    1    3    3    0    0 -0.93894608023E+01  0.64387208621E+01 -0.39284858858E+01  0.12043757807E+02  0.51100000000E-03 0.  1.
        -11    1    3    3    0    0  0.20890060561E+00  0.34528906198E+01 -0.31756982016E+02  0.31944827439E+02  0.51100000000E-03 0. -1.
         12    1    3    3    0    0 -0.58745215961E+01 -0.25329771914E+01 -0.13599077186E+01  0.65402848897E+01  0.00000000000E+00 0. -1.
</event>
<event>
 7    1  0.4878192E-011  0.5052888E+02  0.7816164E-02  0.1300439E+00
        -11   -1    0    0    0    0  0.00000000000E+00  0.00000000000E+00  0.45593999997E+02  0.45594000000E+02  0.51100000000E-03 0.  1.
         11   -1    0    0    0    0 -0.00000000000E+00 -0.00000000000E+00 -0.45593999997E+02  0.45594000000E+02  0.51100000000E-03 0. -1.
    9900012    2    1    2    0    0  0.21576573254E+02  0.11873127983E+02 -0.32351882534E+02  0.50528880667E+02  0.30000063274E+02 0.  0.
        -12    1    1    2    0    0 -0.21576573254E+02 -0.11873127983E+02  0.32351882534E+02  0.40659119333E+02  0.00000000000E+00 0.  1.
         11    1    3    3    0    0  0.37505402397E+00 -0.11309543864E+01  0.32084239535E+01  0.34225294552E+01  0.51100000000E-03 0.  1.
        -11    1    3    3    0    0  0.20242939604E+02  0.10992048066E+02 -0.17549982042E+02  0.28958653188E+02  0.51100000000E-03 0. -1.
         12    1    3    3    0    0  0.95857962606E+00  0.20120343033E+01 -0.18010324445E+02  0.18147698024E+02  0.00000000000E+00 0. -1.
</event>
<event>
 7    1  0.4878192E-011  0.5052882E+02  0.7816164E-02  0.1300439E+00
        -11   -1    0    0    0    0  0.00000000000E+00  0.00000000000E+00  0.45593999997E+02  0.45594000000E+02  0.51100000000E-03 0.  1.
         11   -1    0    0    0    0 -0.00000000000E+00 -0.00000000000E+00 -0.45593999997E+02  0.45594000000E+02  0.51100000000E-03 0. -1.
    9900012    2    1    2    0    0  0.79117752910E+01  0.21677042749E+02 -0.33476531595E+02  0.50528824673E+02  0.29999893077E+02 0.  0.
        -12    1    1    2    0    0 -0.79117752910E+01 -0.21677042749E+02  0.33476531595E+02  0.40659175327E+02  0.00000000000E+00 0.  1.
         11    1    3    3    0    0  0.11931770367E+02  0.24112116459E+01 -0.18384971690E+02  0.22049677322E+02  0.51100000000E-03 0. -1.
        -11    1    3    3    0    0 -0.78141741703E+01  0.12622626538E+02 -0.46933663405E+01  0.15569833221E+02  0.51100000000E-03 0.  1.
        -12    1    3    3    0    0  0.37941790941E+01  0.66432045659E+01 -0.10398193564E+02  0.12909314130E+02  0.00000000000E+00 0.  1.
</event>
<event>
 7    1  0.4878192E-011  0.5052886E+02  0.7816164E-02  0.1300439E+00
        -11   -1    0    0    0    0  0.00000000000E+00  0.00000000000E+00  0.45593999997E+02  0.45594000000E+02  0.51100000000E-03 0.  1.
         11   -1    0    0    0    0 -0.00000000000E+00 -0.00000000000E+00 -0.45593999997E+02  0.45594000000E+02  0.51100000000E-03 0. -1.
    9900012    2    1    2    0    0  0.25173923439E+02  0.48239930780E+01 -0.31562133293E+02  0.50528860948E+02  0.30000003336E+02 0.  0.
        -12    1    1    2    0    0 -0.25173923439E+02 -0.48239930780E+01  0.31562133293E+02  0.40659139052E+02  0.00000000000E+00 0.  1.
         11    1    3    3    0    0 -0.30058730604E+01  0.16957931695E+01 -0.16445082364E+02  0.16803324717E+02  0.51100000000E-03 0. -1.
        -11    1    3    3    0    0  0.24507763758E+02  0.55250003666E+01 -0.15155830722E+02  0.29340336034E+02  0.51100000000E-03 0.  1.
         12    1    3    3    0    0  0.36720327412E+01 -0.23968004581E+01  0.38779793584E-01  0.43852001962E+01  0.00000000000E+00 0. -1.
</event>
<event>
 7    1  0.4878192E-011  0.5052886E+02  0.7816164E-02  0.1300439E+00
        -11   -1    0    0    0    0  0.00000000000E+00  0.00000000000E+00  0.45593999997E+02  0.45594000000E+02  0.51100000000E-03 0. -1.
         11   -1    0    0    0    0 -0.00000000000E+00 -0.00000000000E+00 -0.45593999997E+02  0.45594000000E+02  0.51100000000E-03 0.  1.
    9900012    2    1    2    0    0  0.29664668715E+02  0.26056048897E+02  0.97085150630E+01  0.50528861805E+02  0.30000005942E+02 0.  0.
        -12    1    1    2    0    0 -0.29664668715E+02 -0.26056048897E+02 -0.97085150630E+01  0.40659138195E+02  0.00000000000E+00 0.  1.
         11    1    3    3    0    0  0.69658587588E+01  0.19777345237E+02  0.75811263780E+01  0.22296637645E+02  0.51100000000E-03 0. -1.
        -11    1    3    3    0    0  0.19526471990E+02  0.11256247596E+01 -0.36148001135E+01  0.19890121156E+02  0.51100000000E-03 0.  1.
        -12    1    3    3    0    0  0.31723379657E+01  0.51530789004E+01  0.57421887986E+01  0.83421030035E+01  0.00000000000E+00 0.  1.
</event>
<event>
 7    1  0.4878192E-011  0.5052886E+02  0.7816164E-02  0.1300439E+00
        -11   -1    0    0    0    0  0.00000000000E+00  0.00000000000E+00  0.45593999997E+02  0.45594000000E+02  0.51100000000E-03 0.  1.
         11   -1    0    0    0    0 -0.00000000000E+00 -0.00000000000E+00 -0.45593999997E+02  0.45594000000E+02  0.51100000000E-03 0. -1.
    9900012    2    1    2    0    0  0.36088835156E+02  0.36263695686E+01 -0.18374190275E+02  0.50528862682E+02  0.30000008607E+02 0.  0.
        -12    1    1    2    0    0 -0.36088835156E+02 -0.36263695686E+01  0.18374190275E+02  0.40659137318E+02  0.00000000000E+00 0.  1.
         11    1    3    3    0    0  0.28286437203E+02 -0.68731929081E+01 -0.28877420515E+01  0.29252390753E+02  0.51100000000E-03 0. -1.
        -11    1    3    3    0    0 -0.94420442065E+00  0.25708118319E+01 -0.22884314989E+01  0.35689654593E+01  0.51100000000E-03 0.  1.
         12    1    3    3    0    0  0.87466023743E+01  0.79287506447E+01 -0.13198016725E+02  0.17707506469E+02  0.00000000000E+00 0. -1.
</event>
<event>
 7    1  0.4878192E-011  0.5052886E+02  0.7816164E-02  0.1300439E+00
        -11   -1    0    0    0    0  0.00000000000E+00  0.00000000000E+00  0.45593999997E+02  0.45594000000E+02  0.51100000000E-03 0.  1.
         11   -1    0    0    0    0 -0.00000000000E+00 -0.00000000000E+00 -0.45593999997E+02  0.45594000000E+02  0.51100000000E-03 0. -1.
    9900012    2    1    2    0    0 -0.70359350280E+01 -0.39809638539E+02 -0.43421057397E+01  0.50528860996E+02  0.30000003482E+02 0.  0.
        -12    1    1    2    0    0  0.70359350280E+01  0.39809638539E+02  0.43421057397E+01  0.40659139004E+02  0.00000000000E+00 0.  1.
         11    1    3    3    0    0 -0.31999441266E+01 -0.36406010147E+02 -0.43383803759E+01  0.36802972187E+02  0.51100000000E-03 0. -1.
        -11    1    3    3    0    0 -0.32919631009E+01  0.18456944269E+01 -0.51299087693E+01  0.63686398248E+01  0.51100000000E-03 0.  1.
        -12    1    3    3    0    0 -0.54402780048E+00 -0.52493228191E+01  0.51261834055E+01  0.73572489841E+01  0.00000000000E+00 0.  1.
</event>
<event>
 7    1  0.4878192E-011  0.5052888E+02  0.7816164E-02  0.1300439E+00
        -11   -1    0    0    0    0  0.00000000000E+00  0.00000000000E+00  0.45593999997E+02  0.45594000000E+02  0.51100000000E-03 0.  1.
         11   -1    0    0    0    0 -0.00000000000E+00 -0.00000000000E+00 -0.45593999997E+02  0.45594000000E+02  0.51100000000E-03 0. -1.
    9900012    2    1    2    0    0 -0.34879234263E+02 -0.17971375669E+02  0.10659866762E+02  0.50528879429E+02  0.30000059513E+02 0.  0.
        -12    1    1    2    0    0  0.34879234263E+02  0.17971375669E+02 -0.10659866762E+02  0.40659120571E+02  0.00000000000E+00 0.  1.
         11    1    3    3    0    0 -0.15043616376E+01 -0.56761866817E+01 -0.29479723031E+01  0.65705966353E+01  0.51100000000E-03 0. -1.
        -11    1    3    3    0    0 -0.34422795575E+02 -0.15821524480E+02  0.11001236068E+02  0.39449672842E+02  0.51100000000E-03 0.  1.
        -12    1    3    3    0    0  0.10479229499E+01  0.35263354924E+01  0.26066029971E+01  0.45086099519E+01  0.00000000000E+00 0.  1.
</event>
<event>
 7    1  0.4878192E-011  0.5052886E+02  0.7816164E-02  0.1300439E+00
        -11   -1    0    0    0    0  0.00000000000E+00  0.00000000000E+00  0.45593999997E+02  0.45594000000E+02  0.51100000000E-03 0. -1.
         11   -1    0    0    0    0 -0.00000000000E+00 -0.00000000000E+00 -0.45593999997E+02  0.45594000000E+02  0.51100000000E-03 0.  1.
    9900012    2    1    2    0    0 -0.13746002869E+02 -0.10480918790E+02  0.36801677324E+02  0.50528859485E+02  0.29999998890E+02 0.  0.
        -12    1    1    2    0    0  0.13746002869E+02  0.10480918790E+02 -0.36801677324E+02  0.40659140515E+02  0.00000000000E+00 0.  1.
         11    1    3    3    0    0 -0.13493558522E+00  0.25770009279E+01  0.19080281208E+02  0.19253993680E+02  0.51100000000E-03 0.  1.
        -11    1    3    3    0    0 -0.13852425085E+02 -0.14141141470E+02  0.20369363545E+02  0.28403741555E+02  0.51100000000E-03 0. -1.
        -12    1    3    3    0    0  0.24135780187E+00  0.10832217523E+01 -0.26479674289E+01  0.28711242498E+01  0.00000000000E+00 0.  1.
</event>
<event>
 7    1  0.4878192E-011  0.5052886E+02  0.7816164E-02  0.1300439E+00
        -11   -1    0    0    0    0  0.00000000000E+00  0.00000000000E+00  0.45593999997E+02  0.45594000000E+02  0.51100000000E-03 0. -1.
         11   -1    0    0    0    0 -0.00000000000E+00 -0.00000000000E+00 -0.45593999997E+02  0.45594000000E+02  0.51100000000E-03 0.  1.
    9900012    2    1    2    0    0 -0.31953103972E+02 -0.13903863759E+02  0.20948685969E+02  0.50528859272E+02  0.29999998243E+02 0.  0.
        -12    1    1    2    0    0  0.31953103972E+02  0.13903863759E+02 -0.20948685969E+02  0.40659140728E+02  0.00000000000E+00 0.  1.
         11    1    3    3    0    0 -0.28849260249E+02 -0.18301702497E+02  0.65036544374E+01  0.34778292835E+02  0.51100000000E-03 0. -1.
        -11    1    3    3    0    0 -0.36929300055E+00  0.33168499307E+01  0.78077236309E+01  0.84910788090E+01  0.51100000000E-03 0.  1.
         12    1    3    3    0    0 -0.27345507232E+01  0.10809888074E+01  0.66373079008E+01  0.72594876285E+01  0.00000000000E+00 0. -1.
</event>
<event>
 7    1  0.4878192E-011  0.5052886E+02  0.7816164E-02  0.1300439E+00
        -11   -1    0    0    0    0  0.00000000000E+00  0.00000000000E+00  0.45593999997E+02  0.45594000000E+02  0.51100000000E-03 0.  1.
         11   -1    0    0    0    0 -0.00000000000E+00 -0.00000000000E+00 -0.45593999997E+02  0.45594000000E+02  0.51100000000E-03 0. -1.
    9900012    2    1    2    0    0 -0.28118708729E+02 -0.25971758351E+02 -0.13710277399E+02  0.50528859345E+02  0.29999998464E+02 0.  0.
        -12    1    1    2    0    0  0.28118708729E+02  0.25971758351E+02  0.13710277399E+02  0.40659140655E+02  0.00000000000E+00 0.  1.
         11    1    3    3    0    0 -0.31068700691E+02 -0.19271802369E+02 -0.57590290682E+01  0.37011254306E+02  0.51100000000E-03 0. -1.
        -11    1    3    3    0    0  0.14519741349E+01 -0.79323395116E+01 -0.82710205670E+01  0.11551624150E+02  0.51100000000E-03 0.  1.
        -12    1    3    3    0    0  0.14980178271E+01  0.12323835296E+01  0.31977223601E+00  0.19659808893E+01  0.00000000000E+00 0.  1.
</event>
<event>
 7    1  0.4878192E-011  0.5052886E+02  0.7816164E-02  0.1300439E+00
        -11   -1    0    0    0    0  0.00000000000E+00  0.00000000000E+00  0.45593999997E+02  0.45594000000E+02  0.51100000000E-03 0.  1.
         11   -1    0    0    0    0 -0.00000000000E+00 -0.00000000000E+00 -0.45593999997E+02  0.45594000000E+02  0.51100000000E-03 0. -1.
    9900012    2    1    2    0    0 -0.43552765633E+01 -0.38246681426E+02  0.13091559458E+02  0.50528855850E+02  0.29999987841E+02 0.  0.
        -12    1    1    2    0    0  0.43552765633E+01  0.38246681426E+02 -0.13091559458E+02  0.40659144150E+02  0.00000000000E+00 0.  1.
         11    1    3    3    0    0 -0.42782531662E+01 -0.11877359435E+02  0.12128910563E+02  0.17506729820E+02  0.51100000000E-03 0. -1.
        -11    1    3    3    0    0 -0.14970961770E+01 -0.27349816242E+01  0.77814264447E+01  0.83828407610E+01  0.51100000000E-03 0.  1.
         12    1    3    3    0    0  0.14200727798E+01 -0.23634340366E+02 -0.68187775501E+01  0.24639285268E+02  0.00000000000E+00 0. -1.
</event>
<event>
 7    1  0.4878192E-011  0.5052886E+02  0.7816164E-02  0.1300439E+00
        -11   -1    0    0    0    0  0.00000000000E+00  0.00000000000E+00  0.45593999997E+02  0.45594000000E+02  0.51100000000E-03 0. -1.
         11   -1    0    0    0    0 -0.00000000000E+00 -0.00000000000E+00 -0.45593999997E+02  0.45594000000E+02  0.51100000000E-03 0.  1.
    9900012    2    1    2    0    0 -0.31188682580E+02  0.13221054242E+02 -0.22486341315E+02  0.50528859059E+02  0.29999997596E+02 0.  0.
        -12    1    1    2    0    0  0.31188682580E+02 -0.13221054242E+02  0.22486341315E+02  0.40659140941E+02  0.00000000000E+00 0.  1.
         11    1    3    3    0    0 -0.11175423848E+02  0.11886596076E+02 -0.91583334077E+01  0.18709792504E+02  0.51100000000E-03 0.  1.
        -11    1    3    3    0    0  0.33847283343E+01  0.86403563822E+00 -0.66016087489E+01  0.74688808945E+01  0.51100000000E-03 0. -1.
        -12    1    3    3    0    0 -0.23397987066E+02  0.47042252757E+00 -0.67263991585E+01  0.24350185661E+02  0.00000000000E+00 0.  1.
</event>
<event>
 7    1  0.4878192E-011  0.5052886E+02  0.7816164E-02  0.1300439E+00
        -11   -1    0    0    0    0  0.00000000000E+00  0.00000000000E+00  0.45593999997E+02  0.45594000000E+02  0.51100000000E-03 0.  1.
         11   -1    0    0    0    0 -0.00000000000E+00 -0.00000000000E+00 -0.45593999997E+02  0.45594000000E+02  0.51100000000E-03 0. -1.
    9900012    2    1    2    0    0  0.21093962137E+02  0.34524281230E+02 -0.40354275877E+01  0.50528857008E+02  0.29999991360E+02 0.  0.
        -12    1    1    2    0    0 -0.21093962137E+02 -0.34524281230E+02  0.40354275877E+01  0.40659142992E+02  0.00000000000E+00 0.  1.
         11    1    3    3    0    0  0.18002552965E+02  0.23526928771E+02 -0.80422554803E+01  0.30696680018E+02  0.51100000000E-03 0. -1.
        -11    1    3    3    0    0 -0.63679717558E+01  0.54521047710E+01  0.26019062231E+01  0.87776094109E+01  0.51100000000E-03 0.  1.
        -12    1    3    3    0    0  0.94593809278E+01  0.55452476880E+01  0.14049216695E+01  0.11054567579E+02  0.00000000000E+00 0.  1.
</event>
<event>
 7    1  0.4878192E-011  0.5052886E+02  0.7816164E-02  0.1300439E+00
        -11   -1    0    0    0    0  0.00000000000E+00  0.00000000000E+00  0.45593999997E+02  0.45594000000E+02  0.51100000000E-03 0.  1.
         11   -1    0    0    0    0 -0.00000000000E+00 -0.00000000000E+00 -0.45593999997E+02  0.45594000000E+02  0.51100000000E-03 0. -1.
    9900012    2    1    2    0    0 -0.27713891802E+02 -0.28219721291E+02 -0.94208867763E+01  0.50528861099E+02  0.30000003795E+02 0.  0.
        -12    1    1    2    0    0  0.27713891802E+02  0.28219721291E+02  0.94208867763E+01  0.40659138901E+02  0.00000000000E+00 0.  1.
         11    1    3    3    0    0 -0.19791051203E+02 -0.11681856353E+02  0.24879138250E+01  0.23115821227E+02  0.51100000000E-03 0. -1.
        -11    1    3    3    0    0 -0.50122213625E+01 -0.18590570484E+02 -0.54062710608E+01  0.19998985999E+02  0.51100000000E-03 0.  1.
         12    1    3    3    0    0 -0.29106192367E+01  0.20527055462E+01 -0.65025295405E+01  0.74140538726E+01  0.00000000000E+00 0. -1.
</event>
<event>
 7    1  0.4878192E-011  0.5052885E+02  0.7816164E-02  0.1300439E+00
        -11   -1    0    0    0    0  0.00000000000E+00  0.00000000000E+00  0.45593999997E+02  0.45594000000E+02  0.51100000000E-03 0.  1.
         11   -1    0    0    0    0 -0.00000000000E+00 -0.00000000000E+00 -0.45593999997E+02  0.45594000000E+02  0.51100000000E-03 0. -1.
    9900012    2    1    2    0    0  0.18176049425E+02 -0.19111028213E+02 -0.30944572934E+02  0.50528846466E+02  0.29999959317E+02 0.  0.
        -12    1    1    2    0    0 -0.18176049425E+02  0.19111028213E+02  0.30944572934E+02  0.40659153534E+02  0.00000000000E+00 0.  1.
         11    1    3    3    0    0 -0.22545803822E+01 -0.60245397687E+01 -0.45429394525E+00  0.64486118951E+01  0.51100000000E-03 0. -1.
        -11    1    3    3    0    0  0.23592535513E+02 -0.14162996893E+02 -0.22943736576E+02  0.35827548915E+02  0.51100000000E-03 0.  1.
        -12    1    3    3    0    0 -0.31619057063E+01  0.10765084494E+01 -0.75465424128E+01  0.82526856553E+01  0.00000000000E+00 0.  1.
</event>
<event>
 7    1  0.4878192E-011  0.5052886E+02  0.7816164E-02  0.1300439E+00
        -11   -1    0    0    0    0  0.00000000000E+00  0.00000000000E+00  0.45593999997E+02  0.45594000000E+02  0.51100000000E-03 0.  1.
         11   -1    0    0    0    0 -0.00000000000E+00 -0.00000000000E+00 -0.45593999997E+02  0.45594000000E+02  0.51100000000E-03 0. -1.
    9900012    2    1    2    0    0  0.25293660255E+02  0.30772227282E+02 -0.81527111934E+01  0.50528856861E+02  0.29999990916E+02 0.  0.
        -12    1    1    2    0    0 -0.25293660255E+02 -0.30772227282E+02  0.81527111934E+01  0.40659143139E+02  0.00000000000E+00 0.  1.
         11    1    3    3    0    0  0.10293583517E+02 -0.42715388658E+01 -0.55545329682E+00  0.11158513993E+02  0.51100000000E-03 0. -1.
        -11    1    3    3    0    0  0.55873345230E+01  0.20884127664E+02 -0.38318126546E+01  0.21955588898E+02  0.51100000000E-03 0.  1.
         12    1    3    3    0    0  0.94127422143E+01  0.14159638484E+02 -0.37654452420E+01  0.17414753970E+02  0.00000000000E+00 0. -1.
</event>
<event>
 7    1  0.4878192E-011  0.5052886E+02  0.7816164E-02  0.1300439E+00
        -11   -1    0    0    0    0  0.00000000000E+00  0.00000000000E+00  0.45593999997E+02  0.45594000000E+02  0.51100000000E-03 0.  1.
         11   -1    0    0    0    0 -0.00000000000E+00 -0.00000000000E+00 -0.45593999997E+02  0.45594000000E+02  0.51100000000E-03 0. -1.
    9900012    2    1    2    0    0 -0.86739534134E+01  0.22280673380E+01 -0.39660612159E+02  0.50528857009E+02  0.29999991366E+02 0.  0.
        -12    1    1    2    0    0  0.86739534134E+01 -0.22280673380E+01  0.39660612159E+02  0.40659142991E+02  0.00000000000E+00 0.  1.
         11    1    3    3    0    0  0.54656045524E+01 -0.71196307373E+00  0.11773332252E+01  0.56361190837E+01  0.51100000000E-03 0. -1.
        -11    1    3    3    0    0 -0.56998581013E+01  0.71472801463E+01 -0.22082407833E+02  0.23899889787E+02  0.51100000000E-03 0.  1.
         12    1    3    3    0    0 -0.84396998644E+01 -0.42072497346E+01 -0.18755537551E+02  0.20992848139E+02  0.00000000000E+00 0. -1.
</event>
<event>
 7    1  0.4878192E-011  0.5052886E+02  0.7816164E-02  0.1300439E+00
        -11   -1    0    0    0    0  0.00000000000E+00  0.00000000000E+00  0.45593999997E+02  0.45594000000E+02  0.51100000000E-03 0. -1.
         11   -1    0    0    0    0 -0.00000000000E+00 -0.00000000000E+00 -0.45593999997E+02  0.45594000000E+02  0.51100000000E-03 0.  1.
    9900012    2    1    2    0    0 -0.36584076413E+02 -0.44380844185E+01  0.17177726939E+02  0.50528861506E+02  0.30000005033E+02 0.  0.
        -12    1    1    2    0    0  0.36584076413E+02  0.44380844185E+01 -0.17177726939E+02  0.40659138494E+02  0.00000000000E+00 0.  1.
         11    1    3    3    0    0 -0.14179891944E+02 -0.80866227741E+01  0.13168230847E+01  0.16376715993E+02  0.51100000000E-03 0. -1.
        -11    1    3    3    0    0 -0.46405869136E+01 -0.48959324354E+01  0.12432180025E+02  0.14144408851E+02  0.51100000000E-03 0.  1.
         12    1    3    3    0    0 -0.17763597555E+02  0.85444707909E+01  0.34287238302E+01  0.20007736661E+02  0.00000000000E+00 0. -1.
</event>
<event>
 7    1  0.4878192E-011  0.5052887E+02  0.7816164E-02  0.1300439E+00
        -11   -1    0    0    0    0  0.00000000000E+00  0.00000000000E+00  0.45593999997E+02  0.45594000000E+02  0.51100000000E-03 0.  1.
         11   -1    0    0    0    0 -0.00000000000E+00 -0.00000000000E+00 -0.45593999997E+02  0.45594000000E+02  0.51100000000E-03 0. -1.
    9900012    2    1    2    0    0  0.18911875026E+02  0.33841403315E+02  0.12258269289E+02  0.50528871120E+02  0.30000034255E+02 0.  0.
        -12    1    1    2    0    0 -0.18911875026E+02 -0.33841403315E+02 -0.12258269289E+02  0.40659128880E+02  0.00000000000E+00 0.  1.
         11    1    3    3    0    0  0.18357725396E+01 -0.34089799007E+01 -0.27024010694E+01  0.47216709523E+01  0.51100000000E-03 0. -1.
        -11    1    3    3    0    0  0.13195084663E+02  0.27302841552E+02  0.17249292157E+02  0.34886867103E+02  0.51100000000E-03 0.  1.
         12    1    3    3    0    0  0.38810178237E+01  0.99475416640E+01 -0.22886217982E+01  0.10920333065E+02  0.00000000000E+00 0. -1.
</event>
<event>
 7    1  0.4878192E-011  0.5052885E+02  0.7816164E-02  0.1300439E+00
        -11   -1    0    0    0    0  0.00000000000E+00  0.00000000000E+00  0.45593999997E+02  0.45594000000E+02  0.51100000000E-03 0.  1.
         11   -1    0    0    0    0 -0.00000000000E+00 -0.00000000000E+00 -0.45593999997E+02  0.45594000000E+02  0.51100000000E-03 0. -1.
    9900012    2    1    2    0    0  0.81668041420E+01 -0.14892479314E+02 -0.36941626569E+02  0.50528850924E+02  0.29999972870E+02 0.  0.
        -12    1    1    2    0    0 -0.81668041420E+01  0.14892479314E+02  0.36941626569E+02  0.40659149076E+02  0.00000000000E+00 0.  1.
         11    1    3    3    0    0  0.33321820960E+01 -0.19358273293E+02 -0.91795862946E+01  0.21682042967E+02  0.51100000000E-03 0. -1.
        -11    1    3    3    0    0  0.39002046920E+01  0.36471261602E+01 -0.26649321780E+02  0.27179026426E+02  0.51100000000E-03 0.  1.
         12    1    3    3    0    0  0.93441735402E+00  0.81866781940E+00 -0.11127184946E+01  0.16677815319E+01  0.00000000000E+00 0. -1.
</event>
<event>
 7    1  0.4878192E-011  0.5052884E+02  0.7816164E-02  0.1300439E+00
        -11   -1    0    0    0    0  0.00000000000E+00  0.00000000000E+00  0.45593999997E+02  0.45594000000E+02  0.51100000000E-03 0.  1.
         11   -1    0    0    0    0 -0.00000000000E+00 -0.00000000000E+00 -0.45593999997E+02  0.45594000000E+02  0.51100000000E-03 0. -1.
    9900012    2    1    2    0    0 -0.78409787056E+01 -0.32410359156E+02 -0.23264880848E+02  0.50528843484E+02  0.29999950255E+02 0.  0.
        -12    1    1    2    0    0  0.78409787056E+01  0.32410359156E+02  0.23264880848E+02  0.40659156516E+02  0.00000000000E+00 0.  1.
         11    1    3    3    0    0  0.86526376485E+01 -0.22080393163E+02 -0.61082468074E+01  0.24489233958E+02  0.51100000000E-03 0. -1.
        -11    1    3    3    0    0 -0.10748402213E+02 -0.72372673713E+01 -0.12657573535E+02  0.18114092779E+02  0.51100000000E-03 0.  1.
         12    1    3    3    0    0 -0.57452141408E+01 -0.30926986215E+01 -0.44990605056E+01  0.79255167478E+01  0.00000000000E+00 0. -1.
</event>
<event>
 7    1  0.4878192E-011  0.5052883E+02  0.7816164E-02  0.1300439E+00
        -11   -1    0    0    0    0  0.00000000000E+00  0.00000000000E+00  0.45593999997E+02  0.45594000000E+02  0.51100000000E-03 0.  1.
         11   -1    0    0    0    0 -0.00000000000E+00 -0.00000000000E+00 -0.45593999997E+02  0.45594000000E+02  0.51100000000E-03 0. -1.
    9900012    2    1    2    0    0 -0.36953196671E+02  0.16894944113E+02 -0.14798086300E+01  0.50528834804E+02  0.29999923872E+02 0.  0.
        -12    1    1    2    0    0  0.36953196671E+02 -0.16894944113E+02  0.14798086300E+01  0.40659165196E+02  0.00000000000E+00 0.  1.
         11    1    3    3    0    0 -0.26177019029E+02  0.60168072278E+01  0.19713955079E+01  0.26931852795E+02  0.51100000000E-03 0. -1.
        -11    1    3    3    0    0 -0.84489401904E+01  0.67379539979E+01 -0.10519481344E+02  0.15081250029E+02  0.51100000000E-03 0.  1.
        -12    1    3    3    0    0 -0.23272374521E+01  0.41401828872E+01  0.70682772065E+01  0.85157319807E+01  0.00000000000E+00 0.  1.
</event>
<event>
 7    1  0.4878192E-011  0.5052886E+02  0.7816164E-02  0.1300439E+00
        -11   -1    0    0    0    0  0.00000000000E+00  0.00000000000E+00  0.45593999997E+02  0.45594000000E+02  0.51100000000E-03 0.  1.
         11   -1    0    0    0    0 -0.00000000000E+00 -0.00000000000E+00 -0.45593999997E+02  0.45594000000E+02  0.51100000000E-03 0. -1.
    9900012    2    1    2    0    0 -0.20077128118E+02  0.14415417851E+01 -0.35326989082E+02  0.50528864817E+02  0.30000015099E+02 0.  0.
        -12    1    1    2    0    0  0.20077128118E+02 -0.14415417851E+01  0.35326989082E+02  0.40659135183E+02  0.00000000000E+00 0.  1.
         11    1    3    3    0    0 -0.12786536516E+02  0.11455761396E+02 -0.16108767913E+02  0.23541928323E+02  0.51100000000E-03 0. -1.
        -11    1    3    3    0    0 -0.68635354111E+01 -0.31989453894E+01 -0.18657122054E+02  0.20135281809E+02  0.51100000000E-03 0.  1.
         12    1    3    3    0    0 -0.42705619107E+00 -0.68152742214E+01 -0.56109911498E+00  0.68516546848E+01  0.00000000000E+00 0. -1.
</event>
<event>
 7    1  0.4878192E-011  0.5052886E+02  0.7816164E-02  0.1300439E+00
        -11   -1    0    0    0    0  0.00000000000E+00  0.00000000000E+00  0.45593999997E+02  0.45594000000E+02  0.51100000000E-03 0. -1.
         11   -1    0    0    0    0 -0.00000000000E+00 -0.00000000000E+00 -0.45593999997E+02  0.45594000000E+02  0.51100000000E-03 0.  1.
    9900012    2    1    2    0    0  0.28517412509E+01 -0.69305651239E+01  0.39962490447E+02  0.50528858300E+02  0.29999995287E+02 0.  0.
        -12    1    1    2    0    0 -0.28517412509E+01  0.69305651239E+01 -0.39962490447E+02  0.40659141700E+02  0.00000000000E+00 0.  1.
         11    1    3    3    0    0 -0.83212631775E+01 -0.12453426185E+02  0.27075395900E+02  0.30942015255E+02  0.51100000000E-03 0. -1.
        -11    1    3    3    0    0  0.53540478347E+01 -0.13275658383E+01  0.66822153554E+01  0.86648867037E+01  0.51100000000E-03 0.  1.
         12    1    3    3    0    0  0.58189565937E+01  0.68504268991E+01  0.62048791910E+01  0.10921956341E+02  0.00000000000E+00 0. -1.
</event>
<event>
 7    1  0.4878192E-011  0.5052886E+02  0.7816164E-02  0.1300439E+00
        -11   -1    0    0    0    0  0.00000000000E+00  0.00000000000E+00  0.45593999997E+02  0.45594000000E+02  0.51100000000E-03 0.  1.
         11   -1    0    0    0    0 -0.00000000000E+00 -0.00000000000E+00 -0.45593999997E+02  0.45594000000E+02  0.51100000000E-03 0. -1.
    9900012    2    1    2    0    0 -0.25288270872E+02  0.29346608958E+02 -0.12346883616E+02  0.50528860363E+02  0.30000001558E+02 0.  0.
        -12    1    1    2    0    0  0.25288270872E+02 -0.29346608958E+02  0.12346883616E+02  0.40659139637E+02  0.00000000000E+00 0.  1.
         11    1    3    3    0    0 -0.12944465725E+02  0.98316806417E+01 -0.36990140117E+01  0.16670448166E+02  0.51100000000E-03 0. -1.
        -11    1    3    3    0    0  0.36957972658E+01  0.15311289784E+02 -0.68632691115E+01  0.17181355460E+02  0.51100000000E-03 0.  1.
        -12    1    3    3    0    0 -0.16039602413E+02  0.42036385322E+01 -0.17846004930E+01  0.16677056737E+02  0.00000000000E+00 0.  1.
</event>
<event>
 7    1  0.4878192E-011  0.5052886E+02  0.7816164E-02  0.1300439E+00
        -11   -1    0    0    0    0  0.00000000000E+00  0.00000000000E+00  0.45593999997E+02  0.45594000000E+02  0.51100000000E-03 0. -1.
         11   -1    0    0    0    0 -0.00000000000E+00 -0.00000000000E+00 -0.45593999997E+02  0.45594000000E+02  0.51100000000E-03 0.  1.
    9900012    2    1    2    0    0 -0.30171291421E+02  0.16496271007E+02  0.21696352358E+02  0.50528862174E+02  0.30000007063E+02 0.  0.
        -12    1    1    2    0    0  0.30171291421E+02 -0.16496271007E+02 -0.21696352358E+02  0.40659137826E+02  0.00000000000E+00 0.  1.
         11    1    3    3    0    0 -0.62081626528E+00  0.60713337751E+00  0.17260294975E+01  0.19321495441E+01  0.51100000000E-03 0. -1.
        -11    1    3    3    0    0 -0.21950847473E+02  0.22851756314E+02  0.77698087403E+01  0.32625333708E+02  0.51100000000E-03 0.  1.
        -12    1    3    3    0    0 -0.75996276827E+01 -0.69626186847E+01  0.12200514120E+02  0.15971378922E+02  0.00000000000E+00 0.  1.
</event>
<event>
 7    1  0.4878192E-011  0.5052887E+02  0.7816164E-02  0.1300439E+00
        -11   -1    0    0    0    0  0.00000000000E+00  0.00000000000E+00  0.45593999997E+02  0.45594000000E+02  0.51100000000E-03 0.  1.
         11   -1    0    0    0    0 -0.00000000000E+00 -0.00000000000E+00 -0.45593999997E+02  0.45594000000E+02  0.51100000000E-03 0. -1.
    9900012    2    1    2    0    0 -0.41380792690E+01 -0.20280042659E+02 -0.34996584554E+02  0.50528871127E+02  0.30000034277E+02 0.  0.
        -12    1    1    2    0    0  0.41380792690E+01  0.20280042659E+02  0.34996584554E+02  0.40659128873E+02  0.00000000000E+00 0.  1.
         11    1    3    3    0    0 -0.50651094097E+01 -0.15079479013E+02 -0.32075940372E+02  0.35803798285E+02  0.51100000000E-03 0. -1.
        -11    1    3    3    0    0  0.14451940413E+01 -0.92837291589E+01  0.44823881098E+00  0.94062283199E+01  0.51100000000E-03 0.  1.
        -12    1    3    3    0    0 -0.51816390059E+00  0.40831655124E+01 -0.33688829928E+01  0.53188445220E+01  0.00000000000E+00 0.  1.
</event>
<event>
 7    1  0.4878192E-011  0.5052888E+02  0.7816164E-02  0.1300439E+00
        -11   -1    0    0    0    0  0.00000000000E+00  0.00000000000E+00  0.45593999997E+02  0.45594000000E+02  0.51100000000E-03 0. -1.
         11   -1    0    0    0    0 -0.00000000000E+00 -0.00000000000E+00 -0.45593999997E+02  0.45594000000E+02  0.51100000000E-03 0.  1.
    9900012    2    1    2    0    0 -0.24569858472E+02  0.21627921095E+02 -0.24118861335E+02  0.50528875706E+02  0.30000048196E+02 0.  0.
        -12    1    1    2    0    0  0.24569858472E+02 -0.21627921095E+02  0.24118861335E+02  0.40659124294E+02  0.00000000000E+00 0.  1.
         11    1    3    3    0    0  0.33228881353E-01  0.87199915289E+01  0.44350085949E+01  0.97830801857E+01  0.51100000000E-03 0. -1.
        -11    1    3    3    0    0 -0.14479703532E+02  0.43863671178E+01 -0.10735631226E+02  0.18551436843E+02  0.51100000000E-03 0.  1.
         12    1    3    3    0    0 -0.10123383821E+02  0.85215624479E+01 -0.17818238705E+02  0.22194358677E+02  0.00000000000E+00 0. -1.
</event>
<event>
 7    1  0.4878192E-011  0.5052886E+02  0.7816164E-02  0.1300439E+00
        -11   -1    0    0    0    0  0.00000000000E+00  0.00000000000E+00  0.45593999997E+02  0.45594000000E+02  0.51100000000E-03 0.  1.
         11   -1    0    0    0    0 -0.00000000000E+00 -0.00000000000E+00 -0.45593999997E+02  0.45594000000E+02  0.51100000000E-03 0. -1.
    9900012    2    1    2    0    0  0.19981762513E+02 -0.59384986641E+01 -0.34908866019E+02  0.50528861713E+02  0.30000005664E+02 0.  0.
        -12    1    1    2    0    0 -0.19981762513E+02  0.59384986641E+01  0.34908866019E+02  0.40659138287E+02  0.00000000000E+00 0.  1.
         11    1    3    3    0    0 -0.14746994985E+01  0.54408068666E+01 -0.39377687063E+01  0.68762737450E+01  0.51100000000E-03 0. -1.
        -11    1    3    3    0    0  0.23844550347E+02 -0.13606744395E+02 -0.26929316088E+02  0.38456392701E+02  0.51100000000E-03 0.  1.
        -12    1    3    3    0    0 -0.23880883361E+01  0.22274388647E+01 -0.40417812241E+01  0.51961952677E+01  0.00000000000E+00 0.  1.
</event>
<event>
 7    1  0.4878192E-011  0.5052889E+02  0.7816164E-02  0.1300439E+00
        -11   -1    0    0    0    0  0.00000000000E+00  0.00000000000E+00  0.45593999997E+02  0.45594000000E+02  0.51100000000E-03 0.  1.
         11   -1    0    0    0    0 -0.00000000000E+00 -0.00000000000E+00 -0.45593999997E+02  0.45594000000E+02  0.51100000000E-03 0. -1.
    9900012    2    1    2    0    0  0.31454316251E+02  0.60793405463E+01 -0.25036591766E+02  0.50528888849E+02  0.30000088147E+02 0.  0.
        -12    1    1    2    0    0 -0.31454316251E+02 -0.60793405463E+01  0.25036591766E+02  0.40659111151E+02  0.00000000000E+00 0.  1.
         11    1    3    3    0    0  0.21703262697E+01  0.44369406923E-01 -0.31491355043E+01  0.38248319501E+01  0.51100000000E-03 0. -1.
        -11    1    3    3    0    0  0.12644488651E+02 -0.98111241357E+01 -0.16734590399E+02  0.23155728581E+02  0.51100000000E-03 0.  1.
        -12    1    3    3    0    0  0.16639501330E+02  0.15846095275E+02 -0.51528658633E+01  0.23548328318E+02  0.00000000000E+00 0.  1.
</event>
<event>
 7    1  0.4878192E-011  0.5052886E+02  0.7816164E-02  0.1300439E+00
        -11   -1    0    0    0    0  0.00000000000E+00  0.00000000000E+00  0.45593999997E+02  0.45594000000E+02  0.51100000000E-03 0.  1.
         11   -1    0    0    0    0 -0.00000000000E+00 -0.00000000000E+00 -0.45593999997E+02  0.45594000000E+02  0.51100000000E-03 0. -1.
    9900012    2    1    2    0    0 -0.13906082744E+02  0.31571083407E+02 -0.21518668319E+02  0.50528861655E+02  0.30000005485E+02 0.  0.
        -12    1    1    2    0    0  0.13906082744E+02 -0.31571083407E+02  0.21518668319E+02  0.40659138345E+02  0.00000000000E+00 0.  1.
         11    1    3    3    0    0  0.39947069819E+01  0.35764990923E+01 -0.94971935659E+01  0.10906223706E+02  0.51100000000E-03 0. -1.
        -11    1    3    3    0    0 -0.17025109276E+02  0.30370032183E+02 -0.12598723180E+02  0.37025950719E+02  0.51100000000E-03 0.  1.
        -12    1    3    3    0    0 -0.87568044974E+00 -0.23754478678E+01  0.57724842728E+00  0.25966872298E+01  0.00000000000E+00 0.  1.
</event>
<event>
 7    1  0.4878192E-011  0.5052884E+02  0.7816164E-02  0.1300439E+00
        -11   -1    0    0    0    0  0.00000000000E+00  0.00000000000E+00  0.45593999997E+02  0.45594000000E+02  0.51100000000E-03 0.  1.
         11   -1    0    0    0    0 -0.00000000000E+00 -0.00000000000E+00 -0.45593999997E+02  0.45594000000E+02  0.51100000000E-03 0. -1.
    9900012    2    1    2    0    0 -0.16038383435E+02  0.35096589848E+02 -0.12812774556E+02  0.50528836777E+02  0.29999929868E+02 0.  0.
        -12    1    1    2    0    0  0.16038383435E+02 -0.35096589848E+02  0.12812774556E+02  0.40659163223E+02  0.00000000000E+00 0.  1.
         11    1    3    3    0    0  0.26851144405E-01  0.13271977588E+02 -0.76499572604E+01  0.15318875822E+02  0.51100000000E-03 0.  1.
        -11    1    3    3    0    0 -0.16867052829E+02  0.92684882398E+01  0.39851600419E+01  0.19654105072E+02  0.51100000000E-03 0. -1.
         12    1    3    3    0    0  0.80181824922E+00  0.12556124020E+02 -0.91479773372E+01  0.15555855883E+02  0.00000000000E+00 0. -1.
</event>
<event>
 7    1  0.4878192E-011  0.5052884E+02  0.7816164E-02  0.1300439E+00
        -11   -1    0    0    0    0  0.00000000000E+00  0.00000000000E+00  0.45593999997E+02  0.45594000000E+02  0.51100000000E-03 0.  1.
         11   -1    0    0    0    0 -0.00000000000E+00 -0.00000000000E+00 -0.45593999997E+02  0.45594000000E+02  0.51100000000E-03 0. -1.
    9900012    2    1    2    0    0 -0.31378286718E+02  0.10242103594E+02 -0.23741726532E+02  0.50528841842E+02  0.29999945264E+02 0.  0.
        -12    1    1    2    0    0  0.31378286718E+02 -0.10242103594E+02  0.23741726532E+02  0.40659158158E+02  0.00000000000E+00 0.  1.
         11    1    3    3    0    0 -0.83809466940E+01 -0.69431129075E+01 -0.13025127638E+02  0.16973539247E+02  0.51100000000E-03 0. -1.
        -11    1    3    3    0    0 -0.45320205557E+01  0.78060712839E+01 -0.90431404419E+01  0.12777024244E+02  0.51100000000E-03 0.  1.
         12    1    3    3    0    0 -0.18465319468E+02  0.93791452174E+01 -0.16734584525E+01  0.20778278352E+02  0.00000000000E+00 0. -1.
</event>
<event>
 7    1  0.4878192E-011  0.5052886E+02  0.7816164E-02  0.1300439E+00
        -11   -1    0    0    0    0  0.00000000000E+00  0.00000000000E+00  0.45593999997E+02  0.45594000000E+02  0.51100000000E-03 0. -1.
         11   -1    0    0    0    0 -0.00000000000E+00 -0.00000000000E+00 -0.45593999997E+02  0.45594000000E+02  0.51100000000E-03 0.  1.
    9900012    2    1    2    0    0 -0.23321334235E+02  0.15613678984E+02 -0.29419287165E+02  0.50528855159E+02  0.29999985741E+02 0.  0.
        -12    1    1    2    0    0  0.23321334235E+02 -0.15613678984E+02  0.29419287165E+02  0.40659144841E+02  0.00000000000E+00 0.  1.
         11    1    3    3    0    0 -0.39469423073E+01  0.12988446143E+02 -0.38714347537E+01  0.14116164284E+02  0.51100000000E-03 0. -1.
        -11    1    3    3    0    0 -0.22080229143E+02  0.43814100795E+01 -0.23736144912E+02  0.32712961480E+02  0.51100000000E-03 0.  1.
        -12    1    3    3    0    0  0.27058372150E+01 -0.17561772387E+01 -0.18117074995E+01  0.36997293944E+01  0.00000000000E+00 0.  1.
</event>
<event>
 7    1  0.4878192E-011  0.5052886E+02  0.7816164E-02  0.1300439E+00
        -11   -1    0    0    0    0  0.00000000000E+00  0.00000000000E+00  0.45593999997E+02  0.45594000000E+02  0.51100000000E-03 0. -1.
         11   -1    0    0    0    0 -0.00000000000E+00 -0.00000000000E+00 -0.45593999997E+02  0.45594000000E+02  0.51100000000E-03 0.  1.
    9900012    2    1    2    0    0  0.18591261163E+02  0.23313741885E+02 -0.27640553744E+02  0.50528858795E+02  0.29999996792E+02 0.  0.
        -12    1    1    2    0    0 -0.18591261163E+02 -0.23313741885E+02  0.27640553744E+02  0.40659141205E+02  0.00000000000E+00 0.  1.
         11    1    3    3    0    0  0.13954792758E+02  0.14514370089E+02 -0.50402032360E+01  0.20755886609E+02  0.51100000000E-03 0. -1.
        -11    1    3    3    0    0 -0.10496740668E+00 -0.47089715670E+01 -0.33376886079E+01  0.57728326565E+01  0.51100000000E-03 0.  1.
         12    1    3    3    0    0  0.47414358117E+01  0.13508343362E+02 -0.19262661900E+02  0.24000139529E+02  0.00000000000E+00 0. -1.
</event>
<event>
 7    1  0.4878192E-011  0.5052885E+02  0.7816164E-02  0.1300439E+00
        -11   -1    0    0    0    0  0.00000000000E+00  0.00000000000E+00  0.45593999997E+02  0.45594000000E+02  0.51100000000E-03 0. -1.
         11   -1    0    0    0    0 -0.00000000000E+00 -0.00000000000E+00 -0.45593999997E+02  0.45594000000E+02  0.51100000000E-03 0.  1.
    9900012    2    1    2    0    0 -0.29096737309E+02 -0.28342293737E+02 -0.18057058232E+01  0.50528852077E+02  0.29999976372E+02 0.  0.
        -12    1    1    2    0    0  0.29096737309E+02  0.28342293737E+02  0.18057058232E+01  0.40659147923E+02  0.00000000000E+00 0.  1.
         11    1    3    3    0    0 -0.52558238401E+01 -0.36477103803E+01 -0.15064866510E-01  0.63976325674E+01  0.51100000000E-03 0. -1.
        -11    1    3    3    0    0 -0.21213716339E+02 -0.43671489565E+01 -0.73883304243E+01  0.22884081315E+02  0.51100000000E-03 0.  1.
        -12    1    3    3    0    0 -0.26271971300E+01 -0.20327434400E+02  0.55976894676E+01  0.21247138194E+02  0.00000000000E+00 0.  1.
</event>
<event>
 7    1  0.4878192E-011  0.5052886E+02  0.7816164E-02  0.1300439E+00
        -11   -1    0    0    0    0  0.00000000000E+00  0.00000000000E+00  0.45593999997E+02  0.45594000000E+02  0.51100000000E-03 0.  1.
         11   -1    0    0    0    0 -0.00000000000E+00 -0.00000000000E+00 -0.45593999997E+02  0.45594000000E+02  0.51100000000E-03 0. -1.
    9900012    2    1    2    0    0  0.36237787093E+02  0.10192559583E+02 -0.15365552203E+02  0.50528859837E+02  0.29999999962E+02 0.  0.
        -12    1    1    2    0    0 -0.36237787093E+02 -0.10192559583E+02  0.15365552203E+02  0.40659140163E+02  0.00000000000E+00 0.  1.
         11    1    3    3    0    0  0.81948399297E+01 -0.82459157439E+01 -0.63594036289E+01  0.13251133639E+02  0.51100000000E-03 0. -1.
        -11    1    3    3    0    0  0.27163116621E+02  0.19955024206E+02 -0.66732393929E+01  0.34359424033E+02  0.51100000000E-03 0.  1.
        -12    1    3    3    0    0  0.87983054245E+00 -0.15165488784E+01 -0.23329091812E+01  0.29183021660E+01  0.00000000000E+00 0.  1.
</event>
<event>
 7    1  0.4878192E-011  0.5052887E+02  0.7816164E-02  0.1300439E+00
        -11   -1    0    0    0    0  0.00000000000E+00  0.00000000000E+00  0.45593999997E+02  0.45594000000E+02  0.51100000000E-03 0.  1.
         11   -1    0    0    0    0 -0.00000000000E+00 -0.00000000000E+00 -0.45593999997E+02  0.45594000000E+02  0.51100000000E-03 0. -1.
    9900012    2    1    2    0    0  0.62517335327E+00 -0.32364242134E+02 -0.24603456475E+02  0.50528867187E+02  0.30000022300E+02 0.  0.
        -12    1    1    2    0    0 -0.62517335327E+00  0.32364242134E+02  0.24603456475E+02  0.40659132813E+02  0.00000000000E+00 0.  1.
         11    1    3    3    0    0  0.84681508075E+00 -0.34355216018E+01 -0.93215972371E+01  0.99705606547E+01  0.51100000000E-03 0. -1.
        -11    1    3    3    0    0 -0.76437522660E+00 -0.22972875871E+02  0.12081279813E+01  0.23017316715E+02  0.51100000000E-03 0.  1.
        -12    1    3    3    0    0  0.54273349912E+00 -0.59558446613E+01 -0.16489987219E+02  0.17540989817E+02  0.00000000000E+00 0.  1.
</event>
<event>
 7    1  0.4878192E-011  0.5052886E+02  0.7816164E-02  0.1300439E+00
        -11   -1    0    0    0    0  0.00000000000E+00  0.00000000000E+00  0.45593999997E+02  0.45594000000E+02  0.51100000000E-03 0. -1.
         11   -1    0    0    0    0 -0.00000000000E+00 -0.00000000000E+00 -0.45593999997E+02  0.45594000000E+02  0.51100000000E-03 0.  1.
    9900012    2    1    2    0    0  0.26272811370E+02  0.18341320789E+02  0.25030006060E+02  0.50528857499E+02  0.29999992854E+02 0.  0.
        -12    1    1    2    0    0 -0.26272811370E+02 -0.18341320789E+02 -0.25030006060E+02  0.40659142501E+02  0.00000000000E+00 0.  1.
         11    1    3    3    0    0 -0.53347391904E+01  0.18112141394E+01  0.40974279003E+01  0.69662654663E+01  0.51100000000E-03 0. -1.
        -11    1    3    3    0    0  0.21705648679E+02  0.49595700758E+01  0.82509290491E+01  0.23744690993E+02  0.51100000000E-03 0.  1.
         12    1    3    3    0    0  0.99019018813E+01  0.11570536574E+02  0.12681649110E+02  0.19817901040E+02  0.00000000000E+00 0. -1.
</event>
<event>
 7    1  0.4878192E-011  0.5052886E+02  0.7816164E-02  0.1300439E+00
        -11   -1    0    0    0    0  0.00000000000E+00  0.00000000000E+00  0.45593999997E+02  0.45594000000E+02  0.51100000000E-03 0. -1.
         11   -1    0    0    0    0 -0.00000000000E+00 -0.00000000000E+00 -0.45593999997E+02  0.45594000000E+02  0.51100000000E-03 0.  1.
    9900012    2    1    2    0    0  0.29456817457E+02 -0.18450624649E+02  0.21095873432E+02  0.50528861784E+02  0.30000005878E+02 0.  0.
        -12    1    1    2    0    0 -0.29456817457E+02  0.18450624649E+02 -0.21095873432E+02  0.40659138216E+02  0.00000000000E+00 0.  1.
         11    1    3    3    0    0  0.15430735351E+02 -0.14984498870E+02  0.10504890075E+01  0.21534770193E+02  0.51100000000E-03 0. -1.
        -11    1    3    3    0    0  0.62806365068E+01 -0.42048207843E+00  0.19681281608E+02  0.20663398706E+02  0.51100000000E-03 0.  1.
        -12    1    3    3    0    0  0.77454455990E+01 -0.30456437009E+01  0.36410281703E+00  0.83306928849E+01  0.00000000000E+00 0.  1.
</event>
<event>
 7    1  0.4878192E-011  0.5052885E+02  0.7816164E-02  0.1300439E+00
        -11   -1    0    0    0    0  0.00000000000E+00  0.00000000000E+00  0.45593999997E+02  0.45594000000E+02  0.51100000000E-03 0. -1.
         11   -1    0    0    0    0 -0.00000000000E+00 -0.00000000000E+00 -0.45593999997E+02  0.45594000000E+02  0.51100000000E-03 0.  1.
    9900012    2    1    2    0    0  0.36304313358E+02 -0.17478485901E+02  0.54466254880E+01  0.50528851374E+02  0.29999974237E+02 0.  0.
        -12    1    1    2    0    0 -0.36304313358E+02  0.17478485901E+02 -0.54466254880E+01  0.40659148626E+02  0.00000000000E+00 0.  1.
         11    1    3    3    0    0  0.69690341311E+01 -0.91569069356E+01  0.10247721829E+02  0.15408834618E+02  0.51100000000E-03 0. -1.
        -11    1    3    3    0    0  0.15389748796E+02  0.24698664403E+01 -0.74728035330E+01  0.17285467918E+02  0.51100000000E-03 0.  1.
        -12    1    3    3    0    0  0.13945530430E+02 -0.10791445406E+02  0.26717071917E+01  0.17834548838E+02  0.00000000000E+00 0.  1.
</event>
<event>
 7    1  0.4878192E-011  0.5052886E+02  0.7816164E-02  0.1300439E+00
        -11   -1    0    0    0    0  0.00000000000E+00  0.00000000000E+00  0.45593999997E+02  0.45594000000E+02  0.51100000000E-03 0.  1.
         11   -1    0    0    0    0 -0.00000000000E+00 -0.00000000000E+00 -0.45593999997E+02  0.45594000000E+02  0.51100000000E-03 0. -1.
    9900012    2    1    2    0    0  0.31717359911E+02 -0.26789021600E+01 -0.25298194105E+02  0.50528855131E+02  0.29999985657E+02 0.  0.
        -12    1    1    2    0    0 -0.31717359911E+02  0.26789021600E+01  0.25298194105E+02  0.40659144869E+02  0.00000000000E+00 0.  1.
         11    1    3    3    0    0  0.20959028604E+02 -0.99036316252E+01 -0.19939413544E+02  0.30576837837E+02  0.51100000000E-03 0. -1.
        -11    1    3    3    0    0 -0.67588349721E+00  0.75902194874E+01 -0.89778663644E+00  0.76729571532E+01  0.51100000000E-03 0.  1.
         12    1    3    3    0    0  0.11434214804E+02 -0.36549002218E+00 -0.44609939243E+01  0.12279060141E+02  0.00000000000E+00 0. -1.
</event>
<event>
 7    1  0.4878192E-011  0.5052889E+02  0.7816164E-02  0.1300439E+00
        -11   -1    0    0    0    0  0.00000000000E+00  0.00000000000E+00  0.45593999997E+02  0.45594000000E+02  0.51100000000E-03 0.  1.
         11   -1    0    0    0    0 -0.00000000000E+00 -0.00000000000E+00 -0.45593999997E+02  0.45594000000E+02  0.51100000000E-03 0. -1.
    9900012    2    1    2    0    0  0.20656841363E+02  0.20957345314E+02 -0.28057936311E+02  0.50528890225E+02  0.30000092327E+02 0.  0.
        -12    1    1    2    0    0 -0.20656841363E+02 -0.20957345314E+02  0.28057936311E+02  0.40659109775E+02  0.00000000000E+00 0.  1.
         11    1    3    3    0    0  0.16841150510E+01 -0.29777415548E+01 -0.16983930153E+02  0.17325041760E+02  0.51100000000E-03 0. -1.
        -11    1    3    3    0    0  0.16376351496E+02  0.15957625655E+02 -0.72795759599E+01  0.23996310785E+02  0.51100000000E-03 0.  1.
         12    1    3    3    0    0  0.25963748152E+01  0.79774612137E+01 -0.37944301978E+01  0.92075376797E+01  0.00000000000E+00 0. -1.
</event>
<event>
 7    1  0.4878192E-011  0.5052886E+02  0.7816164E-02  0.1300439E+00
        -11   -1    0    0    0    0  0.00000000000E+00  0.00000000000E+00  0.45593999997E+02  0.45594000000E+02  0.51100000000E-03 0.  1.
         11   -1    0    0    0    0 -0.00000000000E+00 -0.00000000000E+00 -0.45593999997E+02  0.45594000000E+02  0.51100000000E-03 0. -1.
    9900012    2    1    2    0    0 -0.91643452510E+01  0.27467276407E+02 -0.28543457365E+02  0.50528862584E+02  0.30000008310E+02 0.  0.
        -12    1    1    2    0    0  0.91643452510E+01 -0.27467276407E+02  0.28543457365E+02  0.40659137416E+02  0.00000000000E+00 0.  1.
         11    1    3    3    0    0 -0.10044255492E+02  0.13107762456E+02 -0.16788873713E+02  0.23549241725E+02  0.51100000000E-03 0. -1.
        -11    1    3    3    0    0 -0.52167264871E+01  0.11042716358E+02  0.12114588399E+01  0.12272874667E+02  0.51100000000E-03 0.  1.
         12    1    3    3    0    0  0.60966367282E+01  0.33167975926E+01 -0.12966042492E+02  0.14706746192E+02  0.00000000000E+00 0. -1.
</event>
<event>
 7    1  0.4878192E-011  0.5052886E+02  0.7816164E-02  0.1300439E+00
        -11   -1    0    0    0    0  0.00000000000E+00  0.00000000000E+00  0.45593999997E+02  0.45594000000E+02  0.51100000000E-03 0. -1.
         11   -1    0    0    0    0 -0.00000000000E+00 -0.00000000000E+00 -0.45593999997E+02  0.45594000000E+02  0.51100000000E-03 0.  1.
    9900012    2    1    2    0    0 -0.15428554419E+02  0.31721937495E+02  0.20219895452E+02  0.50528858568E+02  0.29999996103E+02 0.  0.
        -12    1    1    2    0    0  0.15428554419E+02 -0.31721937495E+02 -0.20219895452E+02  0.40659141432E+02  0.00000000000E+00 0.  1.
         11    1    3    3    0    0  0.11471703655E+01  0.16543579456E+02  0.33957193345E+01  0.16927401783E+02  0.51100000000E-03 0. -1.
        -11    1    3    3    0    0 -0.18279231977E+02  0.56380645330E+01  0.13260930955E+02  0.23275961493E+02  0.51100000000E-03 0.  1.
        -12    1    3    3    0    0  0.17035071924E+01  0.95402935063E+01  0.35632451624E+01  0.10325495292E+02  0.00000000000E+00 0.  1.
</event>
<event>
 7    1  0.4878192E-011  0.5052886E+02  0.7816164E-02  0.1300439E+00
        -11   -1    0    0    0    0  0.00000000000E+00  0.00000000000E+00  0.45593999997E+02  0.45594000000E+02  0.51100000000E-03 0.  1.
         11   -1    0    0    0    0 -0.00000000000E+00 -0.00000000000E+00 -0.45593999997E+02  0.45594000000E+02  0.51100000000E-03 0. -1.
    9900012    2    1    2    0    0  0.21698443778E+02 -0.20932002406E+02 -0.27279929144E+02  0.50528859316E+02  0.29999998376E+02 0.  0.
        -12    1    1    2    0    0 -0.21698443778E+02  0.20932002406E+02  0.27279929144E+02  0.40659140684E+02  0.00000000000E+00 0.  1.
         11    1    3    3    0    0  0.19149426205E+02 -0.18757545610E+02 -0.15394436123E+02  0.30911724395E+02  0.51100000000E-03 0. -1.
        -11    1    3    3    0    0 -0.60182743708E+01 -0.20321413856E+01 -0.22888360086E+01  0.67518882950E+01  0.51100000000E-03 0.  1.
        -12    1    3    3    0    0  0.85672919438E+01 -0.14231541034E+00 -0.95966570121E+01  0.12865246625E+02  0.00000000000E+00 0.  1.
</event>
<event>
 7    1  0.4878192E-011  0.5052886E+02  0.7816164E-02  0.1300439E+00
        -11   -1    0    0    0    0  0.00000000000E+00  0.00000000000E+00  0.45593999997E+02  0.45594000000E+02  0.51100000000E-03 0. -1.
         11   -1    0    0    0    0 -0.00000000000E+00 -0.00000000000E+00 -0.45593999997E+02  0.45594000000E+02  0.51100000000E-03 0.  1.
    9900012    2    1    2    0    0 -0.24617889518E+02  0.32282090812E+02  0.22342901710E+01  0.50528856821E+02  0.29999990792E+02 0.  0.
        -12    1    1    2    0    0  0.24617889518E+02 -0.32282090812E+02 -0.22342901710E+01  0.40659143179E+02  0.00000000000E+00 0.  1.
         11    1    3    3    0    0 -0.10800883220E+02  0.24332611718E+01 -0.87620973798E+01  0.14119284295E+02  0.51100000000E-03 0. -1.
        -11    1    3    3    0    0 -0.54165664014E+01  0.39272473090E+01 -0.75869658071E+00  0.67333560554E+01  0.51100000000E-03 0.  1.
         12    1    3    3    0    0 -0.84004398964E+01  0.25921582332E+02  0.11755084131E+02  0.29676216470E+02  0.00000000000E+00 0. -1.
</event>
<event>
 7    1  0.4878192E-011  0.5052897E+02  0.7816164E-02  0.1300438E+00
        -11   -1    0    0    0    0  0.00000000000E+00  0.00000000000E+00  0.45593999997E+02  0.45594000000E+02  0.51100000000E-03 0.  1.
         11   -1    0    0    0    0 -0.00000000000E+00 -0.00000000000E+00 -0.45593999997E+02  0.45594000000E+02  0.51100000000E-03 0. -1.
    9900012    2    1    2    0    0 -0.23431694972E+02 -0.31046496196E+02 -0.11841777557E+02  0.50528967165E+02  0.30000326194E+02 0.  0.
        -12    1    1    2    0    0  0.23431694972E+02  0.31046496196E+02  0.11841777557E+02  0.40659032835E+02  0.00000000000E+00 0.  1.
         11    1    3    3    0    0 -0.26262675954E+02 -0.31241153951E+02 -0.15453288982E+02  0.43641058524E+02  0.51100000000E-03 0. -1.
        -11    1    3    3    0    0  0.18448031289E+00  0.22460566477E+01  0.24857761529E+01  0.33552774541E+01  0.51100000000E-03 0.  1.
         12    1    3    3    0    0  0.26465006683E+01 -0.20513988924E+01  0.11257352723E+01  0.35326311875E+01  0.00000000000E+00 0. -1.
</event>
<event>
 7    1  0.4878192E-011  0.5052886E+02  0.7816164E-02  0.1300439E+00
        -11   -1    0    0    0    0  0.00000000000E+00  0.00000000000E+00  0.45593999997E+02  0.45594000000E+02  0.51100000000E-03 0. -1.
         11   -1    0    0    0    0 -0.00000000000E+00 -0.00000000000E+00 -0.45593999997E+02  0.45594000000E+02  0.51100000000E-03 0.  1.
    9900012    2    1    2    0    0  0.62138052567E+01  0.30867127271E+02  0.25724983605E+02  0.50528859537E+02  0.29999999048E+02 0.  0.
        -12    1    1    2    0    0 -0.62138052567E+01 -0.30867127271E+02 -0.25724983605E+02  0.40659140463E+02  0.00000000000E+00 0.  1.
         11    1    3    3    0    0  0.10626800991E+02  0.54373643556E+01  0.46050101134E+01  0.12794528082E+02  0.51100000000E-03 0. -1.
        -11    1    3    3    0    0 -0.64009589098E+01  0.12889694361E+02  0.16438182230E+01  0.14485117684E+02  0.51100000000E-03 0.  1.
         12    1    3    3    0    0  0.19879631751E+01  0.12540068554E+02  0.19476155268E+02  0.23249213771E+02  0.00000000000E+00 0. -1.
</event>
<event>
 7    1  0.4878192E-011  0.5052885E+02  0.7816164E-02  0.1300439E+00
        -11   -1    0    0    0    0  0.00000000000E+00  0.00000000000E+00  0.45593999997E+02  0.45594000000E+02  0.51100000000E-03 0.  1.
         11   -1    0    0    0    0 -0.00000000000E+00 -0.00000000000E+00 -0.45593999997E+02  0.45594000000E+02  0.51100000000E-03 0. -1.
    9900012    2    1    2    0    0 -0.26663609848E+02 -0.70068230562E+01 -0.29885158040E+02  0.50528851822E+02  0.29999975599E+02 0.  0.
        -12    1    1    2    0    0  0.26663609848E+02  0.70068230562E+01  0.29885158040E+02  0.40659148178E+02  0.00000000000E+00 0.  1.
         11    1    3    3    0    0 -0.48802927264E+01 -0.69530985396E+01 -0.23401726128E+02  0.24895855527E+02  0.51100000000E-03 0.  1.
        -11    1    3    3    0    0 -0.19501669133E+02 -0.23235298618E+01 -0.14949377405E+01  0.19696414118E+02  0.51100000000E-03 0. -1.
        -12    1    3    3    0    0 -0.22816479889E+01  0.22698053452E+01 -0.49884941719E+01  0.59365821777E+01  0.00000000000E+00 0.  1.
</event>
<event>
 7    1  0.4878192E-011  0.5052885E+02  0.7816164E-02  0.1300439E+00
        -11   -1    0    0    0    0  0.00000000000E+00  0.00000000000E+00  0.45593999997E+02  0.45594000000E+02  0.51100000000E-03 0.  1.
         11   -1    0    0    0    0 -0.00000000000E+00 -0.00000000000E+00 -0.45593999997E+02  0.45594000000E+02  0.51100000000E-03 0. -1.
    9900012    2    1    2    0    0  0.99839934577E+01  0.31693465794E+02 -0.23430967303E+02  0.50528854311E+02  0.29999983165E+02 0.  0.
        -12    1    1    2    0    0 -0.99839934577E+01 -0.31693465794E+02  0.23430967303E+02  0.40659145689E+02  0.00000000000E+00 0.  1.
         11    1    3    3    0    0 -0.19970825328E+01  0.27316356252E+02 -0.13731024864E+02  0.30638418720E+02  0.51100000000E-03 0. -1.
        -11    1    3    3    0    0  0.10306375635E+02  0.77175668002E+01 -0.48293317770E+01  0.13751533068E+02  0.51100000000E-03 0.  1.
         12    1    3    3    0    0  0.16747003560E+01 -0.33404572589E+01 -0.48706106617E+01  0.61389025240E+01  0.00000000000E+00 0. -1.
</event>
<event>
 7    1  0.4878192E-011  0.5052886E+02  0.7816164E-02  0.1300439E+00
        -11   -1    0    0    0    0  0.00000000000E+00  0.00000000000E+00  0.45593999997E+02  0.45594000000E+02  0.51100000000E-03 0.  1.
         11   -1    0    0    0    0 -0.00000000000E+00 -0.00000000000E+00 -0.45593999997E+02  0.45594000000E+02  0.51100000000E-03 0. -1.
    9900012    2    1    2    0    0 -0.23209862463E+02  0.13915749255E+02 -0.30345008592E+02  0.50528864012E+02  0.30000012650E+02 0.  0.
        -12    1    1    2    0    0  0.23209862463E+02 -0.13915749255E+02  0.30345008592E+02  0.40659135988E+02  0.00000000000E+00 0.  1.
         11    1    3    3    0    0 -0.20652484632E+02  0.10149252728E+02 -0.25898045480E+02  0.34644497577E+02  0.51100000000E-03 0. -1.
        -11    1    3    3    0    0  0.37342705752E+01 -0.30992105097E+01  0.11927564937E+01  0.49972543288E+01  0.51100000000E-03 0.  1.
         12    1    3    3    0    0 -0.62916484055E+01  0.68657070369E+01 -0.56397196061E+01  0.10887112106E+02  0.00000000000E+00 0. -1.
</event>
<event>
 7    1  0.4878192E-011  0.5052883E+02  0.7816164E-02  0.1300439E+00
        -11   -1    0    0    0    0  0.00000000000E+00  0.00000000000E+00  0.45593999997E+02  0.45594000000E+02  0.51100000000E-03 0.  1.
         11   -1    0    0    0    0 -0.00000000000E+00 -0.00000000000E+00 -0.45593999997E+02  0.45594000000E+02  0.51100000000E-03 0. -1.
    9900012    2    1    2    0    0  0.10420304691E+02 -0.11644309203E+02 -0.37536585730E+02  0.50528831846E+02  0.29999914880E+02 0.  0.
        -12    1    1    2    0    0 -0.10420304691E+02  0.11644309203E+02  0.37536585730E+02  0.40659168154E+02  0.00000000000E+00 0.  1.
         11    1    3    3    0    0 -0.80894244687E+01  0.17230828596E+01 -0.11073187900E+02  0.13821117657E+02  0.51100000000E-03 0. -1.
        -11    1    3    3    0    0  0.12200414555E+02 -0.14582313882E+02 -0.19907177409E+02  0.27527980422E+02  0.51100000000E-03 0.  1.
        -12    1    3    3    0    0  0.63093146048E+01  0.12149218194E+01 -0.65562204213E+01  0.91797337664E+01  0.00000000000E+00 0.  1.
</event>
<event>
 7    1  0.4878192E-011  0.5052886E+02  0.7816164E-02  0.1300439E+00
        -11   -1    0    0    0    0  0.00000000000E+00  0.00000000000E+00  0.45593999997E+02  0.45594000000E+02  0.51100000000E-03 0.  1.
         11   -1    0    0    0    0 -0.00000000000E+00 -0.00000000000E+00 -0.45593999997E+02  0.45594000000E+02  0.51100000000E-03 0. -1.
    9900012    2    1    2    0    0 -0.19477545376E+02 -0.25141974015E+01 -0.35601541271E+02  0.50528859535E+02  0.29999999042E+02 0.  0.
        -12    1    1    2    0    0  0.19477545376E+02  0.25141974015E+01  0.35601541271E+02  0.40659140465E+02  0.00000000000E+00 0.  1.
         11    1    3    3    0    0 -0.18118890871E+02  0.21838251665E+01 -0.28601006161E+02  0.33927582472E+02  0.51100000000E-03 0. -1.
        -11    1    3    3    0    0 -0.31413352126E+01 -0.94325579390E+01 -0.52847685440E+01  0.11259214671E+02  0.51100000000E-03 0.  1.
         12    1    3    3    0    0  0.17826807071E+01  0.47345353710E+01 -0.17157665668E+01  0.53420623914E+01  0.00000000000E+00 0. -1.
</event>
<event>
 7    1  0.4878192E-011  0.5052887E+02  0.7816164E-02  0.1300439E+00
        -11   -1    0    0    0    0  0.00000000000E+00  0.00000000000E+00  0.45593999997E+02  0.45594000000E+02  0.51100000000E-03 0.  1.
         11   -1    0    0    0    0 -0.00000000000E+00 -0.00000000000E+00 -0.45593999997E+02  0.45594000000E+02  0.51100000000E-03 0. -1.
    9900012    2    1    2    0    0 -0.14253500341E+02  0.33264420588E+02 -0.18533241217E+02  0.50528868442E+02  0.30000026118E+02 0.  0.
        -12    1    1    2    0    0  0.14253500341E+02 -0.33264420588E+02  0.18533241217E+02  0.40659131558E+02  0.00000000000E+00 0.  1.
         11    1    3    3    0    0  0.69168467764E+00  0.83210466948E+01  0.18280434159E+00  0.83517461335E+01  0.51100000000E-03 0. -1.
        -11    1    3    3    0    0 -0.12296848586E+02  0.28414010908E+01 -0.15009637696E+02  0.19610590744E+02  0.51100000000E-03 0.  1.
        -12    1    3    3    0    0 -0.26483364324E+01  0.22101972803E+02 -0.37064078620E+01  0.22566531565E+02  0.00000000000E+00 0.  1.
</event>
<event>
 7    1  0.4878192E-011  0.5052886E+02  0.7816164E-02  0.1300439E+00
        -11   -1    0    0    0    0  0.00000000000E+00  0.00000000000E+00  0.45593999997E+02  0.45594000000E+02  0.51100000000E-03 0.  1.
         11   -1    0    0    0    0 -0.00000000000E+00 -0.00000000000E+00 -0.45593999997E+02  0.45594000000E+02  0.51100000000E-03 0. -1.
    9900012    2    1    2    0    0 -0.20226901706E+02  0.11685212063E+02 -0.33279032121E+02  0.50528859423E+02  0.29999998702E+02 0.  0.
        -12    1    1    2    0    0  0.20226901706E+02 -0.11685212063E+02  0.33279032121E+02  0.40659140577E+02  0.00000000000E+00 0.  1.
         11    1    3    3    0    0 -0.26546000869E+02  0.14931702378E+02 -0.27183355936E+02  0.40823776629E+02  0.51100000000E-03 0. -1.
        -11    1    3    3    0    0  0.27619299803E+01 -0.28145159498E+01 -0.35890004740E+01  0.53320429397E+01  0.51100000000E-03 0.  1.
         12    1    3    3    0    0  0.35571691831E+01 -0.43197436465E+00 -0.25066757109E+01  0.43730398545E+01  0.00000000000E+00 0. -1.
</event>
<event>
 7    1  0.4878192E-011  0.5052887E+02  0.7816164E-02  0.1300439E+00
        -11   -1    0    0    0    0  0.00000000000E+00  0.00000000000E+00  0.45593999997E+02  0.45594000000E+02  0.51100000000E-03 0.  1.
         11   -1    0    0    0    0 -0.00000000000E+00 -0.00000000000E+00 -0.45593999997E+02  0.45594000000E+02  0.51100000000E-03 0. -1.
    9900012    2    1    2    0    0  0.23805229539E+02 -0.21949228068E+02 -0.24590802352E+02  0.50528866628E+02  0.30000020604E+02 0.  0.
        -12    1    1    2    0    0 -0.23805229539E+02  0.21949228068E+02  0.24590802352E+02  0.40659133372E+02  0.00000000000E+00 0.  1.
         11    1    3    3    0    0 -0.71294995352E+00 -0.62173048675E+01  0.44879154825E+01  0.77009455972E+01  0.51100000000E-03 0. -1.
        -11    1    3    3    0    0  0.72551825100E+01  0.10515939301E+01 -0.76600491025E+01  0.10602823943E+02  0.51100000000E-03 0.  1.
         12    1    3    3    0    0  0.17262996983E+02 -0.16783517131E+02 -0.21418668732E+02  0.32225097088E+02  0.00000000000E+00 0. -1.
</event>
<event>
 7    1  0.4878192E-011  0.5052886E+02  0.7816164E-02  0.1300439E+00
        -11   -1    0    0    0    0  0.00000000000E+00  0.00000000000E+00  0.45593999997E+02  0.45594000000E+02  0.51100000000E-03 0. -1.
         11   -1    0    0    0    0 -0.00000000000E+00 -0.00000000000E+00 -0.45593999997E+02  0.45594000000E+02  0.51100000000E-03 0.  1.
    9900012    2    1    2    0    0 -0.19760385618E+02 -0.23942013582E+01  0.35453640529E+02  0.50528859986E+02  0.30000000412E+02 0.  0.
        -12    1    1    2    0    0  0.19760385618E+02  0.23942013582E+01 -0.35453640529E+02  0.40659140014E+02  0.00000000000E+00 0.  1.
         11    1    3    3    0    0 -0.39912358072E+01 -0.50121671785E+01  0.16356021849E+02  0.17566195777E+02  0.51100000000E-03 0. -1.
        -11    1    3    3    0    0  0.76312691068E+00  0.33241806835E+01 -0.35441468189E+01  0.49186905608E+01  0.51100000000E-03 0.  1.
        -12    1    3    3    0    0 -0.16532276722E+02 -0.70621486329E+00  0.22641765499E+02  0.28043973648E+02  0.00000000000E+00 0.  1.
</event>
<event>
 7    1  0.4878192E-011  0.5052885E+02  0.7816164E-02  0.1300439E+00
        -11   -1    0    0    0    0  0.00000000000E+00  0.00000000000E+00  0.45593999997E+02  0.45594000000E+02  0.51100000000E-03 0.  1.
         11   -1    0    0    0    0 -0.00000000000E+00 -0.00000000000E+00 -0.45593999997E+02  0.45594000000E+02  0.51100000000E-03 0. -1.
    9900012    2    1    2    0    0  0.30294317207E+01  0.16309020490E+02 -0.37121483161E+02  0.50528854436E+02  0.29999983544E+02 0.  0.
        -12    1    1    2    0    0 -0.30294317207E+01 -0.16309020490E+02  0.37121483161E+02  0.40659145564E+02  0.00000000000E+00 0.  1.
         11    1    3    3    0    0  0.26781001811E+01  0.89732553845E+00 -0.12234615426E+02  0.12556401897E+02  0.51100000000E-03 0. -1.
        -11    1    3    3    0    0 -0.10883203953E+02  0.10479718574E+02 -0.19247496892E+02  0.24469057329E+02  0.51100000000E-03 0.  1.
        -12    1    3    3    0    0  0.11234535492E+02  0.49319763774E+01 -0.56393708428E+01  0.13503395211E+02  0.00000000000E+00 0.  1.
</event>
<event>
 7    1  0.4878192E-011  0.5052886E+02  0.7816164E-02  0.1300439E+00
        -11   -1    0    0    0    0  0.00000000000E+00  0.00000000000E+00  0.45593999997E+02  0.45594000000E+02  0.51100000000E-03 0.  1.
         11   -1    0    0    0    0 -0.00000000000E+00 -0.00000000000E+00 -0.45593999997E+02  0.45594000000E+02  0.51100000000E-03 0. -1.
    9900012    2    1    2    0    0  0.20619811516E+02 -0.21896746817E+02 -0.27359118150E+02  0.50528862109E+02  0.30000006866E+02 0.  0.
        -12    1    1    2    0    0 -0.20619811516E+02  0.21896746817E+02  0.27359118150E+02  0.40659137891E+02  0.00000000000E+00 0.  1.
         11    1    3    3    0    0  0.16597375159E+02 -0.13237295308E+02 -0.58177778829E+01  0.22012391714E+02  0.51100000000E-03 0. -1.
        -11    1    3    3    0    0  0.26376166315E+01  0.45855849077E+01 -0.73424055974E+01  0.90496149453E+01  0.51100000000E-03 0.  1.
         12    1    3    3    0    0  0.13848197265E+01 -0.13245036416E+02 -0.14198934669E+02  0.19466855449E+02  0.00000000000E+00 0. -1.
</event>
<event>
 7    1  0.4878192E-011  0.5052885E+02  0.7816164E-02  0.1300439E+00
        -11   -1    0    0    0    0  0.00000000000E+00  0.00000000000E+00  0.45593999997E+02  0.45594000000E+02  0.51100000000E-03 0.  1.
         11   -1    0    0    0    0 -0.00000000000E+00 -0.00000000000E+00 -0.45593999997E+02  0.45594000000E+02  0.51100000000E-03 0. -1.
    9900012    2    1    2    0    0  0.31840771664E+02  0.43589682231E+01 -0.24906448974E+02  0.50528849189E+02  0.29999967596E+02 0.  0.
        -12    1    1    2    0    0 -0.31840771664E+02 -0.43589682231E+01  0.24906448974E+02  0.40659150811E+02  0.00000000000E+00 0.  1.
         11    1    3    3    0    0  0.95958329052E+01 -0.39944563746E+01 -0.27629498208E+01  0.10754979444E+02  0.51100000000E-03 0. -1.
        -11    1    3    3    0    0  0.24998809408E+02  0.10457196835E+02 -0.23676631683E+02  0.35984390027E+02  0.51100000000E-03 0.  1.
        -12    1    3    3    0    0 -0.27538706493E+01 -0.21037722371E+01  0.15331325303E+01  0.37894797182E+01  0.00000000000E+00 0.  1.
</event>
<event>
 7    1  0.4878192E-011  0.5052886E+02  0.7816164E-02  0.1300439E+00
        -11   -1    0    0    0    0  0.00000000000E+00  0.00000000000E+00  0.45593999997E+02  0.45594000000E+02  0.51100000000E-03 0. -1.
         11   -1    0    0    0    0 -0.00000000000E+00 -0.00000000000E+00 -0.45593999997E+02  0.45594000000E+02  0.51100000000E-03 0.  1.
    9900012    2    1    2    0    0  0.26761762145E+02  0.10443195078E+02  0.28773484203E+02  0.50528860441E+02  0.30000001795E+02 0.  0.
        -12    1    1    2    0    0 -0.26761762145E+02 -0.10443195078E+02 -0.28773484203E+02  0.40659139559E+02  0.00000000000E+00 0.  1.
         11    1    3    3    0    0  0.29618203047E+02  0.13420456515E+02  0.20123034966E+02  0.38239810947E+02  0.51100000000E-03 0. -1.
        -11    1    3    3    0    0  0.18965999236E+01 -0.28366727731E+01  0.58446545753E+01  0.67678498105E+01  0.51100000000E-03 0.  1.
         12    1    3    3    0    0 -0.47530408249E+01 -0.14058866446E+00  0.28057946613E+01  0.55211996827E+01  0.00000000000E+00 0. -1.
</event>
<event>
 7    1  0.4878192E-011  0.5052886E+02  0.7816164E-02  0.1300439E+00
        -11   -1    0    0    0    0  0.00000000000E+00  0.00000000000E+00  0.45593999997E+02  0.45594000000E+02  0.51100000000E-03 0.  1.
         11   -1    0    0    0    0 -0.00000000000E+00 -0.00000000000E+00 -0.45593999997E+02  0.45594000000E+02  0.51100000000E-03 0. -1.
    9900012    2    1    2    0    0  0.29514852039E+02 -0.27677878698E+02  0.39967864795E+01  0.50528858810E+02  0.29999996840E+02 0.  0.
        -12    1    1    2    0    0 -0.29514852039E+02  0.27677878698E+02 -0.39967864795E+01  0.40659141190E+02  0.00000000000E+00 0.  1.
         11    1    3    3    0    0  0.13047687064E+02 -0.19917946919E+01 -0.89088215852E+01  0.15924085095E+02  0.51100000000E-03 0. -1.
        -11    1    3    3    0    0  0.10723443592E+02 -0.23672161949E+02  0.98246473983E+01  0.27782857855E+02  0.51100000000E-03 0.  1.
         12    1    3    3    0    0  0.57437213828E+01 -0.20139220567E+01  0.30809606664E+01  0.68219158600E+01  0.00000000000E+00 0. -1.
</event>
<event>
 7    1  0.4878192E-011  0.5052886E+02  0.7816164E-02  0.1300439E+00
        -11   -1    0    0    0    0  0.00000000000E+00  0.00000000000E+00  0.45593999997E+02  0.45594000000E+02  0.51100000000E-03 0.  1.
         11   -1    0    0    0    0 -0.00000000000E+00 -0.00000000000E+00 -0.45593999997E+02  0.45594000000E+02  0.51100000000E-03 0. -1.
    9900012    2    1    2    0    0  0.37330251467E+02  0.16089879722E+02 -0.85647321352E+00  0.50528862646E+02  0.30000008498E+02 0.  0.
        -12    1    1    2    0    0 -0.37330251467E+02 -0.16089879722E+02  0.85647321352E+00  0.40659137354E+02  0.00000000000E+00 0.  1.
         11    1    3    3    0    0  0.96615683169E+00  0.93480806279E+01  0.68442973301E+01  0.11626025832E+02  0.51100000000E-03 0. -1.
        -11    1    3    3    0    0  0.50651644333E+01  0.27245593508E+01  0.16632171550E+01  0.59871033028E+01  0.51100000000E-03 0.  1.
         12    1    3    3    0    0  0.31298930202E+02  0.40172397430E+01 -0.93639876987E+01  0.32915733511E+02  0.00000000000E+00 0. -1.
</event>
<event>
 7    1  0.4878192E-011  0.5052886E+02  0.7816164E-02  0.1300439E+00
        -11   -1    0    0    0    0  0.00000000000E+00  0.00000000000E+00  0.45593999997E+02  0.45594000000E+02  0.51100000000E-03 0. -1.
         11   -1    0    0    0    0 -0.00000000000E+00 -0.00000000000E+00 -0.45593999997E+02  0.45594000000E+02  0.51100000000E-03 0.  1.
    9900012    2    1    2    0    0  0.97633389410E+01  0.35112660395E+02  0.18026205414E+02  0.50528858483E+02  0.29999995844E+02 0.  0.
        -12    1    1    2    0    0 -0.97633389410E+01 -0.35112660395E+02 -0.18026205414E+02  0.40659141517E+02  0.00000000000E+00 0.  1.
         11    1    3    3    0    0  0.13208334618E+02  0.16830650344E+02  0.83276247286E+01  0.22958227899E+02  0.51100000000E-03 0.  1.
        -11    1    3    3    0    0 -0.86766840086E+00  0.46604893140E+01 -0.53241194692E+01  0.71287626895E+01  0.51100000000E-03 0. -1.
         12    1    3    3    0    0 -0.25773272758E+01  0.13621520736E+02  0.15022700155E+02  0.20441867894E+02  0.00000000000E+00 0. -1.
</event>
<event>
 7    1  0.4878192E-011  0.5052886E+02  0.7816164E-02  0.1300439E+00
        -11   -1    0    0    0    0  0.00000000000E+00  0.00000000000E+00  0.45593999997E+02  0.45594000000E+02  0.51100000000E-03 0.  1.
         11   -1    0    0    0    0 -0.00000000000E+00 -0.00000000000E+00 -0.45593999997E+02  0.45594000000E+02  0.51100000000E-03 0. -1.
    9900012    2    1    2    0    0 -0.23153541214E+02  0.11642523619E+02 -0.31329395818E+02  0.50528857494E+02  0.29999992839E+02 0.  0.
        -12    1    1    2    0    0  0.23153541214E+02 -0.11642523619E+02  0.31329395818E+02  0.40659142506E+02  0.00000000000E+00 0.  1.
         11    1    3    3    0    0 -0.18843204171E+02  0.48369350717E+01 -0.13827267891E+02  0.23867459477E+02  0.51100000000E-03 0. -1.
        -11    1    3    3    0    0 -0.20477247579E+01  0.36082075060E+01 -0.21002458096E+02  0.21408306435E+02  0.51100000000E-03 0.  1.
        -12    1    3    3    0    0 -0.22626122852E+01  0.31973810417E+01  0.35003301682E+01  0.52530915817E+01  0.00000000000E+00 0.  1.
</event>
<event>
 7    1  0.4878192E-011  0.5052886E+02  0.7816164E-02  0.1300439E+00
        -11   -1    0    0    0    0  0.00000000000E+00  0.00000000000E+00  0.45593999997E+02  0.45594000000E+02  0.51100000000E-03 0.  1.
         11   -1    0    0    0    0 -0.00000000000E+00 -0.00000000000E+00 -0.45593999997E+02  0.45594000000E+02  0.51100000000E-03 0. -1.
    9900012    2    1    2    0    0 -0.20960717916E+02 -0.34072566711E+02  0.72714435962E+01  0.50528863391E+02  0.30000010764E+02 0.  0.
        -12    1    1    2    0    0  0.20960717916E+02  0.34072566711E+02 -0.72714435962E+01  0.40659136609E+02  0.00000000000E+00 0.  1.
         11    1    3    3    0    0 -0.12563966866E+02 -0.48651909025E+01  0.11458183175E+02  0.17686528994E+02  0.51100000000E-03 0. -1.
        -11    1    3    3    0    0  0.12515571589E+01 -0.16801882351E+02 -0.17563804429E+01  0.16939731945E+02  0.51100000000E-03 0.  1.
         12    1    3    3    0    0 -0.96483082085E+01 -0.12405493457E+02 -0.24303591357E+01  0.15902602451E+02  0.00000000000E+00 0. -1.
</event>
<event>
 7    1  0.4878192E-011  0.5052886E+02  0.7816164E-02  0.1300439E+00
        -11   -1    0    0    0    0  0.00000000000E+00  0.00000000000E+00  0.45593999997E+02  0.45594000000E+02  0.51100000000E-03 0.  1.
         11   -1    0    0    0    0 -0.00000000000E+00 -0.00000000000E+00 -0.45593999997E+02  0.45594000000E+02  0.51100000000E-03 0. -1.
    9900012    2    1    2    0    0 -0.21529459838E+02 -0.30393241914E+02 -0.16306403029E+02  0.50528861117E+02  0.30000003850E+02 0.  0.
        -12    1    1    2    0    0  0.21529459838E+02  0.30393241914E+02  0.16306403029E+02  0.40659138883E+02  0.00000000000E+00 0.  1.
         11    1    3    3    0    0 -0.74593809439E+01  0.36957823925E+01 -0.31935605911E+01  0.89162773100E+01  0.51100000000E-03 0. -1.
        -11    1    3    3    0    0 -0.70391721878E+01 -0.30031467815E+02 -0.13055776989E+02  0.33494661026E+02  0.51100000000E-03 0.  1.
        -12    1    3    3    0    0 -0.70309067067E+01 -0.40575564915E+01 -0.57065448759E-01  0.81179227802E+01  0.00000000000E+00 0.  1.
</event>
<event>
 7    1  0.4878192E-011  0.5052886E+02  0.7816164E-02  0.1300439E+00
        -11   -1    0    0    0    0  0.00000000000E+00  0.00000000000E+00  0.45593999997E+02  0.45594000000E+02  0.51100000000E-03 0.  1.
         11   -1    0    0    0    0 -0.00000000000E+00 -0.00000000000E+00 -0.45593999997E+02  0.45594000000E+02  0.51100000000E-03 0. -1.
    9900012    2    1    2    0    0  0.35756344827E+02 -0.44582653122E+01 -0.18835429706E+02  0.50528859119E+02  0.29999997778E+02 0.  0.
        -12    1    1    2    0    0 -0.35756344827E+02  0.44582653122E+01  0.18835429706E+02  0.40659140881E+02  0.00000000000E+00 0.  1.
         11    1    3    3    0    0  0.12018221180E+02 -0.12763359383E+02 -0.13246209475E+02  0.21972779724E+02  0.51100000000E-03 0. -1.
        -11    1    3    3    0    0  0.81572853239E+01  0.76252267788E+01 -0.65239774087E+01  0.12932427026E+02  0.51100000000E-03 0.  1.
         12    1    3    3    0    0  0.15580838323E+02  0.67986729232E+00  0.93475717784E+00  0.15623652369E+02  0.00000000000E+00 0. -1.
</event>
<event>
 7    1  0.4878192E-011  0.5052886E+02  0.7816164E-02  0.1300439E+00
        -11   -1    0    0    0    0  0.00000000000E+00  0.00000000000E+00  0.45593999997E+02  0.45594000000E+02  0.51100000000E-03 0.  1.
         11   -1    0    0    0    0 -0.00000000000E+00 -0.00000000000E+00 -0.45593999997E+02  0.45594000000E+02  0.51100000000E-03 0. -1.
    9900012    2    1    2    0    0 -0.91032254203E+00 -0.19413526945E+02 -0.35713470747E+02  0.50528859474E+02  0.29999998856E+02 0.  0.
        -12    1    1    2    0    0  0.91032254203E+00  0.19413526945E+02  0.35713470747E+02  0.40659140526E+02  0.00000000000E+00 0.  1.
         11    1    3    3    0    0 -0.45206468958E+01 -0.17627911232E+02 -0.30891803032E+02  0.35853632977E+02  0.51100000000E-03 0. -1.
        -11    1    3    3    0    0  0.75974283498E+01 -0.18635787454E+01  0.71127987943E+00  0.78549196430E+01  0.51100000000E-03 0.  1.
        -12    1    3    3    0    0 -0.39871039960E+01  0.77963032246E-01 -0.55329475935E+01  0.68203068539E+01  0.00000000000E+00 0.  1.
</event>
<event>
 7    1  0.4878192E-011  0.5052892E+02  0.7816164E-02  0.1300439E+00
        -11   -1    0    0    0    0  0.00000000000E+00  0.00000000000E+00  0.45593999997E+02  0.45594000000E+02  0.51100000000E-03 0.  1.
         11   -1    0    0    0    0 -0.00000000000E+00 -0.00000000000E+00 -0.45593999997E+02  0.45594000000E+02  0.51100000000E-03 0. -1.
    9900012    2    1    2    0    0  0.33470411526E+02  0.19729776878E+02 -0.11984486170E+02  0.50528924111E+02  0.30000195328E+02 0.  0.
        -12    1    1    2    0    0 -0.33470411526E+02 -0.19729776878E+02  0.11984486170E+02  0.40659075889E+02  0.00000000000E+00 0.  1.
         11    1    3    3    0    0 -0.63135864770E+00  0.38669774731E+01 -0.23014114378E+01  0.45440756361E+01  0.51100000000E-03 0. -1.
        -11    1    3    3    0    0  0.22979107671E+02 -0.26652796762E+01 -0.27842243671E+01  0.23300107525E+02  0.51100000000E-03 0.  1.
        -12    1    3    3    0    0  0.11122662502E+02  0.18528079082E+02 -0.68988503652E+01  0.22684740950E+02  0.00000000000E+00 0.  1.
</event>
<event>
 7    1  0.4878192E-011  0.5052882E+02  0.7816164E-02  0.1300439E+00
        -11   -1    0    0    0    0  0.00000000000E+00  0.00000000000E+00  0.45593999997E+02  0.45594000000E+02  0.51100000000E-03 0.  1.
         11   -1    0    0    0    0 -0.00000000000E+00 -0.00000000000E+00 -0.45593999997E+02  0.45594000000E+02  0.51100000000E-03 0. -1.
    9900012    2    1    2    0    0 -0.34606594142E+02  0.18700808199E+02 -0.10287468044E+02  0.50528824109E+02  0.29999891362E+02 0.  0.
        -12    1    1    2    0    0  0.34606594142E+02 -0.18700808199E+02  0.10287468044E+02  0.40659175891E+02  0.00000000000E+00 0.  1.
         11    1    3    3    0    0 -0.27992873070E+02  0.23275050671E+02 -0.16344295337E+02  0.39905700304E+02  0.51100000000E-03 0. -1.
        -11    1    3    3    0    0 -0.20105599566E+00 -0.47694600159E+00  0.18642142284E+01  0.19347340779E+01  0.51100000000E-03 0.  1.
         12    1    3    3    0    0 -0.64126650763E+01 -0.40972964704E+01  0.41926130642E+01  0.86883897273E+01  0.00000000000E+00 0. -1.
</event>
<event>
 7    1  0.4878192E-011  0.5052887E+02  0.7816164E-02  0.1300439E+00
        -11   -1    0    0    0    0  0.00000000000E+00  0.00000000000E+00  0.45593999997E+02  0.45594000000E+02  0.51100000000E-03 0.  1.
         11   -1    0    0    0    0 -0.00000000000E+00 -0.00000000000E+00 -0.45593999997E+02  0.45594000000E+02  0.51100000000E-03 0. -1.
    9900012    2    1    2    0    0  0.17874611019E+01 -0.99171348892E+01 -0.39390615745E+02  0.50528865844E+02  0.30000018218E+02 0.  0.
        -12    1    1    2    0    0 -0.17874611019E+01  0.99171348892E+01  0.39390615745E+02  0.40659134156E+02  0.00000000000E+00 0.  1.
         11    1    3    3    0    0  0.34534030291E+01 -0.10363872100E+02 -0.40240459589E+02  0.41696887481E+02  0.51100000000E-03 0. -1.
        -11    1    3    3    0    0 -0.40445870770E+01 -0.32967584154E+00  0.33742807596E+01  0.52776075726E+01  0.51100000000E-03 0.  1.
        -12    1    3    3    0    0  0.23786451498E+01  0.77641305209E+00 -0.25244369152E+01  0.35543707903E+01  0.00000000000E+00 0.  1.
</event>
<event>
 7    1  0.4878192E-011  0.5052885E+02  0.7816164E-02  0.1300439E+00
        -11   -1    0    0    0    0  0.00000000000E+00  0.00000000000E+00  0.45593999997E+02  0.45594000000E+02  0.51100000000E-03 0. -1.
         11   -1    0    0    0    0 -0.00000000000E+00 -0.00000000000E+00 -0.45593999997E+02  0.45594000000E+02  0.51100000000E-03 0.  1.
    9900012    2    1    2    0    0  0.53696449162E+01 -0.26711556654E+02 -0.30179899725E+02  0.50528847367E+02  0.29999962058E+02 0.  0.
        -12    1    1    2    0    0 -0.53696449162E+01  0.26711556654E+02  0.30179899725E+02  0.40659152633E+02  0.00000000000E+00 0.  1.
         11    1    3    3    0    0  0.10954985543E+01 -0.29753460079E+02 -0.31847063139E+02  0.43597063371E+02  0.51100000000E-03 0. -1.
        -11    1    3    3    0    0  0.25943734238E+01  0.18616412050E+01 -0.11950047276E+01  0.34094747393E+01  0.51100000000E-03 0.  1.
         12    1    3    3    0    0  0.16797729380E+01  0.11802622199E+01  0.28621681415E+01  0.35223092569E+01  0.00000000000E+00 0. -1.
</event>
<event>
 7    1  0.4878192E-011  0.5052884E+02  0.7816164E-02  0.1300439E+00
        -11   -1    0    0    0    0  0.00000000000E+00  0.00000000000E+00  0.45593999997E+02  0.45594000000E+02  0.51100000000E-03 0.  1.
         11   -1    0    0    0    0 -0.00000000000E+00 -0.00000000000E+00 -0.45593999997E+02  0.45594000000E+02  0.51100000000E-03 0. -1.
    9900012    2    1    2    0    0 -0.39871257607E+02 -0.45976076122E+01 -0.65047478573E+01  0.50528844529E+02  0.29999953430E+02 0.  0.
        -12    1    1    2    0    0  0.39871257607E+02  0.45976076122E+01  0.65047478573E+01  0.40659155471E+02  0.00000000000E+00 0.  1.
         11    1    3    3    0    0 -0.21052738365E+02 -0.12247826563E+02 -0.12455245871E+02  0.27356172944E+02  0.51100000000E-03 0. -1.
        -11    1    3    3    0    0 -0.36697054115E+00  0.59980663319E-02 -0.17344481533E+01  0.17728547635E+01  0.51100000000E-03 0.  1.
         12    1    3    3    0    0 -0.18451548701E+02  0.76442208845E+01  0.76849461668E+01  0.21399816821E+02  0.00000000000E+00 0. -1.
</event>
<event>
 7    1  0.4878192E-011  0.5052887E+02  0.7816164E-02  0.1300439E+00
        -11   -1    0    0    0    0  0.00000000000E+00  0.00000000000E+00  0.45593999997E+02  0.45594000000E+02  0.51100000000E-03 0. -1.
         11   -1    0    0    0    0 -0.00000000000E+00 -0.00000000000E+00 -0.45593999997E+02  0.45594000000E+02  0.51100000000E-03 0.  1.
    9900012    2    1    2    0    0 -0.13938432186E+02  0.25470069971E+02  0.28463313131E+02  0.50528873711E+02  0.30000042133E+02 0.  0.
        -12    1    1    2    0    0  0.13938432186E+02 -0.25470069971E+02 -0.28463313131E+02  0.40659126289E+02  0.00000000000E+00 0.  1.
         11    1    3    3    0    0 -0.10331588450E+01  0.21975674592E+01  0.21943981591E+02  0.22077931249E+02  0.51100000000E-03 0. -1.
        -11    1    3    3    0    0 -0.10145310973E+02  0.10841041666E+02  0.47820537658E+01  0.15598831931E+02  0.51100000000E-03 0.  1.
         12    1    3    3    0    0 -0.27599623682E+01  0.12431460846E+02  0.17372777751E+01  0.12852110531E+02  0.00000000000E+00 0. -1.
</event>
<event>
 7    1  0.4878192E-011  0.5052886E+02  0.7816164E-02  0.1300439E+00
        -11   -1    0    0    0    0  0.00000000000E+00  0.00000000000E+00  0.45593999997E+02  0.45594000000E+02  0.51100000000E-03 0.  1.
         11   -1    0    0    0    0 -0.00000000000E+00 -0.00000000000E+00 -0.45593999997E+02  0.45594000000E+02  0.51100000000E-03 0. -1.
    9900012    2    1    2    0    0  0.24184434932E+02 -0.83688740405E+01 -0.31594947382E+02  0.50528860243E+02  0.30000001195E+02 0.  0.
        -12    1    1    2    0    0 -0.24184434932E+02  0.83688740405E+01  0.31594947382E+02  0.40659139757E+02  0.00000000000E+00 0.  1.
         11    1    3    3    0    0  0.17414181212E+02 -0.10094754007E+02 -0.22879065273E+02  0.30473092947E+02  0.51100000000E-03 0. -1.
        -11    1    3    3    0    0  0.56027098173E+01  0.87147836665E+01 -0.25661005620E+01  0.10673456985E+02  0.51100000000E-03 0.  1.
        -12    1    3    3    0    0  0.11675439028E+01 -0.69889037003E+01 -0.61497815472E+01  0.93823103112E+01  0.00000000000E+00 0.  1.
</event>
<event>
 7    1  0.4878192E-011  0.5052886E+02  0.7816164E-02  0.1300439E+00
        -11   -1    0    0    0    0  0.00000000000E+00  0.00000000000E+00  0.45593999997E+02  0.45594000000E+02  0.51100000000E-03 0.  1.
         11   -1    0    0    0    0 -0.00000000000E+00 -0.00000000000E+00 -0.45593999997E+02  0.45594000000E+02  0.51100000000E-03 0. -1.
    9900012    2    1    2    0    0  0.30355750677E+02  0.14607916534E+02 -0.22766259502E+02  0.50528863311E+02  0.30000010519E+02 0.  0.
        -12    1    1    2    0    0 -0.30355750677E+02 -0.14607916534E+02  0.22766259502E+02  0.40659136689E+02  0.00000000000E+00 0.  1.
         11    1    3    3    0    0  0.21728162714E+02  0.17488531353E+02 -0.21641460484E+02  0.35303181103E+02  0.51100000000E-03 0. -1.
        -11    1    3    3    0    0  0.95584745218E+01 -0.21747657373E+01  0.35357700231E+01  0.10420926596E+02  0.51100000000E-03 0.  1.
         12    1    3    3    0    0 -0.93088655899E+00 -0.70584908185E+00 -0.46605690404E+01  0.48047556122E+01  0.00000000000E+00 0. -1.
</event>
<event>
 7    1  0.4878192E-011  0.5052888E+02  0.7816164E-02  0.1300439E+00
        -11   -1    0    0    0    0  0.00000000000E+00  0.00000000000E+00  0.45593999997E+02  0.45594000000E+02  0.51100000000E-03 0.  1.
         11   -1    0    0    0    0 -0.00000000000E+00 -0.00000000000E+00 -0.45593999997E+02  0.45594000000E+02  0.51100000000E-03 0. -1.
    9900012    2    1    2    0    0  0.15826146304E+02 -0.59437692495E+01 -0.36977951588E+02  0.50528877981E+02  0.30000055112E+02 0.  0.
        -12    1    1    2    0    0 -0.15826146304E+02  0.59437692495E+01  0.36977951588E+02  0.40659122019E+02  0.00000000000E+00 0.  1.
         11    1    3    3    0    0  0.36234414596E+01  0.28790176415E+01  0.18931081294E+01  0.50001929205E+01  0.51100000000E-03 0. -1.
        -11    1    3    3    0    0  0.11978763277E+02  0.16432381681E+01 -0.27675045860E+02  0.30200979536E+02  0.51100000000E-03 0.  1.
        -12    1    3    3    0    0  0.22394156734E+00 -0.10466025059E+02 -0.11196013857E+02  0.15327705525E+02  0.00000000000E+00 0.  1.
</event>
<event>
 7    1  0.4878192E-011  0.5052886E+02  0.7816164E-02  0.1300439E+00
        -11   -1    0    0    0    0  0.00000000000E+00  0.00000000000E+00  0.45593999997E+02  0.45594000000E+02  0.51100000000E-03 0.  1.
         11   -1    0    0    0    0 -0.00000000000E+00 -0.00000000000E+00 -0.45593999997E+02  0.45594000000E+02  0.51100000000E-03 0. -1.
    9900012    2    1    2    0    0  0.17307525600E+02  0.17947155357E+02 -0.32117207148E+02  0.50528858067E+02  0.29999994579E+02 0.  0.
        -12    1    1    2    0    0 -0.17307525600E+02 -0.17947155357E+02  0.32117207148E+02  0.40659141933E+02  0.00000000000E+00 0.  1.
         11    1    3    3    0    0 -0.11141015838E+01  0.17018469357E+02 -0.12440218255E+02  0.21109915966E+02  0.51100000000E-03 0. -1.
        -11    1    3    3    0    0  0.38974553814E+01 -0.48414952954E+01 -0.62578584052E+01  0.88199221780E+01  0.51100000000E-03 0.  1.
         12    1    3    3    0    0  0.14524171802E+02  0.57701812946E+01 -0.13419130488E+02  0.20599019922E+02  0.00000000000E+00 0. -1.
</event>
<event>
 7    1  0.4878192E-011  0.5052886E+02  0.7816164E-02  0.1300439E+00
        -11   -1    0    0    0    0  0.00000000000E+00  0.00000000000E+00  0.45593999997E+02  0.45594000000E+02  0.51100000000E-03 0.  1.
         11   -1    0    0    0    0 -0.00000000000E+00 -0.00000000000E+00 -0.45593999997E+02  0.45594000000E+02  0.51100000000E-03 0. -1.
    9900012    2    1    2    0    0 -0.18420102032E+02  0.34036397680E+02 -0.12465505725E+02  0.50528863771E+02  0.30000011918E+02 0.  0.
        -12    1    1    2    0    0  0.18420102032E+02 -0.34036397680E+02  0.12465505725E+02  0.40659136229E+02  0.00000000000E+00 0.  1.
         11    1    3    3    0    0 -0.21045776295E+01  0.13809204822E+02 -0.97156408443E+01  0.17015200913E+02  0.51100000000E-03 0. -1.
        -11    1    3    3    0    0 -0.19339644673E+02  0.21901559654E+02 -0.20100213123E+00  0.29218839359E+02  0.51100000000E-03 0.  1.
        -12    1    3    3    0    0  0.30241202697E+01 -0.16743667965E+01 -0.25488627496E+01  0.42948234994E+01  0.00000000000E+00 0.  1.
</event>
<event>
 7    1  0.4878192E-011  0.5052886E+02  0.7816164E-02  0.1300439E+00
        -11   -1    0    0    0    0  0.00000000000E+00  0.00000000000E+00  0.45593999997E+02  0.45594000000E+02  0.51100000000E-03 0.  1.
         11   -1    0    0    0    0 -0.00000000000E+00 -0.00000000000E+00 -0.45593999997E+02  0.45594000000E+02  0.51100000000E-03 0. -1.
    9900012    2    1    2    0    0 -0.24235382505E+02  0.14149003405E+02 -0.29421382028E+02  0.50528858556E+02  0.29999996068E+02 0.  0.
        -12    1    1    2    0    0  0.24235382505E+02 -0.14149003405E+02  0.29421382028E+02  0.40659141444E+02  0.00000000000E+00 0.  1.
         11    1    3    3    0    0  0.80007886072E+00  0.96894117954E+01 -0.14382727453E+00  0.97234517364E+01  0.51100000000E-03 0. -1.
        -11    1    3    3    0    0 -0.82021658703E+01 -0.39746802236E+01 -0.13233769629E+02  0.16068797924E+02  0.51100000000E-03 0.  1.
         12    1    3    3    0    0 -0.16833295495E+02  0.84342718333E+01 -0.16043785124E+02  0.24736608896E+02  0.00000000000E+00 0. -1.
</event>
<event>
 7    1  0.4878192E-011  0.5052886E+02  0.7816164E-02  0.1300439E+00
        -11   -1    0    0    0    0  0.00000000000E+00  0.00000000000E+00  0.45593999997E+02  0.45594000000E+02  0.51100000000E-03 0.  1.
         11   -1    0    0    0    0 -0.00000000000E+00 -0.00000000000E+00 -0.45593999997E+02  0.45594000000E+02  0.51100000000E-03 0. -1.
    9900012    2    1    2    0    0 -0.20292849721E+02  0.12816210132E+02 -0.32819363750E+02  0.50528860451E+02  0.30000001826E+02 0.  0.
        -12    1    1    2    0    0  0.20292849721E+02 -0.12816210132E+02  0.32819363750E+02  0.40659139549E+02  0.00000000000E+00 0.  1.
         11    1    3    3    0    0 -0.21902788986E+02  0.12141654758E+02 -0.12192945301E+02  0.27853543060E+02  0.51100000000E-03 0. -1.
        -11    1    3    3    0    0  0.23755423653E+01 -0.95774727391E+00 -0.68337003379E+00  0.26509387459E+01  0.51100000000E-03 0.  1.
         12    1    3    3    0    0 -0.76560310091E+00  0.16323026476E+01 -0.19943048415E+02  0.20024378645E+02  0.00000000000E+00 0. -1.
</event>
<event>
 7    1  0.4878192E-011  0.5052886E+02  0.7816164E-02  0.1300439E+00
        -11   -1    0    0    0    0  0.00000000000E+00  0.00000000000E+00  0.45593999997E+02  0.45594000000E+02  0.51100000000E-03 0.  1.
         11   -1    0    0    0    0 -0.00000000000E+00 -0.00000000000E+00 -0.45593999997E+02  0.45594000000E+02  0.51100000000E-03 0. -1.
    9900012    2    1    2    0    0  0.49729459864E+00 -0.15804609580E+02 -0.37458415798E+02  0.50528857116E+02  0.29999991691E+02 0.  0.
        -12    1    1    2    0    0 -0.49729459864E+00  0.15804609580E+02  0.37458415798E+02  0.40659142884E+02  0.00000000000E+00 0.  1.
         11    1    3    3    0    0  0.36976189542E+01 -0.35026325092E+01 -0.32842200574E+02  0.33234785379E+02  0.51100000000E-03 0. -1.
        -11    1    3    3    0    0 -0.27376038900E+01 -0.14200505473E+02 -0.50013751178E+01  0.15302371844E+02  0.51100000000E-03 0.  1.
        -12    1    3    3    0    0 -0.46272046552E+00  0.18985284014E+01  0.38515989303E+00  0.19916998929E+01  0.00000000000E+00 0.  1.
</event>
<event>
 7    1  0.4878192E-011  0.5052886E+02  0.7816164E-02  0.1300439E+00
        -11   -1    0    0    0    0  0.00000000000E+00  0.00000000000E+00  0.45593999997E+02  0.45594000000E+02  0.51100000000E-03 0. -1.
         11   -1    0    0    0    0 -0.00000000000E+00 -0.00000000000E+00 -0.45593999997E+02  0.45594000000E+02  0.51100000000E-03 0.  1.
    9900012    2    1    2    0    0 -0.38459791372E+02  0.30110012305E+00  0.13187861790E+02  0.50528856966E+02  0.29999991234E+02 0.  0.
        -12    1    1    2    0    0  0.38459791372E+02 -0.30110012305E+00 -0.13187861790E+02  0.40659143034E+02  0.00000000000E+00 0.  1.
         11    1    3    3    0    0 -0.24473628777E+01 -0.36041957163E+01  0.10701002796E+02  0.11553842344E+02  0.51100000000E-03 0. -1.
        -11    1    3    3    0    0 -0.17167785868E+02  0.70503630521E+01 -0.36373061558E+01  0.18912178275E+02  0.51100000000E-03 0.  1.
        -12    1    3    3    0    0 -0.18844642627E+02 -0.31450672128E+01  0.61241651501E+01  0.20062836347E+02  0.00000000000E+00 0.  1.
</event>
<event>
 7    1  0.4878192E-011  0.5052886E+02  0.7816164E-02  0.1300439E+00
        -11   -1    0    0    0    0  0.00000000000E+00  0.00000000000E+00  0.45593999997E+02  0.45594000000E+02  0.51100000000E-03 0. -1.
         11   -1    0    0    0    0 -0.00000000000E+00 -0.00000000000E+00 -0.45593999997E+02  0.45594000000E+02  0.51100000000E-03 0.  1.
    9900012    2    1    2    0    0 -0.11961487613E+02 -0.32324102599E+02  0.21569452392E+02  0.50528855011E+02  0.29999985292E+02 0.  0.
        -12    1    1    2    0    0  0.11961487613E+02  0.32324102599E+02 -0.21569452392E+02  0.40659144989E+02  0.00000000000E+00 0.  1.
         11    1    3    3    0    0 -0.14983456277E+02 -0.21132331541E+02  0.25895243866E+02  0.36628445960E+02  0.51100000000E-03 0. -1.
        -11    1    3    3    0    0  0.36488980647E+01 -0.61161525537E+01  0.12155338110E+00  0.71229596821E+01  0.51100000000E-03 0.  1.
         12    1    3    3    0    0 -0.62692940046E+00 -0.50756185051E+01 -0.44473448553E+01  0.67774493687E+01  0.00000000000E+00 0. -1.
</event>
<event>
 7    1  0.4878192E-011  0.5052886E+02  0.7816164E-02  0.1300439E+00
        -11   -1    0    0    0    0  0.00000000000E+00  0.00000000000E+00  0.45593999997E+02  0.45594000000E+02  0.51100000000E-03 0.  1.
         11   -1    0    0    0    0 -0.00000000000E+00 -0.00000000000E+00 -0.45593999997E+02  0.45594000000E+02  0.51100000000E-03 0. -1.
    9900012    2    1    2    0    0 -0.17323088133E+02 -0.35360559903E+02 -0.10134462077E+02  0.50528857108E+02  0.29999991664E+02 0.  0.
        -12    1    1    2    0    0  0.17323088133E+02  0.35360559903E+02  0.10134462077E+02  0.40659142892E+02  0.00000000000E+00 0.  1.
         11    1    3    3    0    0 -0.47724976235E+01 -0.73010350585E+01 -0.21257137678E+01  0.89777784432E+01  0.51100000000E-03 0. -1.
        -11    1    3    3    0    0 -0.12314338284E+02  0.38920556921E+00 -0.22433661360E+01  0.12523062733E+02  0.51100000000E-03 0.  1.
        -12    1    3    3    0    0 -0.23625222606E+00 -0.28448730414E+02 -0.57653821732E+01  0.29028015931E+02  0.00000000000E+00 0.  1.
</event>
<event>
 7    1  0.4878192E-011  0.5052887E+02  0.7816164E-02  0.1300439E+00
        -11   -1    0    0    0    0  0.00000000000E+00  0.00000000000E+00  0.45593999997E+02  0.45594000000E+02  0.51100000000E-03 0.  1.
         11   -1    0    0    0    0 -0.00000000000E+00 -0.00000000000E+00 -0.45593999997E+02  0.45594000000E+02  0.51100000000E-03 0. -1.
    9900012    2    1    2    0    0  0.23298951578E+02  0.10213078013E+02 -0.31717771595E+02  0.50528866437E+02  0.30000020023E+02 0.  0.
        -12    1    1    2    0    0 -0.23298951578E+02 -0.10213078013E+02  0.31717771595E+02  0.40659133563E+02  0.00000000000E+00 0.  1.
         11    1    3    3    0    0  0.71060054654E+01 -0.46555350975E+01 -0.47081828902E+01  0.97126879445E+01  0.51100000000E-03 0. -1.
        -11    1    3    3    0    0  0.19030862503E+01  0.13877787006E+02 -0.56631594249E+01  0.15109139102E+02  0.51100000000E-03 0.  1.
        -12    1    3    3    0    0  0.14289859862E+02  0.99082610424E+00 -0.21346429280E+02  0.25707039391E+02  0.00000000000E+00 0.  1.
</event>
<event>
 7    1  0.4878192E-011  0.5052886E+02  0.7816164E-02  0.1300439E+00
        -11   -1    0    0    0    0  0.00000000000E+00  0.00000000000E+00  0.45593999997E+02  0.45594000000E+02  0.51100000000E-03 0. -1.
         11   -1    0    0    0    0 -0.00000000000E+00 -0.00000000000E+00 -0.45593999997E+02  0.45594000000E+02  0.51100000000E-03 0.  1.
    9900012    2    1    2    0    0  0.12589572525E+01 -0.39986754277E+02 -0.72553414704E+01  0.50528862394E+02  0.30000007734E+02 0.  0.
        -12    1    1    2    0    0 -0.12589572525E+01  0.39986754277E+02  0.72553414704E+01  0.40659137606E+02  0.00000000000E+00 0.  1.
         11    1    3    3    0    0  0.10354435576E+02 -0.32631773798E+02 -0.43186379996E+00  0.34237895729E+02  0.51100000000E-03 0. -1.
        -11    1    3    3    0    0  0.50759943545E+00  0.92827959521E+00  0.94519714589E+00  0.14187170611E+01  0.51100000000E-03 0.  1.
         12    1    3    3    0    0 -0.96030777591E+01 -0.82832600738E+01 -0.77686748163E+01  0.14872249605E+02  0.00000000000E+00 0. -1.
</event>
<event>
 7    1  0.4878192E-011  0.5052888E+02  0.7816164E-02  0.1300439E+00
        -11   -1    0    0    0    0  0.00000000000E+00  0.00000000000E+00  0.45593999997E+02  0.45594000000E+02  0.51100000000E-03 0.  1.
         11   -1    0    0    0    0 -0.00000000000E+00 -0.00000000000E+00 -0.45593999997E+02  0.45594000000E+02  0.51100000000E-03 0. -1.
    9900012    2    1    2    0    0 -0.80354341489E+01  0.17371517825E+02 -0.35872357681E+02  0.50528881968E+02  0.30000067230E+02 0.  0.
        -12    1    1    2    0    0  0.80354341489E+01 -0.17371517825E+02  0.35872357681E+02  0.40659118032E+02  0.00000000000E+00 0.  1.
         11    1    3    3    0    0  0.64197162430E+01 -0.54043448495E+01 -0.75180946662E+01  0.11266829526E+02  0.51100000000E-03 0. -1.
        -11    1    3    3    0    0 -0.89025336073E+01  0.11155822066E+02 -0.14472026923E+02  0.20326018649E+02  0.51100000000E-03 0.  1.
         12    1    3    3    0    0 -0.55526167846E+01  0.11620040609E+02 -0.13882236092E+02  0.18936033793E+02  0.00000000000E+00 0. -1.
</event>
<event>
 7    1  0.4878192E-011  0.5052886E+02  0.7816164E-02  0.1300439E+00
        -11   -1    0    0    0    0  0.00000000000E+00  0.00000000000E+00  0.45593999997E+02  0.45594000000E+02  0.51100000000E-03 0.  1.
         11   -1    0    0    0    0 -0.00000000000E+00 -0.00000000000E+00 -0.45593999997E+02  0.45594000000E+02  0.51100000000E-03 0. -1.
    9900012    2    1    2    0    0  0.37020685391E+02  0.11078635538E+01 -0.16775198086E+02  0.50528858601E+02  0.29999996204E+02 0.  0.
        -12    1    1    2    0    0 -0.37020685391E+02 -0.11078635538E+01  0.16775198086E+02  0.40659141399E+02  0.00000000000E+00 0.  1.
         11    1    3    3    0    0  0.24453800365E+02 -0.52913350871E+01 -0.18819182080E+02  0.31307318533E+02  0.51100000000E-03 0. -1.
        -11    1    3    3    0    0  0.13845089270E+02  0.86934981715E+01  0.94786126541E+00  0.16375648036E+02  0.51100000000E-03 0.  1.
        -12    1    3    3    0    0 -0.12782042438E+01 -0.22942995306E+01  0.10961227286E+01  0.28458920326E+01  0.00000000000E+00 0.  1.
</event>
<event>
 7    1  0.4878192E-011  0.5052881E+02  0.7816164E-02  0.1300439E+00
        -11   -1    0    0    0    0  0.00000000000E+00  0.00000000000E+00  0.45593999997E+02  0.45594000000E+02  0.51100000000E-03 0. -1.
         11   -1    0    0    0    0 -0.00000000000E+00 -0.00000000000E+00 -0.45593999997E+02  0.45594000000E+02  0.51100000000E-03 0.  1.
    9900012    2    1    2    0    0  0.34326852272E+02 -0.52313633275E+00  0.21784464984E+02  0.50528814406E+02  0.29999861869E+02 0.  0.
        -12    1    1    2    0    0 -0.34326852272E+02  0.52313633275E+00 -0.21784464984E+02  0.40659185594E+02  0.00000000000E+00 0.  1.
         11    1    3    3    0    0  0.76545728376E+01  0.34748530139E+01  0.89297228663E+01  0.12264054775E+02  0.51100000000E-03 0. -1.
        -11    1    3    3    0    0  0.77825559041E+01 -0.12906640415E+02  0.41017898574E+01  0.15619674244E+02  0.51100000000E-03 0.  1.
        -12    1    3    3    0    0  0.18889723530E+02  0.89086510684E+01  0.87529522598E+01  0.22645085387E+02  0.00000000000E+00 0.  1.
</event>
<event>
 7    1  0.4878192E-011  0.5052886E+02  0.7816164E-02  0.1300439E+00
        -11   -1    0    0    0    0  0.00000000000E+00  0.00000000000E+00  0.45593999997E+02  0.45594000000E+02  0.51100000000E-03 0.  1.
         11   -1    0    0    0    0 -0.00000000000E+00 -0.00000000000E+00 -0.45593999997E+02  0.45594000000E+02  0.51100000000E-03 0. -1.
    9900012    2    1    2    0    0  0.25661370305E+02 -0.13300609868E+02 -0.28596390093E+02  0.50528859882E+02  0.30000000097E+02 0.  0.
        -12    1    1    2    0    0 -0.25661370305E+02  0.13300609868E+02  0.28596390093E+02  0.40659140118E+02  0.00000000000E+00 0.  1.
         11    1    3    3    0    0  0.88651287514E+01  0.82314858940E+00 -0.15334100756E+02  0.17731405123E+02  0.51100000000E-03 0. -1.
        -11    1    3    3    0    0  0.15531810635E+02 -0.18129530853E+02 -0.15062270349E+02  0.28227451512E+02  0.51100000000E-03 0.  1.
        -12    1    3    3    0    0  0.12644309187E+01  0.40057723955E+01  0.17999810116E+01  0.45700032467E+01  0.00000000000E+00 0.  1.
</event>
<event>
 7    1  0.4878192E-011  0.5052884E+02  0.7816164E-02  0.1300439E+00
        -11   -1    0    0    0    0  0.00000000000E+00  0.00000000000E+00  0.45593999997E+02  0.45594000000E+02  0.51100000000E-03 0. -1.
         11   -1    0    0    0    0 -0.00000000000E+00 -0.00000000000E+00 -0.45593999997E+02  0.45594000000E+02  0.51100000000E-03 0.  1.
    9900012    2    1    2    0    0  0.52822435831E+00  0.18743002229E+02  0.36077529104E+02  0.50528840395E+02  0.29999940865E+02 0.  0.
        -12    1    1    2    0    0 -0.52822435831E+00 -0.18743002229E+02 -0.36077529104E+02  0.40659159605E+02  0.00000000000E+00 0.  1.
         11    1    3    3    0    0  0.85646427577E+01  0.14898114733E+02  0.26259627104E+02  0.31382717283E+02  0.51100000000E-03 0. -1.
        -11    1    3    3    0    0 -0.31750852438E+00 -0.46641303124E+01  0.13243925721E+01  0.48589030841E+01  0.51100000000E-03 0.  1.
        -12    1    3    3    0    0 -0.77189098750E+01  0.85090178084E+01  0.84935094276E+01  0.14287220028E+02  0.00000000000E+00 0.  1.
</event>
<event>
 7    1  0.4878192E-011  0.5052886E+02  0.7816164E-02  0.1300439E+00
        -11   -1    0    0    0    0  0.00000000000E+00  0.00000000000E+00  0.45593999997E+02  0.45594000000E+02  0.51100000000E-03 0.  1.
         11   -1    0    0    0    0 -0.00000000000E+00 -0.00000000000E+00 -0.45593999997E+02  0.45594000000E+02  0.51100000000E-03 0. -1.
    9900012    2    1    2    0    0  0.34301069180E+01  0.30255812050E+02 -0.26944122165E+02  0.50528861845E+02  0.30000006063E+02 0.  0.
        -12    1    1    2    0    0 -0.34301069180E+01 -0.30255812050E+02  0.26944122165E+02  0.40659138155E+02  0.00000000000E+00 0.  1.
         11    1    3    3    0    0  0.71369396924E+01 -0.30251840504E+01 -0.25982026724E+01  0.81754696562E+01  0.51100000000E-03 0.  1.
        -11    1    3    3    0    0 -0.28052705254E+01  0.26593788115E+02 -0.14506878190E+02  0.30422830640E+02  0.51100000000E-03 0. -1.
        -12    1    3    3    0    0 -0.90156224902E+00  0.66872079856E+01 -0.98390413020E+01  0.11930561549E+02  0.00000000000E+00 0.  1.
</event>
<event>
 7    1  0.4878192E-011  0.5052888E+02  0.7816164E-02  0.1300439E+00
        -11   -1    0    0    0    0  0.00000000000E+00  0.00000000000E+00  0.45593999997E+02  0.45594000000E+02  0.51100000000E-03 0. -1.
         11   -1    0    0    0    0 -0.00000000000E+00 -0.00000000000E+00 -0.45593999997E+02  0.45594000000E+02  0.51100000000E-03 0.  1.
    9900012    2    1    2    0    0 -0.30471115352E+02  0.18242354989E+02  0.19796251409E+02  0.50528881021E+02  0.30000064352E+02 0.  0.
        -12    1    1    2    0    0  0.30471115352E+02 -0.18242354989E+02 -0.19796251409E+02  0.40659118979E+02  0.00000000000E+00 0.  1.
         11    1    3    3    0    0 -0.28174403172E+02  0.74041583554E+01  0.71241375852E+01  0.29989529700E+02  0.51100000000E-03 0. -1.
        -11    1    3    3    0    0  0.62501286572E-01  0.99786708267E+01  0.28162285615E+01  0.10368650898E+02  0.51100000000E-03 0.  1.
         12    1    3    3    0    0 -0.23592134665E+01  0.85952580650E+00  0.98558852620E+01  0.10170700423E+02  0.00000000000E+00 0. -1.
</event>
<event>
 7    1  0.4878192E-011  0.5052886E+02  0.7816164E-02  0.1300439E+00
        -11   -1    0    0    0    0  0.00000000000E+00  0.00000000000E+00  0.45593999997E+02  0.45594000000E+02  0.51100000000E-03 0.  1.
         11   -1    0    0    0    0 -0.00000000000E+00 -0.00000000000E+00 -0.45593999997E+02  0.45594000000E+02  0.51100000000E-03 0. -1.
    9900012    2    1    2    0    0 -0.17211620624E+01 -0.39221793189E+02  0.10576101012E+02  0.50528863605E+02  0.30000011413E+02 0.  0.
        -12    1    1    2    0    0  0.17211620624E+01  0.39221793189E+02 -0.10576101012E+02  0.40659136395E+02  0.00000000000E+00 0.  1.
         11    1    3    3    0    0 -0.37242784356E+01 -0.13911482310E+02 -0.42665563258E+01  0.15020089649E+02  0.51100000000E-03 0. -1.
        -11    1    3    3    0    0  0.59028818165E+01 -0.38160209781E+01  0.11401738866E+02  0.13394240526E+02  0.51100000000E-03 0.  1.
        -12    1    3    3    0    0 -0.38997654434E+01 -0.21494289901E+02  0.34409184713E+01  0.22114533429E+02  0.00000000000E+00 0.  1.
</event>
<event>
 7    1  0.4878192E-011  0.5052886E+02  0.7816164E-02  0.1300439E+00
        -11   -1    0    0    0    0  0.00000000000E+00  0.00000000000E+00  0.45593999997E+02  0.45594000000E+02  0.51100000000E-03 0.  1.
         11   -1    0    0    0    0 -0.00000000000E+00 -0.00000000000E+00 -0.45593999997E+02  0.45594000000E+02  0.51100000000E-03 0. -1.
    9900012    2    1    2    0    0  0.24450039986E+02 -0.32407500581E+02  0.22616321420E+01  0.50528861677E+02  0.30000005554E+02 0.  0.
        -12    1    1    2    0    0 -0.24450039986E+02  0.32407500581E+02 -0.22616321420E+01  0.40659138323E+02  0.00000000000E+00 0.  1.
         11    1    3    3    0    0  0.39069381374E+01 -0.15776810695E+02 -0.79391561269E+01  0.18088729131E+02  0.51100000000E-03 0. -1.
        -11    1    3    3    0    0  0.44758468312E+01 -0.88667522231E+01  0.10685520002E+02  0.14588791513E+02  0.51100000000E-03 0.  1.
         12    1    3    3    0    0  0.16067255017E+02 -0.77639376628E+01 -0.48473173300E+00  0.17851341033E+02  0.00000000000E+00 0. -1.
</event>
<event>
 7    1  0.4878192E-011  0.5052880E+02  0.7816164E-02  0.1300439E+00
        -11   -1    0    0    0    0  0.00000000000E+00  0.00000000000E+00  0.45593999997E+02  0.45594000000E+02  0.51100000000E-03 0. -1.
         11   -1    0    0    0    0 -0.00000000000E+00 -0.00000000000E+00 -0.45593999997E+02  0.45594000000E+02  0.51100000000E-03 0.  1.
    9900012    2    1    2    0    0  0.16876767836E+02 -0.36990355809E+02 -0.24327761657E+00  0.50528795636E+02  0.29999804816E+02 0.  0.
        -12    1    1    2    0    0 -0.16876767836E+02  0.36990355809E+02  0.24327761657E+00  0.40659204364E+02  0.00000000000E+00 0.  1.
         11    1    3    3    0    0  0.57295316395E+01 -0.17369008221E+01  0.34381256065E+01  0.69039890804E+01  0.51100000000E-03 0. -1.
        -11    1    3    3    0    0  0.66284161914E+01 -0.33767348329E+02  0.39442801197E+01  0.34637076382E+02  0.51100000000E-03 0.  1.
        -12    1    3    3    0    0  0.45188200046E+01 -0.14861066584E+01 -0.76256833428E+01  0.89877301739E+01  0.00000000000E+00 0.  1.
</event>
<event>
 7    1  0.4878192E-011  0.5052886E+02  0.7816164E-02  0.1300439E+00
        -11   -1    0    0    0    0  0.00000000000E+00  0.00000000000E+00  0.45593999997E+02  0.45594000000E+02  0.51100000000E-03 0. -1.
         11   -1    0    0    0    0 -0.00000000000E+00 -0.00000000000E+00 -0.45593999997E+02  0.45594000000E+02  0.51100000000E-03 0.  1.
    9900012    2    1    2    0    0  0.21784991381E+02 -0.22964790815E+02  0.25518587638E+02  0.50528858571E+02  0.29999996112E+02 0.  0.
        -12    1    1    2    0    0 -0.21784991381E+02  0.22964790815E+02 -0.25518587638E+02  0.40659141429E+02  0.00000000000E+00 0.  1.
         11    1    3    3    0    0  0.57839094482E+01 -0.67334213271E+01  0.18727881509E+02  0.20725011878E+02  0.51100000000E-03 0. -1.
        -11    1    3    3    0    0  0.14439759560E+02 -0.18962085561E+02  0.94947849757E+01  0.25655765180E+02  0.51100000000E-03 0.  1.
        -12    1    3    3    0    0  0.15613223732E+01  0.27307160730E+01 -0.27040788466E+01  0.41480815123E+01  0.00000000000E+00 0.  1.
</event>
<event>
 7    1  0.4878192E-011  0.5052887E+02  0.7816164E-02  0.1300439E+00
        -11   -1    0    0    0    0  0.00000000000E+00  0.00000000000E+00  0.45593999997E+02  0.45594000000E+02  0.51100000000E-03 0.  1.
         11   -1    0    0    0    0 -0.00000000000E+00 -0.00000000000E+00 -0.45593999997E+02  0.45594000000E+02  0.51100000000E-03 0. -1.
    9900012    2    1    2    0    0  0.32417970919E+02  0.86278189174E+01 -0.22973914167E+02  0.50528870276E+02  0.30000031690E+02 0.  0.
        -12    1    1    2    0    0 -0.32417970919E+02 -0.86278189174E+01  0.22973914167E+02  0.40659129724E+02  0.00000000000E+00 0.  1.
         11    1    3    3    0    0 -0.93887727028E+00  0.57848336257E+01 -0.13266563172E+02  0.14503361309E+02  0.51100000000E-03 0. -1.
        -11    1    3    3    0    0  0.18032206542E+02 -0.11422872526E+01 -0.13442412066E+01  0.18118285725E+02  0.51100000000E-03 0.  1.
        -12    1    3    3    0    0  0.15324641648E+02  0.39852725443E+01 -0.83631097889E+01  0.17907223241E+02  0.00000000000E+00 0.  1.
</event>
<event>
 7    1  0.4878192E-011  0.5052886E+02  0.7816164E-02  0.1300439E+00
        -11   -1    0    0    0    0  0.00000000000E+00  0.00000000000E+00  0.45593999997E+02  0.45594000000E+02  0.51100000000E-03 0.  1.
         11   -1    0    0    0    0 -0.00000000000E+00 -0.00000000000E+00 -0.45593999997E+02  0.45594000000E+02  0.51100000000E-03 0. -1.
    9900012    2    1    2    0    0  0.75645807876E+01  0.37488093466E+00 -0.39947491579E+02  0.50528862015E+02  0.30000006581E+02 0.  0.
        -12    1    1    2    0    0 -0.75645807876E+01 -0.37488093466E+00  0.39947491579E+02  0.40659137985E+02  0.00000000000E+00 0.  1.
         11    1    3    3    0    0 -0.48150127287E+01  0.29591470214E+01 -0.94971970445E+01  0.11051590412E+02  0.51100000000E-03 0. -1.
        -11    1    3    3    0    0  0.56535057801E+01 -0.10923115408E+02 -0.82006407086E+01  0.14782661672E+02  0.51100000000E-03 0.  1.
        -12    1    3    3    0    0  0.67260877363E+01  0.83388493213E+01 -0.22249653826E+02  0.24694609931E+02  0.00000000000E+00 0.  1.
</event>
<event>
 7    1  0.4878192E-011  0.5052887E+02  0.7816164E-02  0.1300439E+00
        -11   -1    0    0    0    0  0.00000000000E+00  0.00000000000E+00  0.45593999997E+02  0.45594000000E+02  0.51100000000E-03 0. -1.
         11   -1    0    0    0    0 -0.00000000000E+00 -0.00000000000E+00 -0.45593999997E+02  0.45594000000E+02  0.51100000000E-03 0.  1.
    9900012    2    1    2    0    0 -0.37809947565E+02 -0.85649874260E+01 -0.12256178148E+02  0.50528867603E+02  0.30000023567E+02 0.  0.
        -12    1    1    2    0    0  0.37809947565E+02  0.85649874260E+01  0.12256178148E+02  0.40659132397E+02  0.00000000000E+00 0.  1.
         11    1    3    3    0    0 -0.37669379486E+02 -0.11079382137E+00 -0.70136956793E+01  0.38316919938E+02  0.51100000000E-03 0. -1.
        -11    1    3    3    0    0 -0.14355660439E+01 -0.68698525261E+01 -0.66974833050E+01  0.97011342883E+01  0.51100000000E-03 0.  1.
         12    1    3    3    0    0  0.12949979656E+01 -0.15843410785E+01  0.14550008360E+01  0.25108133775E+01  0.00000000000E+00 0. -1.
</event>
<event>
 7    1  0.4878192E-011  0.5052886E+02  0.7816164E-02  0.1300439E+00
        -11   -1    0    0    0    0  0.00000000000E+00  0.00000000000E+00  0.45593999997E+02  0.45594000000E+02  0.51100000000E-03 0.  1.
         11   -1    0    0    0    0 -0.00000000000E+00 -0.00000000000E+00 -0.45593999997E+02  0.45594000000E+02  0.51100000000E-03 0. -1.
    9900012    2    1    2    0    0 -0.30896182838E+02  0.63216919895E+01 -0.25663741145E+02  0.50528861875E+02  0.30000006154E+02 0.  0.
        -12    1    1    2    0    0  0.30896182838E+02 -0.63216919895E+01  0.25663741145E+02  0.40659138125E+02  0.00000000000E+00 0.  1.
         11    1    3    3    0    0 -0.16873766169E+02  0.43730364988E+00 -0.17464475040E+02  0.24288332752E+02  0.51100000000E-03 0. -1.
        -11    1    3    3    0    0  0.37183746058E+01  0.58721511708E+01 -0.72007606326E+00  0.69876304195E+01  0.51100000000E-03 0.  1.
        -12    1    3    3    0    0 -0.17740791274E+02  0.12237168822E-01 -0.74791900421E+01  0.19252898703E+02  0.00000000000E+00 0.  1.
</event>
<event>
 7    1  0.4878192E-011  0.5052886E+02  0.7816164E-02  0.1300439E+00
        -11   -1    0    0    0    0  0.00000000000E+00  0.00000000000E+00  0.45593999997E+02  0.45594000000E+02  0.51100000000E-03 0. -1.
         11   -1    0    0    0    0 -0.00000000000E+00 -0.00000000000E+00 -0.45593999997E+02  0.45594000000E+02  0.51100000000E-03 0.  1.
    9900012    2    1    2    0    0  0.44958843835E+01  0.36796570136E+02  0.16702249930E+02  0.50528859541E+02  0.29999999061E+02 0.  0.
        -12    1    1    2    0    0 -0.44958843835E+01 -0.36796570136E+02 -0.16702249930E+02  0.40659140459E+02  0.00000000000E+00 0.  1.
         11    1    3    3    0    0  0.12569340792E+02  0.51976559144E+01  0.37291341491E+01  0.14103559718E+02  0.51100000000E-03 0. -1.
        -11    1    3    3    0    0 -0.84273407721E+01  0.20294568972E+02  0.48582867545E+01  0.22505389415E+02  0.51100000000E-03 0.  1.
         12    1    3    3    0    0  0.35388436364E+00  0.11304345249E+02  0.81148290267E+01  0.13919910408E+02  0.00000000000E+00 0. -1.
</event>
<event>
 7    1  0.4878192E-011  0.5052886E+02  0.7816164E-02  0.1300439E+00
        -11   -1    0    0    0    0  0.00000000000E+00  0.00000000000E+00  0.45593999997E+02  0.45594000000E+02  0.51100000000E-03 0. -1.
         11   -1    0    0    0    0 -0.00000000000E+00 -0.00000000000E+00 -0.45593999997E+02  0.45594000000E+02  0.51100000000E-03 0.  1.
    9900012    2    1    2    0    0 -0.12715089301E+02  0.18856663335E+02  0.33703391339E+02  0.50528857906E+02  0.29999994091E+02 0.  0.
        -12    1    1    2    0    0  0.12715089301E+02 -0.18856663335E+02 -0.33703391339E+02  0.40659142094E+02  0.00000000000E+00 0.  1.
         11    1    3    3    0    0  0.30403737499E+01  0.37612202287E+01  0.13104880463E+02  0.13968841840E+02  0.51100000000E-03 0.  1.
        -11    1    3    3    0    0 -0.12915359608E+02  0.19092542721E+02  0.10490602734E+02  0.25325569043E+02  0.51100000000E-03 0. -1.
        -12    1    3    3    0    0 -0.28401034435E+01 -0.39970996151E+01  0.10107908142E+02  0.11234447023E+02  0.00000000000E+00 0.  1.
</event>
<event>
 7    1  0.4878192E-011  0.5052887E+02  0.7816164E-02  0.1300439E+00
        -11   -1    0    0    0    0  0.00000000000E+00  0.00000000000E+00  0.45593999997E+02  0.45594000000E+02  0.51100000000E-03 0.  1.
         11   -1    0    0    0    0 -0.00000000000E+00 -0.00000000000E+00 -0.45593999997E+02  0.45594000000E+02  0.51100000000E-03 0. -1.
    9900012    2    1    2    0    0  0.27620543054E+02 -0.12126556366E+02 -0.27262011896E+02  0.50528867441E+02  0.30000023072E+02 0.  0.
        -12    1    1    2    0    0 -0.27620543054E+02  0.12126556366E+02  0.27262011896E+02  0.40659132559E+02  0.00000000000E+00 0.  1.
         11    1    3    3    0    0  0.51893532059E+00 -0.10652210371E+02 -0.73087727099E+01  0.12928922555E+02  0.51100000000E-03 0. -1.
        -11    1    3    3    0    0  0.13866444102E+02 -0.16952283732E+01 -0.38488777837E+00  0.13974985156E+02  0.51100000000E-03 0.  1.
         12    1    3    3    0    0  0.13235163631E+02  0.22088237828E+00 -0.19568351408E+02  0.23624959729E+02  0.00000000000E+00 0. -1.
</event>
<event>
 7    1  0.4878192E-011  0.5052885E+02  0.7816164E-02  0.1300439E+00
        -11   -1    0    0    0    0  0.00000000000E+00  0.00000000000E+00  0.45593999997E+02  0.45594000000E+02  0.51100000000E-03 0.  1.
         11   -1    0    0    0    0 -0.00000000000E+00 -0.00000000000E+00 -0.45593999997E+02  0.45594000000E+02  0.51100000000E-03 0. -1.
    9900012    2    1    2    0    0  0.75792538860E+01 -0.28152271671E+02 -0.28340269743E+02  0.50528851228E+02  0.29999973794E+02 0.  0.
        -12    1    1    2    0    0 -0.75792538860E+01  0.28152271671E+02  0.28340269743E+02  0.40659148772E+02  0.00000000000E+00 0.  1.
         11    1    3    3    0    0  0.30977255190E+00 -0.11835081914E+02  0.33950089685E+01  0.12316298514E+02  0.51100000000E-03 0. -1.
        -11    1    3    3    0    0  0.56139836744E+01 -0.11272292008E+01 -0.11596976836E+02  0.12933573766E+02  0.51100000000E-03 0.  1.
         12    1    3    3    0    0  0.16554976597E+01 -0.15189960557E+02 -0.20138301875E+02  0.25278978948E+02  0.00000000000E+00 0. -1.
</event>
<event>
 7    1  0.4878192E-011  0.5052887E+02  0.7816164E-02  0.1300439E+00
        -11   -1    0    0    0    0  0.00000000000E+00  0.00000000000E+00  0.45593999997E+02  0.45594000000E+02  0.51100000000E-03 0.  1.
         11   -1    0    0    0    0 -0.00000000000E+00 -0.00000000000E+00 -0.45593999997E+02  0.45594000000E+02  0.51100000000E-03 0. -1.
    9900012    2    1    2    0    0  0.20949015419E+02 -0.57800211471E+01 -0.34364149103E+02  0.50528872672E+02  0.30000038975E+02 0.  0.
        -12    1    1    2    0    0 -0.20949015419E+02  0.57800211471E+01  0.34364149103E+02  0.40659127328E+02  0.00000000000E+00 0.  1.
         11    1    3    3    0    0  0.10348243221E+02 -0.18244508177E+01 -0.28253987462E+01  0.10881067819E+02  0.51100000000E-03 0. -1.
        -11    1    3    3    0    0  0.47559809511E+01  0.47744294346E+01 -0.27627344782E+02  0.28437382285E+02  0.51100000000E-03 0.  1.
        -12    1    3    3    0    0  0.58447912468E+01 -0.87299997640E+01 -0.39114055746E+01  0.11210422569E+02  0.00000000000E+00 0.  1.
</event>
<event>
 7    1  0.4878192E-011  0.5052886E+02  0.7816164E-02  0.1300439E+00
        -11   -1    0    0    0    0  0.00000000000E+00  0.00000000000E+00  0.45593999997E+02  0.45594000000E+02  0.51100000000E-03 0.  1.
         11   -1    0    0    0    0 -0.00000000000E+00 -0.00000000000E+00 -0.45593999997E+02  0.45594000000E+02  0.51100000000E-03 0. -1.
    9900012    2    1    2    0    0  0.82111083816E+01 -0.51589896096E+00 -0.39818054260E+02  0.50528857145E+02  0.29999991779E+02 0.  0.
        -12    1    1    2    0    0 -0.82111083816E+01  0.51589896096E+00  0.39818054260E+02  0.40659142855E+02  0.00000000000E+00 0.  1.
         11    1    3    3    0    0  0.11658924776E+02 -0.17688970261E+01 -0.27252733311E+02  0.29694629090E+02  0.51100000000E-03 0. -1.
        -11    1    3    3    0    0 -0.74218932087E+01 -0.50197761931E+01 -0.85848500954E+01  0.12408960603E+02  0.51100000000E-03 0.  1.
         12    1    3    3    0    0  0.39740768140E+01  0.62727742583E+01 -0.39804708544E+01  0.84252674523E+01  0.00000000000E+00 0. -1.
</event>
<event>
 7    1  0.4878192E-011  0.5052887E+02  0.7816164E-02  0.1300439E+00
        -11   -1    0    0    0    0  0.00000000000E+00  0.00000000000E+00  0.45593999997E+02  0.45594000000E+02  0.51100000000E-03 0.  1.
         11   -1    0    0    0    0 -0.00000000000E+00 -0.00000000000E+00 -0.45593999997E+02  0.45594000000E+02  0.51100000000E-03 0. -1.
    9900012    2    1    2    0    0 -0.38063165278E+02 -0.15570963943E+01 -0.14210402681E+02  0.50528872556E+02  0.30000038620E+02 0.  0.
        -12    1    1    2    0    0  0.38063165278E+02  0.15570963943E+01  0.14210402681E+02  0.40659127444E+02  0.00000000000E+00 0.  1.
         11    1    3    3    0    0 -0.27966280760E+02 -0.11779114227E+02 -0.10593095981E+02  0.32141469696E+02  0.51100000000E-03 0. -1.
        -11    1    3    3    0    0  0.13851667157E+01 -0.10040914059E+01  0.55055975743E+00  0.17972208237E+01  0.51100000000E-03 0.  1.
         12    1    3    3    0    0 -0.11482051234E+02  0.11226109238E+02 -0.41678664567E+01  0.16590182036E+02  0.00000000000E+00 0. -1.
</event>
<event>
 7    1  0.4878192E-011  0.5052886E+02  0.7816164E-02  0.1300439E+00
        -11   -1    0    0    0    0  0.00000000000E+00  0.00000000000E+00  0.45593999997E+02  0.45594000000E+02  0.51100000000E-03 0.  1.
         11   -1    0    0    0    0 -0.00000000000E+00 -0.00000000000E+00 -0.45593999997E+02  0.45594000000E+02  0.51100000000E-03 0. -1.
    9900012    2    1    2    0    0  0.74876914648E+01 -0.28493658987E+02 -0.28021627007E+02  0.50528859501E+02  0.29999998940E+02 0.  0.
        -12    1    1    2    0    0 -0.74876914648E+01  0.28493658987E+02  0.28021627007E+02  0.40659140499E+02  0.00000000000E+00 0.  1.
         11    1    3    3    0    0 -0.14170983566E+01 -0.21937601398E+01 -0.32818154721E+01  0.41941702824E+01  0.51100000000E-03 0. -1.
        -11    1    3    3    0    0 -0.36387329829E+01 -0.10865667642E+02 -0.23810646385E+02  0.26424420383E+02  0.51100000000E-03 0.  1.
        -12    1    3    3    0    0  0.12543522804E+02 -0.15434231205E+02 -0.92916514995E+00  0.19910268836E+02  0.00000000000E+00 0.  1.
</event>
<event>
 7    1  0.4878192E-011  0.5052887E+02  0.7816164E-02  0.1300439E+00
        -11   -1    0    0    0    0  0.00000000000E+00  0.00000000000E+00  0.45593999997E+02  0.45594000000E+02  0.51100000000E-03 0.  1.
         11   -1    0    0    0    0 -0.00000000000E+00 -0.00000000000E+00 -0.45593999997E+02  0.45594000000E+02  0.51100000000E-03 0. -1.
    9900012    2    1    2    0    0  0.16477793399E+02 -0.15722926537E+02 -0.33681404509E+02  0.50528866907E+02  0.30000021449E+02 0.  0.
        -12    1    1    2    0    0 -0.16477793399E+02  0.15722926537E+02  0.33681404509E+02  0.40659133093E+02  0.00000000000E+00 0.  1.
         11    1    3    3    0    0  0.10097187384E+02  0.41338542709E+01 -0.61916891810E+01  0.12545077098E+02  0.51100000000E-03 0. -1.
        -11    1    3    3    0    0 -0.35782466788E+01 -0.14360039577E+02 -0.16551778601E+02  0.22203061975E+02  0.51100000000E-03 0.  1.
        -12    1    3    3    0    0  0.99588526933E+01 -0.54967412314E+01 -0.10937936727E+02  0.15780727834E+02  0.00000000000E+00 0.  1.
</event>
<event>
 7    1  0.4878192E-011  0.5052885E+02  0.7816164E-02  0.1300439E+00
        -11   -1    0    0    0    0  0.00000000000E+00  0.00000000000E+00  0.45593999997E+02  0.45594000000E+02  0.51100000000E-03 0. -1.
         11   -1    0    0    0    0 -0.00000000000E+00 -0.00000000000E+00 -0.45593999997E+02  0.45594000000E+02  0.51100000000E-03 0.  1.
    9900012    2    1    2    0    0  0.40428600370E+02  0.13325496496E+01  0.41132953598E+01  0.50528848322E+02  0.29999964960E+02 0.  0.
        -12    1    1    2    0    0 -0.40428600370E+02 -0.13325496496E+01 -0.41132953598E+01  0.40659151678E+02  0.00000000000E+00 0.  1.
         11    1    3    3    0    0  0.38238171978E+02 -0.12748399146E+01 -0.17356892168E+01  0.38298768001E+02  0.51100000000E-03 0. -1.
        -11    1    3    3    0    0  0.18185473990E+01  0.14714829384E+01  0.87686021794E+01  0.90752829775E+01  0.51100000000E-03 0.  1.
        -12    1    3    3    0    0  0.37188099259E+00  0.11359066258E+01 -0.29196176028E+01  0.31547973440E+01  0.00000000000E+00 0.  1.
</event>
<event>
 7    1  0.4878192E-011  0.5052886E+02  0.7816164E-02  0.1300439E+00
        -11   -1    0    0    0    0  0.00000000000E+00  0.00000000000E+00  0.45593999997E+02  0.45594000000E+02  0.51100000000E-03 0.  1.
         11   -1    0    0    0    0 -0.00000000000E+00 -0.00000000000E+00 -0.45593999997E+02  0.45594000000E+02  0.51100000000E-03 0. -1.
    9900012    2    1    2    0    0  0.35045587819E+02 -0.13720699571E+02 -0.15385549809E+02  0.50528856315E+02  0.29999989254E+02 0.  0.
        -12    1    1    2    0    0 -0.35045587819E+02  0.13720699571E+02  0.15385549809E+02  0.40659143685E+02  0.00000000000E+00 0.  1.
         11    1    3    3    0    0  0.77416094535E+01 -0.13602094553E+02 -0.14652216745E+02  0.21439145248E+02  0.51100000000E-03 0. -1.
        -11    1    3    3    0    0  0.20470918019E+02  0.18876476760E+01 -0.44837117536E+01  0.21041040127E+02  0.51100000000E-03 0.  1.
         12    1    3    3    0    0  0.68330603469E+01 -0.20062526935E+01  0.37503786896E+01  0.80486709393E+01  0.00000000000E+00 0. -1.
</event>
<event>
 7    1  0.4878192E-011  0.5052886E+02  0.7816164E-02  0.1300439E+00
        -11   -1    0    0    0    0  0.00000000000E+00  0.00000000000E+00  0.45593999997E+02  0.45594000000E+02  0.51100000000E-03 0.  1.
         11   -1    0    0    0    0 -0.00000000000E+00 -0.00000000000E+00 -0.45593999997E+02  0.45594000000E+02  0.51100000000E-03 0. -1.
    9900012    2    1    2    0    0  0.22965175524E+00  0.37410065177E+02 -0.15924820052E+02  0.50528860681E+02  0.30000002526E+02 0.  0.
        -12    1    1    2    0    0 -0.22965175524E+00 -0.37410065177E+02  0.15924820052E+02  0.40659139319E+02  0.00000000000E+00 0.  1.
         11    1    3    3    0    0  0.75612081866E+01  0.31025471706E+02 -0.10212363200E+02  0.33526767309E+02  0.51100000000E-03 0. -1.
        -11    1    3    3    0    0 -0.51679878901E+01  0.66160909837E+00 -0.87404345789E+01  0.10175510912E+02  0.51100000000E-03 0.  1.
         12    1    3    3    0    0 -0.21635685412E+01  0.57229843731E+01  0.30279777270E+01  0.68265824599E+01  0.00000000000E+00 0. -1.
</event>
<event>
 7    1  0.4878192E-011  0.5052886E+02  0.7816164E-02  0.1300439E+00
        -11   -1    0    0    0    0  0.00000000000E+00  0.00000000000E+00  0.45593999997E+02  0.45594000000E+02  0.51100000000E-03 0.  1.
         11   -1    0    0    0    0 -0.00000000000E+00 -0.00000000000E+00 -0.45593999997E+02  0.45594000000E+02  0.51100000000E-03 0. -1.
    9900012    2    1    2    0    0  0.54978063536E+01 -0.22353142691E+02 -0.33515320954E+02  0.50528860788E+02  0.30000002850E+02 0.  0.
        -12    1    1    2    0    0 -0.54978063536E+01  0.22353142691E+02  0.33515320954E+02  0.40659139212E+02  0.00000000000E+00 0.  1.
         11    1    3    3    0    0  0.18493077026E+01 -0.10680643529E+02 -0.25376759131E+02  0.27594854401E+02  0.51100000000E-03 0. -1.
        -11    1    3    3    0    0 -0.14802281954E+01 -0.11812199334E+02  0.15161240019E+01  0.12000740014E+02  0.51100000000E-03 0.  1.
         12    1    3    3    0    0  0.51287268464E+01  0.13970017250E+00 -0.96546858247E+01  0.10933266373E+02  0.00000000000E+00 0. -1.
</event>
<event>
 7    1  0.4878192E-011  0.5052886E+02  0.7816164E-02  0.1300439E+00
        -11   -1    0    0    0    0  0.00000000000E+00  0.00000000000E+00  0.45593999997E+02  0.45594000000E+02  0.51100000000E-03 0.  1.
         11   -1    0    0    0    0 -0.00000000000E+00 -0.00000000000E+00 -0.45593999997E+02  0.45594000000E+02  0.51100000000E-03 0. -1.
    9900012    2    1    2    0    0 -0.36295749052E+02  0.17990279583E+02 -0.34833845623E+01  0.50528861707E+02  0.30000005643E+02 0.  0.
        -12    1    1    2    0    0  0.36295749052E+02 -0.17990279583E+02  0.34833845623E+01  0.40659138293E+02  0.00000000000E+00 0.  1.
         11    1    3    3    0    0 -0.30152844451E+02  0.11162258835E+02  0.40974157710E+01  0.32412634374E+02  0.51100000000E-03 0. -1.
        -11    1    3    3    0    0 -0.46269899100E+00 -0.93575913102E+00 -0.83971860412E+01  0.84618242229E+01  0.51100000000E-03 0.  1.
        -12    1    3    3    0    0 -0.56802056105E+01  0.77637798790E+01  0.81638570788E+00  0.96544031100E+01  0.00000000000E+00 0.  1.
</event>
<event>
 7    1  0.4878192E-011  0.5052886E+02  0.7816164E-02  0.1300439E+00
        -11   -1    0    0    0    0  0.00000000000E+00  0.00000000000E+00  0.45593999997E+02  0.45594000000E+02  0.51100000000E-03 0.  1.
         11   -1    0    0    0    0 -0.00000000000E+00 -0.00000000000E+00 -0.45593999997E+02  0.45594000000E+02  0.51100000000E-03 0. -1.
    9900012    2    1    2    0    0  0.34052044166E+02 -0.10552296207E+02 -0.19551811997E+02  0.50528855647E+02  0.29999987225E+02 0.  0.
        -12    1    1    2    0    0 -0.34052044166E+02  0.10552296207E+02  0.19551811997E+02  0.40659144353E+02  0.00000000000E+00 0.  1.
         11    1    3    3    0    0  0.27607597028E+01  0.55980927344E+01 -0.59800850068E+01  0.86441803168E+01  0.51100000000E-03 0.  1.
        -11    1    3    3    0    0  0.18396722813E+02 -0.17129971865E+02 -0.14322624947E+02  0.28931175780E+02  0.51100000000E-03 0. -1.
         12    1    3    3    0    0  0.12894561651E+02  0.97958292411E+00  0.75089795661E+00  0.12953499551E+02  0.00000000000E+00 0. -1.
</event>
<event>
 7    1  0.4878192E-011  0.5052884E+02  0.7816164E-02  0.1300439E+00
        -11   -1    0    0    0    0  0.00000000000E+00  0.00000000000E+00  0.45593999997E+02  0.45594000000E+02  0.51100000000E-03 0.  1.
         11   -1    0    0    0    0 -0.00000000000E+00 -0.00000000000E+00 -0.45593999997E+02  0.45594000000E+02  0.51100000000E-03 0. -1.
    9900012    2    1    2    0    0 -0.14435609017E+02 -0.53806493200E+01 -0.37627500329E+02  0.50528843887E+02  0.29999951479E+02 0.  0.
        -12    1    1    2    0    0  0.14435609017E+02  0.53806493200E+01  0.37627500329E+02  0.40659156113E+02  0.00000000000E+00 0.  1.
         11    1    3    3    0    0 -0.39759847859E+01 -0.99182963424E+01 -0.99172456366E+01  0.14578505363E+02  0.51100000000E-03 0. -1.
        -11    1    3    3    0    0  0.36370069442E+01  0.23858685123E+01  0.46249794861E+00  0.43742533859E+01  0.51100000000E-03 0.  1.
        -12    1    3    3    0    0 -0.14096631175E+02  0.21517785101E+01 -0.28172752641E+02  0.31576085138E+02  0.00000000000E+00 0.  1.
</event>
<event>
 7    1  0.4878192E-011  0.5052883E+02  0.7816164E-02  0.1300439E+00
        -11   -1    0    0    0    0  0.00000000000E+00  0.00000000000E+00  0.45593999997E+02  0.45594000000E+02  0.51100000000E-03 0.  1.
         11   -1    0    0    0    0 -0.00000000000E+00 -0.00000000000E+00 -0.45593999997E+02  0.45594000000E+02  0.51100000000E-03 0. -1.
    9900012    2    1    2    0    0  0.34199561005E+02  0.43144567493E-01 -0.21989919665E+02  0.50528826358E+02  0.29999898197E+02 0.  0.
        -12    1    1    2    0    0 -0.34199561005E+02 -0.43144567493E-01  0.21989919665E+02  0.40659173642E+02  0.00000000000E+00 0.  1.
         11    1    3    3    0    0  0.71024663768E+01  0.11141849435E+02 -0.13669286732E+02  0.19011450168E+02  0.51100000000E-03 0. -1.
        -11    1    3    3    0    0  0.12641257760E+02 -0.43742416589E+01  0.32529175628E+00  0.13380627894E+02  0.51100000000E-03 0.  1.
         12    1    3    3    0    0  0.14455836868E+02 -0.67244632088E+01 -0.86459246896E+01  0.18136748296E+02  0.00000000000E+00 0. -1.
</event>
<event>
 7    1  0.4878192E-011  0.5052887E+02  0.7816164E-02  0.1300439E+00
        -11   -1    0    0    0    0  0.00000000000E+00  0.00000000000E+00  0.45593999997E+02  0.45594000000E+02  0.51100000000E-03 0. -1.
         11   -1    0    0    0    0 -0.00000000000E+00 -0.00000000000E+00 -0.45593999997E+02  0.45594000000E+02  0.51100000000E-03 0.  1.
    9900012    2    1    2    0    0 -0.34654042221E+02 -0.21210153014E+02  0.15463918939E+01  0.50528873582E+02  0.30000041740E+02 0.  0.
        -12    1    1    2    0    0  0.34654042221E+02  0.21210153014E+02 -0.15463918939E+01  0.40659126418E+02  0.00000000000E+00 0.  1.
         11    1    3    3    0    0  0.13199331742E+00 -0.85068695115E+01  0.39020707811E+01  0.93600431497E+01  0.51100000000E-03 0. -1.
        -11    1    3    3    0    0 -0.24879997698E+02 -0.23594098372E+01 -0.72690232725E+01  0.26027289521E+02  0.51100000000E-03 0.  1.
         12    1    3    3    0    0 -0.99060378408E+01 -0.10343873666E+02  0.49133443852E+01  0.15141540911E+02  0.00000000000E+00 0. -1.
</event>
<event>
 7    1  0.4878192E-011  0.5052889E+02  0.7816164E-02  0.1300439E+00
        -11   -1    0    0    0    0  0.00000000000E+00  0.00000000000E+00  0.45593999997E+02  0.45594000000E+02  0.51100000000E-03 0. -1.
         11   -1    0    0    0    0 -0.00000000000E+00 -0.00000000000E+00 -0.45593999997E+02  0.45594000000E+02  0.51100000000E-03 0.  1.
    9900012    2    1    2    0    0  0.13524248875E+02 -0.15688644350E+02  0.34987490103E+02  0.50528888686E+02  0.30000087649E+02 0.  0.
        -12    1    1    2    0    0 -0.13524248875E+02  0.15688644350E+02 -0.34987490103E+02  0.40659111314E+02  0.00000000000E+00 0.  1.
         11    1    3    3    0    0  0.10911646086E+02 -0.13907667341E+02  0.13880258897E+02  0.22475515978E+02  0.51100000000E-03 0. -1.
        -11    1    3    3    0    0 -0.56111962326E+01  0.50156234378E+01  0.11200910616E+02  0.13494532245E+02  0.51100000000E-03 0.  1.
         12    1    3    3    0    0  0.82237990209E+01 -0.67966004465E+01  0.99063205906E+01  0.14558840462E+02  0.00000000000E+00 0. -1.
</event>
<event>
 7    1  0.4878192E-011  0.5052887E+02  0.7816164E-02  0.1300439E+00
        -11   -1    0    0    0    0  0.00000000000E+00  0.00000000000E+00  0.45593999997E+02  0.45594000000E+02  0.51100000000E-03 0. -1.
         11   -1    0    0    0    0 -0.00000000000E+00 -0.00000000000E+00 -0.45593999997E+02  0.45594000000E+02  0.51100000000E-03 0.  1.
    9900012    2    1    2    0    0  0.32545999848E+02 -0.17515260745E+02 -0.16945169193E+02  0.50528865429E+02  0.30000016958E+02 0.  0.
        -12    1    1    2    0    0 -0.32545999848E+02  0.17515260745E+02  0.16945169193E+02  0.40659134571E+02  0.00000000000E+00 0.  1.
         11    1    3    3    0    0  0.30241986754E+02 -0.16744750722E+02 -0.21870456624E+02  0.40905761364E+02  0.51100000000E-03 0. -1.
        -11    1    3    3    0    0  0.52596855999E+01 -0.69335357993E+00  0.33265667347E+01  0.62618749826E+01  0.51100000000E-03 0.  1.
         12    1    3    3    0    0 -0.29556725063E+01 -0.77156443032E-01  0.15987206955E+01  0.33612290823E+01  0.00000000000E+00 0. -1.
</event>
<event>
 7    1  0.4878192E-011  0.5052887E+02  0.7816164E-02  0.1300439E+00
        -11   -1    0    0    0    0  0.00000000000E+00  0.00000000000E+00  0.45593999997E+02  0.45594000000E+02  0.51100000000E-03 0.  1.
         11   -1    0    0    0    0 -0.00000000000E+00 -0.00000000000E+00 -0.45593999997E+02  0.45594000000E+02  0.51100000000E-03 0. -1.
    9900012    2    1    2    0    0  0.19616486284E+02 -0.24396084302E+02 -0.25945891888E+02  0.50528871022E+02  0.30000033957E+02 0.  0.
        -12    1    1    2    0    0 -0.19616486284E+02  0.24396084302E+02  0.25945891888E+02  0.40659128978E+02  0.00000000000E+00 0.  1.
         11    1    3    3    0    0  0.59401407415E+01 -0.10991176622E+02  0.66823929520E+00  0.12511505888E+02  0.51100000000E-03 0. -1.
        -11    1    3    3    0    0  0.21496736753E+01 -0.14538594518E+02 -0.19524078763E+02  0.24437296890E+02  0.51100000000E-03 0.  1.
        -12    1    3    3    0    0  0.11526671867E+02  0.11336868381E+01 -0.70900524204E+01  0.13580068244E+02  0.00000000000E+00 0.  1.
</event>
<event>
 7    1  0.4878192E-011  0.5052885E+02  0.7816164E-02  0.1300439E+00
        -11   -1    0    0    0    0  0.00000000000E+00  0.00000000000E+00  0.45593999997E+02  0.45594000000E+02  0.51100000000E-03 0.  1.
         11   -1    0    0    0    0 -0.00000000000E+00 -0.00000000000E+00 -0.45593999997E+02  0.45594000000E+02  0.51100000000E-03 0. -1.
    9900012    2    1    2    0    0 -0.33138276689E+01 -0.15682127915E+02 -0.37366510673E+02  0.50528847160E+02  0.29999961427E+02 0.  0.
        -12    1    1    2    0    0  0.33138276689E+01  0.15682127915E+02  0.37366510673E+02  0.40659152840E+02  0.00000000000E+00 0.  1.
         11    1    3    3    0    0 -0.49831662516E+01 -0.73129155811E+01 -0.26344496686E+01  0.92331471073E+01  0.51100000000E-03 0. -1.
        -11    1    3    3    0    0  0.19700635813E+01 -0.11912790769E+02 -0.35636203723E+02  0.37626250816E+02  0.51100000000E-03 0.  1.
        -12    1    3    3    0    0 -0.30072499860E+00  0.35435784346E+01  0.90414271800E+00  0.36694492368E+01  0.00000000000E+00 0.  1.
</event>
<event>
 7    1  0.4878192E-011  0.5052885E+02  0.7816164E-02  0.1300439E+00
        -11   -1    0    0    0    0  0.00000000000E+00  0.00000000000E+00  0.45593999997E+02  0.45594000000E+02  0.51100000000E-03 0.  1.
         11   -1    0    0    0    0 -0.00000000000E+00 -0.00000000000E+00 -0.45593999997E+02  0.45594000000E+02  0.51100000000E-03 0. -1.
    9900012    2    1    2    0    0 -0.27691679883E+02 -0.26012396370E+02 -0.14480768083E+02  0.50528849198E+02  0.29999967622E+02 0.  0.
        -12    1    1    2    0    0  0.27691679883E+02  0.26012396370E+02  0.14480768083E+02  0.40659150802E+02  0.00000000000E+00 0.  1.
         11    1    3    3    0    0 -0.18481285095E+02 -0.29107449545E+01  0.34041790239E+01  0.19016276450E+02  0.51100000000E-03 0. -1.
        -11    1    3    3    0    0 -0.98072780173E+01 -0.18623773453E+02 -0.16627000288E+02  0.26823213427E+02  0.51100000000E-03 0.  1.
        -12    1    3    3    0    0  0.59688322883E+00 -0.44778779630E+01 -0.12579468185E+01  0.46893593207E+01  0.00000000000E+00 0.  1.
</event>
<event>
 7    1  0.4878192E-011  0.5052884E+02  0.7816164E-02  0.1300439E+00
        -11   -1    0    0    0    0  0.00000000000E+00  0.00000000000E+00  0.45593999997E+02  0.45594000000E+02  0.51100000000E-03 0. -1.
         11   -1    0    0    0    0 -0.00000000000E+00 -0.00000000000E+00 -0.45593999997E+02  0.45594000000E+02  0.51100000000E-03 0.  1.
    9900012    2    1    2    0    0 -0.67722524953E+01 -0.67953090613E+01  0.39511112167E+02  0.50528836042E+02  0.29999927633E+02 0.  0.
        -12    1    1    2    0    0  0.67722524953E+01  0.67953090613E+01 -0.39511112167E+02  0.40659163958E+02  0.00000000000E+00 0.  1.
         11    1    3    3    0    0 -0.89688456882E-01  0.47394636887E+00  0.39504535750E+02  0.39507480485E+02  0.51100000000E-03 0. -1.
        -11    1    3    3    0    0  0.49906236810E+00 -0.67650881138E+00 -0.89865032187E+00  0.12305690071E+01  0.51100000000E-03 0.  1.
         12    1    3    3    0    0 -0.71816264066E+01 -0.65927466188E+01  0.90522673877E+00  0.97907865502E+01  0.00000000000E+00 0. -1.
</event>
<event>
 7    1  0.4878192E-011  0.5052886E+02  0.7816164E-02  0.1300439E+00
        -11   -1    0    0    0    0  0.00000000000E+00  0.00000000000E+00  0.45593999997E+02  0.45594000000E+02  0.51100000000E-03 0.  1.
         11   -1    0    0    0    0 -0.00000000000E+00 -0.00000000000E+00 -0.45593999997E+02  0.45594000000E+02  0.51100000000E-03 0. -1.
    9900012    2    1    2    0    0 -0.21258610448E+02  0.90873831924E+01 -0.33446322922E+02  0.50528861194E+02  0.30000004085E+02 0.  0.
        -12    1    1    2    0    0  0.21258610448E+02 -0.90873831924E+01  0.33446322922E+02  0.40659138806E+02  0.00000000000E+00 0.  1.
         11    1    3    3    0    0 -0.40452507818E+01  0.11362745561E+02 -0.95226894864E+00  0.12098878336E+02  0.51100000000E-03 0. -1.
        -11    1    3    3    0    0 -0.11067908957E+02 -0.98589248957E+00 -0.95805454973E+01  0.14671654473E+02  0.51100000000E-03 0.  1.
         12    1    3    3    0    0 -0.61454507098E+01 -0.12894698791E+01 -0.22913508476E+02  0.23758328385E+02  0.00000000000E+00 0. -1.
</event>
<event>
 7    1  0.4878192E-011  0.5052887E+02  0.7816164E-02  0.1300439E+00
        -11   -1    0    0    0    0  0.00000000000E+00  0.00000000000E+00  0.45593999997E+02  0.45594000000E+02  0.51100000000E-03 0.  1.
         11   -1    0    0    0    0 -0.00000000000E+00 -0.00000000000E+00 -0.45593999997E+02  0.45594000000E+02  0.51100000000E-03 0. -1.
    9900012    2    1    2    0    0 -0.33615321264E+02 -0.16194169138E+02 -0.16153139169E+02  0.50528870118E+02  0.30000031211E+02 0.  0.
        -12    1    1    2    0    0  0.33615321264E+02  0.16194169138E+02  0.16153139169E+02  0.40659129882E+02  0.00000000000E+00 0.  1.
         11    1    3    3    0    0 -0.25818346900E+02 -0.57151710655E+01  0.19581046273E+01  0.26515738552E+02  0.51100000000E-03 0. -1.
        -11    1    3    3    0    0 -0.86231344709E+01 -0.85175597024E+01 -0.18218639638E+02  0.21882095464E+02  0.51100000000E-03 0.  1.
        -12    1    3    3    0    0  0.82616010719E+00 -0.19614383699E+01  0.10739584114E+00  0.21310361020E+01  0.00000000000E+00 0.  1.
</event>
<event>
 7    1  0.4878192E-011  0.5052886E+02  0.7816164E-02  0.1300439E+00
        -11   -1    0    0    0    0  0.00000000000E+00  0.00000000000E+00  0.45593999997E+02  0.45594000000E+02  0.51100000000E-03 0. -1.
         11   -1    0    0    0    0 -0.00000000000E+00 -0.00000000000E+00 -0.45593999997E+02  0.45594000000E+02  0.51100000000E-03 0.  1.
    9900012    2    1    2    0    0 -0.37048727548E+02 -0.92691155538E+01 -0.13951382159E+02  0.50528858590E+02  0.29999996169E+02 0.  0.
        -12    1    1    2    0    0  0.37048727548E+02  0.92691155538E+01  0.13951382159E+02  0.40659141410E+02  0.00000000000E+00 0.  1.
         11    1    3    3    0    0 -0.30422508058E+02 -0.76656486419E+01 -0.17873730573E+02  0.36107636457E+02  0.51100000000E-03 0.  1.
        -11    1    3    3    0    0 -0.59391755439E+01 -0.10547305498E+01  0.81295971892E+01  0.10123073318E+02  0.51100000000E-03 0. -1.
         12    1    3    3    0    0 -0.68704394607E+00 -0.54873636217E+00 -0.42072487752E+01  0.42981488149E+01  0.00000000000E+00 0. -1.
</event>
<event>
 7    1  0.4878192E-011  0.5052886E+02  0.7816164E-02  0.1300439E+00
        -11   -1    0    0    0    0  0.00000000000E+00  0.00000000000E+00  0.45593999997E+02  0.45594000000E+02  0.51100000000E-03 0.  1.
         11   -1    0    0    0    0 -0.00000000000E+00 -0.00000000000E+00 -0.45593999997E+02  0.45594000000E+02  0.51100000000E-03 0. -1.
    9900012    2    1    2    0    0 -0.18533834464E+02 -0.82659923579E+01 -0.35232599820E+02  0.50528859088E+02  0.29999997685E+02 0.  0.
        -12    1    1    2    0    0  0.18533834464E+02  0.82659923579E+01  0.35232599820E+02  0.40659140912E+02  0.00000000000E+00 0.  1.
         11    1    3    3    0    0  0.60646805860E+01 -0.32889462583E+01 -0.15168256394E+02  0.16663538651E+02  0.51100000000E-03 0. -1.
        -11    1    3    3    0    0 -0.16019123823E+02 -0.43156366851E+01 -0.65340827766E+01  0.17830627752E+02  0.51100000000E-03 0.  1.
         12    1    3    3    0    0 -0.85793912275E+01 -0.66140941454E+00 -0.13530260650E+02  0.16034692685E+02  0.00000000000E+00 0. -1.
</event>
<event>
 7    1  0.4878192E-011  0.5052886E+02  0.7816164E-02  0.1300439E+00
        -11   -1    0    0    0    0  0.00000000000E+00  0.00000000000E+00  0.45593999997E+02  0.45594000000E+02  0.51100000000E-03 0.  1.
         11   -1    0    0    0    0 -0.00000000000E+00 -0.00000000000E+00 -0.45593999997E+02  0.45594000000E+02  0.51100000000E-03 0. -1.
    9900012    2    1    2    0    0  0.11616458279E+02  0.33519259726E+02 -0.19866632311E+02  0.50528856442E+02  0.29999989641E+02 0.  0.
        -12    1    1    2    0    0 -0.11616458279E+02 -0.33519259726E+02  0.19866632311E+02  0.40659143558E+02  0.00000000000E+00 0.  1.
         11    1    3    3    0    0  0.46528661966E+01 -0.47378886614E+01 -0.31399738013E+01  0.73454876316E+01  0.51100000000E-03 0. -1.
        -11    1    3    3    0    0  0.66425467214E+01  0.36160959947E+02 -0.17752598837E+02  0.40827603615E+02  0.51100000000E-03 0.  1.
        -12    1    3    3    0    0  0.32104536112E+00  0.20961884401E+01  0.10259403272E+01  0.23557651953E+01  0.00000000000E+00 0.  1.
</event>
<event>
 7    1  0.4878192E-011  0.5052877E+02  0.7816164E-02  0.1300439E+00
        -11   -1    0    0    0    0  0.00000000000E+00  0.00000000000E+00  0.45593999997E+02  0.45594000000E+02  0.51100000000E-03 0.  1.
         11   -1    0    0    0    0 -0.00000000000E+00 -0.00000000000E+00 -0.45593999997E+02  0.45594000000E+02  0.51100000000E-03 0. -1.
    9900012    2    1    2    0    0  0.16798952306E+02 -0.30881764011E+02 -0.20427556577E+02  0.50528767165E+02  0.29999718274E+02 0.  0.
        -12    1    1    2    0    0 -0.16798952306E+02  0.30881764011E+02  0.20427556577E+02  0.40659232835E+02  0.00000000000E+00 0.  1.
         11    1    3    3    0    0  0.18292170983E+02 -0.89093826651E+01 -0.10618095073E+02  0.22950480649E+02  0.51100000000E-03 0. -1.
        -11    1    3    3    0    0  0.13220637379E+01 -0.11231052878E+02  0.18706112697E+01  0.11462268015E+02  0.51100000000E-03 0.  1.
         12    1    3    3    0    0 -0.28152824158E+01 -0.10741328468E+02 -0.11680072774E+02  0.16116018501E+02  0.00000000000E+00 0. -1.
</event>
<event>
 7    1  0.4878192E-011  0.5052873E+02  0.7816164E-02  0.1300439E+00
        -11   -1    0    0    0    0  0.00000000000E+00  0.00000000000E+00  0.45593999997E+02  0.45594000000E+02  0.51100000000E-03 0.  1.
         11   -1    0    0    0    0 -0.00000000000E+00 -0.00000000000E+00 -0.45593999997E+02  0.45594000000E+02  0.51100000000E-03 0. -1.
    9900012    2    1    2    0    0 -0.14141436394E+02  0.42592681312E+01 -0.37882111750E+02  0.50528733173E+02  0.29999614951E+02 0.  0.
        -12    1    1    2    0    0  0.14141436394E+02 -0.42592681312E+01  0.37882111750E+02  0.40659266827E+02  0.00000000000E+00 0.  1.
         11    1    3    3    0    0 -0.19866803724E-01 -0.54613320405E+01 -0.97972711704E+01  0.11216642323E+02  0.51100000000E-03 0. -1.
        -11    1    3    3    0    0 -0.13945019618E+02  0.14277203842E+02 -0.13662605208E+02  0.24186130385E+02  0.51100000000E-03 0.  1.
        -12    1    3    3    0    0 -0.17654997225E+00 -0.45566036700E+01 -0.14422235371E+02  0.15125960465E+02  0.00000000000E+00 0.  1.
</event>
<event>
 7    1  0.4878192E-011  0.5052887E+02  0.7816164E-02  0.1300439E+00
        -11   -1    0    0    0    0  0.00000000000E+00  0.00000000000E+00  0.45593999997E+02  0.45594000000E+02  0.51100000000E-03 0.  1.
         11   -1    0    0    0    0 -0.00000000000E+00 -0.00000000000E+00 -0.45593999997E+02  0.45594000000E+02  0.51100000000E-03 0. -1.
    9900012    2    1    2    0    0 -0.36561364970E+02  0.31636221648E+01  0.17504943937E+02  0.50528868481E+02  0.30000026233E+02 0.  0.
        -12    1    1    2    0    0  0.36561364970E+02 -0.31636221648E+01 -0.17504943937E+02  0.40659131519E+02  0.00000000000E+00 0.  1.
         11    1    3    3    0    0 -0.62425330405E+01 -0.50924002229E+00 -0.38673048528E+01  0.73610183567E+01  0.51100000000E-03 0. -1.
        -11    1    3    3    0    0 -0.20684267616E+02  0.95801868565E+01  0.22222065545E+02  0.31834558334E+02  0.51100000000E-03 0.  1.
        -12    1    3    3    0    0 -0.96345643139E+01 -0.59073246693E+01 -0.84981675496E+00  0.11333291789E+02  0.00000000000E+00 0.  1.
</event>
<event>
 7    1  0.4878192E-011  0.5052886E+02  0.7816164E-02  0.1300439E+00
        -11   -1    0    0    0    0  0.00000000000E+00  0.00000000000E+00  0.45593999997E+02  0.45594000000E+02  0.51100000000E-03 0. -1.
         11   -1    0    0    0    0 -0.00000000000E+00 -0.00000000000E+00 -0.45593999997E+02  0.45594000000E+02  0.51100000000E-03 0.  1.
    9900012    2    1    2    0    0  0.20912814778E+02  0.30319557678E+02  0.17220464941E+02  0.50528858193E+02  0.29999994963E+02 0.  0.
        -12    1    1    2    0    0 -0.20912814778E+02 -0.30319557678E+02 -0.17220464941E+02  0.40659141807E+02  0.00000000000E+00 0.  1.
         11    1    3    3    0    0 -0.77834808708E+00  0.88017907310E+01  0.12166424121E+02  0.15036596090E+02  0.51100000000E-03 0. -1.
        -11    1    3    3    0    0  0.19458066385E+02  0.23758464872E+02  0.15171896976E+01  0.30747078973E+02  0.51100000000E-03 0.  1.
        -12    1    3    3    0    0  0.22330964804E+01 -0.22406979253E+01  0.35368511219E+01  0.47451831305E+01  0.00000000000E+00 0.  1.
</event>
<event>
 7    1  0.4878192E-011  0.5052887E+02  0.7816164E-02  0.1300439E+00
        -11   -1    0    0    0    0  0.00000000000E+00  0.00000000000E+00  0.45593999997E+02  0.45594000000E+02  0.51100000000E-03 0.  1.
         11   -1    0    0    0    0 -0.00000000000E+00 -0.00000000000E+00 -0.45593999997E+02  0.45594000000E+02  0.51100000000E-03 0. -1.
    9900012    2    1    2    0    0  0.29396970192E+02 -0.56185036156E+01 -0.27521183837E+02  0.50528868195E+02  0.30000025366E+02 0.  0.
        -12    1    1    2    0    0 -0.29396970192E+02  0.56185036156E+01  0.27521183837E+02  0.40659131805E+02  0.00000000000E+00 0.  1.
         11    1    3    3    0    0  0.14652511336E+02  0.13770727715E+01 -0.23208285114E+00  0.14718908946E+02  0.51100000000E-03 0. -1.
        -11    1    3    3    0    0  0.10890663694E+02 -0.67889583375E+01 -0.28905097474E+02  0.31625957239E+02  0.51100000000E-03 0.  1.
        -12    1    3    3    0    0  0.38537951622E+01 -0.20661804961E+00  0.16159964884E+01  0.41840020102E+01  0.00000000000E+00 0.  1.
</event>
<event>
 7    1  0.4878192E-011  0.5052886E+02  0.7816164E-02  0.1300439E+00
        -11   -1    0    0    0    0  0.00000000000E+00  0.00000000000E+00  0.45593999997E+02  0.45594000000E+02  0.51100000000E-03 0. -1.
         11   -1    0    0    0    0 -0.00000000000E+00 -0.00000000000E+00 -0.45593999997E+02  0.45594000000E+02  0.51100000000E-03 0.  1.
    9900012    2    1    2    0    0 -0.29675215543E+02  0.20696304325E+02  0.18552894147E+02  0.50528864354E+02  0.30000013691E+02 0.  0.
        -12    1    1    2    0    0  0.29675215543E+02 -0.20696304325E+02 -0.18552894147E+02  0.40659135646E+02  0.00000000000E+00 0.  1.
         11    1    3    3    0    0 -0.16218104556E+02  0.54465206260E+01  0.18211991030E+02  0.24987359201E+02  0.51100000000E-03 0. -1.
        -11    1    3    3    0    0 -0.10197736918E+02  0.18303558483E+02  0.12248664472E+01  0.20988434659E+02  0.51100000000E-03 0.  1.
         12    1    3    3    0    0 -0.32593740686E+01 -0.30537747837E+01 -0.88396333025E+00  0.45530704934E+01  0.00000000000E+00 0. -1.
</event>
<event>
 7    1  0.4878192E-011  0.5052886E+02  0.7816164E-02  0.1300439E+00
        -11   -1    0    0    0    0  0.00000000000E+00  0.00000000000E+00  0.45593999997E+02  0.45594000000E+02  0.51100000000E-03 0.  1.
         11   -1    0    0    0    0 -0.00000000000E+00 -0.00000000000E+00 -0.45593999997E+02  0.45594000000E+02  0.51100000000E-03 0. -1.
    9900012    2    1    2    0    0 -0.38521788246E+02 -0.44255849783E+01 -0.12233221701E+02  0.50528859758E+02  0.29999999720E+02 0.  0.
        -12    1    1    2    0    0  0.38521788246E+02  0.44255849783E+01  0.12233221701E+02  0.40659140242E+02  0.00000000000E+00 0.  1.
         11    1    3    3    0    0 -0.70551832563E+01  0.70561077049E+01 -0.27740114291E+01  0.10356611724E+02  0.51100000000E-03 0. -1.
        -11    1    3    3    0    0 -0.19268535693E+01 -0.71751013528E+01  0.27472872313E+01  0.79210120245E+01  0.51100000000E-03 0.  1.
        -12    1    3    3    0    0 -0.29539751420E+02 -0.43065913304E+01 -0.12206497503E+02  0.32251236010E+02  0.00000000000E+00 0.  1.
</event>
<event>
 7    1  0.4878192E-011  0.5052886E+02  0.7816164E-02  0.1300439E+00
        -11   -1    0    0    0    0  0.00000000000E+00  0.00000000000E+00  0.45593999997E+02  0.45594000000E+02  0.51100000000E-03 0.  1.
         11   -1    0    0    0    0 -0.00000000000E+00 -0.00000000000E+00 -0.45593999997E+02  0.45594000000E+02  0.51100000000E-03 0. -1.
    9900012    2    1    2    0    0  0.25053743161E+02 -0.25258311763E+02  0.19684858736E+02  0.50528855605E+02  0.29999987097E+02 0.  0.
        -12    1    1    2    0    0 -0.25053743161E+02  0.25258311763E+02 -0.19684858736E+02  0.40659144395E+02  0.00000000000E+00 0.  1.
         11    1    3    3    0    0  0.26794589876E+01 -0.10966851442E+02  0.99990276651E+01  0.15080844987E+02  0.51100000000E-03 0. -1.
        -11    1    3    3    0    0  0.17498900181E+02  0.12813310362E+00  0.17648104146E+00  0.17500259183E+02  0.51100000000E-03 0.  1.
        -12    1    3    3    0    0  0.48753839921E+01 -0.14419593424E+02  0.95093500295E+01  0.17947751435E+02  0.00000000000E+00 0.  1.
</event>
<event>
 7    1  0.4878192E-011  0.5052886E+02  0.7816164E-02  0.1300439E+00
        -11   -1    0    0    0    0  0.00000000000E+00  0.00000000000E+00  0.45593999997E+02  0.45594000000E+02  0.51100000000E-03 0.  1.
         11   -1    0    0    0    0 -0.00000000000E+00 -0.00000000000E+00 -0.45593999997E+02  0.45594000000E+02  0.51100000000E-03 0. -1.
    9900012    2    1    2    0    0  0.27190756056E+02  0.30075340014E+02 -0.30499482280E+01  0.50528862330E+02  0.30000007538E+02 0.  0.
        -12    1    1    2    0    0 -0.27190756056E+02 -0.30075340014E+02  0.30499482280E+01  0.40659137670E+02  0.00000000000E+00 0.  1.
         11    1    3    3    0    0  0.23530387942E+02  0.23864861764E+02 -0.83451870607E+01  0.34537703037E+02  0.51100000000E-03 0. -1.
        -11    1    3    3    0    0  0.13091142996E+00  0.88280189048E+01  0.70108163988E+01  0.11273978997E+02  0.51100000000E-03 0.  1.
         12    1    3    3    0    0  0.35294566841E+01 -0.26175406546E+01 -0.17155775660E+01  0.47171802963E+01  0.00000000000E+00 0. -1.
</event>
<event>
 7    1  0.4878192E-011  0.5052887E+02  0.7816164E-02  0.1300439E+00
        -11   -1    0    0    0    0  0.00000000000E+00  0.00000000000E+00  0.45593999997E+02  0.45594000000E+02  0.51100000000E-03 0.  1.
         11   -1    0    0    0    0 -0.00000000000E+00 -0.00000000000E+00 -0.45593999997E+02  0.45594000000E+02  0.51100000000E-03 0. -1.
    9900012    2    1    2    0    0 -0.24386830687E+02  0.21191742218E+02 -0.24685171299E+02  0.50528866570E+02  0.30000020428E+02 0.  0.
        -12    1    1    2    0    0  0.24386830687E+02 -0.21191742218E+02  0.24685171299E+02  0.40659133430E+02  0.00000000000E+00 0.  1.
         11    1    3    3    0    0 -0.76510927363E+01  0.61382374110E+01 -0.23653769135E+02  0.25606990708E+02  0.51100000000E-03 0. -1.
        -11    1    3    3    0    0 -0.22633753112E+01  0.86550455341E+01 -0.15995719065E+01  0.90879762072E+01  0.51100000000E-03 0.  1.
         12    1    3    3    0    0 -0.14472362640E+02  0.63984592728E+01  0.56816974260E+00  0.15833899655E+02  0.00000000000E+00 0. -1.
</event>
<event>
 7    1  0.4878192E-011  0.5052882E+02  0.7816164E-02  0.1300439E+00
        -11   -1    0    0    0    0  0.00000000000E+00  0.00000000000E+00  0.45593999997E+02  0.45594000000E+02  0.51100000000E-03 0. -1.
         11   -1    0    0    0    0 -0.00000000000E+00 -0.00000000000E+00 -0.45593999997E+02  0.45594000000E+02  0.51100000000E-03 0.  1.
    9900012    2    1    2    0    0 -0.10606914992E+02 -0.35638554030E+02  0.16448574633E+02  0.50528821621E+02  0.29999883800E+02 0.  0.
        -12    1    1    2    0    0  0.10606914992E+02  0.35638554030E+02 -0.16448574633E+02  0.40659178379E+02  0.00000000000E+00 0.  1.
         11    1    3    3    0    0 -0.17523441076E+01 -0.96515505268E+01 -0.30642808821E+01  0.10276816386E+02  0.51100000000E-03 0.  1.
        -11    1    3    3    0    0 -0.93081540401E+01 -0.25912288822E+02  0.23524257138E+02  0.36214349611E+02  0.51100000000E-03 0. -1.
        -12    1    3    3    0    0  0.45358315597E+00 -0.74714680724E-01 -0.40114016225E+01  0.40376556242E+01  0.00000000000E+00 0.  1.
</event>
<event>
 7    1  0.4878192E-011  0.5052886E+02  0.7816164E-02  0.1300439E+00
        -11   -1    0    0    0    0  0.00000000000E+00  0.00000000000E+00  0.45593999997E+02  0.45594000000E+02  0.51100000000E-03 0.  1.
         11   -1    0    0    0    0 -0.00000000000E+00 -0.00000000000E+00 -0.45593999997E+02  0.45594000000E+02  0.51100000000E-03 0. -1.
    9900012    2    1    2    0    0 -0.32336339593E+02  0.17018267703E+02 -0.17829907461E+02  0.50528857192E+02  0.29999991920E+02 0.  0.
        -12    1    1    2    0    0  0.32336339593E+02 -0.17018267703E+02  0.17829907461E+02  0.40659142808E+02  0.00000000000E+00 0.  1.
         11    1    3    3    0    0 -0.20583710594E+02  0.15727554339E+02  0.68830933171E+00  0.25913681277E+02  0.51100000000E-03 0. -1.
        -11    1    3    3    0    0 -0.79235084593E-01 -0.23055111029E+01  0.14352138102E+00  0.23113325793E+01  0.51100000000E-03 0.  1.
         12    1    3    3    0    0 -0.11673393913E+02  0.35962244660E+01 -0.18661738174E+02  0.22303843335E+02  0.00000000000E+00 0. -1.
</event>
<event>
 7    1  0.4878192E-011  0.5052886E+02  0.7816164E-02  0.1300439E+00
        -11   -1    0    0    0    0  0.00000000000E+00  0.00000000000E+00  0.45593999997E+02  0.45594000000E+02  0.51100000000E-03 0.  1.
         11   -1    0    0    0    0 -0.00000000000E+00 -0.00000000000E+00 -0.45593999997E+02  0.45594000000E+02  0.51100000000E-03 0. -1.
    9900012    2    1    2    0    0  0.16933920790E+02  0.65119595092E+00 -0.36959223608E+02  0.50528856635E+02  0.29999990228E+02 0.  0.
        -12    1    1    2    0    0 -0.16933920790E+02 -0.65119595092E+00  0.36959223608E+02  0.40659143365E+02  0.00000000000E+00 0.  1.
         11    1    3    3    0    0  0.96107798632E+01 -0.29628008200E+01 -0.34450726662E+02  0.35888686881E+02  0.51100000000E-03 0. -1.
        -11    1    3    3    0    0 -0.32464779447E+01  0.10969754999E+00 -0.10260781717E+01  0.34065362575E+01  0.51100000000E-03 0.  1.
         12    1    3    3    0    0  0.10569618871E+02  0.35042992209E+01 -0.14824187745E+01  0.11233633496E+02  0.00000000000E+00 0. -1.
</event>
<event>
 7    1  0.4878192E-011  0.5052884E+02  0.7816164E-02  0.1300439E+00
        -11   -1    0    0    0    0  0.00000000000E+00  0.00000000000E+00  0.45593999997E+02  0.45594000000E+02  0.51100000000E-03 0. -1.
         11   -1    0    0    0    0 -0.00000000000E+00 -0.00000000000E+00 -0.45593999997E+02  0.45594000000E+02  0.51100000000E-03 0.  1.
    9900012    2    1    2    0    0 -0.14374258715E+02  0.28383155770E+02  0.25316879839E+02  0.50528840518E+02  0.29999941237E+02 0.  0.
        -12    1    1    2    0    0  0.14374258715E+02 -0.28383155770E+02 -0.25316879839E+02  0.40659159482E+02  0.00000000000E+00 0.  1.
         11    1    3    3    0    0 -0.15266666568E+02  0.18907270640E+02  0.24483688622E+02  0.34496478080E+02  0.51100000000E-03 0. -1.
        -11    1    3    3    0    0 -0.39877200433E+00  0.12041903523E+02  0.30210726975E+01  0.12421487032E+02  0.51100000000E-03 0.  1.
         12    1    3    3    0    0  0.12911798581E+01 -0.25660183936E+01 -0.21878814803E+01  0.36108754055E+01  0.00000000000E+00 0. -1.
</event>
<event>
 7    1  0.4878192E-011  0.5052883E+02  0.7816164E-02  0.1300439E+00
        -11   -1    0    0    0    0  0.00000000000E+00  0.00000000000E+00  0.45593999997E+02  0.45594000000E+02  0.51100000000E-03 0.  1.
         11   -1    0    0    0    0 -0.00000000000E+00 -0.00000000000E+00 -0.45593999997E+02  0.45594000000E+02  0.51100000000E-03 0. -1.
    9900012    2    1    2    0    0  0.31426221966E+02 -0.24035798671E+02 -0.93723418063E+01  0.50528833312E+02  0.29999919336E+02 0.  0.
        -12    1    1    2    0    0 -0.31426221966E+02  0.24035798671E+02  0.93723418063E+01  0.40659166688E+02  0.00000000000E+00 0.  1.
         11    1    3    3    0    0 -0.20843768368E+01 -0.14561852455E+01 -0.46656904441E+01  0.53135458828E+01  0.51100000000E-03 0. -1.
        -11    1    3    3    0    0  0.20193949069E+02 -0.18132546055E+02  0.57089403227E+01  0.27734036946E+02  0.51100000000E-03 0.  1.
        -12    1    3    3    0    0  0.13316649734E+02 -0.44470673705E+01 -0.10415591685E+02  0.17481250484E+02  0.00000000000E+00 0.  1.
</event>
<event>
 7    1  0.4878192E-011  0.5052889E+02  0.7816164E-02  0.1300439E+00
        -11   -1    0    0    0    0  0.00000000000E+00  0.00000000000E+00  0.45593999997E+02  0.45594000000E+02  0.51100000000E-03 0.  1.
         11   -1    0    0    0    0 -0.00000000000E+00 -0.00000000000E+00 -0.45593999997E+02  0.45594000000E+02  0.51100000000E-03 0. -1.
    9900012    2    1    2    0    0  0.99525135120E+01  0.21861353060E+02 -0.32805360029E+02  0.50528893646E+02  0.30000102727E+02 0.  0.
        -12    1    1    2    0    0 -0.99525135120E+01 -0.21861353060E+02  0.32805360029E+02  0.40659106354E+02  0.00000000000E+00 0.  1.
         11    1    3    3    0    0  0.11987921420E+02  0.10683100754E+02 -0.11861059639E+02  0.19963056823E+02  0.51100000000E-03 0. -1.
        -11    1    3    3    0    0 -0.37473753528E+01  0.10313503691E+01 -0.19839222477E+02  0.20216361056E+02  0.51100000000E-03 0.  1.
        -12    1    3    3    0    0  0.17119674449E+01  0.10146901938E+02 -0.11050779131E+01  0.10349475767E+02  0.00000000000E+00 0.  1.
</event>
<event>
 7    1  0.4878192E-011  0.5052889E+02  0.7816164E-02  0.1300439E+00
        -11   -1    0    0    0    0  0.00000000000E+00  0.00000000000E+00  0.45593999997E+02  0.45594000000E+02  0.51100000000E-03 0.  1.
         11   -1    0    0    0    0 -0.00000000000E+00 -0.00000000000E+00 -0.45593999997E+02  0.45594000000E+02  0.51100000000E-03 0. -1.
    9900012    2    1    2    0    0  0.74087825905E+01  0.18344328674E+02 -0.35521242017E+02  0.50528891693E+02  0.30000096788E+02 0.  0.
        -12    1    1    2    0    0 -0.74087825905E+01 -0.18344328674E+02  0.35521242017E+02  0.40659108307E+02  0.00000000000E+00 0.  1.
         11    1    3    3    0    0 -0.55677283576E+00  0.32787502011E+01 -0.10894149254E+02  0.11390464745E+02  0.51100000000E-03 0. -1.
        -11    1    3    3    0    0 -0.49613401580E+01  0.84389180241E+00  0.27145119272E+01  0.57180088144E+01  0.51100000000E-03 0.  1.
        -12    1    3    3    0    0  0.12926895584E+02  0.14221686670E+02 -0.27341604689E+02  0.33420418133E+02  0.00000000000E+00 0.  1.
</event>
<event>
 7    1  0.4878192E-011  0.5052884E+02  0.7816164E-02  0.1300439E+00
        -11   -1    0    0    0    0  0.00000000000E+00  0.00000000000E+00  0.45593999997E+02  0.45594000000E+02  0.51100000000E-03 0.  1.
         11   -1    0    0    0    0 -0.00000000000E+00 -0.00000000000E+00 -0.45593999997E+02  0.45594000000E+02  0.51100000000E-03 0. -1.
    9900012    2    1    2    0    0 -0.16135723603E+02 -0.33900465663E+02 -0.15606534761E+02  0.50528842660E+02  0.29999947748E+02 0.  0.
        -12    1    1    2    0    0  0.16135723603E+02  0.33900465663E+02  0.15606534761E+02  0.40659157340E+02  0.00000000000E+00 0.  1.
         11    1    3    3    0    0  0.68627711986E+01 -0.77587272781E+01  0.12365438519E+01  0.10431899082E+02  0.51100000000E-03 0. -1.
        -11    1    3    3    0    0 -0.61834644386E+01 -0.17945965600E+01 -0.94651340714E+00  0.65078181572E+01  0.51100000000E-03 0.  1.
         12    1    3    3    0    0 -0.16815030363E+02 -0.24347141825E+02 -0.15896565205E+02  0.33589125420E+02  0.00000000000E+00 0. -1.
</event>
<event>
 7    1  0.6892993E-011  0.5052886E+02  0.7816164E-02  0.1300439E+00
        -11   -1    0    0    0    0  0.00000000000E+00  0.00000000000E+00  0.45593999997E+02  0.45594000000E+02  0.51100000000E-03 0. -1.
         11   -1    0    0    0    0 -0.00000000000E+00 -0.00000000000E+00 -0.45593999997E+02  0.45594000000E+02  0.51100000000E-03 0.  1.
    9900012    2    1    2    0    0  0.36225801884E+02  0.64011878706E+01  0.17317092075E+02  0.50528860730E+02  0.30000002673E+02 0.  0.
        -12    1    1    2    0    0 -0.36225801884E+02 -0.64011878706E+01 -0.17317092075E+02  0.40659139270E+02  0.00000000000E+00 0.  1.
         11    1    3    3    0    0  0.17973229042E+02 -0.64662482493E+01  0.91849620215E+01  0.21194642159E+02  0.51100000000E-03 0. -1.
        -11    1    3    3    0    0  0.10364608063E+02  0.10709169158E+02 -0.33134112749E+01  0.15267288525E+02  0.51100000000E-03 0.  1.
         12    1    3    3    0    0  0.78879647787E+01  0.21582669615E+01  0.11445541328E+02  0.14066930046E+02  0.00000000000E+00 0. -1.
</event>
<event>
 7    1  0.4878192E-011  0.5052886E+02  0.7816164E-02  0.1300439E+00
        -11   -1    0    0    0    0  0.00000000000E+00  0.00000000000E+00  0.45593999997E+02  0.45594000000E+02  0.51100000000E-03 0. -1.
         11   -1    0    0    0    0 -0.00000000000E+00 -0.00000000000E+00 -0.45593999997E+02  0.45594000000E+02  0.51100000000E-03 0.  1.
    9900012    2    1    2    0    0 -0.35765128182E+02 -0.14205496895E+02  0.13123466501E+02  0.50528857007E+02  0.29999991358E+02 0.  0.
        -12    1    1    2    0    0  0.35765128182E+02  0.14205496895E+02 -0.13123466501E+02  0.40659142993E+02  0.00000000000E+00 0.  1.
         11    1    3    3    0    0 -0.67215364905E+01  0.74305955058E+01  0.51877286324E+01  0.11282966409E+02  0.51100000000E-03 0. -1.
        -11    1    3    3    0    0 -0.29199058144E+02 -0.22900219922E+02  0.72877547643E+01  0.37816880342E+02  0.51100000000E-03 0.  1.
        -12    1    3    3    0    0  0.15546645274E+00  0.12641275216E+01  0.64798310430E+00  0.14290102562E+01  0.00000000000E+00 0.  1.
</event>
<event>
 7    1  0.4878192E-011  0.5052886E+02  0.7816164E-02  0.1300439E+00
        -11   -1    0    0    0    0  0.00000000000E+00  0.00000000000E+00  0.45593999997E+02  0.45594000000E+02  0.51100000000E-03 0. -1.
         11   -1    0    0    0    0 -0.00000000000E+00 -0.00000000000E+00 -0.45593999997E+02  0.45594000000E+02  0.51100000000E-03 0.  1.
    9900012    2    1    2    0    0 -0.25435160384E+02 -0.23715992443E+02  0.21065848649E+02  0.50528860060E+02  0.30000000639E+02 0.  0.
        -12    1    1    2    0    0  0.25435160384E+02  0.23715992443E+02 -0.21065848649E+02  0.40659139940E+02  0.00000000000E+00 0.  1.
         11    1    3    3    0    0 -0.21347289946E+02 -0.14928740303E+02  0.13414096105E+02  0.29300376272E+02  0.51100000000E-03 0. -1.
        -11    1    3    3    0    0  0.47949882153E+01 -0.16110136131E+01  0.83772854942E+01  0.97860200980E+01  0.51100000000E-03 0.  1.
         12    1    3    3    0    0 -0.88828586532E+01 -0.71762385269E+01 -0.72553295027E+00  0.11442463691E+02  0.00000000000E+00 0. -1.
</event>
<event>
 7    1  0.4878192E-011  0.5052885E+02  0.7816164E-02  0.1300439E+00
        -11   -1    0    0    0    0  0.00000000000E+00  0.00000000000E+00  0.45593999997E+02  0.45594000000E+02  0.51100000000E-03 0.  1.
         11   -1    0    0    0    0 -0.00000000000E+00 -0.00000000000E+00 -0.45593999997E+02  0.45594000000E+02  0.51100000000E-03 0. -1.
    9900012    2    1    2    0    0  0.28437745759E+02 -0.16913415875E+02 -0.23630439180E+02  0.50528847571E+02  0.29999962676E+02 0.  0.
        -12    1    1    2    0    0 -0.28437745759E+02  0.16913415875E+02  0.23630439180E+02  0.40659152429E+02  0.00000000000E+00 0.  1.
         11    1    3    3    0    0  0.26566534381E+02 -0.11141274296E+02 -0.15941142131E+02  0.32924591944E+02  0.51100000000E-03 0. -1.
        -11    1    3    3    0    0 -0.38199626505E+01  0.25881651704E+01 -0.56368011385E+01  0.72845206388E+01  0.51100000000E-03 0.  1.
        -12    1    3    3    0    0  0.56911740281E+01 -0.83603067494E+01 -0.20524959112E+01  0.10319734988E+02  0.00000000000E+00 0.  1.
</event>
<event>
 7    1  0.4878192E-011  0.5052886E+02  0.7816164E-02  0.1300439E+00
        -11   -1    0    0    0    0  0.00000000000E+00  0.00000000000E+00  0.45593999997E+02  0.45594000000E+02  0.51100000000E-03 0. -1.
         11   -1    0    0    0    0 -0.00000000000E+00 -0.00000000000E+00 -0.45593999997E+02  0.45594000000E+02  0.51100000000E-03 0.  1.
    9900012    2    1    2    0    0  0.24657690854E+02  0.23910351961E+02  0.21759107876E+02  0.50528862961E+02  0.30000009457E+02 0.  0.
        -12    1    1    2    0    0 -0.24657690854E+02 -0.23910351961E+02 -0.21759107876E+02  0.40659137039E+02  0.00000000000E+00 0.  1.
         11    1    3    3    0    0  0.76272371022E-01  0.62452147027E+01  0.87887147987E+01  0.10781930821E+02  0.51100000000E-03 0. -1.
        -11    1    3    3    0    0  0.22678552144E+02  0.22577937451E+02  0.12827827012E+02  0.34476559182E+02  0.51100000000E-03 0.  1.
        -12    1    3    3    0    0  0.19028663393E+01 -0.49128001928E+01  0.14256606594E+00  0.52703729586E+01  0.00000000000E+00 0.  1.
</event>
<event>
 7    1  0.4878192E-011  0.5052886E+02  0.7816164E-02  0.1300439E+00
        -11   -1    0    0    0    0  0.00000000000E+00  0.00000000000E+00  0.45593999997E+02  0.45594000000E+02  0.51100000000E-03 0.  1.
         11   -1    0    0    0    0 -0.00000000000E+00 -0.00000000000E+00 -0.45593999997E+02  0.45594000000E+02  0.51100000000E-03 0. -1.
    9900012    2    1    2    0    0 -0.41568422430E+01 -0.15495283203E+02 -0.37360168429E+02  0.50528864200E+02  0.30000013223E+02 0.  0.
        -12    1    1    2    0    0  0.41568422430E+01  0.15495283203E+02  0.37360168429E+02  0.40659135800E+02  0.00000000000E+00 0.  1.
         11    1    3    3    0    0 -0.92503875337E+01  0.18951579430E+01 -0.45957932109E+01  0.10501552678E+02  0.51100000000E-03 0.  1.
        -11    1    3    3    0    0  0.21670640519E+01 -0.18715163715E+02 -0.22905620104E+02  0.29658404409E+02  0.51100000000E-03 0. -1.
        -12    1    3    3    0    0  0.29264812388E+01  0.13247225694E+01 -0.98587551136E+01  0.10368907113E+02  0.00000000000E+00 0.  1.
</event>
<event>
 7    1  0.4878192E-011  0.5052888E+02  0.7816164E-02  0.1300439E+00
        -11   -1    0    0    0    0  0.00000000000E+00  0.00000000000E+00  0.45593999997E+02  0.45594000000E+02  0.51100000000E-03 0.  1.
         11   -1    0    0    0    0 -0.00000000000E+00 -0.00000000000E+00 -0.45593999997E+02  0.45594000000E+02  0.51100000000E-03 0. -1.
    9900012    2    1    2    0    0 -0.15999130396E+02 -0.27140201325E+01 -0.37280368287E+02  0.50528881240E+02  0.30000065017E+02 0.  0.
        -12    1    1    2    0    0  0.15999130396E+02  0.27140201325E+01  0.37280368287E+02  0.40659118760E+02  0.00000000000E+00 0.  1.
         11    1    3    3    0    0  0.14256292852E+01  0.11851122156E+01 -0.13268236073E+02  0.13397126504E+02  0.51100000000E-03 0. -1.
        -11    1    3    3    0    0 -0.20517036616E+02  0.72359398724E+00 -0.11719116880E+02  0.23639164124E+02  0.51100000000E-03 0.  1.
        -12    1    3    3    0    0  0.30922769346E+01 -0.46227263353E+01 -0.12293015334E+02  0.13492590612E+02  0.00000000000E+00 0.  1.
</event>
<event>
 7    1  0.4878192E-011  0.5052886E+02  0.7816164E-02  0.1300439E+00
        -11   -1    0    0    0    0  0.00000000000E+00  0.00000000000E+00  0.45593999997E+02  0.45594000000E+02  0.51100000000E-03 0. -1.
         11   -1    0    0    0    0 -0.00000000000E+00 -0.00000000000E+00 -0.45593999997E+02  0.45594000000E+02  0.51100000000E-03 0.  1.
    9900012    2    1    2    0    0 -0.20743473295E+02 -0.20392229278E+02  0.28408296278E+02  0.50528855928E+02  0.29999988078E+02 0.  0.
        -12    1    1    2    0    0  0.20743473295E+02  0.20392229278E+02 -0.28408296278E+02  0.40659144072E+02  0.00000000000E+00 0.  1.
         11    1    3    3    0    0 -0.21168886675E+02 -0.51976156448E+01  0.21271200066E+02  0.30456541563E+02  0.51100000000E-03 0. -1.
        -11    1    3    3    0    0 -0.11423722314E+01 -0.57273320911E+01 -0.26075719946E+01  0.63958407707E+01  0.51100000000E-03 0.  1.
         12    1    3    3    0    0  0.15677856112E+01 -0.94672815418E+01  0.97446682063E+01  0.13676473594E+02  0.00000000000E+00 0. -1.
</event>
<event>
 7    1  0.4878192E-011  0.5052886E+02  0.7816164E-02  0.1300439E+00
        -11   -1    0    0    0    0  0.00000000000E+00  0.00000000000E+00  0.45593999997E+02  0.45594000000E+02  0.51100000000E-03 0.  1.
         11   -1    0    0    0    0 -0.00000000000E+00 -0.00000000000E+00 -0.45593999997E+02  0.45594000000E+02  0.51100000000E-03 0. -1.
    9900012    2    1    2    0    0  0.36992383184E+02  0.80319038510E+01 -0.14839742723E+02  0.50528857644E+02  0.29999993293E+02 0.  0.
        -12    1    1    2    0    0 -0.36992383184E+02 -0.80319038510E+01  0.14839742723E+02  0.40659142356E+02  0.00000000000E+00 0.  1.
         11    1    3    3    0    0  0.36002216448E+01 -0.44580810402E+00 -0.53032802732E+01  0.64253500041E+01  0.51100000000E-03 0. -1.
        -11    1    3    3    0    0  0.24525477678E+02  0.16394216876E+02 -0.10878857693E+01  0.29520381062E+02  0.51100000000E-03 0.  1.
        -12    1    3    3    0    0  0.88666838605E+01 -0.79165049213E+01 -0.84485766801E+01  0.14583126577E+02  0.00000000000E+00 0.  1.
</event>
<event>
 7    1  0.4878192E-011  0.5052886E+02  0.7816164E-02  0.1300439E+00
        -11   -1    0    0    0    0  0.00000000000E+00  0.00000000000E+00  0.45593999997E+02  0.45594000000E+02  0.51100000000E-03 0.  1.
         11   -1    0    0    0    0 -0.00000000000E+00 -0.00000000000E+00 -0.45593999997E+02  0.45594000000E+02  0.51100000000E-03 0. -1.
    9900012    2    1    2    0    0  0.26614141260E+02 -0.98159683842E+01 -0.29129024034E+02  0.50528858451E+02  0.29999995748E+02 0.  0.
        -12    1    1    2    0    0 -0.26614141260E+02  0.98159683842E+01  0.29129024034E+02  0.40659141549E+02  0.00000000000E+00 0.  1.
         11    1    3    3    0    0  0.15438812225E+01  0.69649324110E+01 -0.10589352947E+02  0.12768251596E+02  0.51100000000E-03 0. -1.
        -11    1    3    3    0    0  0.79945541510E+00 -0.64600192399E+01 -0.40902087673E+01  0.76877035298E+01  0.51100000000E-03 0.  1.
         12    1    3    3    0    0  0.24270804622E+02 -0.10320881555E+02 -0.14449462320E+02  0.30072903325E+02  0.00000000000E+00 0. -1.
</event>
<event>
 7    1  0.4878192E-011  0.5052885E+02  0.7816164E-02  0.1300439E+00
        -11   -1    0    0    0    0  0.00000000000E+00  0.00000000000E+00  0.45593999997E+02  0.45594000000E+02  0.51100000000E-03 0.  1.
         11   -1    0    0    0    0 -0.00000000000E+00 -0.00000000000E+00 -0.45593999997E+02  0.45594000000E+02  0.51100000000E-03 0. -1.
    9900012    2    1    2    0    0 -0.25238920477E+02  0.28736501414E+02  0.13797713365E+02  0.50528849560E+02  0.29999968724E+02 0.  0.
        -12    1    1    2    0    0  0.25238920477E+02 -0.28736501414E+02 -0.13797713365E+02  0.40659150440E+02  0.00000000000E+00 0.  1.
         11    1    3    3    0    0 -0.91868129853E+01  0.10969551580E+02  0.19726079416E+02  0.24368972159E+02  0.51100000000E-03 0.  1.
        -11    1    3    3    0    0 -0.13792664199E+02  0.10241985594E+02 -0.17700646562E+01  0.17270465650E+02  0.51100000000E-03 0. -1.
        -12    1    3    3    0    0 -0.22594432926E+01  0.75249642396E+01 -0.41583013945E+01  0.88894117514E+01  0.00000000000E+00 0.  1.
</event>
<event>
 7    1  0.4878192E-011  0.5052887E+02  0.7816164E-02  0.1300439E+00
        -11   -1    0    0    0    0  0.00000000000E+00  0.00000000000E+00  0.45593999997E+02  0.45594000000E+02  0.51100000000E-03 0. -1.
         11   -1    0    0    0    0 -0.00000000000E+00 -0.00000000000E+00 -0.45593999997E+02  0.45594000000E+02  0.51100000000E-03 0.  1.
    9900012    2    1    2    0    0 -0.13696096894E+01  0.28162475143E+02  0.29294437928E+02  0.50528869040E+02  0.30000027934E+02 0.  0.
        -12    1    1    2    0    0  0.13696096894E+01 -0.28162475143E+02 -0.29294437928E+02  0.40659130960E+02  0.00000000000E+00 0.  1.
         11    1    3    3    0    0 -0.10047564752E+02  0.13293097542E+02  0.22655967366E+02  0.28123884107E+02  0.51100000000E-03 0. -1.
        -11    1    3    3    0    0  0.73629919884E+00  0.75805060634E+00 -0.32597223170E+01  0.34267429254E+01  0.51100000000E-03 0.  1.
         12    1    3    3    0    0  0.79416558640E+01  0.14111326996E+02  0.98981928786E+01  0.18978242008E+02  0.00000000000E+00 0. -1.
</event>
<event>
 7    1  0.4878192E-011  0.5052887E+02  0.7816164E-02  0.1300439E+00
        -11   -1    0    0    0    0  0.00000000000E+00  0.00000000000E+00  0.45593999997E+02  0.45594000000E+02  0.51100000000E-03 0. -1.
         11   -1    0    0    0    0 -0.00000000000E+00 -0.00000000000E+00 -0.45593999997E+02  0.45594000000E+02  0.51100000000E-03 0.  1.
    9900012    2    1    2    0    0  0.36813297953E+02 -0.17257523615E+02  0.35222504732E+00  0.50528867078E+02  0.30000021970E+02 0.  0.
        -12    1    1    2    0    0 -0.36813297953E+02  0.17257523615E+02 -0.35222504732E+00  0.40659132922E+02  0.00000000000E+00 0.  1.
         11    1    3    3    0    0 -0.22353251039E+00 -0.54860252132E+01 -0.79424655768E+01  0.96555268693E+01  0.51100000000E-03 0. -1.
        -11    1    3    3    0    0  0.22688355696E+01  0.11430177103E+01  0.20452348282E+01  0.32614552107E+01  0.51100000000E-03 0.  1.
         12    1    3    3    0    0  0.34767994894E+02 -0.12914516112E+02  0.62494557959E+01  0.37611884998E+02  0.00000000000E+00 0. -1.
</event>
<event>
 7    1  0.4878192E-011  0.5052886E+02  0.7816164E-02  0.1300439E+00
        -11   -1    0    0    0    0  0.00000000000E+00  0.00000000000E+00  0.45593999997E+02  0.45594000000E+02  0.51100000000E-03 0. -1.
         11   -1    0    0    0    0 -0.00000000000E+00 -0.00000000000E+00 -0.45593999997E+02  0.45594000000E+02  0.51100000000E-03 0.  1.
    9900012    2    1    2    0    0  0.38711558333E+02 -0.11044357276E+02 -0.57099073878E+01  0.50528860578E+02  0.30000002212E+02 0.  0.
        -12    1    1    2    0    0 -0.38711558333E+02  0.11044357276E+02  0.57099073878E+01  0.40659139422E+02  0.00000000000E+00 0.  1.
         11    1    3    3    0    0  0.32889895658E+02 -0.26712090875E+01  0.23992844491E+01  0.33085301276E+02  0.51100000000E-03 0.  1.
        -11    1    3    3    0    0  0.66346629514E+01 -0.95022794109E+01 -0.27559911334E+01  0.11912495703E+02  0.51100000000E-03 0. -1.
         12    1    3    3    0    0 -0.81300027629E+00  0.11291312225E+01 -0.53532007036E+01  0.55310635993E+01  0.00000000000E+00 0. -1.
</event>
<event>
 7    1  0.4878192E-011  0.5052886E+02  0.7816164E-02  0.1300439E+00
        -11   -1    0    0    0    0  0.00000000000E+00  0.00000000000E+00  0.45593999997E+02  0.45594000000E+02  0.51100000000E-03 0. -1.
         11   -1    0    0    0    0 -0.00000000000E+00 -0.00000000000E+00 -0.45593999997E+02  0.45594000000E+02  0.51100000000E-03 0.  1.
    9900012    2    1    2    0    0 -0.20918701634E+02 -0.12158825822E+02  0.32676234524E+02  0.50528862944E+02  0.30000009405E+02 0.  0.
        -12    1    1    2    0    0  0.20918701634E+02  0.12158825822E+02 -0.32676234524E+02  0.40659137056E+02  0.00000000000E+00 0.  1.
         11    1    3    3    0    0 -0.51920049492E+01 -0.17416013354E+02  0.15174485505E+02  0.23675714290E+02  0.51100000000E-03 0. -1.
        -11    1    3    3    0    0 -0.15447831123E+02  0.15418628412E+01  0.17115466757E+02  0.23107402061E+02  0.51100000000E-03 0.  1.
         12    1    3    3    0    0 -0.27886556255E+00  0.37153246906E+01  0.38628226185E+00  0.37457465937E+01  0.00000000000E+00 0. -1.
</event>
<event>
 7    1  0.6797390E-011  0.5052889E+02  0.7816164E-02  0.1300439E+00
        -11   -1    0    0    0    0  0.00000000000E+00  0.00000000000E+00  0.45593999997E+02  0.45594000000E+02  0.51100000000E-03 0. -1.
         11   -1    0    0    0    0 -0.00000000000E+00 -0.00000000000E+00 -0.45593999997E+02  0.45594000000E+02  0.51100000000E-03 0.  1.
    9900012    2    1    2    0    0 -0.22444473568E+01  0.16729454481E+02  0.36989881368E+02  0.50528886449E+02  0.30000080850E+02 0.  0.
        -12    1    1    2    0    0  0.22444473568E+01 -0.16729454481E+02 -0.36989881368E+02  0.40659113551E+02  0.00000000000E+00 0.  1.
         11    1    3    3    0    0 -0.17935952489E+01  0.11464167790E+02  0.33683490391E+02  0.35626137206E+02  0.51100000000E-03 0. -1.
        -11    1    3    3    0    0 -0.12056614997E+01 -0.43046766555E+01  0.28308923873E+01  0.52912959405E+01  0.51100000000E-03 0.  1.
         12    1    3    3    0    0  0.75480939175E+00  0.95699633468E+01  0.47549858936E+00  0.96114533024E+01  0.00000000000E+00 0. -1.
</event>
<event>
 7    1  0.4878192E-011  0.5052886E+02  0.7816164E-02  0.1300439E+00
        -11   -1    0    0    0    0  0.00000000000E+00  0.00000000000E+00  0.45593999997E+02  0.45594000000E+02  0.51100000000E-03 0.  1.
         11   -1    0    0    0    0 -0.00000000000E+00 -0.00000000000E+00 -0.45593999997E+02  0.45594000000E+02  0.51100000000E-03 0. -1.
    9900012    2    1    2    0    0  0.24146789915E+02 -0.19927017101E+02 -0.25942479460E+02  0.50528859400E+02  0.29999998633E+02 0.  0.
        -12    1    1    2    0    0 -0.24146789915E+02  0.19927017101E+02  0.25942479460E+02  0.40659140600E+02  0.00000000000E+00 0.  1.
         11    1    3    3    0    0  0.52284157082E+01 -0.64966888376E+01 -0.25503109876E+02  0.26831919616E+02  0.51100000000E-03 0. -1.
        -11    1    3    3    0    0  0.35599758327E+01 -0.53803561173E+00  0.42931827795E+00  0.36259101883E+01  0.51100000000E-03 0.  1.
         12    1    3    3    0    0  0.15358398374E+02 -0.12892292652E+02 -0.86868786230E+00  0.20071029596E+02  0.00000000000E+00 0. -1.
</event>
<event>
 7    1  0.4878192E-011  0.5052887E+02  0.7816164E-02  0.1300439E+00
        -11   -1    0    0    0    0  0.00000000000E+00  0.00000000000E+00  0.45593999997E+02  0.45594000000E+02  0.51100000000E-03 0.  1.
         11   -1    0    0    0    0 -0.00000000000E+00 -0.00000000000E+00 -0.45593999997E+02  0.45594000000E+02  0.51100000000E-03 0. -1.
    9900012    2    1    2    0    0 -0.36439310252E+02  0.12584238597E+01 -0.17993280121E+02  0.50528867056E+02  0.30000021903E+02 0.  0.
        -12    1    1    2    0    0  0.36439310252E+02 -0.12584238597E+01  0.17993280121E+02  0.40659132944E+02  0.00000000000E+00 0.  1.
         11    1    3    3    0    0 -0.29454570905E+02 -0.23998658482E+01 -0.28742579422E+01  0.29691622762E+02  0.51100000000E-03 0. -1.
        -11    1    3    3    0    0 -0.44798659682E+01 -0.24384275279E+01 -0.12917587902E+02  0.13888095815E+02  0.51100000000E-03 0.  1.
        -12    1    3    3    0    0 -0.25048733791E+01  0.60967172358E+01 -0.22014342766E+01  0.69491484783E+01  0.00000000000E+00 0.  1.
</event>
<event>
 7    1  0.4878192E-011  0.5052887E+02  0.7816164E-02  0.1300439E+00
        -11   -1    0    0    0    0  0.00000000000E+00  0.00000000000E+00  0.45593999997E+02  0.45594000000E+02  0.51100000000E-03 0.  1.
         11   -1    0    0    0    0 -0.00000000000E+00 -0.00000000000E+00 -0.45593999997E+02  0.45594000000E+02  0.51100000000E-03 0. -1.
    9900012    2    1    2    0    0 -0.26499898992E+02  0.19571166302E+02 -0.23830437604E+02  0.50528868757E+02  0.30000027074E+02 0.  0.
        -12    1    1    2    0    0  0.26499898992E+02 -0.19571166302E+02  0.23830437604E+02  0.40659131243E+02  0.00000000000E+00 0.  1.
         11    1    3    3    0    0 -0.12821333742E+02  0.21047575611E+02 -0.18920844650E+02  0.31070651756E+02  0.51100000000E-03 0. -1.
        -11    1    3    3    0    0 -0.10804810604E+02 -0.62084125221E+01 -0.59757833113E+01  0.13820213626E+02  0.51100000000E-03 0.  1.
         12    1    3    3    0    0 -0.28737546460E+01  0.47320032136E+01  0.10661903567E+01  0.56380033750E+01  0.00000000000E+00 0. -1.
</event>
<event>
 7    1  0.4878192E-011  0.5052886E+02  0.7816164E-02  0.1300439E+00
        -11   -1    0    0    0    0  0.00000000000E+00  0.00000000000E+00  0.45593999997E+02  0.45594000000E+02  0.51100000000E-03 0. -1.
         11   -1    0    0    0    0 -0.00000000000E+00 -0.00000000000E+00 -0.45593999997E+02  0.45594000000E+02  0.51100000000E-03 0.  1.
    9900012    2    1    2    0    0 -0.15486417186E+02  0.10844333442E+02  0.35996344003E+02  0.50528862446E+02  0.30000007890E+02 0.  0.
        -12    1    1    2    0    0  0.15486417186E+02 -0.10844333442E+02 -0.35996344003E+02  0.40659137554E+02  0.00000000000E+00 0.  1.
         11    1    3    3    0    0 -0.72570331447E+01 -0.19551143703E+01  0.16645452907E+02  0.18263573172E+02  0.51100000000E-03 0. -1.
        -11    1    3    3    0    0 -0.35272130483E+01  0.33199770265E+00 -0.40227250110E+01  0.53603890845E+01  0.51100000000E-03 0.  1.
        -12    1    3    3    0    0 -0.47021709931E+01  0.12467450110E+02  0.23373616107E+02  0.26904900189E+02  0.00000000000E+00 0.  1.
</event>
<event>
 7    1  0.4878192E-011  0.5052886E+02  0.7816164E-02  0.1300439E+00
        -11   -1    0    0    0    0  0.00000000000E+00  0.00000000000E+00  0.45593999997E+02  0.45594000000E+02  0.51100000000E-03 0.  1.
         11   -1    0    0    0    0 -0.00000000000E+00 -0.00000000000E+00 -0.45593999997E+02  0.45594000000E+02  0.51100000000E-03 0. -1.
    9900012    2    1    2    0    0 -0.47402456156E+01 -0.10080874549E+02 -0.39103342408E+02  0.50528863910E+02  0.30000012340E+02 0.  0.
        -12    1    1    2    0    0  0.47402456156E+01  0.10080874549E+02  0.39103342408E+02  0.40659136090E+02  0.00000000000E+00 0.  1.
         11    1    3    3    0    0  0.86945657839E+01  0.36366370784E+01 -0.23244928270E+02  0.25082808733E+02  0.51100000000E-03 0. -1.
        -11    1    3    3    0    0 -0.10737189429E+02 -0.13320779631E+02 -0.14346524259E+02  0.22328304132E+02  0.51100000000E-03 0.  1.
         12    1    3    3    0    0 -0.26976219707E+01 -0.39673199592E+00 -0.15118898786E+01  0.31177510450E+01  0.00000000000E+00 0. -1.
</event>
<event>
 7    1  0.4878192E-011  0.5052887E+02  0.7816164E-02  0.1300439E+00
        -11   -1    0    0    0    0  0.00000000000E+00  0.00000000000E+00  0.45593999997E+02  0.45594000000E+02  0.51100000000E-03 0.  1.
         11   -1    0    0    0    0 -0.00000000000E+00 -0.00000000000E+00 -0.45593999997E+02  0.45594000000E+02  0.51100000000E-03 0. -1.
    9900012    2    1    2    0    0  0.79570028788E+00  0.24711725737E+02 -0.32277888845E+02  0.50528872659E+02  0.30000038933E+02 0.  0.
        -12    1    1    2    0    0 -0.79570028788E+00 -0.24711725737E+02  0.32277888845E+02  0.40659127341E+02  0.00000000000E+00 0.  1.
         11    1    3    3    0    0  0.22926028838E+01  0.21485009977E+02 -0.11854426311E+02  0.24645265370E+02  0.51100000000E-03 0. -1.
        -11    1    3    3    0    0  0.62692399756E+01  0.28328955190E+01 -0.14693808331E+02  0.16224569961E+02  0.51100000000E-03 0.  1.
         12    1    3    3    0    0 -0.77661425715E+01  0.39382024100E+00 -0.57296542031E+01  0.96590373283E+01  0.00000000000E+00 0. -1.
</event>
<event>
 7    1  0.4878192E-011  0.5052885E+02  0.7816164E-02  0.1300439E+00
        -11   -1    0    0    0    0  0.00000000000E+00  0.00000000000E+00  0.45593999997E+02  0.45594000000E+02  0.51100000000E-03 0.  1.
         11   -1    0    0    0    0 -0.00000000000E+00 -0.00000000000E+00 -0.45593999997E+02  0.45594000000E+02  0.51100000000E-03 0. -1.
    9900012    2    1    2    0    0  0.86441882549E+01  0.43777623558E+01 -0.39487711199E+02  0.50528854293E+02  0.29999983110E+02 0.  0.
        -12    1    1    2    0    0 -0.86441882549E+01 -0.43777623558E+01  0.39487711199E+02  0.40659145707E+02  0.00000000000E+00 0.  1.
         11    1    3    3    0    0  0.49259392850E+01 -0.39737123651E+01 -0.59321481327E+01  0.86744250258E+01  0.51100000000E-03 0. -1.
        -11    1    3    3    0    0  0.89517810966E+00  0.16323386649E+02 -0.24601616840E+02  0.29538006821E+02  0.51100000000E-03 0.  1.
        -12    1    3    3    0    0  0.28230708603E+01 -0.79719119277E+01 -0.89539462262E+01  0.12316422447E+02  0.00000000000E+00 0.  1.
</event>
<event>
 7    1  0.4878192E-011  0.5052886E+02  0.7816164E-02  0.1300439E+00
        -11   -1    0    0    0    0  0.00000000000E+00  0.00000000000E+00  0.45593999997E+02  0.45594000000E+02  0.51100000000E-03 0.  1.
         11   -1    0    0    0    0 -0.00000000000E+00 -0.00000000000E+00 -0.45593999997E+02  0.45594000000E+02  0.51100000000E-03 0. -1.
    9900012    2    1    2    0    0 -0.17054924725E+02 -0.18130405032E+02 -0.32149394814E+02  0.50528860425E+02  0.30000001749E+02 0.  0.
        -12    1    1    2    0    0  0.17054924725E+02  0.18130405032E+02  0.32149394814E+02  0.40659139575E+02  0.00000000000E+00 0.  1.
         11    1    3    3    0    0  0.57574018877E+01 -0.89624309310E+01 -0.80619053862E+01  0.13359160281E+02  0.51100000000E-03 0. -1.
        -11    1    3    3    0    0 -0.23728859133E+02 -0.89731228358E+01 -0.25170943449E+02  0.35737264634E+02  0.51100000000E-03 0.  1.
        -12    1    3    3    0    0  0.91653251995E+00 -0.19485126575E+00  0.10834540207E+01  0.14324355102E+01  0.00000000000E+00 0.  1.
</event>
<event>
 7    1  0.4878192E-011  0.5052886E+02  0.7816164E-02  0.1300439E+00
        -11   -1    0    0    0    0  0.00000000000E+00  0.00000000000E+00  0.45593999997E+02  0.45594000000E+02  0.51100000000E-03 0. -1.
         11   -1    0    0    0    0 -0.00000000000E+00 -0.00000000000E+00 -0.45593999997E+02  0.45594000000E+02  0.51100000000E-03 0.  1.
    9900012    2    1    2    0    0 -0.23462953082E+02 -0.17467614837E+02  0.28240712135E+02  0.50528861331E+02  0.30000004502E+02 0.  0.
        -12    1    1    2    0    0  0.23462953082E+02  0.17467614837E+02 -0.28240712135E+02  0.40659138669E+02  0.00000000000E+00 0.  1.
         11    1    3    3    0    0 -0.23456038802E+01 -0.10555132318E+02  0.12878532487E+02  0.16815744857E+02  0.51100000000E-03 0. -1.
        -11    1    3    3    0    0 -0.24466439773E+02 -0.37413063511E+01  0.15304774438E+02  0.29100518367E+02  0.51100000000E-03 0.  1.
        -12    1    3    3    0    0  0.33490905709E+01 -0.31711761674E+01  0.57405209772E-01  0.46125981068E+01  0.00000000000E+00 0.  1.
</event>
<event>
 7    1  0.4878192E-011  0.5052887E+02  0.7816164E-02  0.1300439E+00
        -11   -1    0    0    0    0  0.00000000000E+00  0.00000000000E+00  0.45593999997E+02  0.45594000000E+02  0.51100000000E-03 0. -1.
         11   -1    0    0    0    0 -0.00000000000E+00 -0.00000000000E+00 -0.45593999997E+02  0.45594000000E+02  0.51100000000E-03 0.  1.
    9900012    2    1    2    0    0 -0.10454865431E+02  0.39290674078E+02  0.32212001097E+00  0.50528867668E+02  0.30000023764E+02 0.  0.
        -12    1    1    2    0    0  0.10454865431E+02 -0.39290674078E+02 -0.32212001097E+00  0.40659132332E+02  0.00000000000E+00 0.  1.
         11    1    3    3    0    0 -0.49218298027E+01 -0.24764908430E+01  0.20551408178E+01  0.58805628595E+01  0.51100000000E-03 0. -1.
        -11    1    3    3    0    0  0.44612680856E+01  0.13242375056E+02  0.22787076996E+01  0.14158245622E+02  0.51100000000E-03 0.  1.
         12    1    3    3    0    0 -0.99943037144E+01  0.28524789865E+02 -0.40117285065E+01  0.30490059186E+02  0.00000000000E+00 0. -1.
</event>
<event>
 7    1  0.4878192E-011  0.5052887E+02  0.7816164E-02  0.1300439E+00
        -11   -1    0    0    0    0  0.00000000000E+00  0.00000000000E+00  0.45593999997E+02  0.45594000000E+02  0.51100000000E-03 0. -1.
         11   -1    0    0    0    0 -0.00000000000E+00 -0.00000000000E+00 -0.45593999997E+02  0.45594000000E+02  0.51100000000E-03 0.  1.
    9900012    2    1    2    0    0 -0.44248988274E+01 -0.39582856528E+02  0.81720845354E+01  0.50528865403E+02  0.30000016879E+02 0.  0.
        -12    1    1    2    0    0  0.44248988274E+01  0.39582856528E+02 -0.81720845354E+01  0.40659134597E+02  0.00000000000E+00 0.  1.
         11    1    3    3    0    0 -0.76222653178E+01 -0.75290515864E+01  0.51974725851E+00  0.10726401253E+02  0.51100000000E-03 0. -1.
        -11    1    3    3    0    0  0.73272055399E+01 -0.33792775962E+02  0.68593761899E+01  0.35251818254E+02  0.51100000000E-03 0.  1.
        -12    1    3    3    0    0 -0.41298390495E+01  0.17389710206E+01  0.79296108701E+00  0.45506458960E+01  0.00000000000E+00 0.  1.
</event>
<event>
 7    1  0.4878192E-011  0.5052887E+02  0.7816164E-02  0.1300439E+00
        -11   -1    0    0    0    0  0.00000000000E+00  0.00000000000E+00  0.45593999997E+02  0.45594000000E+02  0.51100000000E-03 0.  1.
         11   -1    0    0    0    0 -0.00000000000E+00 -0.00000000000E+00 -0.45593999997E+02  0.45594000000E+02  0.51100000000E-03 0. -1.
    9900012    2    1    2    0    0 -0.18854013891E+02  0.20145635597E+02 -0.29863769521E+02  0.50528865683E+02  0.30000017731E+02 0.  0.
        -12    1    1    2    0    0  0.18854013891E+02 -0.20145635597E+02  0.29863769521E+02  0.40659134317E+02  0.00000000000E+00 0.  1.
         11    1    3    3    0    0 -0.66001402844E+01  0.46695914645E+00 -0.23001593114E+02  0.23934351645E+02  0.51100000000E-03 0. -1.
        -11    1    3    3    0    0 -0.53747567200E+01  0.11178441417E+02  0.19433937105E+01  0.12554773662E+02  0.51100000000E-03 0.  1.
         12    1    3    3    0    0 -0.68791168864E+01  0.85002350329E+01 -0.88055701173E+01  0.14039740377E+02  0.00000000000E+00 0. -1.
</event>
<event>
 7    1  0.4878192E-011  0.5052886E+02  0.7816164E-02  0.1300439E+00
        -11   -1    0    0    0    0  0.00000000000E+00  0.00000000000E+00  0.45593999997E+02  0.45594000000E+02  0.51100000000E-03 0. -1.
         11   -1    0    0    0    0 -0.00000000000E+00 -0.00000000000E+00 -0.45593999997E+02  0.45594000000E+02  0.51100000000E-03 0.  1.
    9900012    2    1    2    0    0 -0.28937086639E+02 -0.28560280947E+02  0.34774916597E+00  0.50528861293E+02  0.30000004385E+02 0.  0.
        -12    1    1    2    0    0  0.28937086639E+02  0.28560280947E+02 -0.34774916597E+00  0.40659138707E+02  0.00000000000E+00 0.  1.
         11    1    3    3    0    0 -0.10046427917E+02 -0.16786845313E+02 -0.69854158727E+01  0.20773178010E+02  0.51100000000E-03 0. -1.
        -11    1    3    3    0    0 -0.12537168505E+02  0.24295259812E+01  0.55037583766E+00  0.12782257408E+02  0.51100000000E-03 0.  1.
        -12    1    3    3    0    0 -0.63534902167E+01 -0.14202961615E+02  0.67827892011E+01  0.16973425875E+02  0.00000000000E+00 0.  1.
</event>
<event>
 7    1  0.4878192E-011  0.5052886E+02  0.7816164E-02  0.1300439E+00
        -11   -1    0    0    0    0  0.00000000000E+00  0.00000000000E+00  0.45593999997E+02  0.45594000000E+02  0.51100000000E-03 0.  1.
         11   -1    0    0    0    0 -0.00000000000E+00 -0.00000000000E+00 -0.45593999997E+02  0.45594000000E+02  0.51100000000E-03 0. -1.
    9900012    2    1    2    0    0  0.31200597647E+02  0.12847757397E+02 -0.22685316555E+02  0.50528858951E+02  0.29999997267E+02 0.  0.
        -12    1    1    2    0    0 -0.31200597647E+02 -0.12847757397E+02  0.22685316555E+02  0.40659141049E+02  0.00000000000E+00 0.  1.
         11    1    3    3    0    0  0.10180666531E+02  0.12239436780E+02 -0.19136083651E+02  0.24892558757E+02  0.51100000000E-03 0. -1.
        -11    1    3    3    0    0  0.76091747611E+01 -0.21361682491E+01  0.51352607797E+01  0.94251609466E+01  0.51100000000E-03 0.  1.
         12    1    3    3    0    0  0.13410756355E+02  0.27444888659E+01 -0.86844936829E+01  0.16211139247E+02  0.00000000000E+00 0. -1.
</event>
<event>
 7    1  0.4878192E-011  0.5052886E+02  0.7816164E-02  0.1300439E+00
        -11   -1    0    0    0    0  0.00000000000E+00  0.00000000000E+00  0.45593999997E+02  0.45594000000E+02  0.51100000000E-03 0.  1.
         11   -1    0    0    0    0 -0.00000000000E+00 -0.00000000000E+00 -0.45593999997E+02  0.45594000000E+02  0.51100000000E-03 0. -1.
    9900012    2    1    2    0    0  0.26075081703E+01  0.29670245988E+02 -0.27677483898E+02  0.50528859444E+02  0.29999998765E+02 0.  0.
        -12    1    1    2    0    0 -0.26075081703E+01 -0.29670245988E+02  0.27677483898E+02  0.40659140556E+02  0.00000000000E+00 0.  1.
         11    1    3    3    0    0  0.41256922181E+01  0.11473375623E+02 -0.18228062237E+02  0.21929932459E+02  0.51100000000E-03 0. -1.
        -11    1    3    3    0    0 -0.89044280027E+01  0.21926157489E+01 -0.48881402725E+01  0.10391838984E+02  0.51100000000E-03 0.  1.
        -12    1    3    3    0    0  0.73862439549E+01  0.16004254616E+02 -0.45612813882E+01  0.18207088001E+02  0.00000000000E+00 0.  1.
</event>
<event>
 7    1  0.4878192E-011  0.5052886E+02  0.7816164E-02  0.1300439E+00
        -11   -1    0    0    0    0  0.00000000000E+00  0.00000000000E+00  0.45593999997E+02  0.45594000000E+02  0.51100000000E-03 0.  1.
         11   -1    0    0    0    0 -0.00000000000E+00 -0.00000000000E+00 -0.45593999997E+02  0.45594000000E+02  0.51100000000E-03 0. -1.
    9900012    2    1    2    0    0  0.25565436743E+02 -0.25573521152E+02 -0.18589493181E+02  0.50528858387E+02  0.29999995553E+02 0.  0.
        -12    1    1    2    0    0 -0.25565436743E+02  0.25573521152E+02  0.18589493181E+02  0.40659141613E+02  0.00000000000E+00 0.  1.
         11    1    3    3    0    0  0.26528667700E+02 -0.61881822982E+01 -0.11215178529E+02  0.29459192789E+02  0.51100000000E-03 0. -1.
        -11    1    3    3    0    0 -0.67565254577E+00 -0.10246054274E+02 -0.57943450284E+01  0.11790359160E+02  0.51100000000E-03 0.  1.
         12    1    3    3    0    0 -0.28757841062E+00 -0.91392845792E+01 -0.15799696237E+01  0.92793064382E+01  0.00000000000E+00 0. -1.
</event>
<event>
 7    1  0.4878192E-011  0.5052883E+02  0.7816164E-02  0.1300439E+00
        -11   -1    0    0    0    0  0.00000000000E+00  0.00000000000E+00  0.45593999997E+02  0.45594000000E+02  0.51100000000E-03 0.  1.
         11   -1    0    0    0    0 -0.00000000000E+00 -0.00000000000E+00 -0.45593999997E+02  0.45594000000E+02  0.51100000000E-03 0. -1.
    9900012    2    1    2    0    0  0.13065079975E+02 -0.87065425408E+01 -0.37505566440E+02  0.50528834836E+02  0.29999923969E+02 0.  0.
        -12    1    1    2    0    0 -0.13065079975E+02  0.87065425408E+01  0.37505566440E+02  0.40659165164E+02  0.00000000000E+00 0.  1.
         11    1    3    3    0    0  0.16081740496E+02 -0.21984710200E+01 -0.33698053997E+02  0.37403402194E+02  0.51100000000E-03 0. -1.
        -11    1    3    3    0    0 -0.24993562255E+01 -0.13331422697E+01  0.32804076019E+01  0.43341809086E+01  0.51100000000E-03 0.  1.
         12    1    3    3    0    0 -0.51730429491E+00 -0.51749292511E+01 -0.70879200450E+01  0.87912517341E+01  0.00000000000E+00 0. -1.
</event>
<event>
 7    1  0.4878192E-011  0.5052888E+02  0.7816164E-02  0.1300439E+00
        -11   -1    0    0    0    0  0.00000000000E+00  0.00000000000E+00  0.45593999997E+02  0.45594000000E+02  0.51100000000E-03 0. -1.
         11   -1    0    0    0    0 -0.00000000000E+00 -0.00000000000E+00 -0.45593999997E+02  0.45594000000E+02  0.51100000000E-03 0.  1.
    9900012    2    1    2    0    0 -0.15845371561E+02 -0.29972200995E+02  0.22444488228E+02  0.50528884365E+02  0.30000074515E+02 0.  0.
        -12    1    1    2    0    0  0.15845371561E+02  0.29972200995E+02 -0.22444488228E+02  0.40659115635E+02  0.00000000000E+00 0.  1.
         11    1    3    3    0    0 -0.98861620311E+01 -0.26591069219E+02  0.15810206720E+02  0.32477435224E+02  0.51100000000E-03 0. -1.
        -11    1    3    3    0    0 -0.42301302892E+01  0.23502582151E+01 -0.37114094609E+01  0.60985470720E+01  0.51100000000E-03 0.  1.
        -12    1    3    3    0    0 -0.17290792409E+01 -0.57313899914E+01  0.10345690969E+02  0.11952902069E+02  0.00000000000E+00 0.  1.
</event>
<event>
 7    1  0.4878192E-011  0.5052888E+02  0.7816164E-02  0.1300439E+00
        -11   -1    0    0    0    0  0.00000000000E+00  0.00000000000E+00  0.45593999997E+02  0.45594000000E+02  0.51100000000E-03 0.  1.
         11   -1    0    0    0    0 -0.00000000000E+00 -0.00000000000E+00 -0.45593999997E+02  0.45594000000E+02  0.51100000000E-03 0. -1.
    9900012    2    1    2    0    0 -0.35049666476E+02  0.11820238592E+02 -0.16880970197E+02  0.50528876605E+02  0.30000050929E+02 0.  0.
        -12    1    1    2    0    0  0.35049666476E+02 -0.11820238592E+02  0.16880970197E+02  0.40659123395E+02  0.00000000000E+00 0.  1.
         11    1    3    3    0    0  0.28229429544E+01  0.51179656572E+01  0.10334971144E+01  0.59355451256E+01  0.51100000000E-03 0. -1.
        -11    1    3    3    0    0 -0.32585423760E+02  0.84297962129E+01 -0.10368705948E+02  0.35219048385E+02  0.51100000000E-03 0.  1.
        -12    1    3    3    0    0 -0.52871856703E+01 -0.17275232784E+01 -0.75457613629E+01  0.93742830945E+01  0.00000000000E+00 0.  1.
</event>
<event>
 7    1  0.4878192E-011  0.5052886E+02  0.7816164E-02  0.1300439E+00
        -11   -1    0    0    0    0  0.00000000000E+00  0.00000000000E+00  0.45593999997E+02  0.45594000000E+02  0.51100000000E-03 0. -1.
         11   -1    0    0    0    0 -0.00000000000E+00 -0.00000000000E+00 -0.45593999997E+02  0.45594000000E+02  0.51100000000E-03 0.  1.
    9900012    2    1    2    0    0 -0.11871518354E+02  0.14520961045E+02  0.36074562792E+02  0.50528864024E+02  0.30000012687E+02 0.  0.
        -12    1    1    2    0    0  0.11871518354E+02 -0.14520961045E+02 -0.36074562792E+02  0.40659135976E+02  0.00000000000E+00 0.  1.
         11    1    3    3    0    0  0.57307030758E-01  0.19328064378E+01 -0.45314354010E+01  0.49267567300E+01  0.51100000000E-03 0.  1.
        -11    1    3    3    0    0 -0.82486596391E+01  0.79550496072E+01  0.36857208548E+02  0.38597629750E+02  0.51100000000E-03 0. -1.
         12    1    3    3    0    0 -0.36801657459E+01  0.46331050004E+01  0.37487896443E+01  0.70044775436E+01  0.00000000000E+00 0. -1.
</event>
<event>
 7    1  0.4878192E-011  0.5052886E+02  0.7816164E-02  0.1300439E+00
        -11   -1    0    0    0    0  0.00000000000E+00  0.00000000000E+00  0.45593999997E+02  0.45594000000E+02  0.51100000000E-03 0.  1.
         11   -1    0    0    0    0 -0.00000000000E+00 -0.00000000000E+00 -0.45593999997E+02  0.45594000000E+02  0.51100000000E-03 0. -1.
    9900012    2    1    2    0    0 -0.10746161845E+02  0.38589102064E+02 -0.69690097687E+01  0.50528857244E+02  0.29999992078E+02 0.  0.
        -12    1    1    2    0    0  0.10746161845E+02 -0.38589102064E+02  0.69690097687E+01  0.40659142756E+02  0.00000000000E+00 0.  1.
         11    1    3    3    0    0 -0.12898484880E+02  0.74623412949E+01 -0.66527665329E+01  0.16319214215E+02  0.51100000000E-03 0. -1.
        -11    1    3    3    0    0 -0.45204594166E+01  0.21595284333E+02 -0.30074853333E+01  0.22267371355E+02  0.51100000000E-03 0.  1.
         12    1    3    3    0    0  0.66727824518E+01  0.95314764361E+01  0.26912420974E+01  0.11942271674E+02  0.00000000000E+00 0. -1.
</event>
<event>
 7    1  0.4878192E-011  0.5052886E+02  0.7816164E-02  0.1300439E+00
        -11   -1    0    0    0    0  0.00000000000E+00  0.00000000000E+00  0.45593999997E+02  0.45594000000E+02  0.51100000000E-03 0.  1.
         11   -1    0    0    0    0 -0.00000000000E+00 -0.00000000000E+00 -0.45593999997E+02  0.45594000000E+02  0.51100000000E-03 0. -1.
    9900012    2    1    2    0    0 -0.25278633407E+01 -0.96890831724E+00 -0.40568915932E+02  0.50528858146E+02  0.29999994821E+02 0.  0.
        -12    1    1    2    0    0  0.25278633407E+01  0.96890831724E+00  0.40568915932E+02  0.40659141854E+02  0.00000000000E+00 0.  1.
         11    1    3    3    0    0 -0.32586704667E+01  0.11820681594E+01 -0.34156514541E+02  0.34331963303E+02  0.51100000000E-03 0. -1.
        -11    1    3    3    0    0 -0.19391118807E+01  0.59284762113E+01 -0.16779992188E+01  0.64593085322E+01  0.51100000000E-03 0.  1.
         12    1    3    3    0    0  0.26699190068E+01 -0.80794526880E+01 -0.47344021718E+01  0.97375863110E+01  0.00000000000E+00 0. -1.
</event>
<event>
 7    1  0.4878192E-011  0.5052884E+02  0.7816164E-02  0.1300439E+00
        -11   -1    0    0    0    0  0.00000000000E+00  0.00000000000E+00  0.45593999997E+02  0.45594000000E+02  0.51100000000E-03 0.  1.
         11   -1    0    0    0    0 -0.00000000000E+00 -0.00000000000E+00 -0.45593999997E+02  0.45594000000E+02  0.51100000000E-03 0. -1.
    9900012    2    1    2    0    0  0.36651312736E+02 -0.14018263142E+02 -0.10645988307E+02  0.50528837517E+02  0.29999932116E+02 0.  0.
        -12    1    1    2    0    0 -0.36651312736E+02  0.14018263142E+02  0.10645988307E+02  0.40659162483E+02  0.00000000000E+00 0.  1.
         11    1    3    3    0    0  0.21061966543E+02 -0.50138337681E+00  0.57751161184E+00  0.21075847311E+02  0.51100000000E-03 0. -1.
        -11    1    3    3    0    0  0.16556363979E+02 -0.16745253265E+02 -0.11216080731E+02  0.26082890222E+02  0.51100000000E-03 0.  1.
         12    1    3    3    0    0 -0.96701778574E+00  0.32283735000E+01 -0.74191878858E-02  0.33700999833E+01  0.00000000000E+00 0. -1.
</event>
<event>
 7    1  0.4878192E-011  0.5052887E+02  0.7816164E-02  0.1300439E+00
        -11   -1    0    0    0    0  0.00000000000E+00  0.00000000000E+00  0.45593999997E+02  0.45594000000E+02  0.51100000000E-03 0. -1.
         11   -1    0    0    0    0 -0.00000000000E+00 -0.00000000000E+00 -0.45593999997E+02  0.45594000000E+02  0.51100000000E-03 0.  1.
    9900012    2    1    2    0    0 -0.24026150384E+01 -0.39587220948E+02 -0.89579285983E+01  0.50528866879E+02  0.30000021365E+02 0.  0.
        -12    1    1    2    0    0  0.24026150384E+01  0.39587220948E+02  0.89579285983E+01  0.40659133121E+02  0.00000000000E+00 0.  1.
         11    1    3    3    0    0 -0.24045344453E+01 -0.34028031069E+02  0.59259637791E+01  0.34623774077E+02  0.51100000000E-03 0. -1.
        -11    1    3    3    0    0  0.27964278863E+00 -0.27116538081E+01 -0.65890201595E+01  0.71306699115E+01  0.51100000000E-03 0.  1.
         12    1    3    3    0    0 -0.27772338171E+00 -0.28475360703E+01 -0.82948722180E+01  0.87744228905E+01  0.00000000000E+00 0. -1.
</event>
<event>
 7    1  0.5527855E-011  0.5052886E+02  0.7816164E-02  0.1300439E+00
        -11   -1    0    0    0    0  0.00000000000E+00  0.00000000000E+00  0.45593999997E+02  0.45594000000E+02  0.51100000000E-03 0.  1.
         11   -1    0    0    0    0 -0.00000000000E+00 -0.00000000000E+00 -0.45593999997E+02  0.45594000000E+02  0.51100000000E-03 0. -1.
    9900012    2    1    2    0    0 -0.26029953972E+02  0.83846721378E+01 -0.30088280271E+02  0.50528857851E+02  0.29999993922E+02 0.  0.
        -12    1    1    2    0    0  0.26029953972E+02 -0.83846721378E+01  0.30088280271E+02  0.40659142149E+02  0.00000000000E+00 0.  1.
         11    1    3    3    0    0 -0.60212389457E+01  0.13163582435E+02 -0.14499756430E+02  0.20488488421E+02  0.51100000000E-03 0. -1.
        -11    1    3    3    0    0 -0.34906274650E+00 -0.57655718028E+01 -0.19644053967E+01  0.61010287524E+01  0.51100000000E-03 0.  1.
         12    1    3    3    0    0 -0.19659652280E+02  0.98666150567E+00 -0.13624118444E+02  0.23939340677E+02  0.00000000000E+00 0. -1.
</event>
<event>
 7    1  0.4878192E-011  0.5052886E+02  0.7816164E-02  0.1300439E+00
        -11   -1    0    0    0    0  0.00000000000E+00  0.00000000000E+00  0.45593999997E+02  0.45594000000E+02  0.51100000000E-03 0. -1.
         11   -1    0    0    0    0 -0.00000000000E+00 -0.00000000000E+00 -0.45593999997E+02  0.45594000000E+02  0.51100000000E-03 0.  1.
    9900012    2    1    2    0    0 -0.10549215806E+02 -0.15685114412E+02  0.35998011327E+02  0.50528860957E+02  0.30000003366E+02 0.  0.
        -12    1    1    2    0    0  0.10549215806E+02  0.15685114412E+02 -0.35998011327E+02  0.40659139043E+02  0.00000000000E+00 0.  1.
         11    1    3    3    0    0 -0.25854037476E+01 -0.19810515399E+00  0.52827739260E+01  0.58848329462E+01  0.51100000000E-03 0. -1.
        -11    1    3    3    0    0  0.35262716622E+01  0.45716661995E+01 -0.50672617274E+00  0.57958170564E+01  0.51100000000E-03 0.  1.
        -12    1    3    3    0    0 -0.11490083720E+02 -0.20058675458E+02  0.31221963573E+02  0.38848210955E+02  0.00000000000E+00 0.  1.
</event>
<event>
 7    1  0.4878192E-011  0.5052886E+02  0.7816164E-02  0.1300439E+00
        -11   -1    0    0    0    0  0.00000000000E+00  0.00000000000E+00  0.45593999997E+02  0.45594000000E+02  0.51100000000E-03 0.  1.
         11   -1    0    0    0    0 -0.00000000000E+00 -0.00000000000E+00 -0.45593999997E+02  0.45594000000E+02  0.51100000000E-03 0. -1.
    9900012    2    1    2    0    0  0.15900089308E+02 -0.57011759699E+01 -0.36984446134E+02  0.50528861995E+02  0.30000006521E+02 0.  0.
        -12    1    1    2    0    0 -0.15900089308E+02  0.57011759699E+01  0.36984446134E+02  0.40659138005E+02  0.00000000000E+00 0.  1.
         11    1    3    3    0    0  0.75301201060E+01 -0.12090910528E+01 -0.39199705660E+02  0.39934715901E+02  0.51100000000E-03 0. -1.
        -11    1    3    3    0    0  0.50489930062E+01 -0.29119125333E+01 -0.74114202319E+00  0.58754452374E+01  0.51100000000E-03 0.  1.
         12    1    3    3    0    0  0.33209761961E+01 -0.15801723838E+01  0.29564015493E+01  0.47187008570E+01  0.00000000000E+00 0. -1.
</event>
<event>
 7    1  0.4878192E-011  0.5052886E+02  0.7816164E-02  0.1300439E+00
        -11   -1    0    0    0    0  0.00000000000E+00  0.00000000000E+00  0.45593999997E+02  0.45594000000E+02  0.51100000000E-03 0.  1.
         11   -1    0    0    0    0 -0.00000000000E+00 -0.00000000000E+00 -0.45593999997E+02  0.45594000000E+02  0.51100000000E-03 0. -1.
    9900012    2    1    2    0    0 -0.38991023003E+02 -0.11416386735E+02  0.15911985651E+01  0.50528859899E+02  0.30000000149E+02 0.  0.
        -12    1    1    2    0    0  0.38991023003E+02  0.11416386735E+02 -0.15911985651E+01  0.40659140101E+02  0.00000000000E+00 0.  1.
         11    1    3    3    0    0 -0.73107071876E+01  0.11392755098E+01  0.10098465743E+02  0.12518921635E+02  0.51100000000E-03 0. -1.
        -11    1    3    3    0    0 -0.76840856775E+01  0.99520040415E+00 -0.69489961464E+01  0.10407888559E+02  0.51100000000E-03 0.  1.
         12    1    3    3    0    0 -0.23996230137E+02 -0.13550862649E+02 -0.15582710318E+01  0.27602049706E+02  0.00000000000E+00 0. -1.
</event>
<event>
 7    1  0.4878192E-011  0.5052885E+02  0.7816164E-02  0.1300439E+00
        -11   -1    0    0    0    0  0.00000000000E+00  0.00000000000E+00  0.45593999997E+02  0.45594000000E+02  0.51100000000E-03 0.  1.
         11   -1    0    0    0    0 -0.00000000000E+00 -0.00000000000E+00 -0.45593999997E+02  0.45594000000E+02  0.51100000000E-03 0. -1.
    9900012    2    1    2    0    0 -0.16177482139E+02 -0.68349394900E+01 -0.36670685385E+02  0.50528849827E+02  0.29999969534E+02 0.  0.
        -12    1    1    2    0    0  0.16177482139E+02  0.68349394900E+01  0.36670685385E+02  0.40659150173E+02  0.00000000000E+00 0.  1.
         11    1    3    3    0    0 -0.67602489380E+01 -0.30332705149E+01 -0.36944253625E+02  0.37679962472E+02  0.51100000000E-03 0. -1.
        -11    1    3    3    0    0 -0.10487340587E+02 -0.45578253911E+01 -0.25042601706E+00  0.11437692002E+02  0.51100000000E-03 0.  1.
         12    1    3    3    0    0  0.10701073859E+01  0.75615641592E+00  0.52399425696E+00  0.14111953529E+01  0.00000000000E+00 0. -1.
</event>
<event>
 7    1  0.4878192E-011  0.5052886E+02  0.7816164E-02  0.1300439E+00
        -11   -1    0    0    0    0  0.00000000000E+00  0.00000000000E+00  0.45593999997E+02  0.45594000000E+02  0.51100000000E-03 0.  1.
         11   -1    0    0    0    0 -0.00000000000E+00 -0.00000000000E+00 -0.45593999997E+02  0.45594000000E+02  0.51100000000E-03 0. -1.
    9900012    2    1    2    0    0 -0.80185433336E+01 -0.12144077335E+02 -0.37965643351E+02  0.50528859250E+02  0.29999998175E+02 0.  0.
        -12    1    1    2    0    0  0.80185433336E+01  0.12144077335E+02  0.37965643351E+02  0.40659140750E+02  0.00000000000E+00 0.  1.
         11    1    3    3    0    0 -0.10621461297E+02 -0.16206720437E+02 -0.29447628178E+02  0.35251043006E+02  0.51100000000E-03 0. -1.
        -11    1    3    3    0    0 -0.26735804224E+00  0.76668139686E+01 -0.71110686871E+01  0.10460344874E+02  0.51100000000E-03 0.  1.
         12    1    3    3    0    0  0.28702760059E+01 -0.36041708667E+01 -0.14069464856E+01  0.48174713699E+01  0.00000000000E+00 0. -1.
</event>
<event>
 7    1  0.4878192E-011  0.5052886E+02  0.7816164E-02  0.1300439E+00
        -11   -1    0    0    0    0  0.00000000000E+00  0.00000000000E+00  0.45593999997E+02  0.45594000000E+02  0.51100000000E-03 0.  1.
         11   -1    0    0    0    0 -0.00000000000E+00 -0.00000000000E+00 -0.45593999997E+02  0.45594000000E+02  0.51100000000E-03 0. -1.
    9900012    2    1    2    0    0  0.31914715190E+02 -0.20447738853E+02 -0.14714167847E+02  0.50528858282E+02  0.29999995233E+02 0.  0.
        -12    1    1    2    0    0 -0.31914715190E+02  0.20447738853E+02  0.14714167847E+02  0.40659141718E+02  0.00000000000E+00 0.  1.
         11    1    3    3    0    0  0.54880891549E+01 -0.12438524357E+02 -0.15653102822E+02  0.20732960208E+02  0.51100000000E-03 0. -1.
        -11    1    3    3    0    0 -0.82344530253E+00 -0.10131353182E+01 -0.92556697622E+00  0.16003686537E+01  0.51100000000E-03 0.  1.
         12    1    3    3    0    0  0.27250071338E+02 -0.69960791775E+01  0.18645019509E+01  0.28195529420E+02  0.00000000000E+00 0. -1.
</event>
<event>
 7    1  0.4878192E-011  0.5052886E+02  0.7816164E-02  0.1300439E+00
        -11   -1    0    0    0    0  0.00000000000E+00  0.00000000000E+00  0.45593999997E+02  0.45594000000E+02  0.51100000000E-03 0.  1.
         11   -1    0    0    0    0 -0.00000000000E+00 -0.00000000000E+00 -0.45593999997E+02  0.45594000000E+02  0.51100000000E-03 0. -1.
    9900012    2    1    2    0    0  0.26992921313E+02 -0.27815719950E+01 -0.30278885861E+02  0.50528857452E+02  0.29999992710E+02 0.  0.
        -12    1    1    2    0    0 -0.26992921313E+02  0.27815719950E+01  0.30278885861E+02  0.40659142548E+02  0.00000000000E+00 0.  1.
         11    1    3    3    0    0  0.12853246513E+01  0.66135446583E+01 -0.17798179269E+02  0.19030665200E+02  0.51100000000E-03 0. -1.
        -11    1    3    3    0    0  0.80215391935E+01  0.76514455896E+00 -0.10758663727E+01  0.81294542216E+01  0.51100000000E-03 0.  1.
         12    1    3    3    0    0  0.17686057468E+02 -0.10160261212E+02 -0.11404840220E+02  0.23368738030E+02  0.00000000000E+00 0. -1.
</event>
<event>
 7    1  0.4878192E-011  0.5052880E+02  0.7816164E-02  0.1300439E+00
        -11   -1    0    0    0    0  0.00000000000E+00  0.00000000000E+00  0.45593999997E+02  0.45594000000E+02  0.51100000000E-03 0.  1.
         11   -1    0    0    0    0 -0.00000000000E+00 -0.00000000000E+00 -0.45593999997E+02  0.45594000000E+02  0.51100000000E-03 0. -1.
    9900012    2    1    2    0    0 -0.20069146042E+02  0.25860807657E+02 -0.24116768719E+02  0.50528800193E+02  0.29999818667E+02 0.  0.
        -12    1    1    2    0    0  0.20069146042E+02 -0.25860807657E+02  0.24116768719E+02  0.40659199807E+02  0.00000000000E+00 0.  1.
         11    1    3    3    0    0 -0.87899709015E+01  0.13333245910E+02 -0.49989831220E+00  0.15977763721E+02  0.51100000000E-03 0. -1.
        -11    1    3    3    0    0 -0.12895400944E+02  0.38038659806E+01 -0.21615967008E+02  0.25456056094E+02  0.51100000000E-03 0.  1.
        -12    1    3    3    0    0  0.16162258038E+01  0.87236957658E+01 -0.20009033985E+01  0.90949803778E+01  0.00000000000E+00 0.  1.
</event>
<event>
 7    1  0.4878192E-011  0.5052886E+02  0.7816164E-02  0.1300439E+00
        -11   -1    0    0    0    0  0.00000000000E+00  0.00000000000E+00  0.45593999997E+02  0.45594000000E+02  0.51100000000E-03 0.  1.
         11   -1    0    0    0    0 -0.00000000000E+00 -0.00000000000E+00 -0.45593999997E+02  0.45594000000E+02  0.51100000000E-03 0. -1.
    9900012    2    1    2    0    0 -0.39821459931E+02  0.30589896372E+01 -0.76197001400E+01  0.50528856885E+02  0.29999990988E+02 0.  0.
        -12    1    1    2    0    0  0.39821459931E+02 -0.30589896372E+01  0.76197001400E+01  0.40659143115E+02  0.00000000000E+00 0.  1.
         11    1    3    3    0    0 -0.15050340253E+01 -0.23850222955E+01  0.28499878871E+00  0.28345516996E+01  0.51100000000E-03 0.  1.
        -11    1    3    3    0    0 -0.37123092018E+02 -0.12254116068E+01  0.18286629491E+00  0.37143761723E+02  0.51100000000E-03 0. -1.
        -12    1    3    3    0    0 -0.11933338877E+01  0.66694235396E+01 -0.80875652236E+01  0.10550543463E+02  0.00000000000E+00 0.  1.
</event>
<event>
 7    1  0.4878192E-011  0.5052886E+02  0.7816164E-02  0.1300439E+00
        -11   -1    0    0    0    0  0.00000000000E+00  0.00000000000E+00  0.45593999997E+02  0.45594000000E+02  0.51100000000E-03 0.  1.
         11   -1    0    0    0    0 -0.00000000000E+00 -0.00000000000E+00 -0.45593999997E+02  0.45594000000E+02  0.51100000000E-03 0. -1.
    9900012    2    1    2    0    0 -0.31407765102E+02 -0.13512386204E+02 -0.22003030138E+02  0.50528860500E+02  0.30000001975E+02 0.  0.
        -12    1    1    2    0    0  0.31407765102E+02  0.13512386204E+02  0.22003030138E+02  0.40659139500E+02  0.00000000000E+00 0.  1.
         11    1    3    3    0    0 -0.26122436660E+02 -0.83561458930E+01 -0.27045571137E+01  0.27559417641E+02  0.51100000000E-03 0. -1.
        -11    1    3    3    0    0  0.16538806915E+01  0.78970920270E+00 -0.90705486457E+01  0.92538540599E+01  0.51100000000E-03 0.  1.
        -12    1    3    3    0    0 -0.69392091336E+01 -0.59459495137E+01 -0.10227924378E+02  0.13715588799E+02  0.00000000000E+00 0.  1.
</event>
<event>
 7    1  0.4878192E-011  0.5052886E+02  0.7816164E-02  0.1300439E+00
        -11   -1    0    0    0    0  0.00000000000E+00  0.00000000000E+00  0.45593999997E+02  0.45594000000E+02  0.51100000000E-03 0. -1.
         11   -1    0    0    0    0 -0.00000000000E+00 -0.00000000000E+00 -0.45593999997E+02  0.45594000000E+02  0.51100000000E-03 0.  1.
    9900012    2    1    2    0    0 -0.20595240369E+01  0.15808129585E+02  0.37403566291E+02  0.50528863616E+02  0.30000011447E+02 0.  0.
        -12    1    1    2    0    0  0.20595240369E+01 -0.15808129585E+02 -0.37403566291E+02  0.40659136384E+02  0.00000000000E+00 0.  1.
         11    1    3    3    0    0 -0.45101046988E+01 -0.22971811601E+00  0.13041433478E+02  0.13801188436E+02  0.51100000000E-03 0. -1.
        -11    1    3    3    0    0 -0.40257594076E+01  0.19655665466E+02  0.17557473637E+02  0.26661147846E+02  0.51100000000E-03 0.  1.
        -12    1    3    3    0    0  0.64763400695E+01 -0.36178177648E+01  0.68046591754E+01  0.10066527334E+02  0.00000000000E+00 0.  1.
</event>
<event>
 7    1  0.4878192E-011  0.5052884E+02  0.7816164E-02  0.1300439E+00
        -11   -1    0    0    0    0  0.00000000000E+00  0.00000000000E+00  0.45593999997E+02  0.45594000000E+02  0.51100000000E-03 0.  1.
         11   -1    0    0    0    0 -0.00000000000E+00 -0.00000000000E+00 -0.45593999997E+02  0.45594000000E+02  0.51100000000E-03 0. -1.
    9900012    2    1    2    0    0 -0.29266992263E+02 -0.23413806795E+02 -0.15760849428E+02  0.50528836709E+02  0.29999929662E+02 0.  0.
        -12    1    1    2    0    0  0.29266992263E+02  0.23413806795E+02  0.15760849428E+02  0.40659163291E+02  0.00000000000E+00 0.  1.
         11    1    3    3    0    0 -0.22203262563E+02 -0.27331932817E+02 -0.57682133520E+01  0.35683213217E+02  0.51100000000E-03 0. -1.
        -11    1    3    3    0    0 -0.52148049781E+01  0.12076634080E+01 -0.10240647982E+02  0.11555237480E+02  0.51100000000E-03 0.  1.
         12    1    3    3    0    0 -0.18489247224E+01  0.27104626135E+01  0.24801190592E+00  0.32903860129E+01  0.00000000000E+00 0. -1.
</event>
<event>
 7    1  0.4878192E-011  0.5052884E+02  0.7816164E-02  0.1300439E+00
        -11   -1    0    0    0    0  0.00000000000E+00  0.00000000000E+00  0.45593999997E+02  0.45594000000E+02  0.51100000000E-03 0. -1.
         11   -1    0    0    0    0 -0.00000000000E+00 -0.00000000000E+00 -0.45593999997E+02  0.45594000000E+02  0.51100000000E-03 0.  1.
    9900012    2    1    2    0    0 -0.41692010194E+01 -0.39579825352E+02  0.83200089845E+01  0.50528839144E+02  0.29999937061E+02 0.  0.
        -12    1    1    2    0    0  0.41692010194E+01  0.39579825352E+02 -0.83200089845E+01  0.40659160856E+02  0.00000000000E+00 0.  1.
         11    1    3    3    0    0 -0.11016069905E+00 -0.32757757058E+02  0.16128257112E+02  0.36513058768E+02  0.51100000000E-03 0. -1.
        -11    1    3    3    0    0 -0.47700925864E+01 -0.30560710312E+01 -0.40527976181E+00  0.56795779225E+01  0.51100000000E-03 0.  1.
         12    1    3    3    0    0  0.71105226612E+00 -0.37659972630E+01 -0.74029683661E+01  0.83362024532E+01  0.00000000000E+00 0. -1.
</event>
<event>
 7    1  0.4878192E-011  0.5052887E+02  0.7816164E-02  0.1300439E+00
        -11   -1    0    0    0    0  0.00000000000E+00  0.00000000000E+00  0.45593999997E+02  0.45594000000E+02  0.51100000000E-03 0.  1.
         11   -1    0    0    0    0 -0.00000000000E+00 -0.00000000000E+00 -0.45593999997E+02  0.45594000000E+02  0.51100000000E-03 0. -1.
    9900012    2    1    2    0    0  0.95139991760E+01  0.36706280208E+02  0.14673032510E+02  0.50528867323E+02  0.30000022715E+02 0.  0.
        -12    1    1    2    0    0 -0.95139991760E+01 -0.36706280208E+02 -0.14673032510E+02  0.40659132677E+02  0.00000000000E+00 0.  1.
         11    1    3    3    0    0  0.10326542720E+02  0.16293923548E+02 -0.37782223258E+01  0.19657171550E+02  0.51100000000E-03 0. -1.
        -11    1    3    3    0    0  0.27649892142E+00  0.15893637861E+01  0.10138492251E+02  0.10266038880E+02  0.51100000000E-03 0.  1.
        -12    1    3    3    0    0 -0.10890424657E+01  0.18822992874E+02  0.83127625849E+01  0.20605656894E+02  0.00000000000E+00 0.  1.
</event>
<event>
 7    1  0.4878192E-011  0.5052884E+02  0.7816164E-02  0.1300439E+00
        -11   -1    0    0    0    0  0.00000000000E+00  0.00000000000E+00  0.45593999997E+02  0.45594000000E+02  0.51100000000E-03 0.  1.
         11   -1    0    0    0    0 -0.00000000000E+00 -0.00000000000E+00 -0.45593999997E+02  0.45594000000E+02  0.51100000000E-03 0. -1.
    9900012    2    1    2    0    0  0.96517470483E+01 -0.16482575309E+01 -0.39462563688E+02  0.50528844736E+02  0.29999954059E+02 0.  0.
        -12    1    1    2    0    0 -0.96517470483E+01  0.16482575309E+01  0.39462563688E+02  0.40659155264E+02  0.00000000000E+00 0.  1.
         11    1    3    3    0    0  0.11305017814E+01 -0.15358697293E+01 -0.25550028608E+02  0.25621102479E+02  0.51100000000E-03 0. -1.
        -11    1    3    3    0    0  0.14568109804E+00 -0.47398484229E+01  0.29030981534E+01  0.55601587391E+01  0.51100000000E-03 0.  1.
        -12    1    3    3    0    0  0.83755641689E+01  0.46274606212E+01 -0.16815633233E+02  0.19347583518E+02  0.00000000000E+00 0.  1.
</event>
<event>
 7    1  0.4878192E-011  0.5052886E+02  0.7816164E-02  0.1300439E+00
        -11   -1    0    0    0    0  0.00000000000E+00  0.00000000000E+00  0.45593999997E+02  0.45594000000E+02  0.51100000000E-03 0.  1.
         11   -1    0    0    0    0 -0.00000000000E+00 -0.00000000000E+00 -0.45593999997E+02  0.45594000000E+02  0.51100000000E-03 0. -1.
    9900012    2    1    2    0    0  0.23834999501E+02 -0.21348650584E+02 -0.25085725446E+02  0.50528859525E+02  0.29999999013E+02 0.  0.
        -12    1    1    2    0    0 -0.23834999501E+02  0.21348650584E+02  0.25085725446E+02  0.40659140475E+02  0.00000000000E+00 0.  1.
         11    1    3    3    0    0  0.87093593896E+01 -0.12358951131E+01  0.31341979244E+00  0.88021934730E+01  0.51100000000E-03 0.  1.
        -11    1    3    3    0    0  0.13175942369E+02 -0.22916357617E+02 -0.27146574324E+02  0.37890650582E+02  0.51100000000E-03 0. -1.
        -12    1    3    3    0    0  0.19496977426E+01  0.28036021461E+01  0.17474290849E+01  0.38360154702E+01  0.00000000000E+00 0.  1.
</event>
<event>
 7    1  0.4878192E-011  0.5052886E+02  0.7816164E-02  0.1300439E+00
        -11   -1    0    0    0    0  0.00000000000E+00  0.00000000000E+00  0.45593999997E+02  0.45594000000E+02  0.51100000000E-03 0. -1.
         11   -1    0    0    0    0 -0.00000000000E+00 -0.00000000000E+00 -0.45593999997E+02  0.45594000000E+02  0.51100000000E-03 0.  1.
    9900012    2    1    2    0    0  0.66015961339E+01  0.27644035014E+02  0.29075622050E+02  0.50528861532E+02  0.30000005113E+02 0.  0.
        -12    1    1    2    0    0 -0.66015961339E+01 -0.27644035014E+02 -0.29075622050E+02  0.40659138468E+02  0.00000000000E+00 0.  1.
         11    1    3    3    0    0 -0.27584805980E+01  0.27864047893E+02  0.21416707422E+02  0.35251804737E+02  0.51100000000E-03 0. -1.
        -11    1    3    3    0    0 -0.15423744387E+01 -0.16069074319E+01  0.13566496131E+01  0.26079817556E+01  0.51100000000E-03 0.  1.
         12    1    3    3    0    0  0.10902451171E+02  0.13868945524E+01  0.63022650153E+01  0.12669075039E+02  0.00000000000E+00 0. -1.
</event>
<event>
 7    1  0.4878192E-011  0.5052885E+02  0.7816164E-02  0.1300439E+00
        -11   -1    0    0    0    0  0.00000000000E+00  0.00000000000E+00  0.45593999997E+02  0.45594000000E+02  0.51100000000E-03 0.  1.
         11   -1    0    0    0    0 -0.00000000000E+00 -0.00000000000E+00 -0.45593999997E+02  0.45594000000E+02  0.51100000000E-03 0. -1.
    9900012    2    1    2    0    0  0.26892158315E+02 -0.30089398710E+02 -0.49604489847E+01  0.50528854071E+02  0.29999982433E+02 0.  0.
        -12    1    1    2    0    0 -0.26892158315E+02  0.30089398710E+02  0.49604489847E+01  0.40659145929E+02  0.00000000000E+00 0.  1.
         11    1    3    3    0    0  0.19300751186E+02 -0.22247304470E+02  0.23324820639E+01  0.29544915390E+02  0.51100000000E-03 0. -1.
        -11    1    3    3    0    0 -0.45521222259E+01  0.82098018825E+00 -0.71269381267E+00  0.46801450791E+01  0.51100000000E-03 0.  1.
         12    1    3    3    0    0  0.12143529355E+02 -0.86630744285E+01 -0.65802372359E+01  0.16303793602E+02  0.00000000000E+00 0. -1.
</event>
<event>
 7    1  0.4878192E-011  0.5052880E+02  0.7816164E-02  0.1300439E+00
        -11   -1    0    0    0    0  0.00000000000E+00  0.00000000000E+00  0.45593999997E+02  0.45594000000E+02  0.51100000000E-03 0.  1.
         11   -1    0    0    0    0 -0.00000000000E+00 -0.00000000000E+00 -0.45593999997E+02  0.45594000000E+02  0.51100000000E-03 0. -1.
    9900012    2    1    2    0    0  0.76018740036E+01  0.19169477127E+02 -0.35041596626E+02  0.50528796420E+02  0.29999807197E+02 0.  0.
        -12    1    1    2    0    0 -0.76018740036E+01 -0.19169477127E+02  0.35041596626E+02  0.40659203580E+02  0.00000000000E+00 0.  1.
         11    1    3    3    0    0  0.15249634351E+01  0.65178683732E+01 -0.44678360001E+01  0.80479612570E+01  0.51100000000E-03 0. -1.
        -11    1    3    3    0    0 -0.62996276143E+01 -0.20212535689E+01 -0.28553205834E+00  0.66221071334E+01  0.51100000000E-03 0.  1.
        -12    1    3    3    0    0  0.12376538183E+02  0.14672862323E+02 -0.30288228567E+02  0.35858728029E+02  0.00000000000E+00 0.  1.
</event>
<event>
 7    1  0.4878192E-011  0.5052887E+02  0.7816164E-02  0.1300439E+00
        -11   -1    0    0    0    0  0.00000000000E+00  0.00000000000E+00  0.45593999997E+02  0.45594000000E+02  0.51100000000E-03 0. -1.
         11   -1    0    0    0    0 -0.00000000000E+00 -0.00000000000E+00 -0.45593999997E+02  0.45594000000E+02  0.51100000000E-03 0.  1.
    9900012    2    1    2    0    0  0.58112795454E+01 -0.10797411333E+02  0.38766094078E+02  0.50528866813E+02  0.30000021165E+02 0.  0.
        -12    1    1    2    0    0 -0.58112795454E+01  0.10797411333E+02 -0.38766094078E+02  0.40659133187E+02  0.00000000000E+00 0.  1.
         11    1    3    3    0    0 -0.52778940604E+01  0.19159356495E+01 -0.43081595229E+00  0.56313921700E+01  0.51100000000E-03 0.  1.
        -11    1    3    3    0    0  0.50015079814E+01 -0.29252729185E+01  0.28791814936E+02  0.29369046823E+02  0.51100000000E-03 0. -1.
        -12    1    3    3    0    0  0.60876656244E+01 -0.97880740640E+01  0.10405095094E+02  0.15528427820E+02  0.00000000000E+00 0.  1.
</event>
<event>
 7    1  0.4878192E-011  0.5052886E+02  0.7816164E-02  0.1300439E+00
        -11   -1    0    0    0    0  0.00000000000E+00  0.00000000000E+00  0.45593999997E+02  0.45594000000E+02  0.51100000000E-03 0. -1.
         11   -1    0    0    0    0 -0.00000000000E+00 -0.00000000000E+00 -0.45593999997E+02  0.45594000000E+02  0.51100000000E-03 0.  1.
    9900012    2    1    2    0    0 -0.19346776829E+02  0.31562626151E+02  0.16812756021E+02  0.50528857015E+02  0.29999991384E+02 0.  0.
        -12    1    1    2    0    0  0.19346776829E+02 -0.31562626151E+02 -0.16812756021E+02  0.40659142985E+02  0.00000000000E+00 0.  1.
         11    1    3    3    0    0 -0.21899701241E+02  0.24715121675E+02  0.16199280081E+02  0.36781120555E+02  0.51100000000E-03 0. -1.
        -11    1    3    3    0    0 -0.28319498174E+01  0.46758808619E+01 -0.36247630915E+01  0.65591698661E+01  0.51100000000E-03 0.  1.
         12    1    3    3    0    0  0.53848742297E+01  0.21716236141E+01  0.42382390318E+01  0.71885665944E+01  0.00000000000E+00 0. -1.
</event>
<event>
 7    1  0.4878192E-011  0.5052887E+02  0.7816164E-02  0.1300439E+00
        -11   -1    0    0    0    0  0.00000000000E+00  0.00000000000E+00  0.45593999997E+02  0.45594000000E+02  0.51100000000E-03 0. -1.
         11   -1    0    0    0    0 -0.00000000000E+00 -0.00000000000E+00 -0.45593999997E+02  0.45594000000E+02  0.51100000000E-03 0.  1.
    9900012    2    1    2    0    0  0.11129451603E+02 -0.36474227023E+02  0.14104285754E+02  0.50528870564E+02  0.30000032565E+02 0.  0.
        -12    1    1    2    0    0 -0.11129451603E+02  0.36474227023E+02 -0.14104285754E+02  0.40659129436E+02  0.00000000000E+00 0.  1.
         11    1    3    3    0    0  0.18809128529E+01 -0.17389591311E+02  0.12026370219E+02  0.21226617724E+02  0.51100000000E-03 0. -1.
        -11    1    3    3    0    0  0.87495428713E+01 -0.22350104858E+02 -0.19642779467E+01  0.24081945015E+02  0.51100000000E-03 0.  1.
        -12    1    3    3    0    0  0.49899587866E+00  0.32654691458E+01  0.40421934819E+01  0.52203078237E+01  0.00000000000E+00 0.  1.
</event>
<event>
 7    1  0.4878192E-011  0.5052886E+02  0.7816164E-02  0.1300439E+00
        -11   -1    0    0    0    0  0.00000000000E+00  0.00000000000E+00  0.45593999997E+02  0.45594000000E+02  0.51100000000E-03 0.  1.
         11   -1    0    0    0    0 -0.00000000000E+00 -0.00000000000E+00 -0.45593999997E+02  0.45594000000E+02  0.51100000000E-03 0. -1.
    9900012    2    1    2    0    0 -0.23674752367E+02 -0.32991170189E+02  0.20626591239E+01  0.50528858682E+02  0.29999996450E+02 0.  0.
        -12    1    1    2    0    0  0.23674752367E+02  0.32991170189E+02 -0.20626591239E+01  0.40659141318E+02  0.00000000000E+00 0.  1.
         11    1    3    3    0    0 -0.91972803327E+01 -0.14460546014E+02 -0.11693510934E+02  0.20746940853E+02  0.51100000000E-03 0. -1.
        -11    1    3    3    0    0 -0.70189555712E+01 -0.17431520575E+02  0.10871978227E+02  0.21709987510E+02  0.51100000000E-03 0.  1.
         12    1    3    3    0    0 -0.74585164629E+01 -0.10991035997E+01  0.28841918307E+01  0.80719303185E+01  0.00000000000E+00 0. -1.
</event>
<event>
 7    1  0.4878192E-011  0.5052882E+02  0.7816164E-02  0.1300439E+00
        -11   -1    0    0    0    0  0.00000000000E+00  0.00000000000E+00  0.45593999997E+02  0.45594000000E+02  0.51100000000E-03 0.  1.
         11   -1    0    0    0    0 -0.00000000000E+00 -0.00000000000E+00 -0.45593999997E+02  0.45594000000E+02  0.51100000000E-03 0. -1.
    9900012    2    1    2    0    0 -0.41016904253E+01  0.77777817817E-01 -0.40451688010E+02  0.50528819283E+02  0.29999876693E+02 0.  0.
        -12    1    1    2    0    0  0.41016904253E+01 -0.77777817817E-01  0.40451688010E+02  0.40659180717E+02  0.00000000000E+00 0.  1.
         11    1    3    3    0    0 -0.42508469712E+01 -0.12320804890E+02 -0.33580285319E+02  0.36020931352E+02  0.51100000000E-03 0. -1.
        -11    1    3    3    0    0 -0.12065726160E+01  0.83850154652E+01 -0.52820516566E+01  0.99832044852E+01  0.51100000000E-03 0.  1.
         12    1    3    3    0    0  0.13557291619E+01  0.40135672429E+01 -0.15893510338E+01  0.45246834456E+01  0.00000000000E+00 0. -1.
</event>
<event>
 7    1  0.4878192E-011  0.5052886E+02  0.7816164E-02  0.1300439E+00
        -11   -1    0    0    0    0  0.00000000000E+00  0.00000000000E+00  0.45593999997E+02  0.45594000000E+02  0.51100000000E-03 0. -1.
         11   -1    0    0    0    0 -0.00000000000E+00 -0.00000000000E+00 -0.45593999997E+02  0.45594000000E+02  0.51100000000E-03 0.  1.
    9900012    2    1    2    0    0  0.26133943186E+02  0.25817390851E+02  0.17425424277E+02  0.50528855050E+02  0.29999985410E+02 0.  0.
        -12    1    1    2    0    0 -0.26133943186E+02 -0.25817390851E+02 -0.17425424277E+02  0.40659144950E+02  0.00000000000E+00 0.  1.
         11    1    3    3    0    0 -0.37175699885E+01  0.55045908512E+01 -0.33806996070E+01  0.74531857050E+01  0.51100000000E-03 0.  1.
        -11    1    3    3    0    0  0.24314102382E+02  0.20735200284E+02  0.16027280310E+02  0.35749095371E+02  0.51100000000E-03 0. -1.
         12    1    3    3    0    0  0.55374107924E+01 -0.42240028413E+00  0.47788435743E+01  0.73265739737E+01  0.00000000000E+00 0. -1.
</event>
<event>
 7    1  0.4878192E-011  0.5052885E+02  0.7816164E-02  0.1300439E+00
        -11   -1    0    0    0    0  0.00000000000E+00  0.00000000000E+00  0.45593999997E+02  0.45594000000E+02  0.51100000000E-03 0. -1.
         11   -1    0    0    0    0 -0.00000000000E+00 -0.00000000000E+00 -0.45593999997E+02  0.45594000000E+02  0.51100000000E-03 0.  1.
    9900012    2    1    2    0    0 -0.22245923384E+02  0.34032511435E+02  0.27156254341E+00  0.50528847427E+02  0.29999962238E+02 0.  0.
        -12    1    1    2    0    0  0.22245923384E+02 -0.34032511435E+02 -0.27156254341E+00  0.40659152573E+02  0.00000000000E+00 0.  1.
         11    1    3    3    0    0 -0.39198706241E+01 -0.27951425719E+01 -0.32347148048E+01  0.58001368808E+01  0.51100000000E-03 0. -1.
        -11    1    3    3    0    0 -0.47683304802E+01  0.11914341113E+02  0.92119082068E+01  0.15797080515E+02  0.51100000000E-03 0.  1.
         12    1    3    3    0    0 -0.13557722280E+02  0.24913312894E+02 -0.57056308585E+01  0.28931630031E+02  0.00000000000E+00 0. -1.
</event>
<event>
 7    1  0.4878192E-011  0.5052881E+02  0.7816164E-02  0.1300439E+00
        -11   -1    0    0    0    0  0.00000000000E+00  0.00000000000E+00  0.45593999997E+02  0.45594000000E+02  0.51100000000E-03 0.  1.
         11   -1    0    0    0    0 -0.00000000000E+00 -0.00000000000E+00 -0.45593999997E+02  0.45594000000E+02  0.51100000000E-03 0. -1.
    9900012    2    1    2    0    0 -0.19885199208E+01 -0.35165634230E+02 -0.20312405533E+02  0.50528808409E+02  0.29999843640E+02 0.  0.
        -12    1    1    2    0    0  0.19885199208E+01  0.35165634230E+02  0.20312405533E+02  0.40659191591E+02  0.00000000000E+00 0.  1.
         11    1    3    3    0    0 -0.48547998112E+01 -0.21963735353E+02 -0.26223188002E+02  0.34548955717E+02  0.51100000000E-03 0. -1.
        -11    1    3    3    0    0  0.18937963339E+01 -0.13384449508E+02  0.44810640239E+01  0.14241133671E+02  0.51100000000E-03 0.  1.
         12    1    3    3    0    0  0.97248355649E+00  0.18255063128E+00  0.14297184454E+01  0.17387190209E+01  0.00000000000E+00 0. -1.
</event>
<event>
 7    1  0.4878192E-011  0.5052885E+02  0.7816164E-02  0.1300439E+00
        -11   -1    0    0    0    0  0.00000000000E+00  0.00000000000E+00  0.45593999997E+02  0.45594000000E+02  0.51100000000E-03 0.  1.
         11   -1    0    0    0    0 -0.00000000000E+00 -0.00000000000E+00 -0.45593999997E+02  0.45594000000E+02  0.51100000000E-03 0. -1.
    9900012    2    1    2    0    0 -0.95372735412E+01  0.32677771684E+02  0.22234437914E+02  0.50528848777E+02  0.29999966341E+02 0.  0.
        -12    1    1    2    0    0  0.95372735412E+01 -0.32677771684E+02 -0.22234437914E+02  0.40659151223E+02  0.00000000000E+00 0.  1.
         11    1    3    3    0    0 -0.48295542566E+01  0.15292835059E+02 -0.39198447657E+01  0.16509408885E+02  0.51100000000E-03 0. -1.
        -11    1    3    3    0    0 -0.83963703677E+01  0.13791211075E+02  0.16548873505E+02  0.23120591533E+02  0.51100000000E-03 0.  1.
        -12    1    3    3    0    0  0.36886510832E+01  0.35937255497E+01  0.96054091750E+01  0.10898848359E+02  0.00000000000E+00 0.  1.
</event>
<event>
 7    1  0.4878192E-011  0.5052886E+02  0.7816164E-02  0.1300439E+00
        -11   -1    0    0    0    0  0.00000000000E+00  0.00000000000E+00  0.45593999997E+02  0.45594000000E+02  0.51100000000E-03 0.  1.
         11   -1    0    0    0    0 -0.00000000000E+00 -0.00000000000E+00 -0.45593999997E+02  0.45594000000E+02  0.51100000000E-03 0. -1.
    9900012    2    1    2    0    0  0.21716579270E+01 -0.11103816844E+02 -0.39053235782E+02  0.50528855005E+02  0.29999985274E+02 0.  0.
        -12    1    1    2    0    0 -0.21716579270E+01  0.11103816844E+02  0.39053235782E+02  0.40659144995E+02  0.00000000000E+00 0.  1.
         11    1    3    3    0    0 -0.40526396576E+01 -0.39207992091E+01 -0.10042844842E+02  0.11517607712E+02  0.51100000000E-03 0. -1.
        -11    1    3    3    0    0  0.10886828406E+02 -0.13150646459E+02 -0.13551080124E+02  0.21796658180E+02  0.51100000000E-03 0.  1.
        -12    1    3    3    0    0 -0.46625308212E+01  0.59676288235E+01 -0.15459310816E+02  0.17214589113E+02  0.00000000000E+00 0.  1.
</event>
<event>
 7    1  0.4878192E-011  0.5052887E+02  0.7816164E-02  0.1300439E+00
        -11   -1    0    0    0    0  0.00000000000E+00  0.00000000000E+00  0.45593999997E+02  0.45594000000E+02  0.51100000000E-03 0.  1.
         11   -1    0    0    0    0 -0.00000000000E+00 -0.00000000000E+00 -0.45593999997E+02  0.45594000000E+02  0.51100000000E-03 0. -1.
    9900012    2    1    2    0    0 -0.15761483516E+02  0.32228182808E+02 -0.19133345388E+02  0.50528867748E+02  0.30000024006E+02 0.  0.
        -12    1    1    2    0    0  0.15761483516E+02 -0.32228182808E+02  0.19133345388E+02  0.40659132252E+02  0.00000000000E+00 0.  1.
         11    1    3    3    0    0  0.31878908131E+01  0.17504288622E+02 -0.14055890824E+02  0.22674453359E+02  0.51100000000E-03 0. -1.
        -11    1    3    3    0    0 -0.95631829794E+01  0.57494679040E+01  0.41699623667E+01  0.11912154980E+02  0.51100000000E-03 0.  1.
         12    1    3    3    0    0 -0.93861913502E+01  0.89744262818E+01 -0.92474169306E+01  0.15942259408E+02  0.00000000000E+00 0. -1.
</event>
<event>
 7    1  0.4878192E-011  0.5052886E+02  0.7816164E-02  0.1300439E+00
        -11   -1    0    0    0    0  0.00000000000E+00  0.00000000000E+00  0.45593999997E+02  0.45594000000E+02  0.51100000000E-03 0. -1.
         11   -1    0    0    0    0 -0.00000000000E+00 -0.00000000000E+00 -0.45593999997E+02  0.45594000000E+02  0.51100000000E-03 0.  1.
    9900012    2    1    2    0    0  0.27650122568E+02  0.80153414567E+01  0.28712203226E+02  0.50528860919E+02  0.30000003250E+02 0.  0.
        -12    1    1    2    0    0 -0.27650122568E+02 -0.80153414567E+01 -0.28712203226E+02  0.40659139081E+02  0.00000000000E+00 0.  1.
         11    1    3    3    0    0  0.22174208185E+02  0.19030258694E+01  0.33833357419E+02  0.40497075087E+02  0.51100000000E-03 0. -1.
        -11    1    3    3    0    0  0.52193145418E+00  0.22609439412E+01 -0.10145617974E+01  0.25325117670E+01  0.51100000000E-03 0.  1.
         12    1    3    3    0    0  0.49539829280E+01  0.38513716461E+01 -0.41065923950E+01  0.74992740652E+01  0.00000000000E+00 0. -1.
</event>
<event>
 7    1  0.4878192E-011  0.5052886E+02  0.7816164E-02  0.1300439E+00
        -11   -1    0    0    0    0  0.00000000000E+00  0.00000000000E+00  0.45593999997E+02  0.45594000000E+02  0.51100000000E-03 0. -1.
         11   -1    0    0    0    0 -0.00000000000E+00 -0.00000000000E+00 -0.45593999997E+02  0.45594000000E+02  0.51100000000E-03 0.  1.
    9900012    2    1    2    0    0  0.16539446661E+01  0.18930189288E+02  0.35945486117E+02  0.50528861154E+02  0.30000003965E+02 0.  0.
        -12    1    1    2    0    0 -0.16539446661E+01 -0.18930189288E+02 -0.35945486117E+02  0.40659138846E+02  0.00000000000E+00 0.  1.
         11    1    3    3    0    0 -0.60572958201E+01  0.31819364332E+01  0.12743094013E+02  0.14463816834E+02  0.51100000000E-03 0. -1.
        -11    1    3    3    0    0  0.95132362400E+01  0.20393398326E+02  0.17605802617E+02  0.28571955570E+02  0.51100000000E-03 0.  1.
        -12    1    3    3    0    0 -0.18019957538E+01 -0.46451454706E+01  0.55965894872E+01  0.74930887508E+01  0.00000000000E+00 0.  1.
</event>
<event>
 7    1  0.4878192E-011  0.5052886E+02  0.7816164E-02  0.1300439E+00
        -11   -1    0    0    0    0  0.00000000000E+00  0.00000000000E+00  0.45593999997E+02  0.45594000000E+02  0.51100000000E-03 0.  1.
         11   -1    0    0    0    0 -0.00000000000E+00 -0.00000000000E+00 -0.45593999997E+02  0.45594000000E+02  0.51100000000E-03 0. -1.
    9900012    2    1    2    0    0  0.25852301569E+02 -0.27859675243E+02 -0.14445160408E+02  0.50528860065E+02  0.30000000654E+02 0.  0.
        -12    1    1    2    0    0 -0.25852301569E+02  0.27859675243E+02  0.14445160408E+02  0.40659139935E+02  0.00000000000E+00 0.  1.
         11    1    3    3    0    0  0.18044816191E+02 -0.19350390569E+02 -0.55127408756E+01  0.27026714909E+02  0.51100000000E-03 0. -1.
        -11    1    3    3    0    0 -0.52303064886E+01  0.76008796131E+00 -0.43955426123E+01  0.68742006656E+01  0.51100000000E-03 0.  1.
         12    1    3    3    0    0  0.13037791866E+02 -0.92693726350E+01 -0.45368769206E+01  0.16627944491E+02  0.00000000000E+00 0. -1.
</event>
<event>
 7    1  0.4878192E-011  0.5052885E+02  0.7816164E-02  0.1300439E+00
        -11   -1    0    0    0    0  0.00000000000E+00  0.00000000000E+00  0.45593999997E+02  0.45594000000E+02  0.51100000000E-03 0.  1.
         11   -1    0    0    0    0 -0.00000000000E+00 -0.00000000000E+00 -0.45593999997E+02  0.45594000000E+02  0.51100000000E-03 0. -1.
    9900012    2    1    2    0    0  0.11571516836E+02 -0.43263590908E+00 -0.38975363980E+02  0.50528853759E+02  0.29999981485E+02 0.  0.
        -12    1    1    2    0    0 -0.11571516836E+02  0.43263590908E+00  0.38975363980E+02  0.40659146241E+02  0.00000000000E+00 0.  1.
         11    1    3    3    0    0  0.10284240685E+02  0.17698767360E+01 -0.19012997385E+02  0.21688525537E+02  0.51100000000E-03 0. -1.
        -11    1    3    3    0    0 -0.86309483415E+01  0.22315150062E+01 -0.13566026686E+02  0.16232991370E+02  0.51100000000E-03 0.  1.
        -12    1    3    3    0    0  0.99182244916E+01 -0.44340276513E+01 -0.63963399086E+01  0.12607336852E+02  0.00000000000E+00 0.  1.
</event>
<event>
 7    1  0.4878192E-011  0.5052886E+02  0.7816164E-02  0.1300439E+00
        -11   -1    0    0    0    0  0.00000000000E+00  0.00000000000E+00  0.45593999997E+02  0.45594000000E+02  0.51100000000E-03 0.  1.
         11   -1    0    0    0    0 -0.00000000000E+00 -0.00000000000E+00 -0.45593999997E+02  0.45594000000E+02  0.51100000000E-03 0. -1.
    9900012    2    1    2    0    0  0.21948774751E+02  0.28559248019E+02 -0.18862295543E+02  0.50528861376E+02  0.30000004638E+02 0.  0.
        -12    1    1    2    0    0 -0.21948774751E+02 -0.28559248019E+02  0.18862295543E+02  0.40659138624E+02  0.00000000000E+00 0.  1.
         11    1    3    3    0    0  0.11139889907E+02  0.22488008694E+02 -0.12702893263E+02  0.28127765280E+02  0.51100000000E-03 0. -1.
        -11    1    3    3    0    0  0.10802932718E+02 -0.18350966218E+01 -0.88122844532E+01  0.14061553700E+02  0.51100000000E-03 0.  1.
        -12    1    3    3    0    0  0.59521260933E-02  0.79063359475E+01  0.26528821730E+01  0.83395423955E+01  0.00000000000E+00 0.  1.
</event>
<event>
 7    1  0.4878192E-011  0.5052886E+02  0.7816164E-02  0.1300439E+00
        -11   -1    0    0    0    0  0.00000000000E+00  0.00000000000E+00  0.45593999997E+02  0.45594000000E+02  0.51100000000E-03 0.  1.
         11   -1    0    0    0    0 -0.00000000000E+00 -0.00000000000E+00 -0.45593999997E+02  0.45594000000E+02  0.51100000000E-03 0. -1.
    9900012    2    1    2    0    0  0.16001934815E+02  0.76044000247E+01 -0.36596128850E+02  0.50528862474E+02  0.30000007977E+02 0.  0.
        -12    1    1    2    0    0 -0.16001934815E+02 -0.76044000247E+01  0.36596128850E+02  0.40659137526E+02  0.00000000000E+00 0.  1.
         11    1    3    3    0    0  0.14319848682E+01  0.24667710674E+01 -0.31868903356E+02  0.31996289497E+02  0.51100000000E-03 0. -1.
        -11    1    3    3    0    0  0.75765173135E+00  0.26256357512E+00  0.21913283182E+01  0.23334300581E+01  0.51100000000E-03 0.  1.
         12    1    3    3    0    0  0.13812298216E+02  0.48750653823E+01 -0.69185538114E+01  0.16199142919E+02  0.00000000000E+00 0. -1.
</event>
<event>
 7    1  0.4878192E-011  0.5052886E+02  0.7816164E-02  0.1300439E+00
        -11   -1    0    0    0    0  0.00000000000E+00  0.00000000000E+00  0.45593999997E+02  0.45594000000E+02  0.51100000000E-03 0.  1.
         11   -1    0    0    0    0 -0.00000000000E+00 -0.00000000000E+00 -0.45593999997E+02  0.45594000000E+02  0.51100000000E-03 0. -1.
    9900012    2    1    2    0    0  0.19987121909E+02  0.20658921486E+02 -0.28755690035E+02  0.50528858487E+02  0.29999995857E+02 0.  0.
        -12    1    1    2    0    0 -0.19987121909E+02 -0.20658921486E+02  0.28755690035E+02  0.40659141513E+02  0.00000000000E+00 0.  1.
         11    1    3    3    0    0  0.66155242873E+01  0.14937673822E+02 -0.28260126326E+02  0.32642518301E+02  0.51100000000E-03 0. -1.
        -11    1    3    3    0    0  0.54205597143E+01 -0.15235850089E+01  0.32438699275E+01  0.64981898451E+01  0.51100000000E-03 0.  1.
         12    1    3    3    0    0  0.79510379074E+01  0.72448326729E+01 -0.37394336365E+01  0.11388150341E+02  0.00000000000E+00 0. -1.
</event>
<event>
 7    1  0.4878192E-011  0.5052887E+02  0.7816164E-02  0.1300439E+00
        -11   -1    0    0    0    0  0.00000000000E+00  0.00000000000E+00  0.45593999997E+02  0.45594000000E+02  0.51100000000E-03 0.  1.
         11   -1    0    0    0    0 -0.00000000000E+00 -0.00000000000E+00 -0.45593999997E+02  0.45594000000E+02  0.51100000000E-03 0. -1.
    9900012    2    1    2    0    0  0.36750387092E+02 -0.15477760351E+02  0.79380879372E+01  0.50528865024E+02  0.30000015728E+02 0.  0.
        -12    1    1    2    0    0 -0.36750387092E+02  0.15477760351E+02 -0.79380879372E+01  0.40659134976E+02  0.00000000000E+00 0.  1.
         11    1    3    3    0    0  0.32477731543E+02 -0.10852369035E+02  0.16618948707E+02  0.38062664335E+02  0.51100000000E-03 0. -1.
        -11    1    3    3    0    0 -0.13503790549E+01  0.29786992841E+00 -0.76801719312E+00  0.15818030080E+01  0.51100000000E-03 0.  1.
         12    1    3    3    0    0  0.56230346035E+01 -0.49232612441E+01 -0.79128435763E+01  0.10884397682E+02  0.00000000000E+00 0. -1.
</event>
<event>
 7    1  0.4878192E-011  0.5052885E+02  0.7816164E-02  0.1300439E+00
        -11   -1    0    0    0    0  0.00000000000E+00  0.00000000000E+00  0.45593999997E+02  0.45594000000E+02  0.51100000000E-03 0. -1.
         11   -1    0    0    0    0 -0.00000000000E+00 -0.00000000000E+00 -0.45593999997E+02  0.45594000000E+02  0.51100000000E-03 0.  1.
    9900012    2    1    2    0    0 -0.79240155933E+01 -0.39857510109E+02 -0.13250177450E+01  0.50528845960E+02  0.29999957781E+02 0.  0.
        -12    1    1    2    0    0  0.79240155933E+01  0.39857510109E+02  0.13250177450E+01  0.40659154040E+02  0.00000000000E+00 0.  1.
         11    1    3    3    0    0 -0.50632618088E+01  0.34568803146E+00  0.72851809521E+01  0.88786250132E+01  0.51100000000E-03 0. -1.
        -11    1    3    3    0    0  0.67916318148E+00 -0.27555770972E+02 -0.48355978398E+01  0.27985081440E+02  0.51100000000E-03 0.  1.
         12    1    3    3    0    0 -0.35399169660E+01 -0.12647427168E+02 -0.37746008572E+01  0.13665139507E+02  0.00000000000E+00 0. -1.
</event>
<event>
 7    1  0.4878192E-011  0.5052886E+02  0.7816164E-02  0.1300439E+00
        -11   -1    0    0    0    0  0.00000000000E+00  0.00000000000E+00  0.45593999997E+02  0.45594000000E+02  0.51100000000E-03 0. -1.
         11   -1    0    0    0    0 -0.00000000000E+00 -0.00000000000E+00 -0.45593999997E+02  0.45594000000E+02  0.51100000000E-03 0.  1.
    9900012    2    1    2    0    0  0.25398785353E+02  0.28217004397E+02  0.14555680622E+02  0.50528862369E+02  0.30000007656E+02 0.  0.
        -12    1    1    2    0    0 -0.25398785353E+02 -0.28217004397E+02 -0.14555680622E+02  0.40659137631E+02  0.00000000000E+00 0.  1.
         11    1    3    3    0    0  0.19777753341E+01  0.21307629927E+02 -0.10922638374E+01  0.21427079338E+02  0.51100000000E-03 0. -1.
        -11    1    3    3    0    0  0.65280560235E+01  0.29684440398E+01  0.40610116685E+01  0.82412979255E+01  0.51100000000E-03 0.  1.
         12    1    3    3    0    0  0.16892953996E+02  0.39409304299E+01  0.11586932791E+02  0.20860485106E+02  0.00000000000E+00 0. -1.
</event>
<event>
 7    1  0.4878192E-011  0.5052883E+02  0.7816164E-02  0.1300439E+00
        -11   -1    0    0    0    0  0.00000000000E+00  0.00000000000E+00  0.45593999997E+02  0.45594000000E+02  0.51100000000E-03 0. -1.
         11   -1    0    0    0    0 -0.00000000000E+00 -0.00000000000E+00 -0.45593999997E+02  0.45594000000E+02  0.51100000000E-03 0.  1.
    9900012    2    1    2    0    0  0.14993469672E+02  0.35505280740E+02  0.12951402190E+02  0.50528832375E+02  0.29999916488E+02 0.  0.
        -12    1    1    2    0    0 -0.14993469672E+02 -0.35505280740E+02 -0.12951402190E+02  0.40659167625E+02  0.00000000000E+00 0.  1.
         11    1    3    3    0    0  0.45618948653E+01  0.24207814406E+02  0.39291366509E+01  0.24945285690E+02  0.51100000000E-03 0. -1.
        -11    1    3    3    0    0  0.20228053197E+01 -0.42897322604E+01 -0.15105983242E+01  0.49774945290E+01  0.51100000000E-03 0.  1.
        -12    1    3    3    0    0  0.84087694874E+01  0.15587198595E+02  0.10532863863E+02  0.20606052157E+02  0.00000000000E+00 0.  1.
</event>
<event>
 7    1  0.4878192E-011  0.5052889E+02  0.7816164E-02  0.1300439E+00
        -11   -1    0    0    0    0  0.00000000000E+00  0.00000000000E+00  0.45593999997E+02  0.45594000000E+02  0.51100000000E-03 0.  1.
         11   -1    0    0    0    0 -0.00000000000E+00 -0.00000000000E+00 -0.45593999997E+02  0.45594000000E+02  0.51100000000E-03 0. -1.
    9900012    2    1    2    0    0 -0.16912244668E+02  0.25906037926E+02 -0.26382117494E+02  0.50528893466E+02  0.30000102178E+02 0.  0.
        -12    1    1    2    0    0  0.16912244668E+02 -0.25906037926E+02  0.26382117494E+02  0.40659106534E+02  0.00000000000E+00 0.  1.
         11    1    3    3    0    0 -0.16294902205E+02  0.13415632077E+02 -0.57895469464E+01  0.21886568392E+02  0.51100000000E-03 0. -1.
        -11    1    3    3    0    0 -0.48857336304E+00  0.44142878662E+01 -0.20062066855E+02  0.20547777691E+02  0.51100000000E-03 0.  1.
        -12    1    3    3    0    0 -0.12876909964E+00  0.80761179827E+01 -0.53050369279E+00  0.80945473820E+01  0.00000000000E+00 0.  1.
</event>
<event>
 7    1  0.4878192E-011  0.5052886E+02  0.7816164E-02  0.1300439E+00
        -11   -1    0    0    0    0  0.00000000000E+00  0.00000000000E+00  0.45593999997E+02  0.45594000000E+02  0.51100000000E-03 0. -1.
         11   -1    0    0    0    0 -0.00000000000E+00 -0.00000000000E+00 -0.45593999997E+02  0.45594000000E+02  0.51100000000E-03 0.  1.
    9900012    2    1    2    0    0  0.17203377602E+02  0.29885690156E+02  0.21541932091E+02  0.50528861849E+02  0.30000006075E+02 0.  0.
        -12    1    1    2    0    0 -0.17203377602E+02 -0.29885690156E+02 -0.21541932091E+02  0.40659138151E+02  0.00000000000E+00 0.  1.
         11    1    3    3    0    0  0.13054995558E+02  0.54048356360E+01  0.20530117056E+02  0.24922497144E+02  0.51100000000E-03 0. -1.
        -11    1    3    3    0    0  0.23882688025E+01  0.21995086196E+02  0.24094511398E+01  0.22255181412E+02  0.51100000000E-03 0.  1.
        -12    1    3    3    0    0  0.17601132413E+01  0.24857683236E+01 -0.13976361046E+01  0.33511832928E+01  0.00000000000E+00 0.  1.
</event>
<event>
 7    1  0.4878192E-011  0.5052886E+02  0.7816164E-02  0.1300439E+00
        -11   -1    0    0    0    0  0.00000000000E+00  0.00000000000E+00  0.45593999997E+02  0.45594000000E+02  0.51100000000E-03 0.  1.
         11   -1    0    0    0    0 -0.00000000000E+00 -0.00000000000E+00 -0.45593999997E+02  0.45594000000E+02  0.51100000000E-03 0. -1.
    9900012    2    1    2    0    0  0.11468451736E+02 -0.57543246851E+01 -0.38581450239E+02  0.50528856621E+02  0.29999990184E+02 0.  0.
        -12    1    1    2    0    0 -0.11468451736E+02  0.57543246851E+01  0.38581450239E+02  0.40659143379E+02  0.00000000000E+00 0.  1.
         11    1    3    3    0    0  0.63842598527E+01 -0.68298927778E+01 -0.16979765293E+02  0.19383463026E+02  0.51100000000E-03 0. -1.
        -11    1    3    3    0    0 -0.39763858026E+01  0.80374139517E+01 -0.32713483398E+01  0.95453332736E+01  0.51100000000E-03 0.  1.
        -12    1    3    3    0    0  0.90605776856E+01 -0.69618458590E+01 -0.18330336606E+02  0.21600060321E+02  0.00000000000E+00 0.  1.
</event>
<event>
 7    1  0.4878192E-011  0.5052886E+02  0.7816164E-02  0.1300439E+00
        -11   -1    0    0    0    0  0.00000000000E+00  0.00000000000E+00  0.45593999997E+02  0.45594000000E+02  0.51100000000E-03 0. -1.
         11   -1    0    0    0    0 -0.00000000000E+00 -0.00000000000E+00 -0.45593999997E+02  0.45594000000E+02  0.51100000000E-03 0.  1.
    9900012    2    1    2    0    0  0.21229300176E+02 -0.14765352982E+02  0.31376210529E+02  0.50528862998E+02  0.30000009568E+02 0.  0.
        -12    1    1    2    0    0 -0.21229300176E+02  0.14765352982E+02 -0.31376210529E+02  0.40659137002E+02  0.00000000000E+00 0.  1.
         11    1    3    3    0    0  0.52889483931E+01 -0.22234173160E+01  0.13402884420E+02  0.14579227369E+02  0.51100000000E-03 0. -1.
        -11    1    3    3    0    0  0.66825589460E+01 -0.18686781211E+02  0.96567006466E+01  0.22070438459E+02  0.51100000000E-03 0.  1.
        -12    1    3    3    0    0  0.92577928367E+01  0.61448455458E+01  0.83166254627E+01  0.13879197170E+02  0.00000000000E+00 0.  1.
</event>
<event>
 7    1  0.4878192E-011  0.5052882E+02  0.7816164E-02  0.1300439E+00
        -11   -1    0    0    0    0  0.00000000000E+00  0.00000000000E+00  0.45593999997E+02  0.45594000000E+02  0.51100000000E-03 0.  1.
         11   -1    0    0    0    0 -0.00000000000E+00 -0.00000000000E+00 -0.45593999997E+02  0.45594000000E+02  0.51100000000E-03 0. -1.
    9900012    2    1    2    0    0  0.99186663460E+01 -0.12186552021E+02 -0.37500361001E+02  0.50528818166E+02  0.29999873296E+02 0.  0.
        -12    1    1    2    0    0 -0.99186663460E+01  0.12186552021E+02  0.37500361001E+02  0.40659181834E+02  0.00000000000E+00 0.  1.
         11    1    3    3    0    0  0.26809997252E+01 -0.43594345510E-01 -0.14589204234E+02  0.14833561286E+02  0.51100000000E-03 0. -1.
        -11    1    3    3    0    0 -0.67656861684E+01 -0.84930400677E+01 -0.33507833844E+01  0.11363713674E+02  0.51100000000E-03 0.  1.
        -12    1    3    3    0    0  0.14003352789E+02 -0.36499176073E+01 -0.19560373383E+02  0.24331543205E+02  0.00000000000E+00 0.  1.
</event>
<event>
 7    1  0.4878192E-011  0.5052886E+02  0.7816164E-02  0.1300439E+00
        -11   -1    0    0    0    0  0.00000000000E+00  0.00000000000E+00  0.45593999997E+02  0.45594000000E+02  0.51100000000E-03 0.  1.
         11   -1    0    0    0    0 -0.00000000000E+00 -0.00000000000E+00 -0.45593999997E+02  0.45594000000E+02  0.51100000000E-03 0. -1.
    9900012    2    1    2    0    0 -0.75044464495E+01  0.34432442535E+02 -0.20279453061E+02  0.50528855495E+02  0.29999986761E+02 0.  0.
        -12    1    1    2    0    0  0.75044464495E+01 -0.34432442535E+02  0.20279453061E+02  0.40659144505E+02  0.00000000000E+00 0.  1.
         11    1    3    3    0    0 -0.43040279318E+01 -0.10601830529E+01 -0.70917740591E+01  0.83631276512E+01  0.51100000000E-03 0.  1.
        -11    1    3    3    0    0 -0.13303871480E+01  0.28900995118E+02 -0.19414550059E+01  0.28996666991E+02  0.51100000000E-03 0. -1.
         12    1    3    3    0    0 -0.18700313697E+01  0.65916304705E+01 -0.11246223996E+02  0.13169060853E+02  0.00000000000E+00 0. -1.
</event>
<event>
 7    1  0.4878192E-011  0.5052886E+02  0.7816164E-02  0.1300439E+00
        -11   -1    0    0    0    0  0.00000000000E+00  0.00000000000E+00  0.45593999997E+02  0.45594000000E+02  0.51100000000E-03 0. -1.
         11   -1    0    0    0    0 -0.00000000000E+00 -0.00000000000E+00 -0.45593999997E+02  0.45594000000E+02  0.51100000000E-03 0.  1.
    9900012    2    1    2    0    0 -0.13899951201E+01 -0.32815229740E+02  0.23966527476E+02  0.50528857995E+02  0.29999994360E+02 0.  0.
        -12    1    1    2    0    0  0.13899951201E+01  0.32815229740E+02 -0.23966527476E+02  0.40659142005E+02  0.00000000000E+00 0.  1.
         11    1    3    3    0    0 -0.41324502380E+01  0.21149870887E+01  0.63864324130E+01  0.78953679193E+01  0.51100000000E-03 0. -1.
        -11    1    3    3    0    0  0.89951218853E+01 -0.11566486647E+02  0.64407220734E+01  0.16005584406E+02  0.51100000000E-03 0.  1.
         12    1    3    3    0    0 -0.62526667675E+01 -0.23363730182E+02  0.11139372990E+02  0.26627905669E+02  0.00000000000E+00 0. -1.
</event>
<event>
 7    1  0.5553251E-011  0.5052886E+02  0.7816164E-02  0.1300439E+00
        -11   -1    0    0    0    0  0.00000000000E+00  0.00000000000E+00  0.45593999997E+02  0.45594000000E+02  0.51100000000E-03 0. -1.
         11   -1    0    0    0    0 -0.00000000000E+00 -0.00000000000E+00 -0.45593999997E+02  0.45594000000E+02  0.51100000000E-03 0.  1.
    9900012    2    1    2    0    0  0.13383701995E+02 -0.28296956323E+02  0.25948502177E+02  0.50528856115E+02  0.29999988648E+02 0.  0.
        -12    1    1    2    0    0 -0.13383701995E+02  0.28296956323E+02 -0.25948502177E+02  0.40659143885E+02  0.00000000000E+00 0.  1.
         11    1    3    3    0    0  0.14345036553E+02 -0.26905690599E+02  0.17646106927E+02  0.35228984519E+02  0.51100000000E-03 0. -1.
        -11    1    3    3    0    0 -0.59083799972E+01 -0.26193415641E+01  0.12250457690E+01  0.65780424002E+01  0.51100000000E-03 0.  1.
         12    1    3    3    0    0  0.49470454392E+01  0.12280758407E+01  0.70773494811E+01  0.87218291961E+01  0.00000000000E+00 0. -1.
</event>
<event>
 7    1  0.4878192E-011  0.5052886E+02  0.7816164E-02  0.1300439E+00
        -11   -1    0    0    0    0  0.00000000000E+00  0.00000000000E+00  0.45593999997E+02  0.45594000000E+02  0.51100000000E-03 0.  1.
         11   -1    0    0    0    0 -0.00000000000E+00 -0.00000000000E+00 -0.45593999997E+02  0.45594000000E+02  0.51100000000E-03 0. -1.
    9900012    2    1    2    0    0  0.30024743574E+02 -0.21068393955E+02 -0.17544329395E+02  0.50528856570E+02  0.29999990030E+02 0.  0.
        -12    1    1    2    0    0 -0.30024743574E+02  0.21068393955E+02  0.17544329395E+02  0.40659143430E+02  0.00000000000E+00 0.  1.
         11    1    3    3    0    0  0.18557842891E+02 -0.28295439926E+01 -0.18019704960E+02  0.26021330079E+02  0.51100000000E-03 0. -1.
        -11    1    3    3    0    0  0.10370559681E+02 -0.15717983236E+02  0.47541679081E+01  0.19421782046E+02  0.51100000000E-03 0.  1.
         12    1    3    3    0    0  0.10963410030E+01 -0.25208667268E+01 -0.42787923430E+01  0.50857444453E+01  0.00000000000E+00 0. -1.
</event>
<event>
 7    1  0.4878192E-011  0.5052886E+02  0.7816164E-02  0.1300439E+00
        -11   -1    0    0    0    0  0.00000000000E+00  0.00000000000E+00  0.45593999997E+02  0.45594000000E+02  0.51100000000E-03 0.  1.
         11   -1    0    0    0    0 -0.00000000000E+00 -0.00000000000E+00 -0.45593999997E+02  0.45594000000E+02  0.51100000000E-03 0. -1.
    9900012    2    1    2    0    0 -0.35572376605E+02 -0.12587215964E+02  0.15143765560E+02  0.50528860580E+02  0.30000002218E+02 0.  0.
        -12    1    1    2    0    0  0.35572376605E+02  0.12587215964E+02 -0.15143765560E+02  0.40659139420E+02  0.00000000000E+00 0.  1.
         11    1    3    3    0    0 -0.34661236067E+02 -0.12172635262E+02  0.11214097454E+02  0.38410028858E+02  0.51100000000E-03 0. -1.
        -11    1    3    3    0    0  0.18283308044E+01  0.36016568039E+01 -0.19536195810E+01  0.44867978550E+01  0.51100000000E-03 0.  1.
         12    1    3    3    0    0 -0.27394713433E+01 -0.40162375060E+01  0.58832876863E+01  0.76320338669E+01  0.00000000000E+00 0. -1.
</event>
<event>
 7    1  0.4878192E-011  0.5052880E+02  0.7816164E-02  0.1300439E+00
        -11   -1    0    0    0    0  0.00000000000E+00  0.00000000000E+00  0.45593999997E+02  0.45594000000E+02  0.51100000000E-03 0. -1.
         11   -1    0    0    0    0 -0.00000000000E+00 -0.00000000000E+00 -0.45593999997E+02  0.45594000000E+02  0.51100000000E-03 0.  1.
    9900012    2    1    2    0    0 -0.35946030720E+02  0.18979179542E+02  0.91892970583E+00  0.50528796707E+02  0.29999808070E+02 0.  0.
        -12    1    1    2    0    0  0.35946030720E+02 -0.18979179542E+02 -0.91892970583E+00  0.40659203293E+02  0.00000000000E+00 0.  1.
         11    1    3    3    0    0 -0.27881528502E+02  0.66645747169E+01  0.11864683826E+02  0.31025262454E+02  0.51100000000E-03 0. -1.
        -11    1    3    3    0    0 -0.24745512212E+01  0.66275464226E+00 -0.42150736381E+01  0.49324936389E+01  0.51100000000E-03 0.  1.
         12    1    3    3    0    0 -0.55899509965E+01  0.11651850183E+02 -0.67306804817E+01  0.14571040614E+02  0.00000000000E+00 0. -1.
</event>
<event>
 7    1  0.4878192E-011  0.5052886E+02  0.7816164E-02  0.1300439E+00
        -11   -1    0    0    0    0  0.00000000000E+00  0.00000000000E+00  0.45593999997E+02  0.45594000000E+02  0.51100000000E-03 0. -1.
         11   -1    0    0    0    0 -0.00000000000E+00 -0.00000000000E+00 -0.45593999997E+02  0.45594000000E+02  0.51100000000E-03 0.  1.
    9900012    2    1    2    0    0 -0.39922453682E+02 -0.55763511197E+01 -0.53167507250E+01  0.50528857878E+02  0.29999994007E+02 0.  0.
        -12    1    1    2    0    0  0.39922453682E+02  0.55763511197E+01  0.53167507250E+01  0.40659142122E+02  0.00000000000E+00 0.  1.
         11    1    3    3    0    0 -0.13196351324E+02  0.25307752003E+01 -0.15053305737E+02  0.20177971287E+02  0.51100000000E-03 0. -1.
        -11    1    3    3    0    0 -0.12392452698E+02 -0.39182472539E+01  0.81325564464E+01  0.15331797678E+02  0.51100000000E-03 0.  1.
         12    1    3    3    0    0 -0.14333649660E+02 -0.41888790661E+01  0.16039985655E+01  0.15019088914E+02  0.00000000000E+00 0. -1.
</event>
<event>
 7    1  0.4878192E-011  0.5052886E+02  0.7816164E-02  0.1300439E+00
        -11   -1    0    0    0    0  0.00000000000E+00  0.00000000000E+00  0.45593999997E+02  0.45594000000E+02  0.51100000000E-03 0. -1.
         11   -1    0    0    0    0 -0.00000000000E+00 -0.00000000000E+00 -0.45593999997E+02  0.45594000000E+02  0.51100000000E-03 0.  1.
    9900012    2    1    2    0    0 -0.27757842097E+02 -0.28519276412E+02 -0.83257766672E+01  0.50528862256E+02  0.30000007314E+02 0.  0.
        -12    1    1    2    0    0  0.27757842097E+02  0.28519276412E+02  0.83257766672E+01  0.40659137744E+02  0.00000000000E+00 0.  1.
         11    1    3    3    0    0 -0.16749332695E+02 -0.59612815994E+01  0.76219430070E+01  0.19343501221E+02  0.51100000000E-03 0. -1.
        -11    1    3    3    0    0  0.24153846820E+00 -0.97431425057E+01 -0.56938419797E+01  0.11287471084E+02  0.51100000000E-03 0.  1.
         12    1    3    3    0    0 -0.11250047870E+02 -0.12814852307E+02 -0.10253877695E+02  0.19897889951E+02  0.00000000000E+00 0. -1.
</event>
<event>
 7    1  0.4878192E-011  0.5052885E+02  0.7816164E-02  0.1300439E+00
        -11   -1    0    0    0    0  0.00000000000E+00  0.00000000000E+00  0.45593999997E+02  0.45594000000E+02  0.51100000000E-03 0.  1.
         11   -1    0    0    0    0 -0.00000000000E+00 -0.00000000000E+00 -0.45593999997E+02  0.45594000000E+02  0.51100000000E-03 0. -1.
    9900012    2    1    2    0    0  0.21256754449E+02  0.27301766212E+02 -0.21352529696E+02  0.50528848848E+02  0.29999966558E+02 0.  0.
        -12    1    1    2    0    0 -0.21256754449E+02 -0.27301766212E+02  0.21352529696E+02  0.40659151152E+02  0.00000000000E+00 0.  1.
         11    1    3    3    0    0  0.55008097568E+01  0.15068588864E+02  0.28864865007E+01  0.16298867535E+02  0.51100000000E-03 0. -1.
        -11    1    3    3    0    0 -0.12610045451E+01  0.84798782400E+00 -0.78733181307E+01  0.80186254720E+01  0.51100000000E-03 0.  1.
         12    1    3    3    0    0  0.17016949237E+02  0.11385189524E+02 -0.16365698066E+02  0.26211355841E+02  0.00000000000E+00 0. -1.
</event>
<event>
 7    1  0.4878192E-011  0.5052885E+02  0.7816164E-02  0.1300439E+00
        -11   -1    0    0    0    0  0.00000000000E+00  0.00000000000E+00  0.45593999997E+02  0.45594000000E+02  0.51100000000E-03 0. -1.
         11   -1    0    0    0    0 -0.00000000000E+00 -0.00000000000E+00 -0.45593999997E+02  0.45594000000E+02  0.51100000000E-03 0.  1.
    9900012    2    1    2    0    0 -0.22938435529E+02 -0.48253629375E+01  0.33222133688E+02  0.50528854426E+02  0.29999983513E+02 0.  0.
        -12    1    1    2    0    0  0.22938435529E+02  0.48253629375E+01 -0.33222133688E+02  0.40659145574E+02  0.00000000000E+00 0.  1.
         11    1    3    3    0    0 -0.63074070263E+01  0.27705956715E+01 -0.38331904816E+01  0.78837131670E+01  0.51100000000E-03 0. -1.
        -11    1    3    3    0    0 -0.41501074098E+01 -0.57256760915E+01  0.65771719519E+01  0.96574297494E+01  0.51100000000E-03 0.  1.
         12    1    3    3    0    0 -0.12480921093E+02 -0.18702825175E+01  0.30478152218E+02  0.32987711510E+02  0.00000000000E+00 0. -1.
</event>
<event>
 7    1  0.4878192E-011  0.5052884E+02  0.7816164E-02  0.1300439E+00
        -11   -1    0    0    0    0  0.00000000000E+00  0.00000000000E+00  0.45593999997E+02  0.45594000000E+02  0.51100000000E-03 0.  1.
         11   -1    0    0    0    0 -0.00000000000E+00 -0.00000000000E+00 -0.45593999997E+02  0.45594000000E+02  0.51100000000E-03 0. -1.
    9900012    2    1    2    0    0 -0.20776287636E+02 -0.61493855533E+01 -0.34404919984E+02  0.50528836338E+02  0.29999928533E+02 0.  0.
        -12    1    1    2    0    0  0.20776287636E+02  0.61493855533E+01  0.34404919984E+02  0.40659163662E+02  0.00000000000E+00 0.  1.
         11    1    3    3    0    0 -0.10994282256E+02 -0.14993137219E+01 -0.22180101008E+02  0.24800787588E+02  0.51100000000E-03 0. -1.
        -11    1    3    3    0    0 -0.11083503916E+02 -0.11130703643E+02 -0.65596741063E+01  0.17022512954E+02  0.51100000000E-03 0.  1.
        -12    1    3    3    0    0  0.13014985363E+01  0.64806318113E+01 -0.56651448689E+01  0.87055357963E+01  0.00000000000E+00 0.  1.
</event>
<event>
 7    1  0.4878192E-011  0.5052886E+02  0.7816164E-02  0.1300439E+00
        -11   -1    0    0    0    0  0.00000000000E+00  0.00000000000E+00  0.45593999997E+02  0.45594000000E+02  0.51100000000E-03 0.  1.
         11   -1    0    0    0    0 -0.00000000000E+00 -0.00000000000E+00 -0.45593999997E+02  0.45594000000E+02  0.51100000000E-03 0. -1.
    9900012    2    1    2    0    0 -0.36571284054E+01  0.18924854437E+02 -0.35800012276E+02  0.50528861020E+02  0.30000003556E+02 0.  0.
        -12    1    1    2    0    0  0.36571284054E+01 -0.18924854437E+02  0.35800012276E+02  0.40659138980E+02  0.00000000000E+00 0.  1.
         11    1    3    3    0    0 -0.74964462269E+01  0.48166003683E+01 -0.10386859766E+02  0.13685145275E+02  0.51100000000E-03 0. -1.
        -11    1    3    3    0    0  0.82140523824E+01  0.37758316681E+01 -0.23861380601E+02  0.25516524954E+02  0.51100000000E-03 0.  1.
        -12    1    3    3    0    0 -0.43747345608E+01  0.10332422400E+02 -0.15517719096E+01  0.11327190790E+02  0.00000000000E+00 0.  1.
</event>
<event>
 7    1  0.4878192E-011  0.5052885E+02  0.7816164E-02  0.1300439E+00
        -11   -1    0    0    0    0  0.00000000000E+00  0.00000000000E+00  0.45593999997E+02  0.45594000000E+02  0.51100000000E-03 0.  1.
         11   -1    0    0    0    0 -0.00000000000E+00 -0.00000000000E+00 -0.45593999997E+02  0.45594000000E+02  0.51100000000E-03 0. -1.
    9900012    2    1    2    0    0  0.78317326326E+01  0.13478984360E+02 -0.37551927839E+02  0.50528851708E+02  0.29999975252E+02 0.  0.
        -12    1    1    2    0    0 -0.78317326326E+01 -0.13478984360E+02  0.37551927839E+02  0.40659148292E+02  0.00000000000E+00 0.  1.
         11    1    3    3    0    0 -0.38181834383E+01  0.14471372573E+01 -0.31014767938E+02  0.31282400188E+02  0.51100000000E-03 0. -1.
        -11    1    3    3    0    0  0.11567474635E+02  0.10351258553E+02 -0.37155178616E+01  0.15961205979E+02  0.51100000000E-03 0.  1.
         12    1    3    3    0    0  0.82441435551E-01  0.16805885499E+01 -0.28216420389E+01  0.32852455403E+01  0.00000000000E+00 0. -1.
</event>
<event>
 7    1  0.4878192E-011  0.5052886E+02  0.7816164E-02  0.1300439E+00
        -11   -1    0    0    0    0  0.00000000000E+00  0.00000000000E+00  0.45593999997E+02  0.45594000000E+02  0.51100000000E-03 0.  1.
         11   -1    0    0    0    0 -0.00000000000E+00 -0.00000000000E+00 -0.45593999997E+02  0.45594000000E+02  0.51100000000E-03 0. -1.
    9900012    2    1    2    0    0 -0.30113095399E+02 -0.12502983302E+02 -0.24290786456E+02  0.50528863110E+02  0.30000009910E+02 0.  0.
        -12    1    1    2    0    0  0.30113095399E+02  0.12502983302E+02  0.24290786456E+02  0.40659136890E+02  0.00000000000E+00 0.  1.
         11    1    3    3    0    0 -0.20186568796E+02 -0.10050640634E+01 -0.20353679396E+02  0.28684141589E+02  0.51100000000E-03 0. -1.
        -11    1    3    3    0    0 -0.64844836292E+01 -0.22558877664E+01  0.50333893291E+01  0.85130820478E+01  0.51100000000E-03 0.  1.
         12    1    3    3    0    0 -0.34420429741E+01 -0.92420314722E+01 -0.89704963898E+01  0.13331639473E+02  0.00000000000E+00 0. -1.
</event>
<event>
 7    1  0.4878192E-011  0.5052887E+02  0.7816164E-02  0.1300439E+00
        -11   -1    0    0    0    0  0.00000000000E+00  0.00000000000E+00  0.45593999997E+02  0.45594000000E+02  0.51100000000E-03 0. -1.
         11   -1    0    0    0    0 -0.00000000000E+00 -0.00000000000E+00 -0.45593999997E+02  0.45594000000E+02  0.51100000000E-03 0.  1.
    9900012    2    1    2    0    0 -0.29346129246E+02  0.27244732664E+02 -0.70494308373E+01  0.50528865298E+02  0.30000016558E+02 0.  0.
        -12    1    1    2    0    0  0.29346129246E+02 -0.27244732664E+02  0.70494308373E+01  0.40659134702E+02  0.00000000000E+00 0.  1.
         11    1    3    3    0    0 -0.20677110982E+02  0.21059466771E+02  0.20013806034E+01  0.29581237023E+02  0.51100000000E-03 0. -1.
        -11    1    3    3    0    0 -0.84759992529E+01 -0.10993717651E+01 -0.10478176278E+02  0.13521958438E+02  0.51100000000E-03 0.  1.
        -12    1    3    3    0    0 -0.19301901096E+00  0.72846376576E+01  0.14273648376E+01  0.74256698365E+01  0.00000000000E+00 0.  1.
</event>
<event>
 7    1  0.4878192E-011  0.5052886E+02  0.7816164E-02  0.1300439E+00
        -11   -1    0    0    0    0  0.00000000000E+00  0.00000000000E+00  0.45593999997E+02  0.45594000000E+02  0.51100000000E-03 0.  1.
         11   -1    0    0    0    0 -0.00000000000E+00 -0.00000000000E+00 -0.45593999997E+02  0.45594000000E+02  0.51100000000E-03 0. -1.
    9900012    2    1    2    0    0 -0.33676431374E+02 -0.22577897693E+02  0.30499306327E+01  0.50528861160E+02  0.30000003982E+02 0.  0.
        -12    1    1    2    0    0  0.33676431374E+02  0.22577897693E+02 -0.30499306327E+01  0.40659138840E+02  0.00000000000E+00 0.  1.
         11    1    3    3    0    0 -0.19208502703E+02 -0.76243721184E+01 -0.18758245711E+01  0.20751297414E+02  0.51100000000E-03 0. -1.
        -11    1    3    3    0    0 -0.69568950418E+01 -0.14423037481E+02  0.11553803809E+02  0.19746209295E+02  0.51100000000E-03 0.  1.
        -12    1    3    3    0    0 -0.75110336292E+01 -0.53048809419E+00 -0.66280486055E+01  0.10031354451E+02  0.00000000000E+00 0.  1.
</event>
<event>
 7    1  0.4878192E-011  0.5052886E+02  0.7816164E-02  0.1300439E+00
        -11   -1    0    0    0    0  0.00000000000E+00  0.00000000000E+00  0.45593999997E+02  0.45594000000E+02  0.51100000000E-03 0. -1.
         11   -1    0    0    0    0 -0.00000000000E+00 -0.00000000000E+00 -0.45593999997E+02  0.45594000000E+02  0.51100000000E-03 0.  1.
    9900012    2    1    2    0    0  0.28459580688E+02 -0.18274944599E+02  0.22566434866E+02  0.50528864304E+02  0.30000013538E+02 0.  0.
        -12    1    1    2    0    0 -0.28459580688E+02  0.18274944599E+02 -0.22566434866E+02  0.40659135696E+02  0.00000000000E+00 0.  1.
         11    1    3    3    0    0  0.11391708190E+02 -0.14965994829E+02  0.13331277744E+02  0.23053741199E+02  0.51100000000E-03 0. -1.
        -11    1    3    3    0    0 -0.36451264669E+01 -0.14002393307E+01  0.48335451017E+01  0.62137569677E+01  0.51100000000E-03 0.  1.
        -12    1    3    3    0    0  0.20712998964E+02 -0.19087104388E+01  0.44016120198E+01  0.21261366137E+02  0.00000000000E+00 0.  1.
</event>
<event>
 7    1  0.4878192E-011  0.5052886E+02  0.7816164E-02  0.1300439E+00
        -11   -1    0    0    0    0  0.00000000000E+00  0.00000000000E+00  0.45593999997E+02  0.45594000000E+02  0.51100000000E-03 0.  1.
         11   -1    0    0    0    0 -0.00000000000E+00 -0.00000000000E+00 -0.45593999997E+02  0.45594000000E+02  0.51100000000E-03 0. -1.
    9900012    2    1    2    0    0  0.39338777228E+02 -0.10166053284E+02 -0.15091564534E+01  0.50528860973E+02  0.30000003415E+02 0.  0.
        -12    1    1    2    0    0 -0.39338777228E+02  0.10166053284E+02  0.15091564534E+01  0.40659139027E+02  0.00000000000E+00 0.  1.
         11    1    3    3    0    0  0.14513918666E+02 -0.15532000926E+02 -0.54178122468E+01  0.21937401341E+02  0.51100000000E-03 0. -1.
        -11    1    3    3    0    0  0.17812450170E+02  0.91971490899E+01  0.94550202022E+00  0.20069003632E+02  0.51100000000E-03 0.  1.
        -12    1    3    3    0    0  0.70124083926E+01 -0.38312014479E+01  0.29631537733E+01  0.85224560006E+01  0.00000000000E+00 0.  1.
</event>
<event>
 7    1  0.4878192E-011  0.5052885E+02  0.7816164E-02  0.1300439E+00
        -11   -1    0    0    0    0  0.00000000000E+00  0.00000000000E+00  0.45593999997E+02  0.45594000000E+02  0.51100000000E-03 0. -1.
         11   -1    0    0    0    0 -0.00000000000E+00 -0.00000000000E+00 -0.45593999997E+02  0.45594000000E+02  0.51100000000E-03 0.  1.
    9900012    2    1    2    0    0 -0.88959990228E+01 -0.33696657943E+02  0.20941885706E+02  0.50528854263E+02  0.29999983017E+02 0.  0.
        -12    1    1    2    0    0  0.88959990228E+01  0.33696657943E+02 -0.20941885706E+02  0.40659145737E+02  0.00000000000E+00 0.  1.
         11    1    3    3    0    0  0.11093527962E+01 -0.11550663805E+02  0.26696475437E+01  0.11906952433E+02  0.51100000000E-03 0. -1.
        -11    1    3    3    0    0 -0.14720690068E+02 -0.39872468004E+01  0.87451702803E+01  0.17580524924E+02  0.51100000000E-03 0.  1.
        -12    1    3    3    0    0  0.47153382488E+01 -0.18158747338E+02  0.95270678818E+01  0.21041376906E+02  0.00000000000E+00 0.  1.
</event>
<event>
 7    1  0.4878192E-011  0.5052887E+02  0.7816164E-02  0.1300439E+00
        -11   -1    0    0    0    0  0.00000000000E+00  0.00000000000E+00  0.45593999997E+02  0.45594000000E+02  0.51100000000E-03 0. -1.
         11   -1    0    0    0    0 -0.00000000000E+00 -0.00000000000E+00 -0.45593999997E+02  0.45594000000E+02  0.51100000000E-03 0.  1.
    9900012    2    1    2    0    0 -0.25382895540E+02  0.26429517533E+02  0.17616869070E+02  0.50528869920E+02  0.30000030610E+02 0.  0.
        -12    1    1    2    0    0  0.25382895540E+02 -0.26429517533E+02 -0.17616869070E+02  0.40659130080E+02  0.00000000000E+00 0.  1.
         11    1    3    3    0    0 -0.33178493995E+01  0.13136595313E+02  0.10112450597E+02  0.16906800951E+02  0.51100000000E-03 0. -1.
        -11    1    3    3    0    0 -0.23640113200E+02  0.16728748486E+02  0.71207687058E+01  0.29822999937E+02  0.51100000000E-03 0.  1.
        -12    1    3    3    0    0  0.15750670605E+01 -0.34358262652E+01  0.38364976663E+00  0.37990690324E+01  0.00000000000E+00 0.  1.
</event>
<event>
 7    1  0.4878192E-011  0.5052889E+02  0.7816164E-02  0.1300439E+00
        -11   -1    0    0    0    0  0.00000000000E+00  0.00000000000E+00  0.45593999997E+02  0.45594000000E+02  0.51100000000E-03 0.  1.
         11   -1    0    0    0    0 -0.00000000000E+00 -0.00000000000E+00 -0.45593999997E+02  0.45594000000E+02  0.51100000000E-03 0. -1.
    9900012    2    1    2    0    0 -0.11657167567E+01 -0.11125473807E+02 -0.39090004789E+02  0.50528886171E+02  0.30000080005E+02 0.  0.
        -12    1    1    2    0    0  0.11657167567E+01  0.11125473807E+02  0.39090004789E+02  0.40659113829E+02  0.00000000000E+00 0.  1.
         11    1    3    3    0    0 -0.10252849007E+02 -0.74604164330E+01 -0.10229281412E+02  0.16291621300E+02  0.51100000000E-03 0. -1.
        -11    1    3    3    0    0  0.10691655336E+02 -0.82763013457E+01 -0.20569979050E+02  0.24615700197E+02  0.51100000000E-03 0.  1.
        -12    1    3    3    0    0 -0.16045230860E+01  0.46112439713E+01 -0.82907443262E+01  0.96215646742E+01  0.00000000000E+00 0.  1.
</event>
<event>
 7    1  0.4878192E-011  0.5052886E+02  0.7816164E-02  0.1300439E+00
        -11   -1    0    0    0    0  0.00000000000E+00  0.00000000000E+00  0.45593999997E+02  0.45594000000E+02  0.51100000000E-03 0.  1.
         11   -1    0    0    0    0 -0.00000000000E+00 -0.00000000000E+00 -0.45593999997E+02  0.45594000000E+02  0.51100000000E-03 0. -1.
    9900012    2    1    2    0    0 -0.26070779002E+02  0.29365487876E+02 -0.10542682636E+02  0.50528861383E+02  0.30000004659E+02 0.  0.
        -12    1    1    2    0    0  0.26070779002E+02 -0.29365487876E+02  0.10542682636E+02  0.40659138617E+02  0.00000000000E+00 0.  1.
         11    1    3    3    0    0 -0.18479236886E+02  0.14000159720E+02 -0.10629397219E+02  0.25504328134E+02  0.51100000000E-03 0. -1.
        -11    1    3    3    0    0  0.55592606569E+01  0.12832540952E+01 -0.65193180663E+00  0.57425721995E+01  0.51100000000E-03 0.  1.
         12    1    3    3    0    0 -0.13150802773E+02  0.14082074061E+02  0.73864639029E+00  0.19281961049E+02  0.00000000000E+00 0. -1.
</event>
<event>
 7    1  0.4878192E-011  0.5052885E+02  0.7816164E-02  0.1300439E+00
        -11   -1    0    0    0    0  0.00000000000E+00  0.00000000000E+00  0.45593999997E+02  0.45594000000E+02  0.51100000000E-03 0. -1.
         11   -1    0    0    0    0 -0.00000000000E+00 -0.00000000000E+00 -0.45593999997E+02  0.45594000000E+02  0.51100000000E-03 0.  1.
    9900012    2    1    2    0    0 -0.14026333168E+02  0.37577197325E+02 -0.66620146740E+01  0.50528853176E+02  0.29999979715E+02 0.  0.
        -12    1    1    2    0    0  0.14026333168E+02 -0.37577197325E+02  0.66620146740E+01  0.40659146824E+02  0.00000000000E+00 0.  1.
         11    1    3    3    0    0 -0.19894967771E+02  0.21488447143E+02 -0.97633558511E+01  0.30868855194E+02  0.51100000000E-03 0. -1.
        -11    1    3    3    0    0  0.52446935787E+01  0.17071493684E+02  0.18557466648E+01  0.17955124708E+02  0.51100000000E-03 0.  1.
        -12    1    3    3    0    0  0.62394102460E+00 -0.98274350211E+00  0.12455945123E+01  0.17048732745E+01  0.00000000000E+00 0.  1.
</event>
<event>
 7    1  0.4878192E-011  0.5052885E+02  0.7816164E-02  0.1300439E+00
        -11   -1    0    0    0    0  0.00000000000E+00  0.00000000000E+00  0.45593999997E+02  0.45594000000E+02  0.51100000000E-03 0. -1.
         11   -1    0    0    0    0 -0.00000000000E+00 -0.00000000000E+00 -0.45593999997E+02  0.45594000000E+02  0.51100000000E-03 0.  1.
    9900012    2    1    2    0    0  0.15317785469E+02  0.30905205994E+02  0.21526731642E+02  0.50528849930E+02  0.29999969848E+02 0.  0.
        -12    1    1    2    0    0 -0.15317785469E+02 -0.30905205994E+02 -0.21526731642E+02  0.40659150070E+02  0.00000000000E+00 0.  1.
         11    1    3    3    0    0  0.12796303519E+02  0.27577895732E+02  0.40040158838E+01  0.30664602724E+02  0.51100000000E-03 0. -1.
        -11    1    3    3    0    0 -0.16189022648E+01  0.88433520967E+00  0.13414121626E+02  0.13540367520E+02  0.51100000000E-03 0.  1.
        -12    1    3    3    0    0  0.41403842141E+01  0.24429750528E+01  0.41085941322E+01  0.63238796867E+01  0.00000000000E+00 0.  1.
</event>
<event>
 7    1  0.4878192E-011  0.5052885E+02  0.7816164E-02  0.1300439E+00
        -11   -1    0    0    0    0  0.00000000000E+00  0.00000000000E+00  0.45593999997E+02  0.45594000000E+02  0.51100000000E-03 0.  1.
         11   -1    0    0    0    0 -0.00000000000E+00 -0.00000000000E+00 -0.45593999997E+02  0.45594000000E+02  0.51100000000E-03 0. -1.
    9900012    2    1    2    0    0  0.28256855794E+02  0.14224176283E+02 -0.25541907792E+02  0.50528854117E+02  0.29999982573E+02 0.  0.
        -12    1    1    2    0    0 -0.28256855794E+02 -0.14224176283E+02  0.25541907792E+02  0.40659145883E+02  0.00000000000E+00 0.  1.
         11    1    3    3    0    0  0.32705046220E+01  0.70400022141E+01 -0.59989114275E+01  0.98104418979E+01  0.51100000000E-03 0. -1.
        -11    1    3    3    0    0  0.89029661324E+01 -0.58142618222E+01 -0.16765737591E+02  0.19853422973E+02  0.51100000000E-03 0.  1.
        -12    1    3    3    0    0  0.16083385040E+02  0.12998435891E+02 -0.27772587733E+01  0.20864989246E+02  0.00000000000E+00 0.  1.
</event>
<event>
 7    1  0.4878192E-011  0.5052882E+02  0.7816164E-02  0.1300439E+00
        -11   -1    0    0    0    0  0.00000000000E+00  0.00000000000E+00  0.45593999997E+02  0.45594000000E+02  0.51100000000E-03 0.  1.
         11   -1    0    0    0    0 -0.00000000000E+00 -0.00000000000E+00 -0.45593999997E+02  0.45594000000E+02  0.51100000000E-03 0. -1.
    9900012    2    1    2    0    0 -0.97451613779E+01 -0.58241018921E+01 -0.39042032078E+02  0.50528823890E+02  0.29999890697E+02 0.  0.
        -12    1    1    2    0    0  0.97451613779E+01  0.58241018921E+01  0.39042032078E+02  0.40659176110E+02  0.00000000000E+00 0.  1.
         11    1    3    3    0    0 -0.32506033863E+00  0.12396449699E+01 -0.12805506743E+02  0.12869475012E+02  0.51100000000E-03 0. -1.
        -11    1    3    3    0    0 -0.17477266562E+02 -0.28075421607E+01 -0.15075622162E+02  0.23251054241E+02  0.51100000000E-03 0.  1.
        -12    1    3    3    0    0  0.80571655232E+01 -0.42562047013E+01 -0.11160903173E+02  0.14408294638E+02  0.00000000000E+00 0.  1.
</event>
<event>
 7    1  0.5874612E-011  0.5052887E+02  0.7816164E-02  0.1300439E+00
        -11   -1    0    0    0    0  0.00000000000E+00  0.00000000000E+00  0.45593999997E+02  0.45594000000E+02  0.51100000000E-03 0.  1.
         11   -1    0    0    0    0 -0.00000000000E+00 -0.00000000000E+00 -0.45593999997E+02  0.45594000000E+02  0.51100000000E-03 0. -1.
    9900012    2    1    2    0    0 -0.44311897387E+01  0.39437849440E+02  0.88422683924E+01  0.50528866693E+02  0.30000020801E+02 0.  0.
        -12    1    1    2    0    0  0.44311897387E+01 -0.39437849440E+02 -0.88422683924E+01  0.40659133307E+02  0.00000000000E+00 0.  1.
         11    1    3    3    0    0  0.81264211836E+01  0.14513727624E+02  0.90608228407E+01  0.18941634607E+02  0.51100000000E-03 0. -1.
        -11    1    3    3    0    0 -0.10292461022E+02  0.52968503596E+01 -0.20098254004E+01  0.11748649966E+02  0.51100000000E-03 0.  1.
         12    1    3    3    0    0 -0.22651499002E+01  0.19627271456E+02  0.17912709521E+01  0.19838582120E+02  0.00000000000E+00 0. -1.
</event>
<event>
 7    1  0.4878192E-011  0.5052886E+02  0.7816164E-02  0.1300439E+00
        -11   -1    0    0    0    0  0.00000000000E+00  0.00000000000E+00  0.45593999997E+02  0.45594000000E+02  0.51100000000E-03 0.  1.
         11   -1    0    0    0    0 -0.00000000000E+00 -0.00000000000E+00 -0.45593999997E+02  0.45594000000E+02  0.51100000000E-03 0. -1.
    9900012    2    1    2    0    0  0.10964079466E+02 -0.51773161603E+01 -0.38809144078E+02  0.50528864431E+02  0.30000013923E+02 0.  0.
        -12    1    1    2    0    0 -0.10964079466E+02  0.51773161603E+01  0.38809144078E+02  0.40659135569E+02  0.00000000000E+00 0.  1.
         11    1    3    3    0    0  0.13884075454E+02 -0.29653943426E+01 -0.13555396639E+02  0.19629312089E+02  0.51100000000E-03 0.  1.
        -11    1    3    3    0    0 -0.42184617560E+01 -0.20358863640E+01 -0.27716708775E+02  0.28109717154E+02  0.51100000000E-03 0. -1.
        -12    1    3    3    0    0  0.12984657682E+01 -0.17603545377E+00  0.24629613357E+01  0.27898351875E+01  0.00000000000E+00 0.  1.
</event>
<event>
 7    1  0.4878192E-011  0.5052888E+02  0.7816164E-02  0.1300439E+00
        -11   -1    0    0    0    0  0.00000000000E+00  0.00000000000E+00  0.45593999997E+02  0.45594000000E+02  0.51100000000E-03 0.  1.
         11   -1    0    0    0    0 -0.00000000000E+00 -0.00000000000E+00 -0.45593999997E+02  0.45594000000E+02  0.51100000000E-03 0. -1.
    9900012    2    1    2    0    0  0.35177787210E+02 -0.19877502941E+01 -0.20291278935E+02  0.50528882141E+02  0.30000067756E+02 0.  0.
        -12    1    1    2    0    0 -0.35177787210E+02  0.19877502941E+01  0.20291278935E+02  0.40659117859E+02  0.00000000000E+00 0.  1.
         11    1    3    3    0    0  0.12081969809E+02 -0.79241838447E+00  0.56341083225E+01  0.13354590904E+02  0.51100000000E-03 0. -1.
        -11    1    3    3    0    0  0.14540991048E+02 -0.36533943379E+01 -0.23625030579E+02  0.27980882419E+02  0.51100000000E-03 0.  1.
         12    1    3    3    0    0  0.85548263535E+01  0.24580624283E+01 -0.23003566785E+01  0.91934088177E+01  0.00000000000E+00 0. -1.
</event>
<event>
 7    1  0.4878192E-011  0.5052885E+02  0.7816164E-02  0.1300439E+00
        -11   -1    0    0    0    0  0.00000000000E+00  0.00000000000E+00  0.45593999997E+02  0.45594000000E+02  0.51100000000E-03 0.  1.
         11   -1    0    0    0    0 -0.00000000000E+00 -0.00000000000E+00 -0.45593999997E+02  0.45594000000E+02  0.51100000000E-03 0. -1.
    9900012    2    1    2    0    0 -0.34508928081E+02 -0.64565318383E+01 -0.20508863831E+02  0.50528850768E+02  0.29999972393E+02 0.  0.
        -12    1    1    2    0    0  0.34508928081E+02  0.64565318383E+01  0.20508863831E+02  0.40659149232E+02  0.00000000000E+00 0.  1.
         11    1    3    3    0    0 -0.92923595552E+01 -0.81740206751E+01 -0.76705624628E+01  0.14560222830E+02  0.51100000000E-03 0. -1.
        -11    1    3    3    0    0 -0.14425054448E+01  0.81960279762E+01 -0.31517910297E+00  0.83279670192E+01  0.51100000000E-03 0.  1.
        -12    1    3    3    0    0 -0.23774063081E+02 -0.64785391393E+01 -0.12523122265E+02  0.27640660919E+02  0.00000000000E+00 0.  1.
</event>
<event>
 7    1  0.4878192E-011  0.5052885E+02  0.7816164E-02  0.1300439E+00
        -11   -1    0    0    0    0  0.00000000000E+00  0.00000000000E+00  0.45593999997E+02  0.45594000000E+02  0.51100000000E-03 0.  1.
         11   -1    0    0    0    0 -0.00000000000E+00 -0.00000000000E+00 -0.45593999997E+02  0.45594000000E+02  0.51100000000E-03 0. -1.
    9900012    2    1    2    0    0 -0.40302628652E+02 -0.52745061635E+01 -0.10219037675E+01  0.50528848769E+02  0.29999966319E+02 0.  0.
        -12    1    1    2    0    0  0.40302628652E+02  0.52745061635E+01  0.10219037675E+01  0.40659151231E+02  0.00000000000E+00 0.  1.
         11    1    3    3    0    0 -0.42086957055E+02 -0.50530367383E+01 -0.45106733200E+01  0.42628526933E+02  0.51100000000E-03 0. -1.
        -11    1    3    3    0    0 -0.12088273855E+01  0.12047737713E+01  0.41786293706E+01  0.45137220967E+01  0.51100000000E-03 0.  1.
         12    1    3    3    0    0  0.29931557883E+01 -0.14262431965E+01 -0.68985981809E+00  0.33865997398E+01  0.00000000000E+00 0. -1.
</event>
<event>
 7    1  0.4878192E-011  0.5052886E+02  0.7816164E-02  0.1300439E+00
        -11   -1    0    0    0    0  0.00000000000E+00  0.00000000000E+00  0.45593999997E+02  0.45594000000E+02  0.51100000000E-03 0. -1.
         11   -1    0    0    0    0 -0.00000000000E+00 -0.00000000000E+00 -0.45593999997E+02  0.45594000000E+02  0.51100000000E-03 0.  1.
    9900012    2    1    2    0    0  0.78117797657E+01  0.16286422660E+02  0.36426558330E+02  0.50528860585E+02  0.30000002236E+02 0.  0.
        -12    1    1    2    0    0 -0.78117797657E+01 -0.16286422660E+02 -0.36426558330E+02  0.40659139415E+02  0.00000000000E+00 0.  1.
         11    1    3    3    0    0 -0.53029109761E+01 -0.42831060719E+01  0.73586650939E+00  0.68561915248E+01  0.51100000000E-03 0. -1.
        -11    1    3    3    0    0  0.51495283124E+01  0.93856380480E+01  0.10569226662E+02  0.15043815869E+02  0.51100000000E-03 0.  1.
         12    1    3    3    0    0  0.79651624294E+01  0.11183890684E+02  0.25121465159E+02  0.28628853192E+02  0.00000000000E+00 0. -1.
</event>
<event>
 7    1  0.4878192E-011  0.5052887E+02  0.7816164E-02  0.1300439E+00
        -11   -1    0    0    0    0  0.00000000000E+00  0.00000000000E+00  0.45593999997E+02  0.45594000000E+02  0.51100000000E-03 0.  1.
         11   -1    0    0    0    0 -0.00000000000E+00 -0.00000000000E+00 -0.45593999997E+02  0.45594000000E+02  0.51100000000E-03 0. -1.
    9900012    2    1    2    0    0  0.17554948767E+02 -0.12359891912E+02 -0.34528563645E+02  0.50528869885E+02  0.30000030502E+02 0.  0.
        -12    1    1    2    0    0 -0.17554948767E+02  0.12359891912E+02  0.34528563645E+02  0.40659130115E+02  0.00000000000E+00 0.  1.
         11    1    3    3    0    0  0.13309060051E+02  0.23108950899E+01 -0.18036792986E+02  0.22534356371E+02  0.51100000000E-03 0. -1.
        -11    1    3    3    0    0  0.51698528795E+01 -0.11304970889E+02 -0.14060287885E+01  0.12510262300E+02  0.51100000000E-03 0.  1.
        -12    1    3    3    0    0 -0.92396416295E+00 -0.33658161135E+01 -0.15085741871E+02  0.15484251215E+02  0.00000000000E+00 0.  1.
</event>
<event>
 7    1  0.4878192E-011  0.5052887E+02  0.7816164E-02  0.1300439E+00
        -11   -1    0    0    0    0  0.00000000000E+00  0.00000000000E+00  0.45593999997E+02  0.45594000000E+02  0.51100000000E-03 0.  1.
         11   -1    0    0    0    0 -0.00000000000E+00 -0.00000000000E+00 -0.45593999997E+02  0.45594000000E+02  0.51100000000E-03 0. -1.
    9900012    2    1    2    0    0  0.23815399072E+02  0.14111227108E+02 -0.29780275405E+02  0.50528871054E+02  0.30000034056E+02 0.  0.
        -12    1    1    2    0    0 -0.23815399072E+02 -0.14111227108E+02  0.29780275405E+02  0.40659128946E+02  0.00000000000E+00 0.  1.
         11    1    3    3    0    0  0.14260308834E+02  0.14069094093E+02 -0.97850821324E+01  0.22294475756E+02  0.51100000000E-03 0. -1.
        -11    1    3    3    0    0 -0.31138919274E+01 -0.12097353978E+01  0.11665516734E+01  0.35384496232E+01  0.51100000000E-03 0.  1.
         12    1    3    3    0    0  0.12668982166E+02  0.12518684130E+01 -0.21161744946E+02  0.24695945675E+02  0.00000000000E+00 0. -1.
</event>
<event>
 7    1  0.4878192E-011  0.5052886E+02  0.7816164E-02  0.1300439E+00
        -11   -1    0    0    0    0  0.00000000000E+00  0.00000000000E+00  0.45593999997E+02  0.45594000000E+02  0.51100000000E-03 0.  1.
         11   -1    0    0    0    0 -0.00000000000E+00 -0.00000000000E+00 -0.45593999997E+02  0.45594000000E+02  0.51100000000E-03 0. -1.
    9900012    2    1    2    0    0 -0.38826317435E+01 -0.38970727944E+02  0.10925809039E+02  0.50528858729E+02  0.29999996592E+02 0.  0.
        -12    1    1    2    0    0  0.38826317435E+01  0.38970727944E+02 -0.10925809039E+02  0.40659141271E+02  0.00000000000E+00 0.  1.
         11    1    3    3    0    0 -0.96558193507E+01 -0.37988930907E+02  0.14532794895E+01  0.39223790489E+02  0.51100000000E-03 0. -1.
        -11    1    3    3    0    0  0.52130511307E+01 -0.14141103317E+01  0.88200879708E+01  0.10342609061E+02  0.51100000000E-03 0.  1.
         12    1    3    3    0    0  0.56013647651E+00  0.43231329415E+00  0.65244157896E+00  0.96245917865E+00  0.00000000000E+00 0. -1.
</event>
<event>
 7    1  0.4878192E-011  0.5052890E+02  0.7816164E-02  0.1300439E+00
        -11   -1    0    0    0    0  0.00000000000E+00  0.00000000000E+00  0.45593999997E+02  0.45594000000E+02  0.51100000000E-03 0.  1.
         11   -1    0    0    0    0 -0.00000000000E+00 -0.00000000000E+00 -0.45593999997E+02  0.45594000000E+02  0.51100000000E-03 0. -1.
    9900012    2    1    2    0    0  0.15659383642E+02 -0.50836924866E+01 -0.37176636414E+02  0.50528898677E+02  0.30000118018E+02 0.  0.
        -12    1    1    2    0    0 -0.15659383642E+02  0.50836924866E+01  0.37176636414E+02  0.40659101323E+02  0.00000000000E+00 0.  1.
         11    1    3    3    0    0 -0.34174758196E+01  0.46053656259E+01 -0.65825213504E+01  0.87302990278E+01  0.51100000000E-03 0. -1.
        -11    1    3    3    0    0  0.13855454524E+02 -0.61459345628E+01 -0.58246177954E+01  0.16237989544E+02  0.51100000000E-03 0.  1.
        -12    1    3    3    0    0  0.52214049384E+01 -0.35431235496E+01 -0.24769497268E+02  0.25560610105E+02  0.00000000000E+00 0.  1.
</event>
<event>
 7    1  0.4878192E-011  0.5052886E+02  0.7816164E-02  0.1300439E+00
        -11   -1    0    0    0    0  0.00000000000E+00  0.00000000000E+00  0.45593999997E+02  0.45594000000E+02  0.51100000000E-03 0.  1.
         11   -1    0    0    0    0 -0.00000000000E+00 -0.00000000000E+00 -0.45593999997E+02  0.45594000000E+02  0.51100000000E-03 0. -1.
    9900012    2    1    2    0    0  0.33524010410E+01  0.40408212425E+02 -0.30171478356E+01  0.50528863201E+02  0.30000010187E+02 0.  0.
        -12    1    1    2    0    0 -0.33524010410E+01 -0.40408212425E+02  0.30171478356E+01  0.40659136799E+02  0.00000000000E+00 0.  1.
         11    1    3    3    0    0  0.82219028009E+01  0.11962312915E+02 -0.17820249447E+01  0.14624371067E+02  0.51100000000E-03 0. -1.
        -11    1    3    3    0    0 -0.93202702746E+01  0.27270488984E+02 -0.58270831796E+01  0.29402413269E+02  0.51100000000E-03 0.  1.
        -12    1    3    3    0    0  0.44507685148E+01  0.11754105268E+01  0.45919602888E+01  0.65020788654E+01  0.00000000000E+00 0.  1.
</event>
<event>
 7    1  0.4878192E-011  0.5052886E+02  0.7816164E-02  0.1300439E+00
        -11   -1    0    0    0    0  0.00000000000E+00  0.00000000000E+00  0.45593999997E+02  0.45594000000E+02  0.51100000000E-03 0.  1.
         11   -1    0    0    0    0 -0.00000000000E+00 -0.00000000000E+00 -0.45593999997E+02  0.45594000000E+02  0.51100000000E-03 0. -1.
    9900012    2    1    2    0    0 -0.26129487153E+02 -0.56426375543E+01 -0.30636192900E+02  0.50528858680E+02  0.29999996444E+02 0.  0.
        -12    1    1    2    0    0  0.26129487153E+02  0.56426375543E+01  0.30636192900E+02  0.40659141320E+02  0.00000000000E+00 0.  1.
         11    1    3    3    0    0 -0.12448402921E+02  0.81966753660E+01 -0.20306406588E+02  0.25189251103E+02  0.51100000000E-03 0. -1.
        -11    1    3    3    0    0 -0.10645169813E+02 -0.15831099841E+02 -0.10359346952E+02  0.21708510590E+02  0.51100000000E-03 0.  1.
        -12    1    3    3    0    0 -0.30359144195E+01  0.19917869206E+01  0.29560639868E-01  0.36310969873E+01  0.00000000000E+00 0.  1.
</event>
<event>
 7    1  0.4878192E-011  0.5052886E+02  0.7816164E-02  0.1300439E+00
        -11   -1    0    0    0    0  0.00000000000E+00  0.00000000000E+00  0.45593999997E+02  0.45594000000E+02  0.51100000000E-03 0. -1.
         11   -1    0    0    0    0 -0.00000000000E+00 -0.00000000000E+00 -0.45593999997E+02  0.45594000000E+02  0.51100000000E-03 0.  1.
    9900012    2    1    2    0    0  0.91936323422E+00 -0.37785560041E+02  0.14985735503E+02  0.50528855335E+02  0.29999986275E+02 0.  0.
        -12    1    1    2    0    0 -0.91936323422E+00  0.37785560041E+02 -0.14985735503E+02  0.40659144665E+02  0.00000000000E+00 0.  1.
         11    1    3    3    0    0  0.50153912643E+00 -0.80924981565E+01  0.15929013286E+02  0.17873822547E+02  0.51100000000E-03 0. -1.
        -11    1    3    3    0    0 -0.64462404087E+01 -0.16009125148E+02 -0.15979648483E+01  0.17332039561E+02  0.51100000000E-03 0.  1.
         12    1    3    3    0    0  0.68640645165E+01 -0.13683936736E+02  0.65468706573E+00  0.15322993227E+02  0.00000000000E+00 0. -1.
</event>
<event>
 7    1  0.4878192E-011  0.5052886E+02  0.7816164E-02  0.1300439E+00
        -11   -1    0    0    0    0  0.00000000000E+00  0.00000000000E+00  0.45593999997E+02  0.45594000000E+02  0.51100000000E-03 0.  1.
         11   -1    0    0    0    0 -0.00000000000E+00 -0.00000000000E+00 -0.45593999997E+02  0.45594000000E+02  0.51100000000E-03 0. -1.
    9900012    2    1    2    0    0  0.60080201656E+01  0.32466399815E+02 -0.23727665633E+02  0.50528861549E+02  0.30000005163E+02 0.  0.
        -12    1    1    2    0    0 -0.60080201656E+01 -0.32466399815E+02  0.23727665633E+02  0.40659138451E+02  0.00000000000E+00 0.  1.
         11    1    3    3    0    0  0.49563401324E+01  0.25033455677E+02 -0.43405837928E+01  0.25885901155E+02  0.51100000000E-03 0. -1.
        -11    1    3    3    0    0  0.66070609861E+01  0.69123525657E+01 -0.13363401055E+02  0.16432113707E+02  0.51100000000E-03 0.  1.
        -12    1    3    3    0    0 -0.55553809529E+01  0.52059157159E+00 -0.60236807846E+01  0.82108466866E+01  0.00000000000E+00 0.  1.
</event>
<event>
 7    1  0.4878192E-011  0.5052888E+02  0.7816164E-02  0.1300439E+00
        -11   -1    0    0    0    0  0.00000000000E+00  0.00000000000E+00  0.45593999997E+02  0.45594000000E+02  0.51100000000E-03 0.  1.
         11   -1    0    0    0    0 -0.00000000000E+00 -0.00000000000E+00 -0.45593999997E+02  0.45594000000E+02  0.51100000000E-03 0. -1.
    9900012    2    1    2    0    0 -0.27132591393E+02 -0.23588936272E+02 -0.18988120845E+02  0.50528878473E+02  0.30000056605E+02 0.  0.
        -12    1    1    2    0    0  0.27132591393E+02  0.23588936272E+02  0.18988120845E+02  0.40659121527E+02  0.00000000000E+00 0.  1.
         11    1    3    3    0    0  0.24119215687E+01 -0.80677803127E+01  0.14719046397E+01  0.85482716590E+01  0.51100000000E-03 0. -1.
        -11    1    3    3    0    0 -0.13897749739E+02  0.95216396359E+00 -0.73754566435E+01  0.15762341989E+02  0.51100000000E-03 0.  1.
         12    1    3    3    0    0 -0.15646763223E+02 -0.16473319923E+02 -0.13084568841E+02  0.26218264824E+02  0.00000000000E+00 0. -1.
</event>
<event>
 7    1  0.4878192E-011  0.5052886E+02  0.7816164E-02  0.1300439E+00
        -11   -1    0    0    0    0  0.00000000000E+00  0.00000000000E+00  0.45593999997E+02  0.45594000000E+02  0.51100000000E-03 0.  1.
         11   -1    0    0    0    0 -0.00000000000E+00 -0.00000000000E+00 -0.45593999997E+02  0.45594000000E+02  0.51100000000E-03 0. -1.
    9900012    2    1    2    0    0 -0.78496122822E+00  0.15802592617E+02 -0.37454340577E+02  0.50528859262E+02  0.29999998211E+02 0.  0.
        -12    1    1    2    0    0  0.78496122822E+00 -0.15802592617E+02  0.37454340577E+02  0.40659140738E+02  0.00000000000E+00 0.  1.
         11    1    3    3    0    0 -0.29353460073E+01  0.96678957795E+01 -0.37750255585E+02  0.39078974679E+02  0.51100000000E-03 0. -1.
        -11    1    3    3    0    0  0.72816879013E+00 -0.20709539108E+01  0.19766138619E+01  0.29539943310E+01  0.51100000000E-03 0.  1.
         12    1    3    3    0    0  0.14222159890E+01  0.82056507487E+01 -0.16806988538E+01  0.84958902515E+01  0.00000000000E+00 0. -1.
</event>
<event>
 7    1  0.4878192E-011  0.5052886E+02  0.7816164E-02  0.1300439E+00
        -11   -1    0    0    0    0  0.00000000000E+00  0.00000000000E+00  0.45593999997E+02  0.45594000000E+02  0.51100000000E-03 0.  1.
         11   -1    0    0    0    0 -0.00000000000E+00 -0.00000000000E+00 -0.45593999997E+02  0.45594000000E+02  0.51100000000E-03 0. -1.
    9900012    2    1    2    0    0  0.25286138061E+02 -0.26770769016E+01 -0.31727114332E+02  0.50528864463E+02  0.30000014022E+02 0.  0.
        -12    1    1    2    0    0 -0.25286138061E+02  0.26770769016E+01  0.31727114332E+02  0.40659135537E+02  0.00000000000E+00 0.  1.
         11    1    3    3    0    0  0.57258503264E+01  0.57438985320E+01 -0.21293363719E+02  0.22785632996E+02  0.51100000000E-03 0. -1.
        -11    1    3    3    0    0  0.10625626184E+02 -0.61910868092E+01  0.18023704231E+01  0.12429079897E+02  0.51100000000E-03 0.  1.
         12    1    3    3    0    0  0.89346615500E+01 -0.22298886244E+01 -0.12236121036E+02  0.15314151570E+02  0.00000000000E+00 0. -1.
</event>
<event>
 7    1  0.4878192E-011  0.5052886E+02  0.7816164E-02  0.1300439E+00
        -11   -1    0    0    0    0  0.00000000000E+00  0.00000000000E+00  0.45593999997E+02  0.45594000000E+02  0.51100000000E-03 0.  1.
         11   -1    0    0    0    0 -0.00000000000E+00 -0.00000000000E+00 -0.45593999997E+02  0.45594000000E+02  0.51100000000E-03 0. -1.
    9900012    2    1    2    0    0 -0.13254473033E+02  0.17523016658E+01 -0.38398094991E+02  0.50528864305E+02  0.30000013542E+02 0.  0.
        -12    1    1    2    0    0  0.13254473033E+02 -0.17523016658E+01  0.38398094991E+02  0.40659135695E+02  0.00000000000E+00 0.  1.
         11    1    3    3    0    0 -0.49027472550E+01  0.69528169987E+01 -0.32261541077E+02  0.33364436573E+02  0.51100000000E-03 0. -1.
        -11    1    3    3    0    0 -0.46841057237E+00  0.19582005603E+00  0.35343049231E+01  0.35705833570E+01  0.51100000000E-03 0.  1.
         12    1    3    3    0    0 -0.78833152057E+01 -0.53963353889E+01 -0.96708588367E+01  0.13593844375E+02  0.00000000000E+00 0. -1.
</event>
<event>
 7    1  0.4878192E-011  0.5052886E+02  0.7816164E-02  0.1300439E+00
        -11   -1    0    0    0    0  0.00000000000E+00  0.00000000000E+00  0.45593999997E+02  0.45594000000E+02  0.51100000000E-03 0.  1.
         11   -1    0    0    0    0 -0.00000000000E+00 -0.00000000000E+00 -0.45593999997E+02  0.45594000000E+02  0.51100000000E-03 0. -1.
    9900012    2    1    2    0    0  0.65085402959E+01  0.14705594048E+02 -0.37343674187E+02  0.50528860869E+02  0.30000003099E+02 0.  0.
        -12    1    1    2    0    0 -0.65085402959E+01 -0.14705594048E+02  0.37343674187E+02  0.40659139131E+02  0.00000000000E+00 0.  1.
         11    1    3    3    0    0 -0.19629656623E+01  0.11367948604E+02 -0.65747791365E+01  0.13278223172E+02  0.51100000000E-03 0. -1.
        -11    1    3    3    0    0  0.11584754305E+02  0.67497438958E+01 -0.29586552117E+02  0.32482759141E+02  0.51100000000E-03 0.  1.
        -12    1    3    3    0    0 -0.31132483471E+01 -0.34120984521E+01 -0.11823429332E+01  0.47678785565E+01  0.00000000000E+00 0.  1.
</event>
<event>
 7    1  0.4878192E-011  0.5052886E+02  0.7816164E-02  0.1300439E+00
        -11   -1    0    0    0    0  0.00000000000E+00  0.00000000000E+00  0.45593999997E+02  0.45594000000E+02  0.51100000000E-03 0. -1.
         11   -1    0    0    0    0 -0.00000000000E+00 -0.00000000000E+00 -0.45593999997E+02  0.45594000000E+02  0.51100000000E-03 0.  1.
    9900012    2    1    2    0    0 -0.82497092308E+01 -0.79608328282E+01  0.39009398734E+02  0.50528858946E+02  0.29999997251E+02 0.  0.
        -12    1    1    2    0    0  0.82497092308E+01  0.79608328282E+01 -0.39009398734E+02  0.40659141054E+02  0.00000000000E+00 0.  1.
         11    1    3    3    0    0 -0.30743502491E+01 -0.19944535519E+01  0.26544039821E+02  0.26795811701E+02  0.51100000000E-03 0. -1.
        -11    1    3    3    0    0 -0.55339105216E+01 -0.75095823879E+01 -0.16977693101E+01  0.94815828950E+01  0.51100000000E-03 0.  1.
        -12    1    3    3    0    0  0.35855153993E+00  0.15432031116E+01  0.14163128223E+02  0.14251464350E+02  0.00000000000E+00 0.  1.
</event>
<event>
 7    1  0.4878192E-011  0.5052886E+02  0.7816164E-02  0.1300439E+00
        -11   -1    0    0    0    0  0.00000000000E+00  0.00000000000E+00  0.45593999997E+02  0.45594000000E+02  0.51100000000E-03 0.  1.
         11   -1    0    0    0    0 -0.00000000000E+00 -0.00000000000E+00 -0.45593999997E+02  0.45594000000E+02  0.51100000000E-03 0. -1.
    9900012    2    1    2    0    0 -0.33114089115E+02  0.23446154475E+02 -0.26269247440E+01  0.50528858455E+02  0.29999995759E+02 0.  0.
        -12    1    1    2    0    0  0.33114089115E+02 -0.23446154475E+02  0.26269247440E+01  0.40659141545E+02  0.00000000000E+00 0.  1.
         11    1    3    3    0    0 -0.10959358550E+02  0.50012669008E+01 -0.18641329405E+00  0.12048027250E+02  0.51100000000E-03 0. -1.
        -11    1    3    3    0    0 -0.38037554055E+01  0.19463298374E+02 -0.31895696935E+01  0.20086360892E+02  0.51100000000E-03 0.  1.
        -12    1    3    3    0    0 -0.18350975159E+02 -0.10184107995E+01  0.74905824349E+00  0.18394470313E+02  0.00000000000E+00 0.  1.
</event>
<event>
 7    1  0.4878192E-011  0.5052886E+02  0.7816164E-02  0.1300439E+00
        -11   -1    0    0    0    0  0.00000000000E+00  0.00000000000E+00  0.45593999997E+02  0.45594000000E+02  0.51100000000E-03 0.  1.
         11   -1    0    0    0    0 -0.00000000000E+00 -0.00000000000E+00 -0.45593999997E+02  0.45594000000E+02  0.51100000000E-03 0. -1.
    9900012    2    1    2    0    0 -0.11250938259E+02 -0.26737394787E+02 -0.28490239969E+02  0.50528860004E+02  0.30000000468E+02 0.  0.
        -12    1    1    2    0    0  0.11250938259E+02  0.26737394787E+02  0.28490239969E+02  0.40659139996E+02  0.00000000000E+00 0.  1.
         11    1    3    3    0    0 -0.13099188021E+02 -0.11291961042E+02 -0.15055164506E+02  0.22929349959E+02  0.51100000000E-03 0. -1.
        -11    1    3    3    0    0  0.63450063188E+01 -0.95383323172E+01  0.86357336854E+00  0.11488457155E+02  0.51100000000E-03 0.  1.
        -12    1    3    3    0    0 -0.44967565572E+01 -0.59071014283E+01 -0.14298648832E+02  0.16111052890E+02  0.00000000000E+00 0.  1.
</event>
<event>
 7    1  0.4878192E-011  0.5052876E+02  0.7816164E-02  0.1300439E+00
        -11   -1    0    0    0    0  0.00000000000E+00  0.00000000000E+00  0.45593999997E+02  0.45594000000E+02  0.51100000000E-03 0. -1.
         11   -1    0    0    0    0 -0.00000000000E+00 -0.00000000000E+00 -0.45593999997E+02  0.45594000000E+02  0.51100000000E-03 0.  1.
    9900012    2    1    2    0    0  0.70577876673E+01  0.39827494478E+02  0.41390484986E+01  0.50528764817E+02  0.29999711137E+02 0.  0.
        -12    1    1    2    0    0 -0.70577876673E+01 -0.39827494478E+02 -0.41390484986E+01  0.40659235183E+02  0.00000000000E+00 0.  1.
         11    1    3    3    0    0  0.11417812295E+02  0.18749815814E+02  0.44600321783E+01  0.22401203493E+02  0.51100000000E-03 0. -1.
        -11    1    3    3    0    0 -0.95185788199E+01  0.16188422717E+02 -0.52246075513E+01  0.19492688300E+02  0.51100000000E-03 0.  1.
        -12    1    3    3    0    0  0.51585541920E+01  0.48892559474E+01  0.49036238716E+01  0.86348730243E+01  0.00000000000E+00 0.  1.
</event>
<event>
 7    1  0.4878192E-011  0.5052885E+02  0.7816164E-02  0.1300439E+00
        -11   -1    0    0    0    0  0.00000000000E+00  0.00000000000E+00  0.45593999997E+02  0.45594000000E+02  0.51100000000E-03 0.  1.
         11   -1    0    0    0    0 -0.00000000000E+00 -0.00000000000E+00 -0.45593999997E+02  0.45594000000E+02  0.51100000000E-03 0. -1.
    9900012    2    1    2    0    0  0.12432355827E+02  0.18150205317E+02 -0.34193171368E+02  0.50528851058E+02  0.29999973277E+02 0.  0.
        -12    1    1    2    0    0 -0.12432355827E+02 -0.18150205317E+02  0.34193171368E+02  0.40659148942E+02  0.00000000000E+00 0.  1.
         11    1    3    3    0    0  0.81240627193E+01  0.76815641849E+01 -0.55897671520E-01  0.11180784776E+02  0.51100000000E-03 0. -1.
        -11    1    3    3    0    0 -0.54989706784E+01  0.50986646677E+00 -0.82355922860E+01  0.99158268892E+01  0.51100000000E-03 0.  1.
        -12    1    3    3    0    0  0.98072637861E+01  0.99587746656E+01 -0.25901681410E+02  0.29432239393E+02  0.00000000000E+00 0.  1.
</event>
<event>
 7    1  0.4878192E-011  0.5052885E+02  0.7816164E-02  0.1300439E+00
        -11   -1    0    0    0    0  0.00000000000E+00  0.00000000000E+00  0.45593999997E+02  0.45594000000E+02  0.51100000000E-03 0.  1.
         11   -1    0    0    0    0 -0.00000000000E+00 -0.00000000000E+00 -0.45593999997E+02  0.45594000000E+02  0.51100000000E-03 0. -1.
    9900012    2    1    2    0    0  0.91845038051E+01  0.13996440846E+02 -0.37052816245E+02  0.50528847793E+02  0.29999963353E+02 0.  0.
        -12    1    1    2    0    0 -0.91845038051E+01 -0.13996440846E+02  0.37052816245E+02  0.40659152207E+02  0.00000000000E+00 0.  1.
         11    1    3    3    0    0 -0.59760735469E+01 -0.50868744789E+01 -0.71008643799E+01  0.10583573225E+02  0.51100000000E-03 0. -1.
        -11    1    3    3    0    0  0.96053040122E+01  0.16295393894E+02 -0.16397217947E+02  0.25033387385E+02  0.51100000000E-03 0.  1.
         12    1    3    3    0    0  0.55552733398E+01  0.27879214314E+01 -0.13554733918E+02  0.14911887184E+02  0.00000000000E+00 0. -1.
</event>
<event>
 7    1  0.4878192E-011  0.5052885E+02  0.7816164E-02  0.1300439E+00
        -11   -1    0    0    0    0  0.00000000000E+00  0.00000000000E+00  0.45593999997E+02  0.45594000000E+02  0.51100000000E-03 0.  1.
         11   -1    0    0    0    0 -0.00000000000E+00 -0.00000000000E+00 -0.45593999997E+02  0.45594000000E+02  0.51100000000E-03 0. -1.
    9900012    2    1    2    0    0  0.28307442565E+02  0.72686571592E+01 -0.28266975840E+02  0.50528848452E+02  0.29999965354E+02 0.  0.
        -12    1    1    2    0    0 -0.28307442565E+02 -0.72686571592E+01  0.28266975840E+02  0.40659151548E+02  0.00000000000E+00 0.  1.
         11    1    3    3    0    0 -0.76593790559E+00 -0.23773026471E+01 -0.14709024312E+02  0.14919571885E+02  0.51100000000E-03 0. -1.
        -11    1    3    3    0    0  0.64284540998E+01  0.26388569496E-01  0.17117954049E+01  0.66525154821E+01  0.51100000000E-03 0.  1.
         12    1    3    3    0    0  0.22644926371E+02  0.96195712369E+01 -0.15269746933E+02  0.28956761085E+02  0.00000000000E+00 0. -1.
</event>
<event>
 7    1  0.4878192E-011  0.5052886E+02  0.7816164E-02  0.1300439E+00
        -11   -1    0    0    0    0  0.00000000000E+00  0.00000000000E+00  0.45593999997E+02  0.45594000000E+02  0.51100000000E-03 0.  1.
         11   -1    0    0    0    0 -0.00000000000E+00 -0.00000000000E+00 -0.45593999997E+02  0.45594000000E+02  0.51100000000E-03 0. -1.
    9900012    2    1    2    0    0 -0.23190676850E+02  0.24129400435E+02  0.23089612040E+02  0.50528860286E+02  0.30000001324E+02 0.  0.
        -12    1    1    2    0    0  0.23190676850E+02 -0.24129400435E+02 -0.23089612040E+02  0.40659139714E+02  0.00000000000E+00 0.  1.
         11    1    3    3    0    0 -0.20157775009E+02  0.57703935078E+01  0.99379234987E+01  0.23203354462E+02  0.51100000000E-03 0. -1.
        -11    1    3    3    0    0  0.19781196674E+01  0.61351572427E+01  0.12540536444E+02  0.14100289585E+02  0.51100000000E-03 0.  1.
         12    1    3    3    0    0 -0.50110215084E+01  0.12223849685E+02  0.61115209737E+00  0.13225216239E+02  0.00000000000E+00 0. -1.
</event>
<event>
 7    1  0.4878192E-011  0.5052886E+02  0.7816164E-02  0.1300439E+00
        -11   -1    0    0    0    0  0.00000000000E+00  0.00000000000E+00  0.45593999997E+02  0.45594000000E+02  0.51100000000E-03 0. -1.
         11   -1    0    0    0    0 -0.00000000000E+00 -0.00000000000E+00 -0.45593999997E+02  0.45594000000E+02  0.51100000000E-03 0.  1.
    9900012    2    1    2    0    0  0.17259829126E+02 -0.19039244533E+02  0.31508274116E+02  0.50528857466E+02  0.29999992754E+02 0.  0.
        -12    1    1    2    0    0 -0.17259829126E+02  0.19039244533E+02 -0.31508274116E+02  0.40659142534E+02  0.00000000000E+00 0.  1.
         11    1    3    3    0    0 -0.74121206801E+00  0.71146513747E+01  0.74613361353E+01  0.10336304789E+02  0.51100000000E-03 0. -1.
        -11    1    3    3    0    0  0.16376121783E+02 -0.20050229774E+02  0.19197830365E+02  0.32229579110E+02  0.51100000000E-03 0.  1.
         12    1    3    3    0    0  0.16249194117E+01 -0.61036661333E+01  0.48491076153E+01  0.79629735668E+01  0.00000000000E+00 0. -1.
</event>
<event>
 7    1  0.4878192E-011  0.5052884E+02  0.7816164E-02  0.1300439E+00
        -11   -1    0    0    0    0  0.00000000000E+00  0.00000000000E+00  0.45593999997E+02  0.45594000000E+02  0.51100000000E-03 0.  1.
         11   -1    0    0    0    0 -0.00000000000E+00 -0.00000000000E+00 -0.45593999997E+02  0.45594000000E+02  0.51100000000E-03 0. -1.
    9900012    2    1    2    0    0  0.13478598616E+02 -0.10686252338E+01 -0.38345173252E+02  0.50528844915E+02  0.29999954604E+02 0.  0.
        -12    1    1    2    0    0 -0.13478598616E+02  0.10686252338E+01  0.38345173252E+02  0.40659155085E+02  0.00000000000E+00 0.  1.
         11    1    3    3    0    0 -0.13052760666E+00 -0.28220043980E+00 -0.27820589312E+01  0.27993796995E+01  0.51100000000E-03 0. -1.
        -11    1    3    3    0    0 -0.81231124167E+01  0.28987075652E+01 -0.47574058854E+01  0.98498919741E+01  0.51100000000E-03 0.  1.
        -12    1    3    3    0    0  0.21732238639E+02 -0.36851323591E+01 -0.30805708435E+02  0.37879573241E+02  0.00000000000E+00 0.  1.
</event>
<event>
 7    1  0.4878192E-011  0.5052886E+02  0.7816164E-02  0.1300439E+00
        -11   -1    0    0    0    0  0.00000000000E+00  0.00000000000E+00  0.45593999997E+02  0.45594000000E+02  0.51100000000E-03 0. -1.
         11   -1    0    0    0    0 -0.00000000000E+00 -0.00000000000E+00 -0.45593999997E+02  0.45594000000E+02  0.51100000000E-03 0.  1.
    9900012    2    1    2    0    0  0.22346517828E+02  0.33221216708E+02  0.70816088792E+01  0.50528864705E+02  0.30000014757E+02 0.  0.
        -12    1    1    2    0    0 -0.22346517828E+02 -0.33221216708E+02 -0.70816088792E+01  0.40659135295E+02  0.00000000000E+00 0.  1.
         11    1    3    3    0    0  0.37314298971E+00  0.21383140814E+02  0.79017412511E+01  0.22799461876E+02  0.51100000000E-03 0. -1.
        -11    1    3    3    0    0  0.16427605562E+02  0.57544937359E+01 -0.55069765615E+01  0.18256703256E+02  0.51100000000E-03 0.  1.
         12    1    3    3    0    0  0.55457692762E+01  0.60835821582E+01  0.46868441896E+01  0.94726995729E+01  0.00000000000E+00 0. -1.
</event>
<event>
 7    1  0.4878192E-011  0.5052886E+02  0.7816164E-02  0.1300439E+00
        -11   -1    0    0    0    0  0.00000000000E+00  0.00000000000E+00  0.45593999997E+02  0.45594000000E+02  0.51100000000E-03 0. -1.
         11   -1    0    0    0    0 -0.00000000000E+00 -0.00000000000E+00 -0.45593999997E+02  0.45594000000E+02  0.51100000000E-03 0.  1.
    9900012    2    1    2    0    0 -0.91197027774E+01  0.80824847572E+01  0.38790078972E+02  0.50528858774E+02  0.29999996730E+02 0.  0.
        -12    1    1    2    0    0  0.91197027774E+01 -0.80824847572E+01 -0.38790078972E+02  0.40659141226E+02  0.00000000000E+00 0.  1.
         11    1    3    3    0    0 -0.13720478920E+02  0.69618139495E+01  0.14115929135E+02  0.20880082636E+02  0.51100000000E-03 0. -1.
        -11    1    3    3    0    0  0.32553374601E+01 -0.16679455262E+01  0.26017739236E+02  0.26273599287E+02  0.51100000000E-03 0.  1.
        -12    1    3    3    0    0  0.13454386823E+01  0.27886163339E+01 -0.13435893997E+01  0.33751768517E+01  0.00000000000E+00 0.  1.
</event>
<event>
 7    1  0.4878192E-011  0.5052886E+02  0.7816164E-02  0.1300439E+00
        -11   -1    0    0    0    0  0.00000000000E+00  0.00000000000E+00  0.45593999997E+02  0.45594000000E+02  0.51100000000E-03 0. -1.
         11   -1    0    0    0    0 -0.00000000000E+00 -0.00000000000E+00 -0.45593999997E+02  0.45594000000E+02  0.51100000000E-03 0.  1.
    9900012    2    1    2    0    0 -0.24296785944E+01 -0.31941320942E+02  0.25040249292E+02  0.50528863189E+02  0.30000010149E+02 0.  0.
        -12    1    1    2    0    0  0.24296785944E+01  0.31941320942E+02 -0.25040249292E+02  0.40659136811E+02  0.00000000000E+00 0.  1.
         11    1    3    3    0    0 -0.60873415960E+01 -0.26488783625E+02  0.68955428306E+01  0.28040326261E+02  0.51100000000E-03 0. -1.
        -11    1    3    3    0    0  0.50896209149E+01 -0.48644122718E+01  0.19308390209E+02  0.20551902115E+02  0.51100000000E-03 0.  1.
         12    1    3    3    0    0 -0.14319579132E+01 -0.58812504580E+00 -0.11636837478E+01  0.19366348132E+01  0.00000000000E+00 0. -1.
</event>
<event>
 7    1  0.5558490E-011  0.5052887E+02  0.7816164E-02  0.1300439E+00
        -11   -1    0    0    0    0  0.00000000000E+00  0.00000000000E+00  0.45593999997E+02  0.45594000000E+02  0.51100000000E-03 0.  1.
         11   -1    0    0    0    0 -0.00000000000E+00 -0.00000000000E+00 -0.45593999997E+02  0.45594000000E+02  0.51100000000E-03 0. -1.
    9900012    2    1    2    0    0 -0.28116034864E+02 -0.27181960714E+02  0.11126296753E+02  0.50528869609E+02  0.30000029663E+02 0.  0.
        -12    1    1    2    0    0  0.28116034864E+02  0.27181960714E+02 -0.11126296753E+02  0.40659130391E+02  0.00000000000E+00 0.  1.
         11    1    3    3    0    0 -0.25985561712E+02 -0.18527201530E+02  0.67810928201E+01  0.32626520411E+02  0.51100000000E-03 0. -1.
        -11    1    3    3    0    0  0.24823118337E+01 -0.97409023771E+01 -0.17273320443E+01  0.10199545451E+02  0.51100000000E-03 0.  1.
        -12    1    3    3    0    0 -0.46127849857E+01  0.10861431936E+01  0.60725359772E+01  0.77028037464E+01  0.00000000000E+00 0.  1.
</event>
<event>
 7    1  0.4878192E-011  0.5052885E+02  0.7816164E-02  0.1300439E+00
        -11   -1    0    0    0    0  0.00000000000E+00  0.00000000000E+00  0.45593999997E+02  0.45594000000E+02  0.51100000000E-03 0.  1.
         11   -1    0    0    0    0 -0.00000000000E+00 -0.00000000000E+00 -0.45593999997E+02  0.45594000000E+02  0.51100000000E-03 0. -1.
    9900012    2    1    2    0    0  0.21318275619E+02  0.12985173019E+02 -0.32094908955E+02  0.50528846362E+02  0.29999959003E+02 0.  0.
        -12    1    1    2    0    0 -0.21318275619E+02 -0.12985173019E+02  0.32094908955E+02  0.40659153638E+02  0.00000000000E+00 0.  1.
         11    1    3    3    0    0  0.16666444025E+02  0.55133592710E+01 -0.24722261789E+02  0.30320912175E+02  0.51100000000E-03 0. -1.
        -11    1    3    3    0    0 -0.22934385048E+01  0.10368204732E+02 -0.69090691888E+01  0.12668652922E+02  0.51100000000E-03 0.  1.
        -12    1    3    3    0    0  0.69452700982E+01 -0.28963909834E+01 -0.46357797752E+00  0.75392812660E+01  0.00000000000E+00 0.  1.
</event>
<event>
 7    1  0.4878192E-011  0.5052885E+02  0.7816164E-02  0.1300439E+00
        -11   -1    0    0    0    0  0.00000000000E+00  0.00000000000E+00  0.45593999997E+02  0.45594000000E+02  0.51100000000E-03 0. -1.
         11   -1    0    0    0    0 -0.00000000000E+00 -0.00000000000E+00 -0.45593999997E+02  0.45594000000E+02  0.51100000000E-03 0.  1.
    9900012    2    1    2    0    0  0.79370375266E+01  0.17158915507E+02  0.35996411729E+02  0.50528848466E+02  0.29999965399E+02 0.  0.
        -12    1    1    2    0    0 -0.79370375266E+01 -0.17158915507E+02 -0.35996411729E+02  0.40659151534E+02  0.00000000000E+00 0.  1.
         11    1    3    3    0    0  0.15495742043E+01  0.24808918844E+02  0.28003279500E+02  0.37444189101E+02  0.51100000000E-03 0. -1.
        -11    1    3    3    0    0  0.35348777734E+01 -0.37535732970E+01  0.58602491073E+01  0.78055873084E+01  0.51100000000E-03 0.  1.
         12    1    3    3    0    0  0.28525855489E+01 -0.38964300402E+01  0.21328831214E+01  0.52790720568E+01  0.00000000000E+00 0. -1.
</event>
<event>
 7    1  0.4878192E-011  0.5052885E+02  0.7816164E-02  0.1300439E+00
        -11   -1    0    0    0    0  0.00000000000E+00  0.00000000000E+00  0.45593999997E+02  0.45594000000E+02  0.51100000000E-03 0.  1.
         11   -1    0    0    0    0 -0.00000000000E+00 -0.00000000000E+00 -0.45593999997E+02  0.45594000000E+02  0.51100000000E-03 0. -1.
    9900012    2    1    2    0    0  0.35848313336E+02  0.55583395288E+01 -0.18362177470E+02  0.50528852581E+02  0.29999977907E+02 0.  0.
        -12    1    1    2    0    0 -0.35848313336E+02 -0.55583395288E+01  0.18362177470E+02  0.40659147419E+02  0.00000000000E+00 0.  1.
         11    1    3    3    0    0  0.17667276095E+02  0.59043644662E+01 -0.19691521882E+02  0.27106276001E+02  0.51100000000E-03 0. -1.
        -11    1    3    3    0    0 -0.15177751872E+01  0.49976557700E+00  0.32406425833E+01  0.36131941222E+01  0.51100000000E-03 0.  1.
         12    1    3    3    0    0  0.19698812428E+02 -0.84579051444E+00 -0.19112981718E+01  0.19809382458E+02  0.00000000000E+00 0. -1.
</event>
<event>
 7    1  0.4878192E-011  0.5052886E+02  0.7816164E-02  0.1300439E+00
        -11   -1    0    0    0    0  0.00000000000E+00  0.00000000000E+00  0.45593999997E+02  0.45594000000E+02  0.51100000000E-03 0. -1.
         11   -1    0    0    0    0 -0.00000000000E+00 -0.00000000000E+00 -0.45593999997E+02  0.45594000000E+02  0.51100000000E-03 0.  1.
    9900012    2    1    2    0    0  0.38486940739E+02  0.37181852021E+01  0.12573643670E+02  0.50528855595E+02  0.29999987067E+02 0.  0.
        -12    1    1    2    0    0 -0.38486940739E+02 -0.37181852021E+01 -0.12573643670E+02  0.40659144405E+02  0.00000000000E+00 0.  1.
         11    1    3    3    0    0  0.14977272565E+02  0.12307320816E+02  0.60216494646E+01  0.20298992628E+02  0.51100000000E-03 0. -1.
        -11    1    3    3    0    0  0.18014205617E+02 -0.39570955758E+01 -0.25643165840E+01  0.18621115144E+02  0.51100000000E-03 0.  1.
         12    1    3    3    0    0  0.54954625568E+01 -0.46320400383E+01  0.91163107891E+01  0.11608747824E+02  0.00000000000E+00 0. -1.
</event>
<event>
 7    1  0.4878192E-011  0.5052886E+02  0.7816164E-02  0.1300439E+00
        -11   -1    0    0    0    0  0.00000000000E+00  0.00000000000E+00  0.45593999997E+02  0.45594000000E+02  0.51100000000E-03 0. -1.
         11   -1    0    0    0    0 -0.00000000000E+00 -0.00000000000E+00 -0.45593999997E+02  0.45594000000E+02  0.51100000000E-03 0.  1.
    9900012    2    1    2    0    0 -0.21401502007E+02  0.33004464387E+02 -0.10288179179E+02  0.50528860948E+02  0.30000003338E+02 0.  0.
        -12    1    1    2    0    0  0.21401502007E+02 -0.33004464387E+02  0.10288179179E+02  0.40659139052E+02  0.00000000000E+00 0.  1.
         11    1    3    3    0    0 -0.31838291199E+01  0.24130273621E+02 -0.34748407382E+01  0.24586203272E+02  0.51100000000E-03 0. -1.
        -11    1    3    3    0    0 -0.14748391480E+02  0.49123882951E+01 -0.11142143878E+02  0.19125741305E+02  0.51100000000E-03 0.  1.
         12    1    3    3    0    0 -0.34692814071E+01  0.39618024706E+01  0.43288054376E+01  0.68169163713E+01  0.00000000000E+00 0. -1.
</event>
<event>
 7    1  0.4878192E-011  0.5052885E+02  0.7816164E-02  0.1300439E+00
        -11   -1    0    0    0    0  0.00000000000E+00  0.00000000000E+00  0.45593999997E+02  0.45594000000E+02  0.51100000000E-03 0. -1.
         11   -1    0    0    0    0 -0.00000000000E+00 -0.00000000000E+00 -0.45593999997E+02  0.45594000000E+02  0.51100000000E-03 0.  1.
    9900012    2    1    2    0    0 -0.37834584570E+02  0.94835461478E+01 -0.11479235904E+02  0.50528852271E+02  0.29999976962E+02 0.  0.
        -12    1    1    2    0    0  0.37834584570E+02 -0.94835461478E+01  0.11479235904E+02  0.40659147729E+02  0.00000000000E+00 0.  1.
         11    1    3    3    0    0 -0.11892573054E+02  0.54240385048E+01 -0.13120736616E+02  0.18520454021E+02  0.51100000000E-03 0.  1.
        -11    1    3    3    0    0 -0.28305577398E+02  0.42766236401E+01  0.37020866866E+01  0.28865215532E+02  0.51100000000E-03 0. -1.
        -12    1    3    3    0    0  0.23635658822E+01 -0.21711599719E+00 -0.20605859744E+01  0.31431827171E+01  0.00000000000E+00 0.  1.
</event>
<event>
 7    1  0.4878192E-011  0.5052885E+02  0.7816164E-02  0.1300439E+00
        -11   -1    0    0    0    0  0.00000000000E+00  0.00000000000E+00  0.45593999997E+02  0.45594000000E+02  0.51100000000E-03 0.  1.
         11   -1    0    0    0    0 -0.00000000000E+00 -0.00000000000E+00 -0.45593999997E+02  0.45594000000E+02  0.51100000000E-03 0. -1.
    9900012    2    1    2    0    0  0.39024925216E+02  0.11350716884E+02  0.11761375960E+01  0.50528845292E+02  0.29999955751E+02 0.  0.
        -12    1    1    2    0    0 -0.39024925216E+02 -0.11350716884E+02 -0.11761375960E+01  0.40659154708E+02  0.00000000000E+00 0.  1.
         11    1    3    3    0    0  0.19337103232E+02 -0.36004321708E+01  0.64949339116E+01  0.20714025200E+02  0.51100000000E-03 0. -1.
        -11    1    3    3    0    0 -0.18135479956E+01  0.48920670536E+01  0.85522030820E+00  0.52870292629E+01  0.51100000000E-03 0.  1.
         12    1    3    3    0    0  0.21501369979E+02  0.10059082001E+02 -0.61740166238E+01  0.24527790829E+02  0.00000000000E+00 0. -1.
</event>
<event>
 7    1  0.4878192E-011  0.5052886E+02  0.7816164E-02  0.1300439E+00
        -11   -1    0    0    0    0  0.00000000000E+00  0.00000000000E+00  0.45593999997E+02  0.45594000000E+02  0.51100000000E-03 0.  1.
         11   -1    0    0    0    0 -0.00000000000E+00 -0.00000000000E+00 -0.45593999997E+02  0.45594000000E+02  0.51100000000E-03 0. -1.
    9900012    2    1    2    0    0  0.26770251299E+02  0.29055171635E+02 -0.96081566467E+01  0.50528855549E+02  0.29999986927E+02 0.  0.
        -12    1    1    2    0    0 -0.26770251299E+02 -0.29055171635E+02  0.96081566467E+01  0.40659144451E+02  0.00000000000E+00 0.  1.
         11    1    3    3    0    0  0.59505441579E+01 -0.38193021672E+01 -0.20945325368E+01  0.73744906013E+01  0.51100000000E-03 0. -1.
        -11    1    3    3    0    0  0.20613028146E+00  0.12414509405E+02  0.20339920911E+01  0.12581719181E+02  0.51100000000E-03 0.  1.
         12    1    3    3    0    0  0.20613576860E+02  0.20459964397E+02 -0.95476162010E+01  0.30572645767E+02  0.00000000000E+00 0. -1.
</event>
<event>
 7    1  0.4878192E-011  0.5052888E+02  0.7816164E-02  0.1300439E+00
        -11   -1    0    0    0    0  0.00000000000E+00  0.00000000000E+00  0.45593999997E+02  0.45594000000E+02  0.51100000000E-03 0.  1.
         11   -1    0    0    0    0 -0.00000000000E+00 -0.00000000000E+00 -0.45593999997E+02  0.45594000000E+02  0.51100000000E-03 0. -1.
    9900012    2    1    2    0    0  0.19565370878E+02 -0.35271927172E+02 -0.51235982358E+01  0.50528882413E+02  0.30000068583E+02 0.  0.
        -12    1    1    2    0    0 -0.19565370878E+02  0.35271927172E+02  0.51235982358E+01  0.40659117587E+02  0.00000000000E+00 0.  1.
         11    1    3    3    0    0  0.47000007626E-01 -0.18371224625E+02 -0.73657941116E+00  0.18386045053E+02  0.51100000000E-03 0. -1.
        -11    1    3    3    0    0  0.15195024797E+02 -0.86191961099E+01  0.57177166412E+01  0.18381284068E+02  0.51100000000E-03 0.  1.
        -12    1    3    3    0    0  0.43233460740E+01 -0.82815064378E+01 -0.10104735466E+02  0.13761553291E+02  0.00000000000E+00 0.  1.
</event>
<event>
 7    1  0.4878192E-011  0.5052887E+02  0.7816164E-02  0.1300439E+00
        -11   -1    0    0    0    0  0.00000000000E+00  0.00000000000E+00  0.45593999997E+02  0.45594000000E+02  0.51100000000E-03 0.  1.
         11   -1    0    0    0    0 -0.00000000000E+00 -0.00000000000E+00 -0.45593999997E+02  0.45594000000E+02  0.51100000000E-03 0. -1.
    9900012    2    1    2    0    0 -0.38214968530E+02  0.10752238249E+02 -0.87846706622E+01  0.50528869589E+02  0.30000029602E+02 0.  0.
        -12    1    1    2    0    0  0.38214968530E+02 -0.10752238249E+02  0.87846706622E+01  0.40659130411E+02  0.00000000000E+00 0.  1.
         11    1    3    3    0    0 -0.16602218325E+02  0.36747096056E+01  0.87008902416E+01  0.19100854307E+02  0.51100000000E-03 0. -1.
        -11    1    3    3    0    0 -0.82181694540E+00  0.43800928174E+01 -0.61488398264E+01  0.75939994504E+01  0.51100000000E-03 0.  1.
         12    1    3    3    0    0 -0.20790933260E+02  0.26974358264E+01 -0.11336721077E+02  0.23834015832E+02  0.00000000000E+00 0. -1.
</event>
<event>
 7    1  0.4878192E-011  0.5052882E+02  0.7816164E-02  0.1300439E+00
        -11   -1    0    0    0    0  0.00000000000E+00  0.00000000000E+00  0.45593999997E+02  0.45594000000E+02  0.51100000000E-03 0. -1.
         11   -1    0    0    0    0 -0.00000000000E+00 -0.00000000000E+00 -0.45593999997E+02  0.45594000000E+02  0.51100000000E-03 0.  1.
    9900012    2    1    2    0    0  0.20427619163E+02 -0.16411231438E+02  0.31089437567E+02  0.50528815672E+02  0.29999865717E+02 0.  0.
        -12    1    1    2    0    0 -0.20427619163E+02  0.16411231438E+02 -0.31089437567E+02  0.40659184328E+02  0.00000000000E+00 0.  1.
         11    1    3    3    0    0  0.11804286696E+02 -0.33868455734E+01  0.37939877728E+01  0.12853258374E+02  0.51100000000E-03 0.  1.
        -11    1    3    3    0    0  0.72001583717E+01 -0.16597425894E+02  0.28400858534E+02  0.33673811674E+02  0.51100000000E-03 0. -1.
        -12    1    3    3    0    0  0.14231740955E+01  0.35730400301E+01 -0.11054087403E+01  0.40017456248E+01  0.00000000000E+00 0.  1.
</event>
<event>
 7    1  0.4878192E-011  0.5052887E+02  0.7816164E-02  0.1300439E+00
        -11   -1    0    0    0    0  0.00000000000E+00  0.00000000000E+00  0.45593999997E+02  0.45594000000E+02  0.51100000000E-03 0. -1.
         11   -1    0    0    0    0 -0.00000000000E+00 -0.00000000000E+00 -0.45593999997E+02  0.45594000000E+02  0.51100000000E-03 0.  1.
    9900012    2    1    2    0    0 -0.67886437832E+01  0.33381910935E+02  0.22197463967E+02  0.50528867341E+02  0.30000022768E+02 0.  0.
        -12    1    1    2    0    0  0.67886437832E+01 -0.33381910935E+02 -0.22197463967E+02  0.40659132659E+02  0.00000000000E+00 0.  1.
         11    1    3    3    0    0 -0.13718843247E+02  0.21619206486E+02  0.68899800717E+01  0.26515440309E+02  0.51100000000E-03 0. -1.
        -11    1    3    3    0    0  0.41201778011E+01  0.12143161360E+02  0.16534066356E+02  0.20923852022E+02  0.51100000000E-03 0.  1.
        -12    1    3    3    0    0  0.28100216623E+01 -0.38045691161E+00 -0.12265824612E+01  0.30895750093E+01  0.00000000000E+00 0.  1.
</event>
<event>
 7    1  0.4878192E-011  0.5052890E+02  0.7816164E-02  0.1300439E+00
        -11   -1    0    0    0    0  0.00000000000E+00  0.00000000000E+00  0.45593999997E+02  0.45594000000E+02  0.51100000000E-03 0. -1.
         11   -1    0    0    0    0 -0.00000000000E+00 -0.00000000000E+00 -0.45593999997E+02  0.45594000000E+02  0.51100000000E-03 0.  1.
    9900012    2    1    2    0    0  0.38161759132E+02  0.12733319022E+02  0.58910961086E+01  0.50528901550E+02  0.30000126752E+02 0.  0.
        -12    1    1    2    0    0 -0.38161759132E+02 -0.12733319022E+02 -0.58910961086E+01  0.40659098450E+02  0.00000000000E+00 0.  1.
         11    1    3    3    0    0  0.18477662919E+01 -0.56989396540E+01 -0.22610027752E+01  0.64034590075E+01  0.51100000000E-03 0. -1.
        -11    1    3    3    0    0  0.26171911970E+02  0.13987132049E+02 -0.11001450314E+01  0.29695440028E+02  0.51100000000E-03 0.  1.
         12    1    3    3    0    0  0.10142080871E+02  0.44451266263E+01  0.92522439151E+01  0.14430002515E+02  0.00000000000E+00 0. -1.
</event>
<event>
 7    1  0.4878192E-011  0.5052886E+02  0.7816164E-02  0.1300439E+00
        -11   -1    0    0    0    0  0.00000000000E+00  0.00000000000E+00  0.45593999997E+02  0.45594000000E+02  0.51100000000E-03 0.  1.
         11   -1    0    0    0    0 -0.00000000000E+00 -0.00000000000E+00 -0.45593999997E+02  0.45594000000E+02  0.51100000000E-03 0. -1.
    9900012    2    1    2    0    0 -0.47795211377E+01  0.40032817917E+02  0.52626559540E+01  0.50528857358E+02  0.29999992426E+02 0.  0.
        -12    1    1    2    0    0  0.47795211377E+01 -0.40032817917E+02 -0.52626559540E+01  0.40659142642E+02  0.00000000000E+00 0.  1.
         11    1    3    3    0    0  0.38979438272E+01  0.26119544023E+02  0.23347852629E+00  0.26409828824E+02  0.51100000000E-03 0. -1.
        -11    1    3    3    0    0 -0.28000132966E+01 -0.38901626087E+01  0.16452921984E+01  0.50675858416E+01  0.51100000000E-03 0.  1.
        -12    1    3    3    0    0 -0.58774516683E+01  0.17803436502E+02  0.33838852293E+01  0.19051442692E+02  0.00000000000E+00 0.  1.
</event>
<event>
 7    1  0.4878192E-011  0.5052887E+02  0.7816164E-02  0.1300439E+00
        -11   -1    0    0    0    0  0.00000000000E+00  0.00000000000E+00  0.45593999997E+02  0.45594000000E+02  0.51100000000E-03 0. -1.
         11   -1    0    0    0    0 -0.00000000000E+00 -0.00000000000E+00 -0.45593999997E+02  0.45594000000E+02  0.51100000000E-03 0.  1.
    9900012    2    1    2    0    0  0.30269027566E+02 -0.17830687431E+02  0.20469916524E+02  0.50528869088E+02  0.30000028080E+02 0.  0.
        -12    1    1    2    0    0 -0.30269027566E+02  0.17830687431E+02 -0.20469916524E+02  0.40659130912E+02  0.00000000000E+00 0.  1.
         11    1    3    3    0    0  0.31999201775E+02 -0.50723892994E+01  0.14815742866E+02  0.35625612758E+02  0.51100000000E-03 0. -1.
        -11    1    3    3    0    0 -0.24519139077E+01 -0.36691910490E+01  0.53121822040E+00  0.44448889551E+01  0.51100000000E-03 0.  1.
         12    1    3    3    0    0  0.72173969900E+00 -0.90891070821E+01  0.51229554367E+01  0.10458367375E+02  0.00000000000E+00 0. -1.
</event>
<event>
 7    1  0.4878192E-011  0.5052886E+02  0.7816164E-02  0.1300439E+00
        -11   -1    0    0    0    0  0.00000000000E+00  0.00000000000E+00  0.45593999997E+02  0.45594000000E+02  0.51100000000E-03 0. -1.
         11   -1    0    0    0    0 -0.00000000000E+00 -0.00000000000E+00 -0.45593999997E+02  0.45594000000E+02  0.51100000000E-03 0.  1.
    9900012    2    1    2    0    0  0.51912997536E+01 -0.26499104712E+02  0.30397590709E+02  0.50528860012E+02  0.30000000491E+02 0.  0.
        -12    1    1    2    0    0 -0.51912997536E+01  0.26499104712E+02 -0.30397590709E+02  0.40659139988E+02  0.00000000000E+00 0.  1.
         11    1    3    3    0    0 -0.30504660936E+01 -0.12703632423E+02  0.10512569945E+02  0.16769071150E+02  0.51100000000E-03 0. -1.
        -11    1    3    3    0    0  0.35832214729E+01  0.55824749509E+01  0.18640704448E+01  0.68904471252E+01  0.51100000000E-03 0.  1.
        -12    1    3    3    0    0  0.46585443744E+01 -0.19377947240E+02  0.18020950319E+02  0.26869341736E+02  0.00000000000E+00 0.  1.
</event>
<event>
 7    1  0.4878192E-011  0.5052886E+02  0.7816164E-02  0.1300439E+00
        -11   -1    0    0    0    0  0.00000000000E+00  0.00000000000E+00  0.45593999997E+02  0.45594000000E+02  0.51100000000E-03 0.  1.
         11   -1    0    0    0    0 -0.00000000000E+00 -0.00000000000E+00 -0.45593999997E+02  0.45594000000E+02  0.51100000000E-03 0. -1.
    9900012    2    1    2    0    0 -0.32457945627E+02 -0.12414218513E+02 -0.21107683187E+02  0.50528863940E+02  0.30000012433E+02 0.  0.
        -12    1    1    2    0    0  0.32457945627E+02  0.12414218513E+02  0.21107683187E+02  0.40659136060E+02  0.00000000000E+00 0.  1.
         11    1    3    3    0    0 -0.46384740752E+01 -0.30491105247E+00 -0.92867993001E+01  0.10385232496E+02  0.51100000000E-03 0. -1.
        -11    1    3    3    0    0 -0.18605958236E+02  0.22523327330E+01  0.10491648950E+01  0.18771132940E+02  0.51100000000E-03 0.  1.
        -12    1    3    3    0    0 -0.92135133159E+01 -0.14361640193E+02 -0.12870048782E+02  0.21372498504E+02  0.00000000000E+00 0.  1.
</event>
<event>
 7    1  0.4878192E-011  0.5052886E+02  0.7816164E-02  0.1300439E+00
        -11   -1    0    0    0    0  0.00000000000E+00  0.00000000000E+00  0.45593999997E+02  0.45594000000E+02  0.51100000000E-03 0.  1.
         11   -1    0    0    0    0 -0.00000000000E+00 -0.00000000000E+00 -0.45593999997E+02  0.45594000000E+02  0.51100000000E-03 0. -1.
    9900012    2    1    2    0    0 -0.13619942924E+02  0.19305658964E+02 -0.33090092513E+02  0.50528861595E+02  0.30000005305E+02 0.  0.
        -12    1    1    2    0    0  0.13619942924E+02 -0.19305658964E+02  0.33090092513E+02  0.40659138405E+02  0.00000000000E+00 0.  1.
         11    1    3    3    0    0 -0.32196912433E+01  0.90437963253E+01 -0.10309515818E+02  0.14086972008E+02  0.51100000000E-03 0. -1.
        -11    1    3    3    0    0 -0.56922526108E+01  0.51695969694E+01  0.40770051047E+01  0.87033581734E+01  0.51100000000E-03 0.  1.
        -12    1    3    3    0    0 -0.47079990701E+01  0.50922656695E+01 -0.26857581800E+02  0.27738531414E+02  0.00000000000E+00 0.  1.
</event>
<event>
 7    1  0.4878192E-011  0.5052886E+02  0.7816164E-02  0.1300439E+00
        -11   -1    0    0    0    0  0.00000000000E+00  0.00000000000E+00  0.45593999997E+02  0.45594000000E+02  0.51100000000E-03 0. -1.
         11   -1    0    0    0    0 -0.00000000000E+00 -0.00000000000E+00 -0.45593999997E+02  0.45594000000E+02  0.51100000000E-03 0.  1.
    9900012    2    1    2    0    0  0.15738431539E+02 -0.31659054886E+02  0.20079140201E+02  0.50528857673E+02  0.29999993382E+02 0.  0.
        -12    1    1    2    0    0 -0.15738431539E+02  0.31659054886E+02 -0.20079140201E+02  0.40659142327E+02  0.00000000000E+00 0.  1.
         11    1    3    3    0    0  0.27393248438E+01 -0.20660151441E+02  0.22125927046E+02  0.30395762962E+02  0.51100000000E-03 0. -1.
        -11    1    3    3    0    0  0.14565281642E+02 -0.10229232248E+02 -0.50676507007E+00  0.17805657325E+02  0.51100000000E-03 0.  1.
        -12    1    3    3    0    0 -0.15661749471E+01 -0.76967119724E+00 -0.15400217745E+01  0.23274373853E+01  0.00000000000E+00 0.  1.
</event>
<event>
 7    1  0.4878192E-011  0.5052888E+02  0.7816164E-02  0.1300439E+00
        -11   -1    0    0    0    0  0.00000000000E+00  0.00000000000E+00  0.45593999997E+02  0.45594000000E+02  0.51100000000E-03 0.  1.
         11   -1    0    0    0    0 -0.00000000000E+00 -0.00000000000E+00 -0.45593999997E+02  0.45594000000E+02  0.51100000000E-03 0. -1.
    9900012    2    1    2    0    0 -0.11181458551E+02 -0.37437744591E+02 -0.11249630307E+02  0.50528881497E+02  0.30000065798E+02 0.  0.
        -12    1    1    2    0    0  0.11181458551E+02  0.37437744591E+02  0.11249630307E+02  0.40659118503E+02  0.00000000000E+00 0.  1.
         11    1    3    3    0    0 -0.10373608150E+02 -0.14280833976E+02 -0.10130324945E+02  0.20351350050E+02  0.51100000000E-03 0. -1.
        -11    1    3    3    0    0  0.89740292988E+01 -0.87787570350E+01  0.12955117280E+01  0.12620543880E+02  0.51100000000E-03 0.  1.
         12    1    3    3    0    0 -0.97818796998E+01 -0.14378153581E+02 -0.24148170891E+01  0.17556987567E+02  0.00000000000E+00 0. -1.
</event>
<event>
 7    1  0.4878192E-011  0.5052884E+02  0.7816164E-02  0.1300439E+00
        -11   -1    0    0    0    0  0.00000000000E+00  0.00000000000E+00  0.45593999997E+02  0.45594000000E+02  0.51100000000E-03 0.  1.
         11   -1    0    0    0    0 -0.00000000000E+00 -0.00000000000E+00 -0.45593999997E+02  0.45594000000E+02  0.51100000000E-03 0. -1.
    9900012    2    1    2    0    0  0.16380619487E+02 -0.56341006607E+01 -0.36784505760E+02  0.50528835608E+02  0.29999926314E+02 0.  0.
        -12    1    1    2    0    0 -0.16380619487E+02  0.56341006607E+01  0.36784505760E+02  0.40659164392E+02  0.00000000000E+00 0.  1.
         11    1    3    3    0    0  0.10319535222E+02 -0.11558908865E+02 -0.37317317877E+01  0.15938224611E+02  0.51100000000E-03 0. -1.
        -11    1    3    3    0    0 -0.43365558733E+00  0.28513055551E+01 -0.12140411712E+02  0.12478285032E+02  0.51100000000E-03 0.  1.
         12    1    3    3    0    0  0.64947398525E+01  0.30735026494E+01 -0.20912362261E+02  0.22112325966E+02  0.00000000000E+00 0. -1.
</event>
<event>
 7    1  0.4878192E-011  0.5052886E+02  0.7816164E-02  0.1300439E+00
        -11   -1    0    0    0    0  0.00000000000E+00  0.00000000000E+00  0.45593999997E+02  0.45594000000E+02  0.51100000000E-03 0. -1.
         11   -1    0    0    0    0 -0.00000000000E+00 -0.00000000000E+00 -0.45593999997E+02  0.45594000000E+02  0.51100000000E-03 0.  1.
    9900012    2    1    2    0    0  0.13007870837E+02 -0.36363907308E+02  0.12713282136E+02  0.50528855873E+02  0.29999987913E+02 0.  0.
        -12    1    1    2    0    0 -0.13007870837E+02  0.36363907308E+02 -0.12713282136E+02  0.40659144127E+02  0.00000000000E+00 0.  1.
         11    1    3    3    0    0  0.30493502211E+01 -0.25957836594E+02 -0.32552936588E+01  0.26338275465E+02  0.51100000000E-03 0. -1.
        -11    1    3    3    0    0  0.11168341561E+02 -0.88103897942E+01  0.16807713542E+02  0.22019401816E+02  0.51100000000E-03 0.  1.
         12    1    3    3    0    0 -0.12098209455E+01 -0.15956809199E+01 -0.83913774783E+00  0.21711785919E+01  0.00000000000E+00 0. -1.
</event>
<event>
 7    1  0.4878192E-011  0.5052885E+02  0.7816164E-02  0.1300439E+00
        -11   -1    0    0    0    0  0.00000000000E+00  0.00000000000E+00  0.45593999997E+02  0.45594000000E+02  0.51100000000E-03 0.  1.
         11   -1    0    0    0    0 -0.00000000000E+00 -0.00000000000E+00 -0.45593999997E+02  0.45594000000E+02  0.51100000000E-03 0. -1.
    9900012    2    1    2    0    0  0.10913823418E+02 -0.30671912585E+02 -0.24357521199E+02  0.50528848482E+02  0.29999965444E+02 0.  0.
        -12    1    1    2    0    0 -0.10913823418E+02  0.30671912585E+02  0.24357521199E+02  0.40659151518E+02  0.00000000000E+00 0.  1.
         11    1    3    3    0    0  0.32674214755E+01 -0.20333624989E+02 -0.14352633690E+02  0.25102399137E+02  0.51100000000E-03 0. -1.
        -11    1    3    3    0    0 -0.54787488764E+01  0.55005444395E+00  0.27666893712E+00  0.55132381686E+01  0.51100000000E-03 0.  1.
         12    1    3    3    0    0  0.13125150819E+02 -0.10888342040E+02 -0.10281556446E+02  0.19913211176E+02  0.00000000000E+00 0. -1.
</event>
<event>
 7    1  0.4878192E-011  0.5052884E+02  0.7816164E-02  0.1300439E+00
        -11   -1    0    0    0    0  0.00000000000E+00  0.00000000000E+00  0.45593999997E+02  0.45594000000E+02  0.51100000000E-03 0.  1.
         11   -1    0    0    0    0 -0.00000000000E+00 -0.00000000000E+00 -0.45593999997E+02  0.45594000000E+02  0.51100000000E-03 0. -1.
    9900012    2    1    2    0    0 -0.24992868901E+02  0.32028792580E+02  0.16371314834E+01  0.50528840521E+02  0.29999941247E+02 0.  0.
        -12    1    1    2    0    0  0.24992868901E+02 -0.32028792580E+02 -0.16371314834E+01  0.40659159479E+02  0.00000000000E+00 0.  1.
         11    1    3    3    0    0 -0.13312362914E+02  0.23344500805E+02 -0.24606638442E+01  0.26985914678E+02  0.51100000000E-03 0. -1.
        -11    1    3    3    0    0 -0.10380849608E+02  0.70024762411E+01  0.10784961053E+02  0.16526103511E+02  0.51100000000E-03 0.  1.
         12    1    3    3    0    0 -0.12996563792E+01  0.16818155345E+01 -0.66871657256E+01  0.70168223319E+01  0.00000000000E+00 0. -1.
</event>
<event>
 7    1  0.4878192E-011  0.5052885E+02  0.7816164E-02  0.1300439E+00
        -11   -1    0    0    0    0  0.00000000000E+00  0.00000000000E+00  0.45593999997E+02  0.45594000000E+02  0.51100000000E-03 0.  1.
         11   -1    0    0    0    0 -0.00000000000E+00 -0.00000000000E+00 -0.45593999997E+02  0.45594000000E+02  0.51100000000E-03 0. -1.
    9900012    2    1    2    0    0  0.23842250828E+01 -0.11237363745E+02 -0.39002612287E+02  0.50528848037E+02  0.29999964093E+02 0.  0.
        -12    1    1    2    0    0 -0.23842250828E+01  0.11237363745E+02  0.39002612287E+02  0.40659151963E+02  0.00000000000E+00 0.  1.
         11    1    3    3    0    0 -0.11003026217E+02 -0.43245705110E+01 -0.31399681410E+02  0.33551579530E+02  0.51100000000E-03 0. -1.
        -11    1    3    3    0    0  0.72282912512E+01 -0.47361404728E+01 -0.40990861635E+01  0.95646081272E+01  0.51100000000E-03 0.  1.
         12    1    3    3    0    0  0.61589600490E+01 -0.21766527616E+01 -0.35038447128E+01  0.74126603794E+01  0.00000000000E+00 0. -1.
</event>
<event>
 7    1  0.4878192E-011  0.5052886E+02  0.7816164E-02  0.1300439E+00
        -11   -1    0    0    0    0  0.00000000000E+00  0.00000000000E+00  0.45593999997E+02  0.45594000000E+02  0.51100000000E-03 0.  1.
         11   -1    0    0    0    0 -0.00000000000E+00 -0.00000000000E+00 -0.45593999997E+02  0.45594000000E+02  0.51100000000E-03 0. -1.
    9900012    2    1    2    0    0 -0.26735132439E+02 -0.20767881446E+02 -0.22518729987E+02  0.50528863185E+02  0.30000010137E+02 0.  0.
        -12    1    1    2    0    0  0.26735132439E+02  0.20767881446E+02  0.22518729987E+02  0.40659136815E+02  0.00000000000E+00 0.  1.
         11    1    3    3    0    0  0.22456891305E+00 -0.86287903939E+01  0.26094384979E+01  0.90175176404E+01  0.51100000000E-03 0. -1.
        -11    1    3    3    0    0 -0.19621749643E+02 -0.25126107697E+01 -0.10089129537E+02  0.22206233517E+02  0.51100000000E-03 0.  1.
         12    1    3    3    0    0 -0.73379517087E+01 -0.96264802828E+01 -0.15039038948E+02  0.19305112028E+02  0.00000000000E+00 0. -1.
</event>
<event>
 7    1  0.6401539E-011  0.5052886E+02  0.7816164E-02  0.1300439E+00
        -11   -1    0    0    0    0  0.00000000000E+00  0.00000000000E+00  0.45593999997E+02  0.45594000000E+02  0.51100000000E-03 0. -1.
         11   -1    0    0    0    0 -0.00000000000E+00 -0.00000000000E+00 -0.45593999997E+02  0.45594000000E+02  0.51100000000E-03 0.  1.
    9900012    2    1    2    0    0  0.23770077644E+02  0.22401796239E+02  0.24213811772E+02  0.50528859005E+02  0.29999997431E+02 0.  0.
        -12    1    1    2    0    0 -0.23770077644E+02 -0.22401796239E+02 -0.24213811772E+02  0.40659140995E+02  0.00000000000E+00 0.  1.
         11    1    3    3    0    0  0.14823751379E+02  0.17549785184E+02  0.23789183663E+02  0.33070588512E+02  0.51100000000E-03 0. -1.
        -11    1    3    3    0    0  0.42937441583E+01  0.88683853786E+01 -0.31544512165E+01  0.10345775025E+02  0.51100000000E-03 0.  1.
         12    1    3    3    0    0  0.46525821066E+01 -0.40163743230E+01  0.35790793257E+01  0.71124954679E+01  0.00000000000E+00 0. -1.
</event>
<event>
 7    1  0.4878192E-011  0.5052886E+02  0.7816164E-02  0.1300439E+00
        -11   -1    0    0    0    0  0.00000000000E+00  0.00000000000E+00  0.45593999997E+02  0.45594000000E+02  0.51100000000E-03 0.  1.
         11   -1    0    0    0    0 -0.00000000000E+00 -0.00000000000E+00 -0.45593999997E+02  0.45594000000E+02  0.51100000000E-03 0. -1.
    9900012    2    1    2    0    0  0.76663939213E+01  0.37656655220E+02 -0.13280388851E+02  0.50528855811E+02  0.29999987724E+02 0.  0.
        -12    1    1    2    0    0 -0.76663939213E+01 -0.37656655220E+02  0.13280388851E+02  0.40659144189E+02  0.00000000000E+00 0.  1.
         11    1    3    3    0    0  0.44858639416E+01 -0.22817052055E+01 -0.33242646067E+01  0.60315743703E+01  0.51100000000E-03 0.  1.
        -11    1    3    3    0    0 -0.19921674446E+01  0.32593059124E+02 -0.12801508422E+02  0.35073563439E+02  0.51100000000E-03 0. -1.
         12    1    3    3    0    0  0.51726974243E+01  0.73453013016E+01  0.28453841781E+01  0.94237180017E+01  0.00000000000E+00 0. -1.
</event>
<event>
 7    1  0.4878192E-011  0.5052886E+02  0.7816164E-02  0.1300439E+00
        -11   -1    0    0    0    0  0.00000000000E+00  0.00000000000E+00  0.45593999997E+02  0.45594000000E+02  0.51100000000E-03 0.  1.
         11   -1    0    0    0    0 -0.00000000000E+00 -0.00000000000E+00 -0.45593999997E+02  0.45594000000E+02  0.51100000000E-03 0. -1.
    9900012    2    1    2    0    0 -0.18723441469E+02  0.36091201926E+02 -0.15458469393E+00  0.50528855723E+02  0.29999987456E+02 0.  0.
        -12    1    1    2    0    0  0.18723441469E+02 -0.36091201926E+02  0.15458469393E+00  0.40659144277E+02  0.00000000000E+00 0.  1.
         11    1    3    3    0    0 -0.14449626283E+01  0.27235783181E+02  0.44051247038E+01  0.27627539275E+02  0.51100000000E-03 0. -1.
        -11    1    3    3    0    0 -0.18766223321E+02  0.70270987186E+01 -0.36165590767E+01  0.20362483983E+02  0.51100000000E-03 0.  1.
        -12    1    3    3    0    0  0.14877444803E+01  0.18283200256E+01 -0.94315032110E+00  0.25388324645E+01  0.00000000000E+00 0.  1.
</event>
<event>
 7    1  0.4878192E-011  0.5052886E+02  0.7816164E-02  0.1300439E+00
        -11   -1    0    0    0    0  0.00000000000E+00  0.00000000000E+00  0.45593999997E+02  0.45594000000E+02  0.51100000000E-03 0.  1.
         11   -1    0    0    0    0 -0.00000000000E+00 -0.00000000000E+00 -0.45593999997E+02  0.45594000000E+02  0.51100000000E-03 0. -1.
    9900012    2    1    2    0    0  0.22134881311E+02  0.33987094604E+02 -0.28443107415E+01  0.50528859898E+02  0.30000000145E+02 0.  0.
        -12    1    1    2    0    0 -0.22134881311E+02 -0.33987094604E+02  0.28443107415E+01  0.40659140102E+02  0.00000000000E+00 0.  1.
         11    1    3    3    0    0  0.16783092953E+02  0.94206068955E+01  0.11248152385E+01  0.19279140358E+02  0.51100000000E-03 0. -1.
        -11    1    3    3    0    0  0.76889443916E+00  0.23881023390E+02 -0.79079272999E+01  0.25168031136E+02  0.51100000000E-03 0.  1.
        -12    1    3    3    0    0  0.45828939189E+01  0.68546431783E+00  0.39388013198E+01  0.60816884038E+01  0.00000000000E+00 0.  1.
</event>
<event>
 7    1  0.4878192E-011  0.5052888E+02  0.7816164E-02  0.1300439E+00
        -11   -1    0    0    0    0  0.00000000000E+00  0.00000000000E+00  0.45593999997E+02  0.45594000000E+02  0.51100000000E-03 0.  1.
         11   -1    0    0    0    0 -0.00000000000E+00 -0.00000000000E+00 -0.45593999997E+02  0.45594000000E+02  0.51100000000E-03 0. -1.
    9900012    2    1    2    0    0  0.29279557204E+02  0.18985156555E+00 -0.28210562188E+02  0.50528876391E+02  0.30000050279E+02 0.  0.
        -12    1    1    2    0    0 -0.29279557204E+02 -0.18985156555E+00  0.28210562188E+02  0.40659123609E+02  0.00000000000E+00 0.  1.
         11    1    3    3    0    0  0.15024050651E+02 -0.43833825138E+01 -0.42613327446E+01  0.16220206449E+02  0.51100000000E-03 0. -1.
        -11    1    3    3    0    0 -0.41697092802E+01  0.41853121706E+01 -0.79405948903E+01  0.98972905848E+01  0.51100000000E-03 0.  1.
        -12    1    3    3    0    0  0.18425215833E+02  0.38792190872E+00 -0.16008634553E+02  0.24411379358E+02  0.00000000000E+00 0.  1.
</event>
<event>
 7    1  0.4878192E-011  0.5052885E+02  0.7816164E-02  0.1300439E+00
        -11   -1    0    0    0    0  0.00000000000E+00  0.00000000000E+00  0.45593999997E+02  0.45594000000E+02  0.51100000000E-03 0.  1.
         11   -1    0    0    0    0 -0.00000000000E+00 -0.00000000000E+00 -0.45593999997E+02  0.45594000000E+02  0.51100000000E-03 0. -1.
    9900012    2    1    2    0    0 -0.46680435385E+00  0.25901844971E+02 -0.31337569440E+02  0.50528846816E+02  0.29999960381E+02 0.  0.
        -12    1    1    2    0    0  0.46680435385E+00 -0.25901844971E+02  0.31337569440E+02  0.40659153184E+02  0.00000000000E+00 0.  1.
         11    1    3    3    0    0 -0.10709106260E+02  0.59646101806E+01 -0.17663380088E+02  0.21500151810E+02  0.51100000000E-03 0. -1.
        -11    1    3    3    0    0  0.38566516365E+01  0.17553611888E+01  0.15061796589E+01  0.44970692873E+01  0.51100000000E-03 0.  1.
         12    1    3    3    0    0  0.63856502692E+01  0.18181873602E+02 -0.15180369012E+02  0.24531625718E+02  0.00000000000E+00 0. -1.
</event>
<event>
 7    1  0.4878192E-011  0.5052884E+02  0.7816164E-02  0.1300439E+00
        -11   -1    0    0    0    0  0.00000000000E+00  0.00000000000E+00  0.45593999997E+02  0.45594000000E+02  0.51100000000E-03 0.  1.
         11   -1    0    0    0    0 -0.00000000000E+00 -0.00000000000E+00 -0.45593999997E+02  0.45594000000E+02  0.51100000000E-03 0. -1.
    9900012    2    1    2    0    0  0.48611753026E+01 -0.17154428694E+02  0.36541231635E+02  0.50528842870E+02  0.29999948388E+02 0.  0.
        -12    1    1    2    0    0 -0.48611753026E+01  0.17154428694E+02 -0.36541231635E+02  0.40659157130E+02  0.00000000000E+00 0.  1.
         11    1    3    3    0    0 -0.39711688608E+01  0.59758553409E+01  0.61424101244E+01  0.94451168111E+01  0.51100000000E-03 0. -1.
        -11    1    3    3    0    0  0.10113198683E+02 -0.21785787343E+02  0.30922074696E+02  0.39154463622E+02  0.51100000000E-03 0.  1.
        -12    1    3    3    0    0 -0.12808545197E+01 -0.13444966918E+01 -0.52325318586E+00  0.19292624371E+01  0.00000000000E+00 0.  1.
</event>
<event>
 7    1  0.4878192E-011  0.5052887E+02  0.7816164E-02  0.1300439E+00
        -11   -1    0    0    0    0  0.00000000000E+00  0.00000000000E+00  0.45593999997E+02  0.45594000000E+02  0.51100000000E-03 0. -1.
         11   -1    0    0    0    0 -0.00000000000E+00 -0.00000000000E+00 -0.45593999997E+02  0.45594000000E+02  0.51100000000E-03 0.  1.
    9900012    2    1    2    0    0 -0.39670332311E+02 -0.65955223096E+01 -0.59940210773E+01  0.50528874716E+02  0.30000045186E+02 0.  0.
        -12    1    1    2    0    0  0.39670332311E+02  0.65955223096E+01  0.59940210773E+01  0.40659125284E+02  0.00000000000E+00 0.  1.
         11    1    3    3    0    0 -0.21081147913E+02 -0.98011114659E+01 -0.15710250252E+02  0.28058662594E+02  0.51100000000E-03 0. -1.
        -11    1    3    3    0    0 -0.12816830046E+02  0.55840664059E+01  0.73397707572E+01  0.15790033726E+02  0.51100000000E-03 0.  1.
         12    1    3    3    0    0 -0.57723543519E+01 -0.23784772495E+01  0.23764584174E+01  0.66801783958E+01  0.00000000000E+00 0. -1.
</event>
<event>
 7    1  0.4878192E-011  0.5052886E+02  0.7816164E-02  0.1300439E+00
        -11   -1    0    0    0    0  0.00000000000E+00  0.00000000000E+00  0.45593999997E+02  0.45594000000E+02  0.51100000000E-03 0. -1.
         11   -1    0    0    0    0 -0.00000000000E+00 -0.00000000000E+00 -0.45593999997E+02  0.45594000000E+02  0.51100000000E-03 0.  1.
    9900012    2    1    2    0    0 -0.20521357922E+02  0.25699317451E+02 -0.23907836627E+02  0.50528859569E+02  0.29999999145E+02 0.  0.
        -12    1    1    2    0    0  0.20521357922E+02 -0.25699317451E+02  0.23907836627E+02  0.40659140431E+02  0.00000000000E+00 0.  1.
         11    1    3    3    0    0 -0.29943233667E+01  0.10545965771E+02 -0.84894944326E+01  0.13865600688E+02  0.51100000000E-03 0. -1.
        -11    1    3    3    0    0 -0.13924892138E+02  0.11318769283E+02  0.23815009774E+01  0.18102174077E+02  0.51100000000E-03 0.  1.
        -12    1    3    3    0    0 -0.36021424179E+01  0.38345823970E+01 -0.17799843171E+02  0.18561084804E+02  0.00000000000E+00 0.  1.
</event>
<event>
 7    1  0.4878192E-011  0.5052886E+02  0.7816164E-02  0.1300439E+00
        -11   -1    0    0    0    0  0.00000000000E+00  0.00000000000E+00  0.45593999997E+02  0.45594000000E+02  0.51100000000E-03 0.  1.
         11   -1    0    0    0    0 -0.00000000000E+00 -0.00000000000E+00 -0.45593999997E+02  0.45594000000E+02  0.51100000000E-03 0. -1.
    9900012    2    1    2    0    0  0.39987796653E+02 -0.50682324262E+01  0.53342938844E+01  0.50528861392E+02  0.30000004686E+02 0.  0.
        -12    1    1    2    0    0 -0.39987796653E+02  0.50682324262E+01 -0.53342938844E+01  0.40659138608E+02  0.00000000000E+00 0.  1.
         11    1    3    3    0    0  0.34844091896E+02 -0.10148276402E+02  0.19040479961E+01  0.36341761831E+02  0.51100000000E-03 0. -1.
        -11    1    3    3    0    0 -0.45992631233E+00  0.15993938082E+01  0.66440049884E+01  0.68492623919E+01  0.51100000000E-03 0.  1.
         12    1    3    3    0    0  0.56036310701E+01  0.34806501675E+01 -0.32137591001E+01  0.73378371685E+01  0.00000000000E+00 0. -1.
</event>
<event>
 7    1  0.4878192E-011  0.5052886E+02  0.7816164E-02  0.1300439E+00
        -11   -1    0    0    0    0  0.00000000000E+00  0.00000000000E+00  0.45593999997E+02  0.45594000000E+02  0.51100000000E-03 0.  1.
         11   -1    0    0    0    0 -0.00000000000E+00 -0.00000000000E+00 -0.45593999997E+02  0.45594000000E+02  0.51100000000E-03 0. -1.
    9900012    2    1    2    0    0 -0.31286284227E+02  0.16565984614E+02 -0.19997561748E+02  0.50528857082E+02  0.29999991588E+02 0.  0.
        -12    1    1    2    0    0  0.31286284227E+02 -0.16565984614E+02  0.19997561748E+02  0.40659142918E+02  0.00000000000E+00 0.  1.
         11    1    3    3    0    0 -0.25492956493E+02  0.12483973644E+02 -0.48179430833E+01  0.28791543976E+02  0.51100000000E-03 0. -1.
        -11    1    3    3    0    0 -0.57031695485E+01  0.65172541626E+01 -0.16737295481E+02  0.18845100291E+02  0.51100000000E-03 0.  1.
         12    1    3    3    0    0 -0.90158184925E-01 -0.24352431921E+01  0.15576768165E+01  0.28922128151E+01  0.00000000000E+00 0. -1.
</event>
<event>
 7    1  0.4878192E-011  0.5052886E+02  0.7816164E-02  0.1300439E+00
        -11   -1    0    0    0    0  0.00000000000E+00  0.00000000000E+00  0.45593999997E+02  0.45594000000E+02  0.51100000000E-03 0.  1.
         11   -1    0    0    0    0 -0.00000000000E+00 -0.00000000000E+00 -0.45593999997E+02  0.45594000000E+02  0.51100000000E-03 0. -1.
    9900012    2    1    2    0    0  0.11471257338E+01  0.23869280468E+02 -0.32895400792E+02  0.50528857846E+02  0.29999993907E+02 0.  0.
        -12    1    1    2    0    0 -0.11471257338E+01 -0.23869280468E+02  0.32895400792E+02  0.40659142154E+02  0.00000000000E+00 0.  1.
         11    1    3    3    0    0  0.36172507429E+00  0.18999242004E+02 -0.11776172429E+02  0.22355766127E+02  0.51100000000E-03 0.  1.
        -11    1    3    3    0    0  0.74261633146E+01 -0.25223813775E+01 -0.52108515578E+01  0.94161182877E+01  0.51100000000E-03 0. -1.
         12    1    3    3    0    0 -0.66407626552E+01  0.73924198410E+01 -0.15908376804E+02  0.18756973431E+02  0.00000000000E+00 0. -1.
</event>
<event>
 7    1  0.4878192E-011  0.5052886E+02  0.7816164E-02  0.1300439E+00
        -11   -1    0    0    0    0  0.00000000000E+00  0.00000000000E+00  0.45593999997E+02  0.45594000000E+02  0.51100000000E-03 0. -1.
         11   -1    0    0    0    0 -0.00000000000E+00 -0.00000000000E+00 -0.45593999997E+02  0.45594000000E+02  0.51100000000E-03 0.  1.
    9900012    2    1    2    0    0 -0.23763403538E+02 -0.73883445495E+01  0.32153982481E+02  0.50528861147E+02  0.30000003941E+02 0.  0.
        -12    1    1    2    0    0  0.23763403538E+02  0.73883445495E+01 -0.32153982481E+02  0.40659138853E+02  0.00000000000E+00 0.  1.
         11    1    3    3    0    0 -0.11465005784E+02  0.77255861746E+01  0.22575448067E+02  0.26472285414E+02  0.51100000000E-03 0. -1.
        -11    1    3    3    0    0 -0.79829813934E+01 -0.14007783786E+02  0.34631606242E+01  0.16490587627E+02  0.51100000000E-03 0.  1.
        -12    1    3    3    0    0 -0.43154163610E+01 -0.11061469384E+01  0.61153737899E+01  0.75659881053E+01  0.00000000000E+00 0.  1.
</event>
<event>
 7    1  0.4878192E-011  0.5052883E+02  0.7816164E-02  0.1300439E+00
        -11   -1    0    0    0    0  0.00000000000E+00  0.00000000000E+00  0.45593999997E+02  0.45594000000E+02  0.51100000000E-03 0.  1.
         11   -1    0    0    0    0 -0.00000000000E+00 -0.00000000000E+00 -0.45593999997E+02  0.45594000000E+02  0.51100000000E-03 0. -1.
    9900012    2    1    2    0    0  0.60658557223E+01  0.39678601377E+01 -0.40007866368E+02  0.50528832632E+02  0.29999917269E+02 0.  0.
        -12    1    1    2    0    0 -0.60658557223E+01 -0.39678601377E+01  0.40007866368E+02  0.40659167368E+02  0.00000000000E+00 0.  1.
         11    1    3    3    0    0  0.28110893626E+01  0.11522252366E+02 -0.37928483301E+02  0.39739581890E+02  0.51100000000E-03 0. -1.
        -11    1    3    3    0    0  0.35306104414E+00 -0.36215055401E+01  0.22347254188E+01  0.42701232343E+01  0.51100000000E-03 0.  1.
         12    1    3    3    0    0  0.29017053156E+01 -0.39328866879E+01 -0.43141084856E+01  0.65191275079E+01  0.00000000000E+00 0. -1.
</event>
<event>
 7    1  0.4878192E-011  0.5052887E+02  0.7816164E-02  0.1300439E+00
        -11   -1    0    0    0    0  0.00000000000E+00  0.00000000000E+00  0.45593999997E+02  0.45594000000E+02  0.51100000000E-03 0.  1.
         11   -1    0    0    0    0 -0.00000000000E+00 -0.00000000000E+00 -0.45593999997E+02  0.45594000000E+02  0.51100000000E-03 0. -1.
    9900012    2    1    2    0    0  0.12270112743E+02 -0.96107956068E+01 -0.37553190016E+02  0.50528866471E+02  0.30000020126E+02 0.  0.
        -12    1    1    2    0    0 -0.12270112743E+02  0.96107956068E+01  0.37553190016E+02  0.40659133529E+02  0.00000000000E+00 0.  1.
         11    1    3    3    0    0 -0.16171181993E+01  0.64857784606E+00 -0.18816382290E+02  0.18896877183E+02  0.51100000000E-03 0. -1.
        -11    1    3    3    0    0  0.31158210786E+01 -0.14477562228E+01  0.38136789318E+01  0.51330776665E+01  0.51100000000E-03 0.  1.
         12    1    3    3    0    0  0.10771409864E+02 -0.88116172300E+01 -0.22550486658E+02  0.26498911622E+02  0.00000000000E+00 0. -1.
</event>
<event>
 7    1  0.4878192E-011  0.5052886E+02  0.7816164E-02  0.1300439E+00
        -11   -1    0    0    0    0  0.00000000000E+00  0.00000000000E+00  0.45593999997E+02  0.45594000000E+02  0.51100000000E-03 0.  1.
         11   -1    0    0    0    0 -0.00000000000E+00 -0.00000000000E+00 -0.45593999997E+02  0.45594000000E+02  0.51100000000E-03 0. -1.
    9900012    2    1    2    0    0 -0.18496930690E+01  0.27684220336E+02 -0.29720844483E+02  0.50528855680E+02  0.29999987326E+02 0.  0.
        -12    1    1    2    0    0  0.18496930690E+01 -0.27684220336E+02  0.29720844483E+02  0.40659144320E+02  0.00000000000E+00 0.  1.
         11    1    3    3    0    0 -0.85874815686E+01  0.24820187985E+02 -0.17193380803E+02  0.31391064254E+02  0.51100000000E-03 0. -1.
        -11    1    3    3    0    0  0.91528465992E+00 -0.46733960974E+01 -0.56534541502E+01  0.73918821136E+01  0.51100000000E-03 0.  1.
         12    1    3    3    0    0  0.58225038397E+01  0.75374284484E+01 -0.68740095291E+01  0.11745909313E+02  0.00000000000E+00 0. -1.
</event>
<event>
 7    1  0.4878192E-011  0.5052881E+02  0.7816164E-02  0.1300439E+00
        -11   -1    0    0    0    0  0.00000000000E+00  0.00000000000E+00  0.45593999997E+02  0.45594000000E+02  0.51100000000E-03 0.  1.
         11   -1    0    0    0    0 -0.00000000000E+00 -0.00000000000E+00 -0.45593999997E+02  0.45594000000E+02  0.51100000000E-03 0. -1.
    9900012    2    1    2    0    0  0.93206433157E+01 -0.10452604525E+01 -0.39562640036E+02  0.50528813487E+02  0.29999859075E+02 0.  0.
        -12    1    1    2    0    0 -0.93206433157E+01  0.10452604525E+01  0.39562640036E+02  0.40659186513E+02  0.00000000000E+00 0.  1.
         11    1    3    3    0    0 -0.10747025181E+01  0.47138699612E+01 -0.15273463753E+02  0.16020432291E+02  0.51100000000E-03 0. -1.
        -11    1    3    3    0    0  0.14478070824E+01 -0.78688054520E+01  0.55286089644E+00  0.80199688292E+01  0.51100000000E-03 0.  1.
        -12    1    3    3    0    0  0.89475387514E+01  0.21096750383E+01 -0.24842037180E+02  0.26488412367E+02  0.00000000000E+00 0.  1.
</event>
<event>
 7    1  0.4878192E-011  0.5052885E+02  0.7816164E-02  0.1300439E+00
        -11   -1    0    0    0    0  0.00000000000E+00  0.00000000000E+00  0.45593999997E+02  0.45594000000E+02  0.51100000000E-03 0. -1.
         11   -1    0    0    0    0 -0.00000000000E+00 -0.00000000000E+00 -0.45593999997E+02  0.45594000000E+02  0.51100000000E-03 0.  1.
    9900012    2    1    2    0    0  0.36817042611E+02 -0.92654332458E+01 -0.14554157923E+02  0.50528851058E+02  0.29999973275E+02 0.  0.
        -12    1    1    2    0    0 -0.36817042611E+02  0.92654332458E+01  0.14554157923E+02  0.40659148942E+02  0.00000000000E+00 0.  1.
         11    1    3    3    0    0 -0.31245246727E+01 -0.69697743407E+01 -0.12134678410E+00  0.76390532198E+01  0.51100000000E-03 0. -1.
        -11    1    3    3    0    0  0.26260063431E+02  0.58921591593E+00 -0.77075618804E+01  0.27374159662E+02  0.51100000000E-03 0.  1.
         12    1    3    3    0    0  0.13681503853E+02 -0.28848748210E+01 -0.67252492584E+01  0.15515638175E+02  0.00000000000E+00 0. -1.
</event>
<event>
 7    1  0.4878192E-011  0.5052889E+02  0.7816164E-02  0.1300439E+00
        -11   -1    0    0    0    0  0.00000000000E+00  0.00000000000E+00  0.45593999997E+02  0.45594000000E+02  0.51100000000E-03 0. -1.
         11   -1    0    0    0    0 -0.00000000000E+00 -0.00000000000E+00 -0.45593999997E+02  0.45594000000E+02  0.51100000000E-03 0.  1.
    9900012    2    1    2    0    0 -0.31287202723E+02 -0.21725880843E+02  0.14221816518E+02  0.50528892561E+02  0.30000099429E+02 0.  0.
        -12    1    1    2    0    0  0.31287202723E+02  0.21725880843E+02 -0.14221816518E+02  0.40659107439E+02  0.00000000000E+00 0.  1.
         11    1    3    3    0    0 -0.23251801333E+02 -0.17987117126E+02  0.13294541794E+02  0.32263407902E+02  0.51100000000E-03 0. -1.
        -11    1    3    3    0    0 -0.77280037192E+01  0.48363420808E+01 -0.17373424537E+01  0.92806575882E+01  0.51100000000E-03 0.  1.
         12    1    3    3    0    0 -0.30739767111E+00 -0.85751057985E+01  0.26646171777E+01  0.89848270706E+01  0.00000000000E+00 0. -1.
</event>
<event>
 7    1  0.6147644E-011  0.5052885E+02  0.7816164E-02  0.1300439E+00
        -11   -1    0    0    0    0  0.00000000000E+00  0.00000000000E+00  0.45593999997E+02  0.45594000000E+02  0.51100000000E-03 0. -1.
         11   -1    0    0    0    0 -0.00000000000E+00 -0.00000000000E+00 -0.45593999997E+02  0.45594000000E+02  0.51100000000E-03 0.  1.
    9900012    2    1    2    0    0  0.37301873645E+02  0.16144794095E+02 -0.10401744168E+01  0.50528854453E+02  0.29999983596E+02 0.  0.
        -12    1    1    2    0    0 -0.37301873645E+02 -0.16144794095E+02  0.10401744168E+01  0.40659145547E+02  0.00000000000E+00 0.  1.
         11    1    3    3    0    0  0.26809659655E+02  0.66094413989E+01  0.75528039496E+01  0.28626690591E+02  0.51100000000E-03 0. -1.
        -11    1    3    3    0    0  0.51168417425E+01  0.12325760349E+02 -0.30448454802E+01  0.13688590937E+02  0.51100000000E-03 0.  1.
         12    1    3    3    0    0  0.53753722469E+01 -0.27904076528E+01 -0.55481328862E+01  0.82135729245E+01  0.00000000000E+00 0. -1.
</event>
<event>
 7    1  0.5847889E-011  0.5052897E+02  0.7816164E-02  0.1300438E+00
        -11   -1    0    0    0    0  0.00000000000E+00  0.00000000000E+00  0.45593999997E+02  0.45594000000E+02  0.51100000000E-03 0. -1.
         11   -1    0    0    0    0 -0.00000000000E+00 -0.00000000000E+00 -0.45593999997E+02  0.45594000000E+02  0.51100000000E-03 0.  1.
    9900012    2    1    2    0    0 -0.17425430034E+02  0.19330591658E+01  0.36684802601E+02  0.50528965685E+02  0.30000321693E+02 0.  0.
        -12    1    1    2    0    0  0.17425430034E+02 -0.19330591658E+01 -0.36684802601E+02  0.40659034315E+02  0.00000000000E+00 0.  1.
         11    1    3    3    0    0 -0.67919452843E+01 -0.17530629462E+01  0.31841544038E+02  0.32605025340E+02  0.51100000000E-03 0. -1.
        -11    1    3    3    0    0 -0.88835704076E+00  0.13972939876E+01 -0.41493977732E+01  0.44675620713E+01  0.51100000000E-03 0.  1.
         12    1    3    3    0    0 -0.97451277094E+01  0.22888281245E+01  0.89926563354E+01  0.13456378273E+02  0.00000000000E+00 0. -1.
</event>
<event>
 7    1  0.4878192E-011  0.5052886E+02  0.7816164E-02  0.1300439E+00
        -11   -1    0    0    0    0  0.00000000000E+00  0.00000000000E+00  0.45593999997E+02  0.45594000000E+02  0.51100000000E-03 0. -1.
         11   -1    0    0    0    0 -0.00000000000E+00 -0.00000000000E+00 -0.45593999997E+02  0.45594000000E+02  0.51100000000E-03 0.  1.
    9900012    2    1    2    0    0 -0.35616044103E+02 -0.98892760661E+01  0.16937096186E+02  0.50528860734E+02  0.30000002686E+02 0.  0.
        -12    1    1    2    0    0  0.35616044103E+02  0.98892760661E+01 -0.16937096186E+02  0.40659139266E+02  0.00000000000E+00 0.  1.
         11    1    3    3    0    0 -0.15795753203E+02 -0.18528518507E+02  0.11743442278E+02  0.27031837786E+02  0.51100000000E-03 0. -1.
        -11    1    3    3    0    0 -0.82780508996E+01  0.11105797911E+01 -0.95561985295E+00  0.84067070683E+01  0.51100000000E-03 0.  1.
         12    1    3    3    0    0 -0.11542240001E+02  0.75286626501E+01  0.61492737604E+01  0.15090315879E+02  0.00000000000E+00 0. -1.
</event>
<event>
 7    1  0.4878192E-011  0.5052884E+02  0.7816164E-02  0.1300439E+00
        -11   -1    0    0    0    0  0.00000000000E+00  0.00000000000E+00  0.45593999997E+02  0.45594000000E+02  0.51100000000E-03 0.  1.
         11   -1    0    0    0    0 -0.00000000000E+00 -0.00000000000E+00 -0.45593999997E+02  0.45594000000E+02  0.51100000000E-03 0. -1.
    9900012    2    1    2    0    0 -0.24054818485E+02 -0.99411700375E+00  0.32764991219E+02  0.50528841001E+02  0.29999942706E+02 0.  0.
        -12    1    1    2    0    0  0.24054818485E+02  0.99411700375E+00 -0.32764991219E+02  0.40659158999E+02  0.00000000000E+00 0.  1.
         11    1    3    3    0    0 -0.50429113177E+01 -0.70552723103E+01  0.95233254341E+01  0.12880277540E+02  0.51100000000E-03 0. -1.
        -11    1    3    3    0    0 -0.96825328974E+01  0.13031165579E+02  0.19592631768E+02  0.25444723216E+02  0.51100000000E-03 0.  1.
        -12    1    3    3    0    0 -0.93293742697E+01 -0.69700102728E+01  0.36490340163E+01  0.12203840245E+02  0.00000000000E+00 0.  1.
</event>
<event>
 7    1  0.4878192E-011  0.5052887E+02  0.7816164E-02  0.1300439E+00
        -11   -1    0    0    0    0  0.00000000000E+00  0.00000000000E+00  0.45593999997E+02  0.45594000000E+02  0.51100000000E-03 0.  1.
         11   -1    0    0    0    0 -0.00000000000E+00 -0.00000000000E+00 -0.45593999997E+02  0.45594000000E+02  0.51100000000E-03 0. -1.
    9900012    2    1    2    0    0 -0.98504542367E+01 -0.75465213735E+01 -0.38719285293E+02  0.50528874492E+02  0.30000044506E+02 0.  0.
        -12    1    1    2    0    0  0.98504542367E+01  0.75465213735E+01  0.38719285293E+02  0.40659125508E+02  0.00000000000E+00 0.  1.
         11    1    3    3    0    0 -0.59441986604E+01  0.65861207713E+01 -0.30950021570E+02  0.32196495461E+02  0.51100000000E-03 0. -1.
        -11    1    3    3    0    0  0.21630509239E+01 -0.19273872884E+01 -0.71464624018E+00  0.29840124947E+01  0.51100000000E-03 0.  1.
         12    1    3    3    0    0 -0.60693065002E+01 -0.12205254856E+02 -0.70546174823E+01  0.15348366536E+02  0.00000000000E+00 0. -1.
</event>
<event>
 7    1  0.4878192E-011  0.5052886E+02  0.7816164E-02  0.1300439E+00
        -11   -1    0    0    0    0  0.00000000000E+00  0.00000000000E+00  0.45593999997E+02  0.45594000000E+02  0.51100000000E-03 0.  1.
         11   -1    0    0    0    0 -0.00000000000E+00 -0.00000000000E+00 -0.45593999997E+02  0.45594000000E+02  0.51100000000E-03 0. -1.
    9900012    2    1    2    0    0 -0.20762523595E+02  0.34681475232E+02 -0.43907227024E+01  0.50528861345E+02  0.30000004544E+02 0.  0.
        -12    1    1    2    0    0  0.20762523595E+02 -0.34681475232E+02  0.43907227024E+01  0.40659138655E+02  0.00000000000E+00 0.  1.
         11    1    3    3    0    0 -0.75618169372E+01  0.47249766216E+01 -0.37973143098E+01  0.96915466101E+01  0.51100000000E-03 0. -1.
        -11    1    3    3    0    0 -0.33634525181E+01  0.29323067235E+02 -0.51773936858E+01  0.29965988897E+02  0.51100000000E-03 0.  1.
        -12    1    3    3    0    0 -0.98372541392E+01  0.63343137549E+00  0.45839852932E+01  0.10871325838E+02  0.00000000000E+00 0.  1.
</event>
<event>
 7    1  0.4878192E-011  0.5052888E+02  0.7816164E-02  0.1300439E+00
        -11   -1    0    0    0    0  0.00000000000E+00  0.00000000000E+00  0.45593999997E+02  0.45594000000E+02  0.51100000000E-03 0.  1.
         11   -1    0    0    0    0 -0.00000000000E+00 -0.00000000000E+00 -0.45593999997E+02  0.45594000000E+02  0.51100000000E-03 0. -1.
    9900012    2    1    2    0    0  0.39727473153E+02  0.84787794831E+01 -0.17327993866E+01  0.50528875337E+02  0.30000047073E+02 0.  0.
        -12    1    1    2    0    0 -0.39727473153E+02 -0.84787794831E+01  0.17327993866E+01  0.40659124663E+02  0.00000000000E+00 0.  1.
         11    1    3    3    0    0  0.14348145649E+02 -0.76428633864E+01 -0.63920281577E+01  0.17468276061E+02  0.51100000000E-03 0. -1.
        -11    1    3    3    0    0  0.25308518400E+02  0.11081522016E+02  0.46687895190E+01  0.28019971977E+02  0.51100000000E-03 0.  1.
         12    1    3    3    0    0  0.70809104220E-01  0.50401208537E+01 -0.95607479820E-02  0.50406272980E+01  0.00000000000E+00 0. -1.
</event>
<event>
 7    1  0.4878192E-011  0.5052886E+02  0.7816164E-02  0.1300439E+00
        -11   -1    0    0    0    0  0.00000000000E+00  0.00000000000E+00  0.45593999997E+02  0.45594000000E+02  0.51100000000E-03 0.  1.
         11   -1    0    0    0    0 -0.00000000000E+00 -0.00000000000E+00 -0.45593999997E+02  0.45594000000E+02  0.51100000000E-03 0. -1.
    9900012    2    1    2    0    0  0.24997924595E+02 -0.31581759498E+02  0.55553128213E+01  0.50528864893E+02  0.30000015330E+02 0.  0.
        -12    1    1    2    0    0 -0.24997924595E+02  0.31581759498E+02 -0.55553128213E+01  0.40659135107E+02  0.00000000000E+00 0.  1.
         11    1    3    3    0    0  0.61425073058E+01 -0.10355916397E+02 -0.61919521402E+00  0.12056483874E+02  0.51100000000E-03 0. -1.
        -11    1    3    3    0    0  0.53699886410E+01  0.56825571324E+01  0.42744540397E+00  0.78301304844E+01  0.51100000000E-03 0.  1.
        -12    1    3    3    0    0  0.13485428649E+02 -0.26908400233E+02  0.57470626314E+01  0.30642250535E+02  0.00000000000E+00 0.  1.
</event>
<event>
 7    1  0.4878192E-011  0.5052886E+02  0.7816164E-02  0.1300439E+00
        -11   -1    0    0    0    0  0.00000000000E+00  0.00000000000E+00  0.45593999997E+02  0.45594000000E+02  0.51100000000E-03 0.  1.
         11   -1    0    0    0    0 -0.00000000000E+00 -0.00000000000E+00 -0.45593999997E+02  0.45594000000E+02  0.51100000000E-03 0. -1.
    9900012    2    1    2    0    0  0.31951082364E+02  0.97894736626E+01 -0.23161602204E+02  0.50528864797E+02  0.30000015036E+02 0.  0.
        -12    1    1    2    0    0 -0.31951082364E+02 -0.97894736626E+01  0.23161602204E+02  0.40659135203E+02  0.00000000000E+00 0.  1.
         11    1    3    3    0    0  0.17369494072E+02  0.11219398862E+02 -0.13542089259E+02  0.24717653953E+02  0.51100000000E-03 0. -1.
        -11    1    3    3    0    0 -0.28905439755E+01  0.20490108692E+00 -0.76161213494E+01  0.81487749754E+01  0.51100000000E-03 0.  1.
        -12    1    3    3    0    0  0.17472132267E+02 -0.16348262862E+01 -0.20033915956E+01  0.17662435869E+02  0.00000000000E+00 0.  1.
</event>
<event>
 7    1  0.4878192E-011  0.5052886E+02  0.7816164E-02  0.1300439E+00
        -11   -1    0    0    0    0  0.00000000000E+00  0.00000000000E+00  0.45593999997E+02  0.45594000000E+02  0.51100000000E-03 0.  1.
         11   -1    0    0    0    0 -0.00000000000E+00 -0.00000000000E+00 -0.45593999997E+02  0.45594000000E+02  0.51100000000E-03 0. -1.
    9900012    2    1    2    0    0 -0.11159742572E+02  0.19978933800E+02 -0.33607559725E+02  0.50528859322E+02  0.29999998394E+02 0.  0.
        -12    1    1    2    0    0  0.11159742572E+02 -0.19978933800E+02  0.33607559725E+02  0.40659140678E+02  0.00000000000E+00 0.  1.
         11    1    3    3    0    0 -0.11679114952E+02  0.14478282861E+02 -0.11428350135E+02  0.21831848015E+02  0.51100000000E-03 0. -1.
        -11    1    3    3    0    0 -0.70985073356E+00 -0.31458555494E+01 -0.19200672106E+02  0.19469620047E+02  0.51100000000E-03 0.  1.
        -12    1    3    3    0    0  0.12292231140E+01  0.86465064884E+01 -0.29785374842E+01  0.92273912599E+01  0.00000000000E+00 0.  1.
</event>
<event>
 7    1  0.4878192E-011  0.5052885E+02  0.7816164E-02  0.1300439E+00
        -11   -1    0    0    0    0  0.00000000000E+00  0.00000000000E+00  0.45593999997E+02  0.45594000000E+02  0.51100000000E-03 0.  1.
         11   -1    0    0    0    0 -0.00000000000E+00 -0.00000000000E+00 -0.45593999997E+02  0.45594000000E+02  0.51100000000E-03 0. -1.
    9900012    2    1    2    0    0 -0.21639273930E+02  0.32562438332E+02 -0.11162251551E+02  0.50528850648E+02  0.29999972031E+02 0.  0.
        -12    1    1    2    0    0  0.21639273930E+02 -0.32562438332E+02  0.11162251551E+02  0.40659149352E+02  0.00000000000E+00 0.  1.
         11    1    3    3    0    0 -0.28191649433E+02  0.31473187326E+02 -0.82415662947E+01  0.43049437086E+02  0.51100000000E-03 0. -1.
        -11    1    3    3    0    0  0.39814222241E+01  0.13326516472E+01 -0.11666610662E+01  0.43576119199E+01  0.51100000000E-03 0.  1.
         12    1    3    3    0    0  0.25709532790E+01 -0.24340064127E+00 -0.17540241905E+01  0.31218016426E+01  0.00000000000E+00 0. -1.
</event>
<event>
 7    1  0.4878192E-011  0.5052887E+02  0.7816164E-02  0.1300439E+00
        -11   -1    0    0    0    0  0.00000000000E+00  0.00000000000E+00  0.45593999997E+02  0.45594000000E+02  0.51100000000E-03 0.  1.
         11   -1    0    0    0    0 -0.00000000000E+00 -0.00000000000E+00 -0.45593999997E+02  0.45594000000E+02  0.51100000000E-03 0. -1.
    9900012    2    1    2    0    0 -0.38661534159E+02 -0.12478950476E+02  0.16512873900E+01  0.50528865989E+02  0.30000018659E+02 0.  0.
        -12    1    1    2    0    0  0.38661534159E+02  0.12478950476E+02 -0.16512873900E+01  0.40659134011E+02  0.00000000000E+00 0.  1.
         11    1    3    3    0    0 -0.10394238381E+02 -0.23586194033E+01 -0.44360593337E+01  0.11544778027E+02  0.51100000000E-03 0. -1.
        -11    1    3    3    0    0 -0.24696249862E+02 -0.15596591726E+02  0.10564038050E+02  0.31060542991E+02  0.51100000000E-03 0.  1.
        -12    1    3    3    0    0 -0.35710459160E+01  0.54762606534E+01 -0.44766913261E+01  0.79235449710E+01  0.00000000000E+00 0.  1.
</event>
<event>
 7    1  0.4878192E-011  0.5052886E+02  0.7816164E-02  0.1300439E+00
        -11   -1    0    0    0    0  0.00000000000E+00  0.00000000000E+00  0.45593999997E+02  0.45594000000E+02  0.51100000000E-03 0. -1.
         11   -1    0    0    0    0 -0.00000000000E+00 -0.00000000000E+00 -0.45593999997E+02  0.45594000000E+02  0.51100000000E-03 0.  1.
    9900012    2    1    2    0    0 -0.84597244955E-02 -0.38375106574E+02  0.13435645173E+02  0.50528862806E+02  0.30000008984E+02 0.  0.
        -12    1    1    2    0    0  0.84597244955E-02  0.38375106574E+02 -0.13435645173E+02  0.40659137194E+02  0.00000000000E+00 0.  1.
         11    1    3    3    0    0  0.40989053425E+01 -0.19709050952E+02  0.40116370183E+01  0.20526591200E+02  0.51100000000E-03 0. -1.
        -11    1    3    3    0    0 -0.57946420206E+01  0.31217349503E+01  0.14498928274E+01  0.67398289829E+01  0.51100000000E-03 0.  1.
        -12    1    3    3    0    0  0.16872769536E+01 -0.21787790572E+02  0.79741153275E+01  0.23262442623E+02  0.00000000000E+00 0.  1.
</event>
<event>
 7    1  0.4878192E-011  0.5052883E+02  0.7816164E-02  0.1300439E+00
        -11   -1    0    0    0    0  0.00000000000E+00  0.00000000000E+00  0.45593999997E+02  0.45594000000E+02  0.51100000000E-03 0. -1.
         11   -1    0    0    0    0 -0.00000000000E+00 -0.00000000000E+00 -0.45593999997E+02  0.45594000000E+02  0.51100000000E-03 0.  1.
    9900012    2    1    2    0    0  0.18418907293E+02  0.35807752290E+02 -0.56317926781E+01  0.50528826882E+02  0.29999899790E+02 0.  0.
        -12    1    1    2    0    0 -0.18418907293E+02 -0.35807752290E+02  0.56317926781E+01  0.40659173118E+02  0.00000000000E+00 0.  1.
         11    1    3    3    0    0  0.33304802181E+01  0.19305768964E+02  0.24191286470E+01  0.19739731444E+02  0.51100000000E-03 0. -1.
        -11    1    3    3    0    0  0.18592348610E+02  0.15203377098E+02 -0.10613874578E+02  0.26257807141E+02  0.51100000000E-03 0.  1.
        -12    1    3    3    0    0 -0.35039215351E+01  0.12986062268E+01  0.25629532532E+01  0.45312882974E+01  0.00000000000E+00 0.  1.
</event>
<event>
 7    1  0.4878192E-011  0.5052886E+02  0.7816164E-02  0.1300439E+00
        -11   -1    0    0    0    0  0.00000000000E+00  0.00000000000E+00  0.45593999997E+02  0.45594000000E+02  0.51100000000E-03 0. -1.
         11   -1    0    0    0    0 -0.00000000000E+00 -0.00000000000E+00 -0.45593999997E+02  0.45594000000E+02  0.51100000000E-03 0.  1.
    9900012    2    1    2    0    0 -0.30274731593E+02 -0.18121744102E+02  0.20204177583E+02  0.50528858665E+02  0.29999996397E+02 0.  0.
        -12    1    1    2    0    0  0.30274731593E+02  0.18121744102E+02 -0.20204177583E+02  0.40659141335E+02  0.00000000000E+00 0.  1.
         11    1    3    3    0    0 -0.75987628430E+01  0.12798430494E+01  0.13571365978E+02  0.15606446416E+02  0.51100000000E-03 0. -1.
        -11    1    3    3    0    0 -0.21832619525E+02 -0.22326821401E+02  0.57474119271E+01  0.31751897161E+02  0.51100000000E-03 0.  1.
        -12    1    3    3    0    0 -0.84334922469E+00  0.29252342494E+01  0.88539967763E+00  0.31705150871E+01  0.00000000000E+00 0.  1.
</event>
<event>
 7    1  0.4878192E-011  0.5052884E+02  0.7816164E-02  0.1300439E+00
        -11   -1    0    0    0    0  0.00000000000E+00  0.00000000000E+00  0.45593999997E+02  0.45594000000E+02  0.51100000000E-03 0.  1.
         11   -1    0    0    0    0 -0.00000000000E+00 -0.00000000000E+00 -0.45593999997E+02  0.45594000000E+02  0.51100000000E-03 0. -1.
    9900012    2    1    2    0    0 -0.34149467429E+02  0.10603182233E+02 -0.19353385686E+02  0.50528841909E+02  0.29999945467E+02 0.  0.
        -12    1    1    2    0    0  0.34149467429E+02 -0.10603182233E+02  0.19353385686E+02  0.40659158091E+02  0.00000000000E+00 0.  1.
         11    1    3    3    0    0 -0.20318660513E+02  0.63267609058E+01 -0.50419752102E+01  0.21870011040E+02  0.51100000000E-03 0. -1.
        -11    1    3    3    0    0 -0.46435016189E+00 -0.67460473597E+01 -0.10547208259E+01  0.68437717914E+01  0.51100000000E-03 0.  1.
        -12    1    3    3    0    0 -0.13366456754E+02  0.11022468687E+02 -0.13256689650E+02  0.21815059078E+02  0.00000000000E+00 0.  1.
</event>
<event>
 7    1  0.4878192E-011  0.5052882E+02  0.7816164E-02  0.1300439E+00
        -11   -1    0    0    0    0  0.00000000000E+00  0.00000000000E+00  0.45593999997E+02  0.45594000000E+02  0.51100000000E-03 0.  1.
         11   -1    0    0    0    0 -0.00000000000E+00 -0.00000000000E+00 -0.45593999997E+02  0.45594000000E+02  0.51100000000E-03 0. -1.
    9900012    2    1    2    0    0  0.23286607789E+02 -0.32828298743E+02 -0.57624116966E+01  0.50528822817E+02  0.29999887433E+02 0.  0.
        -12    1    1    2    0    0 -0.23286607789E+02  0.32828298743E+02  0.57624116966E+01  0.40659177183E+02  0.00000000000E+00 0.  1.
         11    1    3    3    0    0  0.49001797528E+01 -0.15441221692E+02 -0.14596843614E+02  0.21806213167E+02  0.51100000000E-03 0. -1.
        -11    1    3    3    0    0  0.59321497472E+01 -0.10170431772E+02  0.81359790289E+01  0.14311612001E+02  0.51100000000E-03 0.  1.
        -12    1    3    3    0    0  0.12454278289E+02 -0.72166452790E+01  0.69845288815E+00  0.14410997648E+02  0.00000000000E+00 0.  1.
</event>
<event>
 7    1  0.4878192E-011  0.5052886E+02  0.7816164E-02  0.1300439E+00
        -11   -1    0    0    0    0  0.00000000000E+00  0.00000000000E+00  0.45593999997E+02  0.45594000000E+02  0.51100000000E-03 0. -1.
         11   -1    0    0    0    0 -0.00000000000E+00 -0.00000000000E+00 -0.45593999997E+02  0.45594000000E+02  0.51100000000E-03 0.  1.
    9900012    2    1    2    0    0  0.12449901861E+02  0.16540950205E+02  0.34993750042E+02  0.50528860412E+02  0.30000001710E+02 0.  0.
        -12    1    1    2    0    0 -0.12449901861E+02 -0.16540950205E+02 -0.34993750042E+02  0.40659139588E+02  0.00000000000E+00 0.  1.
         11    1    3    3    0    0  0.15186052460E+02 -0.76556961406E+00  0.14915821027E+02  0.21299859233E+02  0.51100000000E-03 0. -1.
        -11    1    3    3    0    0 -0.72293700502E+01  0.89325879909E+01  0.13180028851E+02  0.17486225445E+02  0.51100000000E-03 0.  1.
         12    1    3    3    0    0  0.44932194507E+01  0.83739318277E+01  0.68979001635E+01  0.11742775735E+02  0.00000000000E+00 0. -1.
</event>
<event>
 7    1  0.4878192E-011  0.5052886E+02  0.7816164E-02  0.1300439E+00
        -11   -1    0    0    0    0  0.00000000000E+00  0.00000000000E+00  0.45593999997E+02  0.45594000000E+02  0.51100000000E-03 0. -1.
         11   -1    0    0    0    0 -0.00000000000E+00 -0.00000000000E+00 -0.45593999997E+02  0.45594000000E+02  0.51100000000E-03 0.  1.
    9900012    2    1    2    0    0 -0.14931618030E+02 -0.33682133513E+02  0.17196699288E+02  0.50528858330E+02  0.29999995380E+02 0.  0.
        -12    1    1    2    0    0  0.14931618030E+02  0.33682133513E+02 -0.17196699288E+02  0.40659141670E+02  0.00000000000E+00 0.  1.
         11    1    3    3    0    0  0.12324785523E+01 -0.15419817183E+02 -0.96477971593E+00  0.15499050471E+02  0.51100000000E-03 0.  1.
        -11    1    3    3    0    0 -0.27959740999E+01  0.93544193075E+00  0.97239717592E+01  0.10161109674E+02  0.51100000000E-03 0. -1.
         12    1    3    3    0    0 -0.13368122482E+02 -0.19197758260E+02  0.84375072443E+01  0.24868698185E+02  0.00000000000E+00 0. -1.
</event>
<event>
 7    1  0.4878192E-011  0.5052886E+02  0.7816164E-02  0.1300439E+00
        -11   -1    0    0    0    0  0.00000000000E+00  0.00000000000E+00  0.45593999997E+02  0.45594000000E+02  0.51100000000E-03 0.  1.
         11   -1    0    0    0    0 -0.00000000000E+00 -0.00000000000E+00 -0.45593999997E+02  0.45594000000E+02  0.51100000000E-03 0. -1.
    9900012    2    1    2    0    0  0.12952322680E+01  0.25743323435E+02 -0.31444699364E+02  0.50528862698E+02  0.30000008656E+02 0.  0.
        -12    1    1    2    0    0 -0.12952322680E+01 -0.25743323435E+02  0.31444699364E+02  0.40659137302E+02  0.00000000000E+00 0.  1.
         11    1    3    3    0    0  0.28766930118E+01  0.28117174280E+02 -0.25328366614E+02  0.37952299110E+02  0.51100000000E-03 0. -1.
        -11    1    3    3    0    0 -0.24398168528E+01  0.13697848691E+01  0.21055876639E+01  0.35017876198E+01  0.51100000000E-03 0.  1.
         12    1    3    3    0    0  0.85835610911E+00 -0.37436357142E+01 -0.82219204138E+01  0.90747759675E+01  0.00000000000E+00 0. -1.
</event>
<event>
 7    1  0.4878192E-011  0.5052887E+02  0.7816164E-02  0.1300439E+00
        -11   -1    0    0    0    0  0.00000000000E+00  0.00000000000E+00  0.45593999997E+02  0.45594000000E+02  0.51100000000E-03 0.  1.
         11   -1    0    0    0    0 -0.00000000000E+00 -0.00000000000E+00 -0.45593999997E+02  0.45594000000E+02  0.51100000000E-03 0. -1.
    9900012    2    1    2    0    0  0.16306145898E+02 -0.14475741922E+02 -0.34318037045E+02  0.50528866157E+02  0.30000019172E+02 0.  0.
        -12    1    1    2    0    0 -0.16306145898E+02  0.14475741922E+02  0.34318037045E+02  0.40659133843E+02  0.00000000000E+00 0.  1.
         11    1    3    3    0    0  0.15253442189E+01 -0.56826471586E+01 -0.27269242333E+02  0.27896787116E+02  0.51100000000E-03 0. -1.
        -11    1    3    3    0    0  0.54800234294E+01  0.94594071380E+00  0.25265892227E+01  0.61081186942E+01  0.51100000000E-03 0.  1.
         12    1    3    3    0    0  0.93007782496E+01 -0.97390354767E+01 -0.95753839342E+01  0.16523960347E+02  0.00000000000E+00 0. -1.
</event>
<event>
 7    1  0.4878192E-011  0.5052892E+02  0.7816164E-02  0.1300439E+00
        -11   -1    0    0    0    0  0.00000000000E+00  0.00000000000E+00  0.45593999997E+02  0.45594000000E+02  0.51100000000E-03 0.  1.
         11   -1    0    0    0    0 -0.00000000000E+00 -0.00000000000E+00 -0.45593999997E+02  0.45594000000E+02  0.51100000000E-03 0. -1.
    9900012    2    1    2    0    0 -0.13630790435E+02 -0.25961379552E+02 -0.28166807301E+02  0.50528920944E+02  0.30000185702E+02 0.  0.
        -12    1    1    2    0    0  0.13630790435E+02  0.25961379552E+02  0.28166807301E+02  0.40659079056E+02  0.00000000000E+00 0.  1.
         11    1    3    3    0    0 -0.14382489770E+02 -0.17223620555E+02 -0.30616598589E+02  0.37958994013E+02  0.51100000000E-03 0. -1.
        -11    1    3    3    0    0 -0.32585788577E+01 -0.65393039371E+01  0.31259762161E+01  0.79468584811E+01  0.51100000000E-03 0.  1.
        -12    1    3    3    0    0  0.40102781935E+01 -0.21984550606E+01 -0.67618492747E+00  0.46230684506E+01  0.00000000000E+00 0.  1.
</event>
<event>
 7    1  0.4878192E-011  0.5052879E+02  0.7816164E-02  0.1300439E+00
        -11   -1    0    0    0    0  0.00000000000E+00  0.00000000000E+00  0.45593999997E+02  0.45594000000E+02  0.51100000000E-03 0.  1.
         11   -1    0    0    0    0 -0.00000000000E+00 -0.00000000000E+00 -0.45593999997E+02  0.45594000000E+02  0.51100000000E-03 0. -1.
    9900012    2    1    2    0    0 -0.26666407670E+02 -0.18945814865E+02 -0.24148080655E+02  0.50528794422E+02  0.29999801123E+02 0.  0.
        -12    1    1    2    0    0  0.26666407670E+02  0.18945814865E+02  0.24148080655E+02  0.40659205578E+02  0.00000000000E+00 0.  1.
         11    1    3    3    0    0 -0.22548956715E+02 -0.81150687930E+01 -0.29130134419E+02  0.37721009027E+02  0.51100000000E-03 0. -1.
        -11    1    3    3    0    0 -0.24342692370E+01 -0.83008817451E+01  0.28973332011E+01  0.91227651731E+01  0.51100000000E-03 0.  1.
         12    1    3    3    0    0 -0.16831817180E+01 -0.25298643273E+01  0.20847205629E+01  0.36850202218E+01  0.00000000000E+00 0. -1.
</event>
<event>
 7    1  0.4878192E-011  0.5052886E+02  0.7816164E-02  0.1300439E+00
        -11   -1    0    0    0    0  0.00000000000E+00  0.00000000000E+00  0.45593999997E+02  0.45594000000E+02  0.51100000000E-03 0. -1.
         11   -1    0    0    0    0 -0.00000000000E+00 -0.00000000000E+00 -0.45593999997E+02  0.45594000000E+02  0.51100000000E-03 0.  1.
    9900012    2    1    2    0    0  0.22810878928E+02  0.30157441433E+02  0.14945179849E+02  0.50528857462E+02  0.29999992740E+02 0.  0.
        -12    1    1    2    0    0 -0.22810878928E+02 -0.30157441433E+02 -0.14945179849E+02  0.40659142538E+02  0.00000000000E+00 0.  1.
         11    1    3    3    0    0  0.85864843709E+01  0.83987225239E+01  0.16861232200E+02  0.20701869612E+02  0.51100000000E-03 0. -1.
        -11    1    3    3    0    0  0.10549748252E+02  0.71899782192E+01 -0.62147063773E+01  0.14199139079E+02  0.51100000000E-03 0.  1.
         12    1    3    3    0    0  0.36746463056E+01  0.14568740690E+02  0.42986540261E+01  0.15627848770E+02  0.00000000000E+00 0. -1.
</event>
<event>
 7    1  0.4878192E-011  0.5052885E+02  0.7816164E-02  0.1300439E+00
        -11   -1    0    0    0    0  0.00000000000E+00  0.00000000000E+00  0.45593999997E+02  0.45594000000E+02  0.51100000000E-03 0.  1.
         11   -1    0    0    0    0 -0.00000000000E+00 -0.00000000000E+00 -0.45593999997E+02  0.45594000000E+02  0.51100000000E-03 0. -1.
    9900012    2    1    2    0    0  0.55255061280E+01 -0.39707872706E+02  0.67764336240E+01  0.50528850654E+02  0.29999972049E+02 0.  0.
        -12    1    1    2    0    0 -0.55255061280E+01  0.39707872706E+02 -0.67764336240E+01  0.40659149346E+02  0.00000000000E+00 0.  1.
         11    1    3    3    0    0 -0.45905006895E+01 -0.20723028915E+02 -0.82767657818E+01  0.22782042842E+02  0.51100000000E-03 0. -1.
        -11    1    3    3    0    0  0.23704784225E+01  0.37155336595E+00  0.97408548036E+00  0.25896066573E+01  0.51100000000E-03 0.  1.
         12    1    3    3    0    0  0.77455283951E+01 -0.19356397157E+02  0.14079113925E+02  0.25157201155E+02  0.00000000000E+00 0. -1.
</event>
<event>
 7    1  0.4878192E-011  0.5052886E+02  0.7816164E-02  0.1300439E+00
        -11   -1    0    0    0    0  0.00000000000E+00  0.00000000000E+00  0.45593999997E+02  0.45594000000E+02  0.51100000000E-03 0.  1.
         11   -1    0    0    0    0 -0.00000000000E+00 -0.00000000000E+00 -0.45593999997E+02  0.45594000000E+02  0.51100000000E-03 0. -1.
    9900012    2    1    2    0    0  0.41644801556E+01 -0.16580936096E+02 -0.36890318539E+02  0.50528856641E+02  0.29999990247E+02 0.  0.
        -12    1    1    2    0    0 -0.41644801556E+01  0.16580936096E+02  0.36890318539E+02  0.40659143359E+02  0.00000000000E+00 0.  1.
         11    1    3    3    0    0  0.97797219716E+01 -0.81338653481E+01 -0.25536340642E+02  0.28529062743E+02  0.51100000000E-03 0. -1.
        -11    1    3    3    0    0 -0.11172702026E+02 -0.55139374195E+01 -0.64568080570E+01  0.14032930805E+02  0.51100000000E-03 0.  1.
        -12    1    3    3    0    0  0.55574602101E+01 -0.29331333286E+01 -0.48971698393E+01  0.79668630932E+01  0.00000000000E+00 0.  1.
</event>
<event>
 7    1  0.4878192E-011  0.5052887E+02  0.7816164E-02  0.1300439E+00
        -11   -1    0    0    0    0  0.00000000000E+00  0.00000000000E+00  0.45593999997E+02  0.45594000000E+02  0.51100000000E-03 0.  1.
         11   -1    0    0    0    0 -0.00000000000E+00 -0.00000000000E+00 -0.45593999997E+02  0.45594000000E+02  0.51100000000E-03 0. -1.
    9900012    2    1    2    0    0 -0.29602667899E+02  0.24466956711E+02  0.13349731765E+02  0.50528865041E+02  0.30000015778E+02 0.  0.
        -12    1    1    2    0    0  0.29602667899E+02 -0.24466956711E+02 -0.13349731765E+02  0.40659134959E+02  0.00000000000E+00 0.  1.
         11    1    3    3    0    0 -0.33925796646E+02  0.15589430752E+02  0.72025599560E+01  0.38024556531E+02  0.51100000000E-03 0. -1.
        -11    1    3    3    0    0  0.12841710810E+01  0.24989860885E+01  0.44090621739E+01  0.52281790664E+01  0.51100000000E-03 0.  1.
         12    1    3    3    0    0  0.30389576657E+01  0.63785398701E+01  0.17381096355E+01  0.72761294432E+01  0.00000000000E+00 0. -1.
</event>
<event>
 7    1  0.4878192E-011  0.5052886E+02  0.7816164E-02  0.1300439E+00
        -11   -1    0    0    0    0  0.00000000000E+00  0.00000000000E+00  0.45593999997E+02  0.45594000000E+02  0.51100000000E-03 0.  1.
         11   -1    0    0    0    0 -0.00000000000E+00 -0.00000000000E+00 -0.45593999997E+02  0.45594000000E+02  0.51100000000E-03 0. -1.
    9900012    2    1    2    0    0  0.23187932129E+01  0.92242841682E+01 -0.39531016886E+02  0.50528861833E+02  0.30000006029E+02 0.  0.
        -12    1    1    2    0    0 -0.23187932129E+01 -0.92242841682E+01  0.39531016886E+02  0.40659138167E+02  0.00000000000E+00 0.  1.
         11    1    3    3    0    0  0.43748547981E+01  0.12507179575E+02 -0.23314488440E+02  0.26816678894E+02  0.51100000000E-03 0. -1.
        -11    1    3    3    0    0  0.94938147790E+00 -0.64375281945E+00  0.34538154325E+01  0.36393109493E+01  0.51100000000E-03 0.  1.
        -12    1    3    3    0    0 -0.30054430631E+01 -0.26391425877E+01 -0.19670343879E+02  0.20072871990E+02  0.00000000000E+00 0.  1.
</event>
<event>
 7    1  0.4878192E-011  0.5052886E+02  0.7816164E-02  0.1300439E+00
        -11   -1    0    0    0    0  0.00000000000E+00  0.00000000000E+00  0.45593999997E+02  0.45594000000E+02  0.51100000000E-03 0.  1.
         11   -1    0    0    0    0 -0.00000000000E+00 -0.00000000000E+00 -0.45593999997E+02  0.45594000000E+02  0.51100000000E-03 0. -1.
    9900012    2    1    2    0    0 -0.61170579481E+01 -0.29598615117E+02 -0.27196859091E+02  0.50528861308E+02  0.30000004431E+02 0.  0.
        -12    1    1    2    0    0  0.61170579481E+01  0.29598615117E+02  0.27196859091E+02  0.40659138692E+02  0.00000000000E+00 0.  1.
         11    1    3    3    0    0 -0.15637981652E+02 -0.17992773193E+02 -0.19704871425E+02  0.30928438620E+02  0.51100000000E-03 0. -1.
        -11    1    3    3    0    0  0.11239312428E+02 -0.11714656525E+02 -0.59541657688E+01  0.17291830777E+02  0.51100000000E-03 0.  1.
        -12    1    3    3    0    0 -0.17183887241E+01  0.10881460083E+00 -0.15378218966E+01  0.23085919107E+01  0.00000000000E+00 0.  1.
</event>
<event>
 7    1  0.5437643E-011  0.5052886E+02  0.7816164E-02  0.1300439E+00
        -11   -1    0    0    0    0  0.00000000000E+00  0.00000000000E+00  0.45593999997E+02  0.45594000000E+02  0.51100000000E-03 0. -1.
         11   -1    0    0    0    0 -0.00000000000E+00 -0.00000000000E+00 -0.45593999997E+02  0.45594000000E+02  0.51100000000E-03 0.  1.
    9900012    2    1    2    0    0 -0.23129012923E+02  0.24779985638E+02  0.22453654817E+02  0.50528861523E+02  0.30000005085E+02 0.  0.
        -12    1    1    2    0    0  0.23129012923E+02 -0.24779985638E+02 -0.22453654817E+02  0.40659138477E+02  0.00000000000E+00 0.  1.
         11    1    3    3    0    0 -0.27568925171E+01  0.17350701006E+02  0.41901691345E+01  0.18061140589E+02  0.51100000000E-03 0. -1.
        -11    1    3    3    0    0 -0.30541593695E+01 -0.47244424433E+01  0.29672182817E+01  0.63602382382E+01  0.51100000000E-03 0.  1.
         12    1    3    3    0    0 -0.17317961037E+02  0.12153727076E+02  0.15296267401E+02  0.26107482695E+02  0.00000000000E+00 0. -1.
</event>
<event>
 7    1  0.4878192E-011  0.5052886E+02  0.7816164E-02  0.1300439E+00
        -11   -1    0    0    0    0  0.00000000000E+00  0.00000000000E+00  0.45593999997E+02  0.45594000000E+02  0.51100000000E-03 0.  1.
         11   -1    0    0    0    0 -0.00000000000E+00 -0.00000000000E+00 -0.45593999997E+02  0.45594000000E+02  0.51100000000E-03 0. -1.
    9900012    2    1    2    0    0  0.88911670574E+01  0.65008560374E+01 -0.39138881241E+02  0.50528855818E+02  0.29999987743E+02 0.  0.
        -12    1    1    2    0    0 -0.88911670574E+01 -0.65008560374E+01  0.39138881241E+02  0.40659144182E+02  0.00000000000E+00 0.  1.
         11    1    3    3    0    0  0.13311648331E+02 -0.80979049829E+01 -0.22491442320E+02  0.27361305237E+02  0.51100000000E-03 0. -1.
        -11    1    3    3    0    0 -0.53502058147E+01  0.14040131576E+02 -0.15423612056E+02  0.21532250371E+02  0.51100000000E-03 0.  1.
        -12    1    3    3    0    0  0.92972454108E+00  0.55862944412E+00 -0.12238268653E+01  0.16353002092E+01  0.00000000000E+00 0.  1.
</event>
<event>
 7    1  0.4878192E-011  0.5052880E+02  0.7816164E-02  0.1300439E+00
        -11   -1    0    0    0    0  0.00000000000E+00  0.00000000000E+00  0.45593999997E+02  0.45594000000E+02  0.51100000000E-03 0.  1.
         11   -1    0    0    0    0 -0.00000000000E+00 -0.00000000000E+00 -0.45593999997E+02  0.45594000000E+02  0.51100000000E-03 0. -1.
    9900012    2    1    2    0    0 -0.22139377627E+02  0.34012134637E+02 -0.24885505920E+01  0.50528803890E+02  0.29999829905E+02 0.  0.
        -12    1    1    2    0    0  0.22139377627E+02 -0.34012134637E+02  0.24885505920E+01  0.40659196110E+02  0.00000000000E+00 0.  1.
         11    1    3    3    0    0 -0.12195309987E+02  0.28001452148E+02  0.34961071512E+01  0.30741334934E+02  0.51100000000E-03 0. -1.
        -11    1    3    3    0    0 -0.74406651125E+01 -0.20874998791E+01  0.21685230606E+01  0.80264341763E+01  0.51100000000E-03 0.  1.
        -12    1    3    3    0    0 -0.25034025267E+01  0.80981823681E+01 -0.81531808037E+01  0.11761034780E+02  0.00000000000E+00 0.  1.
</event>
<event>
 7    1  0.4878192E-011  0.5052885E+02  0.7816164E-02  0.1300439E+00
        -11   -1    0    0    0    0  0.00000000000E+00  0.00000000000E+00  0.45593999997E+02  0.45594000000E+02  0.51100000000E-03 0.  1.
         11   -1    0    0    0    0 -0.00000000000E+00 -0.00000000000E+00 -0.45593999997E+02  0.45594000000E+02  0.51100000000E-03 0. -1.
    9900012    2    1    2    0    0  0.29684479758E+01  0.39841420449E+02 -0.75508961120E+01  0.50528849752E+02  0.29999969307E+02 0.  0.
        -12    1    1    2    0    0 -0.29684479758E+01 -0.39841420449E+02  0.75508961120E+01  0.40659150248E+02  0.00000000000E+00 0.  1.
         11    1    3    3    0    0 -0.20932163161E+01  0.21206631337E+02 -0.76862874801E+00  0.21323544678E+02  0.51100000000E-03 0. -1.
        -11    1    3    3    0    0  0.57136882926E+01 -0.28463016168E+01  0.76175219294E+00  0.64286805383E+01  0.51100000000E-03 0.  1.
        -12    1    3    3    0    0 -0.65202400075E+00  0.21481090729E+02 -0.75440195570E+01  0.22776624536E+02  0.00000000000E+00 0.  1.
</event>
<event>
 7    1  0.4878192E-011  0.5052886E+02  0.7816164E-02  0.1300439E+00
        -11   -1    0    0    0    0  0.00000000000E+00  0.00000000000E+00  0.45593999997E+02  0.45594000000E+02  0.51100000000E-03 0.  1.
         11   -1    0    0    0    0 -0.00000000000E+00 -0.00000000000E+00 -0.45593999997E+02  0.45594000000E+02  0.51100000000E-03 0. -1.
    9900012    2    1    2    0    0 -0.17394537617E+02 -0.33238017208E+02 -0.15678956712E+02  0.50528863137E+02  0.30000009992E+02 0.  0.
        -12    1    1    2    0    0  0.17394537617E+02  0.33238017208E+02  0.15678956712E+02  0.40659136863E+02  0.00000000000E+00 0.  1.
         11    1    3    3    0    0 -0.66319770490E+01 -0.28475004210E+02 -0.28169762916E+01  0.29372509937E+02  0.51100000000E-03 0. -1.
        -11    1    3    3    0    0 -0.97551155825E+01 -0.21194618406E+01 -0.14709822985E+02  0.17777325194E+02  0.51100000000E-03 0.  1.
        -12    1    3    3    0    0 -0.10074449855E+01 -0.26435511578E+01  0.18478425647E+01  0.33790280062E+01  0.00000000000E+00 0.  1.
</event>
<event>
 7    1  0.4878192E-011  0.5052885E+02  0.7816164E-02  0.1300439E+00
        -11   -1    0    0    0    0  0.00000000000E+00  0.00000000000E+00  0.45593999997E+02  0.45594000000E+02  0.51100000000E-03 0.  1.
         11   -1    0    0    0    0 -0.00000000000E+00 -0.00000000000E+00 -0.45593999997E+02  0.45594000000E+02  0.51100000000E-03 0. -1.
    9900012    2    1    2    0    0  0.20423739807E+02 -0.11179028727E+02 -0.33332662087E+02  0.50528853516E+02  0.29999980748E+02 0.  0.
        -12    1    1    2    0    0 -0.20423739807E+02  0.11179028727E+02  0.33332662087E+02  0.40659146484E+02  0.00000000000E+00 0.  1.
         11    1    3    3    0    0  0.14270030547E+02 -0.38667630700E+01 -0.82651048851E+01  0.16938051466E+02  0.51100000000E-03 0. -1.
        -11    1    3    3    0    0  0.19063819725E+01 -0.12791962218E+02 -0.22947011860E+02  0.26340727841E+02  0.51100000000E-03 0.  1.
        -12    1    3    3    0    0  0.42473272879E+01  0.54796965612E+01 -0.21205453416E+01  0.72500742092E+01  0.00000000000E+00 0.  1.
</event>
<event>
 7    1  0.4878192E-011  0.5052886E+02  0.7816164E-02  0.1300439E+00
        -11   -1    0    0    0    0  0.00000000000E+00  0.00000000000E+00  0.45593999997E+02  0.45594000000E+02  0.51100000000E-03 0.  1.
         11   -1    0    0    0    0 -0.00000000000E+00 -0.00000000000E+00 -0.45593999997E+02  0.45594000000E+02  0.51100000000E-03 0. -1.
    9900012    2    1    2    0    0 -0.29392428204E+02 -0.22323182836E+02 -0.17056562237E+02  0.50528860277E+02  0.30000001298E+02 0.  0.
        -12    1    1    2    0    0  0.29392428204E+02  0.22323182836E+02  0.17056562237E+02  0.40659139723E+02  0.00000000000E+00 0.  1.
         11    1    3    3    0    0  0.20697245180E+01 -0.16211609237E+01 -0.98063585790E+01  0.10152664240E+02  0.51100000000E-03 0. -1.
        -11    1    3    3    0    0 -0.15943648750E+02 -0.78237503131E+01  0.25721944966E+01  0.17945116027E+02  0.51100000000E-03 0.  1.
        -12    1    3    3    0    0 -0.15518503972E+02 -0.12878271600E+02 -0.98223981546E+01  0.22431080011E+02  0.00000000000E+00 0.  1.
</event>
<event>
 7    1  0.4878192E-011  0.5052886E+02  0.7816164E-02  0.1300439E+00
        -11   -1    0    0    0    0  0.00000000000E+00  0.00000000000E+00  0.45593999997E+02  0.45594000000E+02  0.51100000000E-03 0.  1.
         11   -1    0    0    0    0 -0.00000000000E+00 -0.00000000000E+00 -0.45593999997E+02  0.45594000000E+02  0.51100000000E-03 0. -1.
    9900012    2    1    2    0    0  0.96101733736E+01  0.81766178239E+01 -0.38651689252E+02  0.50528860888E+02  0.30000003154E+02 0.  0.
        -12    1    1    2    0    0 -0.96101733736E+01 -0.81766178239E+01  0.38651689252E+02  0.40659139112E+02  0.00000000000E+00 0.  1.
         11    1    3    3    0    0 -0.52662302195E+01 -0.78013644914E+01 -0.11969341960E+02  0.15226937179E+02  0.51100000000E-03 0. -1.
        -11    1    3    3    0    0  0.70981784395E+01  0.25079164395E+01 -0.95818746562E+01  0.12185487443E+02  0.51100000000E-03 0.  1.
         12    1    3    3    0    0  0.77782251536E+01  0.13470065876E+02 -0.17100472636E+02  0.23116436266E+02  0.00000000000E+00 0. -1.
</event>
<event>
 7    1  0.4878192E-011  0.5052886E+02  0.7816164E-02  0.1300439E+00
        -11   -1    0    0    0    0  0.00000000000E+00  0.00000000000E+00  0.45593999997E+02  0.45594000000E+02  0.51100000000E-03 0.  1.
         11   -1    0    0    0    0 -0.00000000000E+00 -0.00000000000E+00 -0.45593999997E+02  0.45594000000E+02  0.51100000000E-03 0. -1.
    9900012    2    1    2    0    0 -0.16222697373E+02  0.13963411145E+02 -0.34568961851E+02  0.50528857310E+02  0.29999992279E+02 0.  0.
        -12    1    1    2    0    0  0.16222697373E+02 -0.13963411145E+02  0.34568961851E+02  0.40659142690E+02  0.00000000000E+00 0.  1.
         11    1    3    3    0    0 -0.13542709871E+02  0.17818183393E+02 -0.32308795380E+02  0.39303319315E+02  0.51100000000E-03 0. -1.
        -11    1    3    3    0    0  0.58887618522E-01  0.69922748631E+00  0.33941476199E+01  0.34659234204E+01  0.51100000000E-03 0.  1.
         12    1    3    3    0    0 -0.27388751206E+01 -0.45539997335E+01 -0.56543140908E+01  0.77596145739E+01  0.00000000000E+00 0. -1.
</event>
<event>
 7    1  0.4878192E-011  0.5052886E+02  0.7816164E-02  0.1300439E+00
        -11   -1    0    0    0    0  0.00000000000E+00  0.00000000000E+00  0.45593999997E+02  0.45594000000E+02  0.51100000000E-03 0.  1.
         11   -1    0    0    0    0 -0.00000000000E+00 -0.00000000000E+00 -0.45593999997E+02  0.45594000000E+02  0.51100000000E-03 0. -1.
    9900012    2    1    2    0    0  0.83697836050E+01 -0.11527640142E+02 -0.38081828053E+02  0.50528863355E+02  0.30000010654E+02 0.  0.
        -12    1    1    2    0    0 -0.83697836050E+01  0.11527640142E+02  0.38081828053E+02  0.40659136645E+02  0.00000000000E+00 0.  1.
         11    1    3    3    0    0  0.90286153898E+01  0.15543649008E+01 -0.60437677214E+01  0.10975384942E+02  0.51100000000E-03 0. -1.
        -11    1    3    3    0    0 -0.62586437567E+01 -0.17284962339E+01 -0.23258025978E+02  0.24147341335E+02  0.51100000000E-03 0.  1.
        -12    1    3    3    0    0  0.55998119719E+01 -0.11353508809E+02 -0.87800343540E+01  0.15406137077E+02  0.00000000000E+00 0.  1.
</event>
<event>
 7    1  0.4878192E-011  0.5052886E+02  0.7816164E-02  0.1300439E+00
        -11   -1    0    0    0    0  0.00000000000E+00  0.00000000000E+00  0.45593999997E+02  0.45594000000E+02  0.51100000000E-03 0. -1.
         11   -1    0    0    0    0 -0.00000000000E+00 -0.00000000000E+00 -0.45593999997E+02  0.45594000000E+02  0.51100000000E-03 0.  1.
    9900012    2    1    2    0    0 -0.14366265601E+02 -0.14853284602E+02  0.35016509303E+02  0.50528861119E+02  0.30000003858E+02 0.  0.
        -12    1    1    2    0    0  0.14366265601E+02  0.14853284602E+02 -0.35016509303E+02  0.40659138881E+02  0.00000000000E+00 0.  1.
         11    1    3    3    0    0 -0.44694529256E+01  0.39991706266E+01  0.15810342293E+02  0.16909651056E+02  0.51100000000E-03 0. -1.
        -11    1    3    3    0    0  0.35110978094E+01 -0.10144877885E+02  0.37207185314E+01  0.11361782509E+02  0.51100000000E-03 0.  1.
        -12    1    3    3    0    0 -0.13407910485E+02 -0.87075773437E+01  0.15485448478E+02  0.22257427554E+02  0.00000000000E+00 0.  1.
</event>
<event>
 7    1  0.4878192E-011  0.5052886E+02  0.7816164E-02  0.1300439E+00
        -11   -1    0    0    0    0  0.00000000000E+00  0.00000000000E+00  0.45593999997E+02  0.45594000000E+02  0.51100000000E-03 0.  1.
         11   -1    0    0    0    0 -0.00000000000E+00 -0.00000000000E+00 -0.45593999997E+02  0.45594000000E+02  0.51100000000E-03 0. -1.
    9900012    2    1    2    0    0  0.29424612322E+02 -0.75493870884E+01 -0.27025258716E+02  0.50528860015E+02  0.30000000500E+02 0.  0.
        -12    1    1    2    0    0 -0.29424612322E+02  0.75493870884E+01  0.27025258716E+02  0.40659139985E+02  0.00000000000E+00 0.  1.
         11    1    3    3    0    0  0.13981038926E+02  0.18254281222E+01 -0.17252856714E+02  0.22281443004E+02  0.51100000000E-03 0. -1.
        -11    1    3    3    0    0  0.71856418812E+01 -0.68187168005E+01  0.50268367127E+01  0.11108439839E+02  0.51100000000E-03 0.  1.
        -12    1    3    3    0    0  0.82579315150E+01 -0.25560984101E+01 -0.14799238714E+02  0.17138977172E+02  0.00000000000E+00 0.  1.
</event>
<event>
 7    1  0.4878192E-011  0.5052886E+02  0.7816164E-02  0.1300439E+00
        -11   -1    0    0    0    0  0.00000000000E+00  0.00000000000E+00  0.45593999997E+02  0.45594000000E+02  0.51100000000E-03 0.  1.
         11   -1    0    0    0    0 -0.00000000000E+00 -0.00000000000E+00 -0.45593999997E+02  0.45594000000E+02  0.51100000000E-03 0. -1.
    9900012    2    1    2    0    0 -0.22177953876E+02 -0.20355160648E+02 -0.27330774135E+02  0.50528863044E+02  0.30000009709E+02 0.  0.
        -12    1    1    2    0    0  0.22177953876E+02  0.20355160648E+02  0.27330774135E+02  0.40659136956E+02  0.00000000000E+00 0.  1.
         11    1    3    3    0    0 -0.90337480159E+01 -0.57703258745E+01 -0.25653646551E+02  0.27803144526E+02  0.51100000000E-03 0. -1.
        -11    1    3    3    0    0 -0.27431897877E+01  0.56866317474E+00  0.26361537839E+01  0.38467876275E+01  0.51100000000E-03 0.  1.
         12    1    3    3    0    0 -0.10401016073E+02 -0.15153497948E+02 -0.43132813681E+01  0.18878930891E+02  0.00000000000E+00 0. -1.
</event>
<event>
 7    1  0.4878192E-011  0.5052885E+02  0.7816164E-02  0.1300439E+00
        -11   -1    0    0    0    0  0.00000000000E+00  0.00000000000E+00  0.45593999997E+02  0.45594000000E+02  0.51100000000E-03 0.  1.
         11   -1    0    0    0    0 -0.00000000000E+00 -0.00000000000E+00 -0.45593999997E+02  0.45594000000E+02  0.51100000000E-03 0. -1.
    9900012    2    1    2    0    0  0.24667717662E+00 -0.10176821571E+02 -0.39364167633E+02  0.50528852931E+02  0.29999978968E+02 0.  0.
        -12    1    1    2    0    0 -0.24667717662E+00  0.10176821571E+02  0.39364167633E+02  0.40659147069E+02  0.00000000000E+00 0.  1.
         11    1    3    3    0    0  0.94570786880E+01  0.51264414239E+01 -0.10590326779E+02  0.15095421840E+02  0.51100000000E-03 0. -1.
        -11    1    3    3    0    0 -0.85640873000E+01 -0.42109490177E+01 -0.12448946261E+02  0.15686043038E+02  0.51100000000E-03 0.  1.
         12    1    3    3    0    0 -0.64631421138E+00 -0.11092313977E+02 -0.16324894593E+02  0.19747388053E+02  0.00000000000E+00 0. -1.
</event>
<event>
 7    1  0.4878192E-011  0.5052886E+02  0.7816164E-02  0.1300439E+00
        -11   -1    0    0    0    0  0.00000000000E+00  0.00000000000E+00  0.45593999997E+02  0.45594000000E+02  0.51100000000E-03 0.  1.
         11   -1    0    0    0    0 -0.00000000000E+00 -0.00000000000E+00 -0.45593999997E+02  0.45594000000E+02  0.51100000000E-03 0. -1.
    9900012    2    1    2    0    0 -0.33595671798E+02 -0.12476110089E+02 -0.19205294335E+02  0.50528858137E+02  0.29999994795E+02 0.  0.
        -12    1    1    2    0    0  0.33595671798E+02  0.12476110089E+02  0.19205294335E+02  0.40659141863E+02  0.00000000000E+00 0.  1.
         11    1    3    3    0    0 -0.23169791409E+02 -0.15786546052E+02 -0.64928054005E+01  0.28778651678E+02  0.51100000000E-03 0. -1.
        -11    1    3    3    0    0 -0.73662350737E+01  0.71010091809E+01 -0.26478605510E+01  0.10568676185E+02  0.51100000000E-03 0.  1.
        -12    1    3    3    0    0 -0.30596453153E+01 -0.37905732186E+01 -0.10064628383E+02  0.11181530274E+02  0.00000000000E+00 0.  1.
</event>
<event>
 7    1  0.7228817E-011  0.5052886E+02  0.7816164E-02  0.1300439E+00
        -11   -1    0    0    0    0  0.00000000000E+00  0.00000000000E+00  0.45593999997E+02  0.45594000000E+02  0.51100000000E-03 0.  1.
         11   -1    0    0    0    0 -0.00000000000E+00 -0.00000000000E+00 -0.45593999997E+02  0.45594000000E+02  0.51100000000E-03 0. -1.
    9900012    2    1    2    0    0 -0.30149190073E+02  0.27100402052E+02  0.31241252817E+01  0.50528860656E+02  0.30000002449E+02 0.  0.
        -12    1    1    2    0    0  0.30149190073E+02 -0.27100402052E+02 -0.31241252817E+01  0.40659139344E+02  0.00000000000E+00 0.  1.
         11    1    3    3    0    0 -0.54954397469E+01  0.72954866746E+01  0.10085139794E+02  0.13606396612E+02  0.51100000000E-03 0. -1.
        -11    1    3    3    0    0 -0.17918626643E+02  0.39968556303E+01 -0.72456879853E+01  0.19737072487E+02  0.51100000000E-03 0.  1.
         12    1    3    3    0    0 -0.67351236833E+01  0.15808059747E+02  0.28467347319E+00  0.17185391557E+02  0.00000000000E+00 0. -1.
</event>
<event>
 7    1  0.4878192E-011  0.5052886E+02  0.7816164E-02  0.1300439E+00
        -11   -1    0    0    0    0  0.00000000000E+00  0.00000000000E+00  0.45593999997E+02  0.45594000000E+02  0.51100000000E-03 0.  1.
         11   -1    0    0    0    0 -0.00000000000E+00 -0.00000000000E+00 -0.45593999997E+02  0.45594000000E+02  0.51100000000E-03 0. -1.
    9900012    2    1    2    0    0  0.31682629940E+02 -0.21426570998E+02 -0.13794145678E+02  0.50528862778E+02  0.30000008899E+02 0.  0.
        -12    1    1    2    0    0 -0.31682629940E+02  0.21426570998E+02  0.13794145678E+02  0.40659137222E+02  0.00000000000E+00 0.  1.
         11    1    3    3    0    0  0.15196698277E+02 -0.75593529754E+01  0.79050373762E+01  0.18723596666E+02  0.51100000000E-03 0.  1.
        -11    1    3    3    0    0  0.92785638571E+01 -0.84604768188E+01 -0.65077654627E+01  0.14142928510E+02  0.51100000000E-03 0. -1.
         12    1    3    3    0    0  0.72073678060E+01 -0.54067412042E+01 -0.15191417591E+02  0.17662337602E+02  0.00000000000E+00 0. -1.
</event>
<event>
 7    1  0.4878192E-011  0.5052885E+02  0.7816164E-02  0.1300439E+00
        -11   -1    0    0    0    0  0.00000000000E+00  0.00000000000E+00  0.45593999997E+02  0.45594000000E+02  0.51100000000E-03 0. -1.
         11   -1    0    0    0    0 -0.00000000000E+00 -0.00000000000E+00 -0.45593999997E+02  0.45594000000E+02  0.51100000000E-03 0.  1.
    9900012    2    1    2    0    0  0.14089710644E+02  0.33763039352E+01  0.37990088810E+02  0.50528853156E+02  0.29999979652E+02 0.  0.
        -12    1    1    2    0    0 -0.14089710644E+02 -0.33763039352E+01 -0.37990088810E+02  0.40659146844E+02  0.00000000000E+00 0.  1.
         11    1    3    3    0    0  0.56280643312E+01 -0.87956403018E+01  0.40174113807E+01  0.11188297051E+02  0.51100000000E-03 0. -1.
        -11    1    3    3    0    0  0.52406176135E+01  0.14467123588E+02  0.22959744872E+02  0.27638951187E+02  0.51100000000E-03 0.  1.
        -12    1    3    3    0    0  0.32210286993E+01 -0.22951793510E+01  0.11012932557E+02  0.11701604918E+02  0.00000000000E+00 0.  1.
</event>
<event>
 7    1  0.4878192E-011  0.5052886E+02  0.7816164E-02  0.1300439E+00
        -11   -1    0    0    0    0  0.00000000000E+00  0.00000000000E+00  0.45593999997E+02  0.45594000000E+02  0.51100000000E-03 0.  1.
         11   -1    0    0    0    0 -0.00000000000E+00 -0.00000000000E+00 -0.45593999997E+02  0.45594000000E+02  0.51100000000E-03 0. -1.
    9900012    2    1    2    0    0 -0.13555923678E+02 -0.38049812826E+02 -0.46491102667E+01  0.50528861431E+02  0.30000004806E+02 0.  0.
        -12    1    1    2    0    0  0.13555923678E+02  0.38049812826E+02  0.46491102667E+01  0.40659138569E+02  0.00000000000E+00 0.  1.
         11    1    3    3    0    0 -0.18087470266E+02 -0.37034523862E+02 -0.23083699174E+01  0.41280032828E+02  0.51100000000E-03 0. -1.
        -11    1    3    3    0    0  0.40509929572E+00 -0.11119483995E+01  0.25726502393E+01  0.28317952252E+01  0.51100000000E-03 0.  1.
         12    1    3    3    0    0  0.41264472922E+01  0.96659435404E-01 -0.49133905885E+01  0.64170333782E+01  0.00000000000E+00 0. -1.
</event>
<event>
 7    1  0.4878192E-011  0.5052886E+02  0.7816164E-02  0.1300439E+00
        -11   -1    0    0    0    0  0.00000000000E+00  0.00000000000E+00  0.45593999997E+02  0.45594000000E+02  0.51100000000E-03 0. -1.
         11   -1    0    0    0    0 -0.00000000000E+00 -0.00000000000E+00 -0.45593999997E+02  0.45594000000E+02  0.51100000000E-03 0.  1.
    9900012    2    1    2    0    0 -0.94323570391E+01  0.30104960379E+02  0.25649317036E+02  0.50528862489E+02  0.30000008021E+02 0.  0.
        -12    1    1    2    0    0  0.94323570391E+01 -0.30104960379E+02 -0.25649317036E+02  0.40659137511E+02  0.00000000000E+00 0.  1.
         11    1    3    3    0    0  0.66985694365E+01  0.24619881798E+01  0.40949065163E+01  0.82280300152E+01  0.51100000000E-03 0. -1.
        -11    1    3    3    0    0 -0.12652988643E+02  0.29736053546E+02  0.19603013906E+02  0.37796946392E+02  0.51100000000E-03 0.  1.
        -12    1    3    3    0    0 -0.34779378329E+01 -0.20930813470E+01  0.19513966143E+01  0.45038860822E+01  0.00000000000E+00 0.  1.
</event>
<event>
 7    1  0.4878192E-011  0.5052883E+02  0.7816164E-02  0.1300439E+00
        -11   -1    0    0    0    0  0.00000000000E+00  0.00000000000E+00  0.45593999997E+02  0.45594000000E+02  0.51100000000E-03 0.  1.
         11   -1    0    0    0    0 -0.00000000000E+00 -0.00000000000E+00 -0.45593999997E+02  0.45594000000E+02  0.51100000000E-03 0. -1.
    9900012    2    1    2    0    0 -0.62881078401E+01 -0.40117538309E+02 -0.20520739646E+01  0.50528828984E+02  0.29999906179E+02 0.  0.
        -12    1    1    2    0    0  0.62881078401E+01  0.40117538309E+02  0.20520739646E+01  0.40659171016E+02  0.00000000000E+00 0.  1.
         11    1    3    3    0    0  0.22156347498E+00 -0.37358020246E+02 -0.31497355009E+01  0.37491220320E+02  0.51100000000E-03 0. -1.
        -11    1    3    3    0    0 -0.92287797778E+01 -0.26340268139E+00  0.18061170715E+00  0.92343044140E+01  0.51100000000E-03 0.  1.
         12    1    3    3    0    0  0.27191084628E+01 -0.24961153813E+01  0.91704982921E+00  0.38033042501E+01  0.00000000000E+00 0. -1.
</event>
<event>
 7    1  0.4878192E-011  0.5052886E+02  0.7816164E-02  0.1300439E+00
        -11   -1    0    0    0    0  0.00000000000E+00  0.00000000000E+00  0.45593999997E+02  0.45594000000E+02  0.51100000000E-03 0.  1.
         11   -1    0    0    0    0 -0.00000000000E+00 -0.00000000000E+00 -0.45593999997E+02  0.45594000000E+02  0.51100000000E-03 0. -1.
    9900012    2    1    2    0    0  0.15227882380E+02 -0.14974958816E+02 -0.34598087598E+02  0.50528862543E+02  0.30000008186E+02 0.  0.
        -12    1    1    2    0    0 -0.15227882380E+02  0.14974958816E+02  0.34598087598E+02  0.40659137457E+02  0.00000000000E+00 0.  1.
         11    1    3    3    0    0  0.65244954065E+01 -0.35807225189E+01 -0.11804148097E+02  0.13954516352E+02  0.51100000000E-03 0. -1.
        -11    1    3    3    0    0 -0.45827875546E+01 -0.12221453623E+02 -0.18393297904E+02  0.22553919359E+02  0.51100000000E-03 0.  1.
        -12    1    3    3    0    0  0.13286174528E+02  0.82721732560E+00 -0.44006415974E+01  0.14020426832E+02  0.00000000000E+00 0.  1.
</event>
<event>
 7    1  0.4878192E-011  0.5052885E+02  0.7816164E-02  0.1300439E+00
        -11   -1    0    0    0    0  0.00000000000E+00  0.00000000000E+00  0.45593999997E+02  0.45594000000E+02  0.51100000000E-03 0.  1.
         11   -1    0    0    0    0 -0.00000000000E+00 -0.00000000000E+00 -0.45593999997E+02  0.45594000000E+02  0.51100000000E-03 0. -1.
    9900012    2    1    2    0    0 -0.42141127694E+01  0.33019158796E+02 -0.23348287447E+02  0.50528854403E+02  0.29999983442E+02 0.  0.
        -12    1    1    2    0    0  0.42141127694E+01 -0.33019158796E+02  0.23348287447E+02  0.40659145597E+02  0.00000000000E+00 0.  1.
         11    1    3    3    0    0 -0.10165246783E+02  0.30212767472E+02 -0.94530944324E+01  0.33249128637E+02  0.51100000000E-03 0. -1.
        -11    1    3    3    0    0  0.13990683940E+01  0.31146054044E+00 -0.11454124242E+02  0.11543455395E+02  0.51100000000E-03 0.  1.
         12    1    3    3    0    0  0.45520656197E+01  0.24949307833E+01 -0.24410687722E+01  0.57362703711E+01  0.00000000000E+00 0. -1.
</event>
<event>
 7    1  0.4878192E-011  0.5052880E+02  0.7816164E-02  0.1300439E+00
        -11   -1    0    0    0    0  0.00000000000E+00  0.00000000000E+00  0.45593999997E+02  0.45594000000E+02  0.51100000000E-03 0.  1.
         11   -1    0    0    0    0 -0.00000000000E+00 -0.00000000000E+00 -0.45593999997E+02  0.45594000000E+02  0.51100000000E-03 0. -1.
    9900012    2    1    2    0    0  0.12723249782E+02  0.14347295958E+02 -0.35853102016E+02  0.50528795501E+02  0.29999804405E+02 0.  0.
        -12    1    1    2    0    0 -0.12723249782E+02 -0.14347295958E+02  0.35853102016E+02  0.40659204499E+02  0.00000000000E+00 0.  1.
         11    1    3    3    0    0  0.87854530475E+01  0.18769794936E+02 -0.21205629794E+02  0.29650769340E+02  0.51100000000E-03 0. -1.
        -11    1    3    3    0    0 -0.28906668530E+01 -0.65073199329E+01 -0.10290982534E+02  0.12514211495E+02  0.51100000000E-03 0.  1.
        -12    1    3    3    0    0  0.68284635878E+01  0.20848209543E+01 -0.43564896877E+01  0.83638146668E+01  0.00000000000E+00 0.  1.
</event>
<event>
 7    1  0.4878192E-011  0.5052888E+02  0.7816164E-02  0.1300439E+00
        -11   -1    0    0    0    0  0.00000000000E+00  0.00000000000E+00  0.45593999997E+02  0.45594000000E+02  0.51100000000E-03 0.  1.
         11   -1    0    0    0    0 -0.00000000000E+00 -0.00000000000E+00 -0.45593999997E+02  0.45594000000E+02  0.51100000000E-03 0. -1.
    9900012    2    1    2    0    0 -0.66493925806E+01  0.29579105035E+01 -0.40002506807E+02  0.50528877935E+02  0.30000054972E+02 0.  0.
        -12    1    1    2    0    0  0.66493925806E+01 -0.29579105035E+01  0.40002506807E+02  0.40659122065E+02  0.00000000000E+00 0.  1.
         11    1    3    3    0    0  0.57051815660E+01  0.53697626819E+01 -0.25877987062E+01  0.82510696498E+01  0.51100000000E-03 0.  1.
        -11    1    3    3    0    0 -0.11661825851E+02 -0.78638619801E+01 -0.28940383042E+02  0.32177387686E+02  0.51100000000E-03 0. -1.
         12    1    3    3    0    0 -0.69274829553E+00  0.54520098016E+01 -0.84743250593E+01  0.10100420600E+02  0.00000000000E+00 0. -1.
</event>
<event>
 7    1  0.4878192E-011  0.5052886E+02  0.7816164E-02  0.1300439E+00
        -11   -1    0    0    0    0  0.00000000000E+00  0.00000000000E+00  0.45593999997E+02  0.45594000000E+02  0.51100000000E-03 0.  1.
         11   -1    0    0    0    0 -0.00000000000E+00 -0.00000000000E+00 -0.45593999997E+02  0.45594000000E+02  0.51100000000E-03 0. -1.
    9900012    2    1    2    0    0 -0.26989786387E+02 -0.14035316343E+02 -0.26976419875E+02  0.50528857076E+02  0.29999991569E+02 0.  0.
        -12    1    1    2    0    0  0.26989786387E+02  0.14035316343E+02  0.26976419875E+02  0.40659142924E+02  0.00000000000E+00 0.  1.
         11    1    3    3    0    0  0.27777469773E+01 -0.62177792759E+01 -0.10963338235E+02  0.12906255960E+02  0.51100000000E-03 0.  1.
        -11    1    3    3    0    0 -0.29244022963E+02 -0.98725749348E+01 -0.17050390909E+02  0.35261827028E+02  0.51100000000E-03 0. -1.
        -12    1    3    3    0    0 -0.52351040086E+00  0.20550378678E+01  0.10373092696E+01  0.23607740889E+01  0.00000000000E+00 0.  1.
</event>
<event>
 7    1  0.4878192E-011  0.5052886E+02  0.7816164E-02  0.1300439E+00
        -11   -1    0    0    0    0  0.00000000000E+00  0.00000000000E+00  0.45593999997E+02  0.45594000000E+02  0.51100000000E-03 0.  1.
         11   -1    0    0    0    0 -0.00000000000E+00 -0.00000000000E+00 -0.45593999997E+02  0.45594000000E+02  0.51100000000E-03 0. -1.
    9900012    2    1    2    0    0  0.24626078156E+02 -0.30144511882E+02 -0.11748629753E+02  0.50528860523E+02  0.30000002046E+02 0.  0.
        -12    1    1    2    0    0 -0.24626078156E+02  0.30144511882E+02  0.11748629753E+02  0.40659139477E+02  0.00000000000E+00 0.  1.
         11    1    3    3    0    0 -0.42228618731E+01 -0.55245916478E+01 -0.57736048195E+01  0.90381518103E+01  0.51100000000E-03 0. -1.
        -11    1    3    3    0    0  0.19260599615E+02 -0.24683010364E+02 -0.61201391938E+01  0.31901062713E+02  0.51100000000E-03 0.  1.
        -12    1    3    3    0    0  0.95883404139E+01  0.63090130094E-01  0.14511426063E+00  0.95896460000E+01  0.00000000000E+00 0.  1.
</event>
<event>
 7    1  0.4878192E-011  0.5052886E+02  0.7816164E-02  0.1300439E+00
        -11   -1    0    0    0    0  0.00000000000E+00  0.00000000000E+00  0.45593999997E+02  0.45594000000E+02  0.51100000000E-03 0.  1.
         11   -1    0    0    0    0 -0.00000000000E+00 -0.00000000000E+00 -0.45593999997E+02  0.45594000000E+02  0.51100000000E-03 0. -1.
    9900012    2    1    2    0    0  0.11184452483E+02 -0.13151890781E+02 -0.36811707917E+02  0.50528855294E+02  0.29999986152E+02 0.  0.
        -12    1    1    2    0    0 -0.11184452483E+02  0.13151890781E+02  0.36811707917E+02  0.40659144706E+02  0.00000000000E+00 0.  1.
         11    1    3    3    0    0 -0.30630322623E+01 -0.10060427733E+02 -0.16913705385E+02  0.19916520854E+02  0.51100000000E-03 0. -1.
        -11    1    3    3    0    0  0.15918608443E+02  0.13636919250E+01 -0.20304559383E+02  0.25836735135E+02  0.51100000000E-03 0.  1.
        -12    1    3    3    0    0 -0.16711236979E+01 -0.44551549729E+01  0.40655685180E+00  0.47755993048E+01  0.00000000000E+00 0.  1.
</event>
<event>
 7    1  0.4878192E-011  0.5052886E+02  0.7816164E-02  0.1300439E+00
        -11   -1    0    0    0    0  0.00000000000E+00  0.00000000000E+00  0.45593999997E+02  0.45594000000E+02  0.51100000000E-03 0.  1.
         11   -1    0    0    0    0 -0.00000000000E+00 -0.00000000000E+00 -0.45593999997E+02  0.45594000000E+02  0.51100000000E-03 0. -1.
    9900012    2    1    2    0    0  0.38797544634E+02  0.10878533718E+02 -0.54382067039E+01  0.50528855178E+02  0.29999985798E+02 0.  0.
        -12    1    1    2    0    0 -0.38797544634E+02 -0.10878533718E+02  0.54382067039E+01  0.40659144822E+02  0.00000000000E+00 0.  1.
         11    1    3    3    0    0  0.95802117424E+01  0.11912563520E+02 -0.80368068803E+01  0.17270781446E+02  0.51100000000E-03 0. -1.
        -11    1    3    3    0    0  0.76939117768E+01  0.18079670952E+01  0.76157612592E+01  0.10975647738E+02  0.51100000000E-03 0.  1.
        -12    1    3    3    0    0  0.21523421115E+02 -0.28419968970E+01 -0.50171610828E+01  0.22282425994E+02  0.00000000000E+00 0.  1.
</event>
<event>
 7    1  0.4878192E-011  0.5052885E+02  0.7816164E-02  0.1300439E+00
        -11   -1    0    0    0    0  0.00000000000E+00  0.00000000000E+00  0.45593999997E+02  0.45594000000E+02  0.51100000000E-03 0. -1.
         11   -1    0    0    0    0 -0.00000000000E+00 -0.00000000000E+00 -0.45593999997E+02  0.45594000000E+02  0.51100000000E-03 0.  1.
    9900012    2    1    2    0    0  0.31532894193E+02 -0.13873136526E+01  0.25630413845E+02  0.50528853806E+02  0.29999981629E+02 0.  0.
        -12    1    1    2    0    0 -0.31532894193E+02  0.13873136526E+01 -0.25630413845E+02  0.40659146194E+02  0.00000000000E+00 0.  1.
         11    1    3    3    0    0  0.83590177937E+01 -0.18617921480E+01  0.11532876909E+02  0.14364772833E+02  0.51100000000E-03 0. -1.
        -11    1    3    3    0    0  0.15759576320E+02  0.10496237684E+02  0.24313409234E+01  0.19090486381E+02  0.51100000000E-03 0.  1.
        -12    1    3    3    0    0  0.74143000792E+01 -0.10021759189E+02  0.11666196013E+02  0.17073594593E+02  0.00000000000E+00 0.  1.
</event>
<event>
 7    1  0.4878192E-011  0.5052886E+02  0.7816164E-02  0.1300439E+00
        -11   -1    0    0    0    0  0.00000000000E+00  0.00000000000E+00  0.45593999997E+02  0.45594000000E+02  0.51100000000E-03 0. -1.
         11   -1    0    0    0    0 -0.00000000000E+00 -0.00000000000E+00 -0.45593999997E+02  0.45594000000E+02  0.51100000000E-03 0.  1.
    9900012    2    1    2    0    0 -0.35664516137E+02  0.16906690524E+02 -0.97658503497E+01  0.50528859222E+02  0.29999998091E+02 0.  0.
        -12    1    1    2    0    0  0.35664516137E+02 -0.16906690524E+02  0.97658503497E+01  0.40659140778E+02  0.00000000000E+00 0.  1.
         11    1    3    3    0    0 -0.78204247804E+01  0.58781625161E+00  0.68155229545E+01  0.10390184074E+02  0.51100000000E-03 0. -1.
        -11    1    3    3    0    0 -0.15208633025E+02 -0.72390435335E+00 -0.84849260450E+01  0.17430448251E+02  0.51100000000E-03 0.  1.
         12    1    3    3    0    0 -0.12635458332E+02  0.17042778626E+02 -0.80964472593E+01  0.22708226896E+02  0.00000000000E+00 0. -1.
</event>
<event>
 7    1  0.4878192E-011  0.5052886E+02  0.7816164E-02  0.1300439E+00
        -11   -1    0    0    0    0  0.00000000000E+00  0.00000000000E+00  0.45593999997E+02  0.45594000000E+02  0.51100000000E-03 0. -1.
         11   -1    0    0    0    0 -0.00000000000E+00 -0.00000000000E+00 -0.45593999997E+02  0.45594000000E+02  0.51100000000E-03 0.  1.
    9900012    2    1    2    0    0  0.74821016398E+01 -0.15757977750E+02  0.36726967006E+02  0.50528858185E+02  0.29999994939E+02 0.  0.
        -12    1    1    2    0    0 -0.74821016398E+01  0.15757977750E+02 -0.36726967006E+02  0.40659141815E+02  0.00000000000E+00 0.  1.
         11    1    3    3    0    0  0.44245621884E+01 -0.88913389632E+01  0.28688472377E+02  0.30358871960E+02  0.51100000000E-03 0. -1.
        -11    1    3    3    0    0 -0.16306502656E+01  0.15528073256E+00 -0.46494557567E+01  0.49295609834E+01  0.51100000000E-03 0.  1.
        -12    1    3    3    0    0  0.46881897169E+01 -0.70219195189E+01  0.12687950385E+02  0.15240425241E+02  0.00000000000E+00 0.  1.
</event>
<event>
 7    1  0.4878192E-011  0.5052886E+02  0.7816164E-02  0.1300439E+00
        -11   -1    0    0    0    0  0.00000000000E+00  0.00000000000E+00  0.45593999997E+02  0.45594000000E+02  0.51100000000E-03 0. -1.
         11   -1    0    0    0    0 -0.00000000000E+00 -0.00000000000E+00 -0.45593999997E+02  0.45594000000E+02  0.51100000000E-03 0.  1.
    9900012    2    1    2    0    0  0.12644302733E+02 -0.36888464378E+02 -0.11512117261E+02  0.50528855400E+02  0.29999986473E+02 0.  0.
        -12    1    1    2    0    0 -0.12644302733E+02  0.36888464378E+02  0.11512117261E+02  0.40659144600E+02  0.00000000000E+00 0.  1.
         11    1    3    3    0    0  0.87062459646E+01 -0.94631803052E+01  0.46029611203E+01  0.13657882399E+02  0.51100000000E-03 0. -1.
        -11    1    3    3    0    0  0.64931957506E+01 -0.18416624773E+02 -0.18823632317E+02  0.27123104412E+02  0.51100000000E-03 0.  1.
        -12    1    3    3    0    0 -0.25551389822E+01 -0.90086593003E+01  0.27085539357E+01  0.97478685891E+01  0.00000000000E+00 0.  1.
</event>
<event>
 7    1  0.4878192E-011  0.5052885E+02  0.7816164E-02  0.1300439E+00
        -11   -1    0    0    0    0  0.00000000000E+00  0.00000000000E+00  0.45593999997E+02  0.45594000000E+02  0.51100000000E-03 0.  1.
         11   -1    0    0    0    0 -0.00000000000E+00 -0.00000000000E+00 -0.45593999997E+02  0.45594000000E+02  0.51100000000E-03 0. -1.
    9900012    2    1    2    0    0 -0.22405000246E+01 -0.34620240503E+02 -0.21203426503E+02  0.50528853571E+02  0.29999980914E+02 0.  0.
        -12    1    1    2    0    0  0.22405000246E+01  0.34620240503E+02  0.21203426503E+02  0.40659146429E+02  0.00000000000E+00 0.  1.
         11    1    3    3    0    0 -0.15264703072E+01 -0.16007983587E+00 -0.24633273973E+01  0.29023644292E+01  0.51100000000E-03 0. -1.
        -11    1    3    3    0    0 -0.88571764116E+01 -0.21019926434E+02  0.46110271439E+00  0.22814458075E+02  0.51100000000E-03 0.  1.
        -12    1    3    3    0    0  0.81431466942E+01 -0.13440234234E+02 -0.19201201820E+02  0.24812031067E+02  0.00000000000E+00 0.  1.
</event>
<event>
 7    1  0.4878192E-011  0.5052886E+02  0.7816164E-02  0.1300439E+00
        -11   -1    0    0    0    0  0.00000000000E+00  0.00000000000E+00  0.45593999997E+02  0.45594000000E+02  0.51100000000E-03 0. -1.
         11   -1    0    0    0    0 -0.00000000000E+00 -0.00000000000E+00 -0.45593999997E+02  0.45594000000E+02  0.51100000000E-03 0.  1.
    9900012    2    1    2    0    0  0.18281206750E+02  0.23160653920E+02  0.27974040967E+02  0.50528863533E+02  0.30000011194E+02 0.  0.
        -12    1    1    2    0    0 -0.18281206750E+02 -0.23160653920E+02 -0.27974040967E+02  0.40659136467E+02  0.00000000000E+00 0.  1.
         11    1    3    3    0    0  0.27836906687E+00  0.95405276401E+01  0.24964078153E+02  0.26726472930E+02  0.51100000000E-03 0. -1.
        -11    1    3    3    0    0  0.12599860537E+02  0.13092810024E+02  0.19992869293E+01  0.18280462477E+02  0.51100000000E-03 0.  1.
        -12    1    3    3    0    0  0.54029771468E+01  0.52731625616E+00  0.10106758843E+01  0.55219281258E+01  0.00000000000E+00 0.  1.
</event>
<event>
 7    1  0.4878192E-011  0.5052886E+02  0.7816164E-02  0.1300439E+00
        -11   -1    0    0    0    0  0.00000000000E+00  0.00000000000E+00  0.45593999997E+02  0.45594000000E+02  0.51100000000E-03 0.  1.
         11   -1    0    0    0    0 -0.00000000000E+00 -0.00000000000E+00 -0.45593999997E+02  0.45594000000E+02  0.51100000000E-03 0. -1.
    9900012    2    1    2    0    0 -0.38038916386E+02  0.13994139689E+02  0.32203623661E+01  0.50528857864E+02  0.29999993965E+02 0.  0.
        -12    1    1    2    0    0  0.38038916386E+02 -0.13994139689E+02 -0.32203623661E+01  0.40659142136E+02  0.00000000000E+00 0.  1.
         11    1    3    3    0    0 -0.39293822142E+02  0.19511407597E+02  0.45833905124E+01  0.44110168372E+02  0.51100000000E-03 0. -1.
        -11    1    3    3    0    0  0.18485635138E+01 -0.27168152820E+01 -0.13589982991E+01  0.35560018250E+01  0.51100000000E-03 0.  1.
         12    1    3    3    0    0 -0.59365775791E+00 -0.28004526260E+01 -0.40298471634E-02  0.28626876679E+01  0.00000000000E+00 0. -1.
</event>
<event>
 7    1  0.4878192E-011  0.5052888E+02  0.7816164E-02  0.1300439E+00
        -11   -1    0    0    0    0  0.00000000000E+00  0.00000000000E+00  0.45593999997E+02  0.45594000000E+02  0.51100000000E-03 0.  1.
         11   -1    0    0    0    0 -0.00000000000E+00 -0.00000000000E+00 -0.45593999997E+02  0.45594000000E+02  0.51100000000E-03 0. -1.
    9900012    2    1    2    0    0 -0.64970557873E+01  0.19548666680E+02 -0.35054269558E+02  0.50528881501E+02  0.30000065810E+02 0.  0.
        -12    1    1    2    0    0  0.64970557873E+01 -0.19548666680E+02  0.35054269558E+02  0.40659118499E+02  0.00000000000E+00 0.  1.
         11    1    3    3    0    0 -0.14322395331E+02  0.95325938558E+01 -0.21890614472E+02  0.27842420079E+02  0.51100000000E-03 0. -1.
        -11    1    3    3    0    0  0.71911582293E+01  0.13290309205E+02 -0.10266343556E+02  0.18268631194E+02  0.51100000000E-03 0.  1.
        -12    1    3    3    0    0  0.63418131405E+00 -0.32742363809E+01 -0.28973115305E+01  0.44178302279E+01  0.00000000000E+00 0.  1.
</event>
<event>
 7    1  0.4878192E-011  0.5052887E+02  0.7816164E-02  0.1300439E+00
        -11   -1    0    0    0    0  0.00000000000E+00  0.00000000000E+00  0.45593999997E+02  0.45594000000E+02  0.51100000000E-03 0. -1.
         11   -1    0    0    0    0 -0.00000000000E+00 -0.00000000000E+00 -0.45593999997E+02  0.45594000000E+02  0.51100000000E-03 0.  1.
    9900012    2    1    2    0    0 -0.32917793197E+02  0.19998200777E+01  0.23782022152E+02  0.50528868591E+02  0.30000026569E+02 0.  0.
        -12    1    1    2    0    0  0.32917793197E+02 -0.19998200777E+01 -0.23782022152E+02  0.40659131409E+02  0.00000000000E+00 0.  1.
         11    1    3    3    0    0 -0.28620179201E+01  0.53790940985E+01  0.10694026025E+02  0.12308045856E+02  0.51100000000E-03 0. -1.
        -11    1    3    3    0    0 -0.10183856095E+02 -0.10451860788E+02  0.32698528617E+01  0.14954740282E+02  0.51100000000E-03 0.  1.
        -12    1    3    3    0    0 -0.19871919182E+02  0.70725867673E+01  0.98181432652E+01  0.23266082453E+02  0.00000000000E+00 0.  1.
</event>
<event>
 7    1  0.4878192E-011  0.5052891E+02  0.7816164E-02  0.1300439E+00
        -11   -1    0    0    0    0  0.00000000000E+00  0.00000000000E+00  0.45593999997E+02  0.45594000000E+02  0.51100000000E-03 0.  1.
         11   -1    0    0    0    0 -0.00000000000E+00 -0.00000000000E+00 -0.45593999997E+02  0.45594000000E+02  0.51100000000E-03 0. -1.
    9900012    2    1    2    0    0 -0.39925859939E+02  0.76677099353E+01 -0.54185773340E+00  0.50528909044E+02  0.30000149531E+02 0.  0.
        -12    1    1    2    0    0  0.39925859939E+02 -0.76677099353E+01  0.54185773340E+00  0.40659090956E+02  0.00000000000E+00 0.  1.
         11    1    3    3    0    0 -0.24153357244E+02  0.22820064482E+01  0.40161080617E+01  0.24591082607E+02  0.51100000000E-03 0. -1.
        -11    1    3    3    0    0 -0.11124764126E+02  0.69759615668E+01 -0.11485523876E+02  0.17445391243E+02  0.51100000000E-03 0.  1.
        -12    1    3    3    0    0 -0.46477385694E+01 -0.15902580797E+01  0.69275580809E+01  0.84924351946E+01  0.00000000000E+00 0.  1.
</event>
<event>
 7    1  0.4878192E-011  0.5052887E+02  0.7816164E-02  0.1300439E+00
        -11   -1    0    0    0    0  0.00000000000E+00  0.00000000000E+00  0.45593999997E+02  0.45594000000E+02  0.51100000000E-03 0.  1.
         11   -1    0    0    0    0 -0.00000000000E+00 -0.00000000000E+00 -0.45593999997E+02  0.45594000000E+02  0.51100000000E-03 0. -1.
    9900012    2    1    2    0    0 -0.33498490803E+02  0.12001296681E+02 -0.19671931011E+02  0.50528869687E+02  0.30000029899E+02 0.  0.
        -12    1    1    2    0    0  0.33498490803E+02 -0.12001296681E+02  0.19671931011E+02  0.40659130313E+02  0.00000000000E+00 0.  1.
         11    1    3    3    0    0 -0.29773945605E+02  0.11934850182E+02 -0.11261803926E+02  0.33996422072E+02  0.51100000000E-03 0. -1.
        -11    1    3    3    0    0 -0.35111428026E+01 -0.46396067198E+01 -0.99923748266E+01  0.11562942066E+02  0.51100000000E-03 0.  1.
         12    1    3    3    0    0 -0.21340239547E+00  0.47060532185E+01  0.15822477412E+01  0.49695055481E+01  0.00000000000E+00 0. -1.
</event>
<event>
 7    1  0.4878192E-011  0.5052892E+02  0.7816164E-02  0.1300439E+00
        -11   -1    0    0    0    0  0.00000000000E+00  0.00000000000E+00  0.45593999997E+02  0.45594000000E+02  0.51100000000E-03 0. -1.
         11   -1    0    0    0    0 -0.00000000000E+00 -0.00000000000E+00 -0.45593999997E+02  0.45594000000E+02  0.51100000000E-03 0.  1.
    9900012    2    1    2    0    0 -0.19530095424E+02 -0.12595537312E+02  0.33362979923E+02  0.50528922086E+02  0.30000189173E+02 0.  0.
        -12    1    1    2    0    0  0.19530095424E+02  0.12595537312E+02 -0.33362979923E+02  0.40659077914E+02  0.00000000000E+00 0.  1.
         11    1    3    3    0    0 -0.21498520068E+02 -0.15419108271E+02  0.24767217056E+02  0.36240175302E+02  0.51100000000E-03 0. -1.
        -11    1    3    3    0    0  0.19951241204E+00  0.55288469746E+01  0.48026547025E+00  0.55532521332E+01  0.51100000000E-03 0.  1.
        -12    1    3    3    0    0  0.17689122316E+01 -0.27052760155E+01  0.81154973968E+01  0.87354946512E+01  0.00000000000E+00 0.  1.
</event>
<event>
 7    1  0.4878192E-011  0.5052885E+02  0.7816164E-02  0.1300439E+00
        -11   -1    0    0    0    0  0.00000000000E+00  0.00000000000E+00  0.45593999997E+02  0.45594000000E+02  0.51100000000E-03 0.  1.
         11   -1    0    0    0    0 -0.00000000000E+00 -0.00000000000E+00 -0.45593999997E+02  0.45594000000E+02  0.51100000000E-03 0. -1.
    9900012    2    1    2    0    0  0.23645785832E+02  0.27634524481E+02 -0.18176254023E+02  0.50528851691E+02  0.29999975200E+02 0.  0.
        -12    1    1    2    0    0 -0.23645785832E+02 -0.27634524481E+02  0.18176254023E+02  0.40659148309E+02  0.00000000000E+00 0.  1.
         11    1    3    3    0    0  0.11242648544E+02 -0.27591885643E+01 -0.84880236163E+01  0.14354679132E+02  0.51100000000E-03 0. -1.
        -11    1    3    3    0    0  0.13937600878E+02  0.30161735724E+02 -0.87440215476E+01  0.34357603717E+02  0.51100000000E-03 0.  1.
         12    1    3    3    0    0 -0.15344635900E+01  0.23197732194E+00 -0.94420885911E+00  0.18165688416E+01  0.00000000000E+00 0. -1.
</event>
<event>
 7    1  0.4878192E-011  0.5052889E+02  0.7816164E-02  0.1300439E+00
        -11   -1    0    0    0    0  0.00000000000E+00  0.00000000000E+00  0.45593999997E+02  0.45594000000E+02  0.51100000000E-03 0.  1.
         11   -1    0    0    0    0 -0.00000000000E+00 -0.00000000000E+00 -0.45593999997E+02  0.45594000000E+02  0.51100000000E-03 0. -1.
    9900012    2    1    2    0    0  0.11501829420E+02 -0.45680073382E+01 -0.38729893265E+02  0.50528887819E+02  0.30000085015E+02 0.  0.
        -12    1    1    2    0    0 -0.11501829420E+02  0.45680073382E+01  0.38729893265E+02  0.40659112181E+02  0.00000000000E+00 0.  1.
         11    1    3    3    0    0  0.14190198823E+02 -0.96883180394E+01 -0.34029266958E+02  0.38121073686E+02  0.51100000000E-03 0. -1.
        -11    1    3    3    0    0  0.35335038167E+01  0.26849109217E+01 -0.38670911500E+00  0.44546537554E+01  0.51100000000E-03 0.  1.
         12    1    3    3    0    0 -0.62218732198E+01  0.24353997795E+01 -0.43139171919E+01  0.79531603774E+01  0.00000000000E+00 0. -1.
</event>
<event>
 7    1  0.4878192E-011  0.5052886E+02  0.7816164E-02  0.1300439E+00
        -11   -1    0    0    0    0  0.00000000000E+00  0.00000000000E+00  0.45593999997E+02  0.45594000000E+02  0.51100000000E-03 0.  1.
         11   -1    0    0    0    0 -0.00000000000E+00 -0.00000000000E+00 -0.45593999997E+02  0.45594000000E+02  0.51100000000E-03 0. -1.
    9900012    2    1    2    0    0  0.22805727126E+02 -0.14519238731E+02 -0.30368667255E+02  0.50528862848E+02  0.30000009114E+02 0.  0.
        -12    1    1    2    0    0 -0.22805727126E+02  0.14519238731E+02  0.30368667255E+02  0.40659137152E+02  0.00000000000E+00 0.  1.
         11    1    3    3    0    0  0.99654754588E+01 -0.19894464109E+01  0.59450839584E+00  0.10179491079E+02  0.51100000000E-03 0. -1.
        -11    1    3    3    0    0  0.85508162599E+01  0.25004467993E+01 -0.17838632769E+02  0.19939546440E+02  0.51100000000E-03 0.  1.
        -12    1    3    3    0    0  0.42894354075E+01 -0.15030239120E+02 -0.13124542882E+02  0.20409825329E+02  0.00000000000E+00 0.  1.
</event>
<event>
 7    1  0.4878192E-011  0.5052883E+02  0.7816164E-02  0.1300439E+00
        -11   -1    0    0    0    0  0.00000000000E+00  0.00000000000E+00  0.45593999997E+02  0.45594000000E+02  0.51100000000E-03 0. -1.
         11   -1    0    0    0    0 -0.00000000000E+00 -0.00000000000E+00 -0.45593999997E+02  0.45594000000E+02  0.51100000000E-03 0.  1.
    9900012    2    1    2    0    0 -0.31916613640E+02 -0.88702830088E+01  0.23575747571E+02  0.50528831041E+02  0.29999912431E+02 0.  0.
        -12    1    1    2    0    0  0.31916613640E+02  0.88702830088E+01 -0.23575747571E+02  0.40659168959E+02  0.00000000000E+00 0.  1.
         11    1    3    3    0    0 -0.12152365292E+02  0.61266727933E+01  0.16746215841E+02  0.21578967699E+02  0.51100000000E-03 0. -1.
        -11    1    3    3    0    0 -0.12680188554E+02 -0.11612988367E+02 -0.17941982087E+01  0.17287794193E+02  0.51100000000E-03 0.  1.
         12    1    3    3    0    0 -0.70840597941E+01 -0.33839674351E+01  0.86237299389E+01  0.11662069149E+02  0.00000000000E+00 0. -1.
</event>
<event>
 7    1  0.4878192E-011  0.5052885E+02  0.7816164E-02  0.1300439E+00
        -11   -1    0    0    0    0  0.00000000000E+00  0.00000000000E+00  0.45593999997E+02  0.45594000000E+02  0.51100000000E-03 0. -1.
         11   -1    0    0    0    0 -0.00000000000E+00 -0.00000000000E+00 -0.45593999997E+02  0.45594000000E+02  0.51100000000E-03 0.  1.
    9900012    2    1    2    0    0  0.30451876867E+02 -0.10139526223E+02  0.24960754860E+02  0.50528854904E+02  0.29999984968E+02 0.  0.
        -12    1    1    2    0    0 -0.30451876867E+02  0.10139526223E+02 -0.24960754860E+02  0.40659145096E+02  0.00000000000E+00 0.  1.
         11    1    3    3    0    0 -0.39110123918E+00 -0.10677978902E+02  0.86494802419E+01  0.13747207074E+02  0.51100000000E-03 0. -1.
        -11    1    3    3    0    0  0.88823655255E+01  0.13044890411E+01  0.10956111784E+02  0.14164550634E+02  0.51100000000E-03 0.  1.
         12    1    3    3    0    0  0.21960612580E+02 -0.76603636163E+00  0.53551628341E+01  0.22617097196E+02  0.00000000000E+00 0. -1.
</event>
<event>
 7    1  0.4878192E-011  0.5052888E+02  0.7816164E-02  0.1300439E+00
        -11   -1    0    0    0    0  0.00000000000E+00  0.00000000000E+00  0.45593999997E+02  0.45594000000E+02  0.51100000000E-03 0.  1.
         11   -1    0    0    0    0 -0.00000000000E+00 -0.00000000000E+00 -0.45593999997E+02  0.45594000000E+02  0.51100000000E-03 0. -1.
    9900012    2    1    2    0    0  0.97227410452E+01  0.24001550742E+02 -0.31345778671E+02  0.50528880827E+02  0.30000063762E+02 0.  0.
        -12    1    1    2    0    0 -0.97227410452E+01 -0.24001550742E+02  0.31345778671E+02  0.40659119173E+02  0.00000000000E+00 0.  1.
         11    1    3    3    0    0  0.48264067891E+01  0.97325095490E+01 -0.58454293763E+01  0.12336328038E+02  0.51100000000E-03 0. -1.
        -11    1    3    3    0    0 -0.92917528594E+01  0.95456387665E+01 -0.14026119805E+02  0.19343937751E+02  0.51100000000E-03 0.  1.
        -12    1    3    3    0    0  0.14188087116E+02  0.47234024261E+01 -0.11474229490E+02  0.18848615038E+02  0.00000000000E+00 0.  1.
</event>
<event>
 7    1  0.4878192E-011  0.5052886E+02  0.7816164E-02  0.1300439E+00
        -11   -1    0    0    0    0  0.00000000000E+00  0.00000000000E+00  0.45593999997E+02  0.45594000000E+02  0.51100000000E-03 0.  1.
         11   -1    0    0    0    0 -0.00000000000E+00 -0.00000000000E+00 -0.45593999997E+02  0.45594000000E+02  0.51100000000E-03 0. -1.
    9900012    2    1    2    0    0 -0.38679211993E+00  0.22611492832E+02 -0.33789589180E+02  0.50528861381E+02  0.30000004654E+02 0.  0.
        -12    1    1    2    0    0  0.38679211993E+00 -0.22611492832E+02  0.33789589180E+02  0.40659138619E+02  0.00000000000E+00 0.  1.
         11    1    3    3    0    0  0.90352337181E-01  0.22309999749E+02 -0.10514140248E+02  0.24663564174E+02  0.51100000000E-03 0. -1.
        -11    1    3    3    0    0  0.44483188441E+00 -0.53612530911E+01 -0.90762175532E+01  0.10550764685E+02  0.51100000000E-03 0.  1.
         12    1    3    3    0    0 -0.92197634152E+00  0.56627461744E+01 -0.14199231379E+02  0.15314532522E+02  0.00000000000E+00 0. -1.
</event>
<event>
 7    1  0.4878192E-011  0.5052888E+02  0.7816164E-02  0.1300439E+00
        -11   -1    0    0    0    0  0.00000000000E+00  0.00000000000E+00  0.45593999997E+02  0.45594000000E+02  0.51100000000E-03 0. -1.
         11   -1    0    0    0    0 -0.00000000000E+00 -0.00000000000E+00 -0.45593999997E+02  0.45594000000E+02  0.51100000000E-03 0.  1.
    9900012    2    1    2    0    0 -0.15334075907E+02  0.23260144589E+01  0.37584829710E+02  0.50528884767E+02  0.30000075738E+02 0.  0.
        -12    1    1    2    0    0  0.15334075907E+02 -0.23260144589E+01 -0.37584829710E+02  0.40659115233E+02  0.00000000000E+00 0.  1.
         11    1    3    3    0    0 -0.72714102376E+01 -0.28146470801E+01  0.19865242917E+02  0.21340654194E+02  0.51100000000E-03 0. -1.
        -11    1    3    3    0    0  0.88866860914E-01  0.11634955874E+02  0.47940672368E+01  0.12584243181E+02  0.51100000000E-03 0.  1.
        -12    1    3    3    0    0 -0.81515325304E+01 -0.64942943350E+01  0.12925519556E+02  0.16603987391E+02  0.00000000000E+00 0.  1.
</event>
<event>
 7    1  0.4878192E-011  0.5052886E+02  0.7816164E-02  0.1300439E+00
        -11   -1    0    0    0    0  0.00000000000E+00  0.00000000000E+00  0.45593999997E+02  0.45594000000E+02  0.51100000000E-03 0.  1.
         11   -1    0    0    0    0 -0.00000000000E+00 -0.00000000000E+00 -0.45593999997E+02  0.45594000000E+02  0.51100000000E-03 0. -1.
    9900012    2    1    2    0    0 -0.28102866046E+02  0.29380653294E+02 -0.41406502449E+00  0.50528864276E+02  0.30000013454E+02 0.  0.
        -12    1    1    2    0    0  0.28102866046E+02 -0.29380653294E+02  0.41406502449E+00  0.40659135724E+02  0.00000000000E+00 0.  1.
         11    1    3    3    0    0 -0.23709970025E+01 -0.43364417443E+01  0.27443053740E+01  0.56531023372E+01  0.51100000000E-03 0. -1.
        -11    1    3    3    0    0 -0.90057356482E+01  0.19774390875E+02  0.37099022347E+01  0.22042984913E+02  0.51100000000E-03 0.  1.
         12    1    3    3    0    0 -0.16726133395E+02  0.13942704163E+02 -0.68682726332E+01  0.22832777026E+02  0.00000000000E+00 0. -1.
</event>
<event>
 7    1  0.4878192E-011  0.5052884E+02  0.7816164E-02  0.1300439E+00
        -11   -1    0    0    0    0  0.00000000000E+00  0.00000000000E+00  0.45593999997E+02  0.45594000000E+02  0.51100000000E-03 0.  1.
         11   -1    0    0    0    0 -0.00000000000E+00 -0.00000000000E+00 -0.45593999997E+02  0.45594000000E+02  0.51100000000E-03 0. -1.
    9900012    2    1    2    0    0  0.17640224757E+02  0.20216795111E+02 -0.30549489105E+02  0.50528835982E+02  0.29999927452E+02 0.  0.
        -12    1    1    2    0    0 -0.17640224757E+02 -0.20216795111E+02  0.30549489105E+02  0.40659164018E+02  0.00000000000E+00 0.  1.
         11    1    3    3    0    0  0.85538819872E+01  0.72102298701E+01 -0.22913581477E+02  0.25498794642E+02  0.51100000000E-03 0. -1.
        -11    1    3    3    0    0  0.24867090507E+01 -0.20401931740E+01  0.38246878583E+01  0.49974340981E+01  0.51100000000E-03 0.  1.
        -12    1    3    3    0    0  0.65996337192E+01  0.15046758414E+02 -0.11460595487E+02  0.20032607242E+02  0.00000000000E+00 0.  1.
</event>
<event>
 7    1  0.4878192E-011  0.5052886E+02  0.7816164E-02  0.1300439E+00
        -11   -1    0    0    0    0  0.00000000000E+00  0.00000000000E+00  0.45593999997E+02  0.45594000000E+02  0.51100000000E-03 0.  1.
         11   -1    0    0    0    0 -0.00000000000E+00 -0.00000000000E+00 -0.45593999997E+02  0.45594000000E+02  0.51100000000E-03 0. -1.
    9900012    2    1    2    0    0 -0.42596028242E+01  0.85360176992E+01 -0.39524145227E+02  0.50528857481E+02  0.29999992801E+02 0.  0.
        -12    1    1    2    0    0  0.42596028242E+01 -0.85360176992E+01  0.39524145227E+02  0.40659142519E+02  0.00000000000E+00 0.  1.
         11    1    3    3    0    0  0.83050552062E+01 -0.53131517379E+01 -0.17610833463E+02  0.20182789175E+02  0.51100000000E-03 0. -1.
        -11    1    3    3    0    0 -0.11454731015E+02  0.57508533246E+01 -0.13214705414E+02  0.18409552304E+02  0.51100000000E-03 0.  1.
         12    1    3    3    0    0 -0.11099270155E+01  0.80983161125E+01 -0.86986063507E+01  0.11936516003E+02  0.00000000000E+00 0. -1.
</event>
<event>
 7    1  0.4878192E-011  0.5052886E+02  0.7816164E-02  0.1300439E+00
        -11   -1    0    0    0    0  0.00000000000E+00  0.00000000000E+00  0.45593999997E+02  0.45594000000E+02  0.51100000000E-03 0. -1.
         11   -1    0    0    0    0 -0.00000000000E+00 -0.00000000000E+00 -0.45593999997E+02  0.45594000000E+02  0.51100000000E-03 0.  1.
    9900012    2    1    2    0    0  0.47660098678E+01 -0.37225226058E+01  0.40206888395E+02  0.50528857129E+02  0.29999991728E+02 0.  0.
        -12    1    1    2    0    0 -0.47660098678E+01  0.37225226058E+01 -0.40206888395E+02  0.40659142871E+02  0.00000000000E+00 0.  1.
         11    1    3    3    0    0 -0.10626816390E+02  0.11986962622E+01  0.93408701098E+01  0.14199223710E+02  0.51100000000E-03 0. -1.
        -11    1    3    3    0    0  0.78807803492E+01  0.24802103892E+01  0.17073865298E+02  0.18967736263E+02  0.51100000000E-03 0.  1.
         12    1    3    3    0    0  0.75120459083E+01 -0.74014292573E+01  0.13792152988E+02  0.17361897155E+02  0.00000000000E+00 0. -1.
</event>
<event>
 7    1  0.4878192E-011  0.5052886E+02  0.7816164E-02  0.1300439E+00
        -11   -1    0    0    0    0  0.00000000000E+00  0.00000000000E+00  0.45593999997E+02  0.45594000000E+02  0.51100000000E-03 0.  1.
         11   -1    0    0    0    0 -0.00000000000E+00 -0.00000000000E+00 -0.45593999997E+02  0.45594000000E+02  0.51100000000E-03 0. -1.
    9900012    2    1    2    0    0 -0.82305839060E+01 -0.27974958775E+02 -0.28334170855E+02  0.50528855051E+02  0.29999985414E+02 0.  0.
        -12    1    1    2    0    0  0.82305839060E+01  0.27974958775E+02  0.28334170855E+02  0.40659144949E+02  0.00000000000E+00 0.  1.
         11    1    3    3    0    0 -0.10498881792E+02 -0.30571709377E+02 -0.25449748785E+02  0.41140559629E+02  0.51100000000E-03 0. -1.
        -11    1    3    3    0    0 -0.22545721573E+01  0.27399471599E+01  0.69856939300E+00  0.36164078185E+01  0.51100000000E-03 0.  1.
         12    1    3    3    0    0  0.45228700434E+01 -0.14319655818E+00 -0.35829914627E+01  0.57718876034E+01  0.00000000000E+00 0. -1.
</event>
<event>
 7    1  0.4878192E-011  0.5052886E+02  0.7816164E-02  0.1300439E+00
        -11   -1    0    0    0    0  0.00000000000E+00  0.00000000000E+00  0.45593999997E+02  0.45594000000E+02  0.51100000000E-03 0. -1.
         11   -1    0    0    0    0 -0.00000000000E+00 -0.00000000000E+00 -0.45593999997E+02  0.45594000000E+02  0.51100000000E-03 0.  1.
    9900012    2    1    2    0    0  0.13333046732E+02  0.32121202505E+02  0.21062385350E+02  0.50528857582E+02  0.29999993105E+02 0.  0.
        -12    1    1    2    0    0 -0.13333046732E+02 -0.32121202505E+02 -0.21062385350E+02  0.40659142418E+02  0.00000000000E+00 0.  1.
         11    1    3    3    0    0  0.57373003226E+01  0.58930878790E+01  0.10997203796E+02  0.13732574097E+02  0.51100000000E-03 0. -1.
        -11    1    3    3    0    0  0.56389076262E+00  0.28062448980E+02  0.88346288745E+01  0.29425663683E+02  0.51100000000E-03 0.  1.
        -12    1    3    3    0    0  0.70318556473E+01 -0.18343343542E+01  0.12305526799E+01  0.73706198020E+01  0.00000000000E+00 0.  1.
</event>
<event>
 7    1  0.4878192E-011  0.5052887E+02  0.7816164E-02  0.1300439E+00
        -11   -1    0    0    0    0  0.00000000000E+00  0.00000000000E+00  0.45593999997E+02  0.45594000000E+02  0.51100000000E-03 0. -1.
         11   -1    0    0    0    0 -0.00000000000E+00 -0.00000000000E+00 -0.45593999997E+02  0.45594000000E+02  0.51100000000E-03 0.  1.
    9900012    2    1    2    0    0  0.33089811725E+02 -0.14154358360E+02  0.18917814585E+02  0.50528865612E+02  0.30000017514E+02 0.  0.
        -12    1    1    2    0    0 -0.33089811725E+02  0.14154358360E+02 -0.18917814585E+02  0.40659134388E+02  0.00000000000E+00 0.  1.
         11    1    3    3    0    0  0.26126092823E+02 -0.78388827726E+01  0.98090092177E+01  0.28986849974E+02  0.51100000000E-03 0. -1.
        -11    1    3    3    0    0 -0.27489187888E+01 -0.28895608017E+01  0.10422429370E+02  0.11159442207E+02  0.51100000000E-03 0.  1.
        -12    1    3    3    0    0  0.97126376908E+01 -0.34259147853E+01 -0.13136240035E+01  0.10382573431E+02  0.00000000000E+00 0.  1.
</event>
<event>
 7    1  0.4878192E-011  0.5052886E+02  0.7816164E-02  0.1300439E+00
        -11   -1    0    0    0    0  0.00000000000E+00  0.00000000000E+00  0.45593999997E+02  0.45594000000E+02  0.51100000000E-03 0.  1.
         11   -1    0    0    0    0 -0.00000000000E+00 -0.00000000000E+00 -0.45593999997E+02  0.45594000000E+02  0.51100000000E-03 0. -1.
    9900012    2    1    2    0    0 -0.16861538796E+02  0.29734790535E+02 -0.22015828251E+02  0.50528856474E+02  0.29999989737E+02 0.  0.
        -12    1    1    2    0    0  0.16861538796E+02 -0.29734790535E+02  0.22015828251E+02  0.40659143526E+02  0.00000000000E+00 0.  1.
         11    1    3    3    0    0 -0.69698782246E+01  0.26820744594E+02 -0.68738715102E+01  0.28551386181E+02  0.51100000000E-03 0. -1.
        -11    1    3    3    0    0 -0.89887862039E+00 -0.34862978849E+01 -0.49054567247E+00  0.36335782686E+01  0.51100000000E-03 0.  1.
         12    1    3    3    0    0 -0.89927819507E+01  0.64003438256E+01 -0.14651411069E+02  0.18343892024E+02  0.00000000000E+00 0. -1.
</event>
<event>
 7    1  0.4878192E-011  0.5052886E+02  0.7816164E-02  0.1300439E+00
        -11   -1    0    0    0    0  0.00000000000E+00  0.00000000000E+00  0.45593999997E+02  0.45594000000E+02  0.51100000000E-03 0.  1.
         11   -1    0    0    0    0 -0.00000000000E+00 -0.00000000000E+00 -0.45593999997E+02  0.45594000000E+02  0.51100000000E-03 0. -1.
    9900012    2    1    2    0    0 -0.60419295439E+00  0.36497183976E+02  0.17909678041E+02  0.50528855213E+02  0.29999985905E+02 0.  0.
        -12    1    1    2    0    0  0.60419295439E+00 -0.36497183976E+02 -0.17909678041E+02  0.40659144787E+02  0.00000000000E+00 0.  1.
         11    1    3    3    0    0 -0.71168816168E+01  0.23403191174E+02 -0.18869003648E+01  0.24534052954E+02  0.51100000000E-03 0. -1.
        -11    1    3    3    0    0  0.46002122037E+01  0.89228556621E+01  0.65770871410E+01  0.12001557441E+02  0.51100000000E-03 0.  1.
         12    1    3    3    0    0  0.19124764587E+01  0.41711371392E+01  0.13219491265E+02  0.13993244818E+02  0.00000000000E+00 0. -1.
</event>
<event>
 7    1  0.4878192E-011  0.5052888E+02  0.7816164E-02  0.1300439E+00
        -11   -1    0    0    0    0  0.00000000000E+00  0.00000000000E+00  0.45593999997E+02  0.45594000000E+02  0.51100000000E-03 0. -1.
         11   -1    0    0    0    0 -0.00000000000E+00 -0.00000000000E+00 -0.45593999997E+02  0.45594000000E+02  0.51100000000E-03 0.  1.
    9900012    2    1    2    0    0 -0.36590963696E+02 -0.74602925486E+01  0.16081336770E+02  0.50528880710E+02  0.30000063405E+02 0.  0.
        -12    1    1    2    0    0  0.36590963696E+02  0.74602925486E+01 -0.16081336770E+02  0.40659119290E+02  0.00000000000E+00 0.  1.
         11    1    3    3    0    0 -0.16660819299E+02 -0.41239425079E+01  0.16437758211E+02  0.23765304475E+02  0.51100000000E-03 0. -1.
        -11    1    3    3    0    0 -0.23826054628E+01 -0.32973408132E+01 -0.69211935737E+01  0.80282118791E+01  0.51100000000E-03 0.  1.
        -12    1    3    3    0    0 -0.17547538934E+02 -0.39009227507E-01  0.65647721326E+01  0.18735364355E+02  0.00000000000E+00 0.  1.
</event>
<event>
 7    1  0.4878192E-011  0.5052889E+02  0.7816164E-02  0.1300439E+00
        -11   -1    0    0    0    0  0.00000000000E+00  0.00000000000E+00  0.45593999997E+02  0.45594000000E+02  0.51100000000E-03 0.  1.
         11   -1    0    0    0    0 -0.00000000000E+00 -0.00000000000E+00 -0.45593999997E+02  0.45594000000E+02  0.51100000000E-03 0. -1.
    9900012    2    1    2    0    0  0.90343961282E+01 -0.89158153149E+01 -0.38627076526E+02  0.50528891339E+02  0.30000095715E+02 0.  0.
        -12    1    1    2    0    0 -0.90343961282E+01  0.89158153149E+01  0.38627076526E+02  0.40659108661E+02  0.00000000000E+00 0.  1.
         11    1    3    3    0    0  0.10423007200E+02  0.37340696414E+01 -0.12253869956E+02  0.16514832253E+02  0.51100000000E-03 0. -1.
        -11    1    3    3    0    0  0.16384537230E+01 -0.16387153930E+02 -0.18321586197E+02  0.24635418924E+02  0.51100000000E-03 0.  1.
        -12    1    3    3    0    0 -0.30270647951E+01  0.37372689740E+01 -0.80516203725E+01  0.93786401616E+01  0.00000000000E+00 0.  1.
</event>
<event>
 7    1  0.4878192E-011  0.5052885E+02  0.7816164E-02  0.1300439E+00
        -11   -1    0    0    0    0  0.00000000000E+00  0.00000000000E+00  0.45593999997E+02  0.45594000000E+02  0.51100000000E-03 0. -1.
         11   -1    0    0    0    0 -0.00000000000E+00 -0.00000000000E+00 -0.45593999997E+02  0.45594000000E+02  0.51100000000E-03 0.  1.
    9900012    2    1    2    0    0  0.30414533232E+02 -0.25982463436E+02  0.72824444361E+01  0.50528852998E+02  0.29999979173E+02 0.  0.
        -12    1    1    2    0    0 -0.30414533232E+02  0.25982463436E+02 -0.72824444361E+01  0.40659147002E+02  0.00000000000E+00 0.  1.
         11    1    3    3    0    0  0.19777950671E+02 -0.20896692639E+02  0.10169652982E+02  0.30516568255E+02  0.51100000000E-03 0. -1.
        -11    1    3    3    0    0  0.13127193993E+02 -0.13608242803E+01 -0.60594875079E+01  0.14522136688E+02  0.51100000000E-03 0.  1.
         12    1    3    3    0    0 -0.24906114321E+01 -0.37249465166E+01  0.31722789623E+01  0.54901480556E+01  0.00000000000E+00 0. -1.
</event>
<event>
 7    1  0.4878192E-011  0.5052886E+02  0.7816164E-02  0.1300439E+00
        -11   -1    0    0    0    0  0.00000000000E+00  0.00000000000E+00  0.45593999997E+02  0.45594000000E+02  0.51100000000E-03 0. -1.
         11   -1    0    0    0    0 -0.00000000000E+00 -0.00000000000E+00 -0.45593999997E+02  0.45594000000E+02  0.51100000000E-03 0.  1.
    9900012    2    1    2    0    0  0.31761090944E+02 -0.76623523686E+01  0.24200971939E+02  0.50528860996E+02  0.30000003483E+02 0.  0.
        -12    1    1    2    0    0 -0.31761090944E+02  0.76623523686E+01 -0.24200971939E+02  0.40659139004E+02  0.00000000000E+00 0.  1.
         11    1    3    3    0    0  0.24450409779E+02 -0.15672511281E+01  0.12796113650E+02  0.27640899755E+02  0.51100000000E-03 0. -1.
        -11    1    3    3    0    0 -0.26910955271E+01 -0.89780135170E+01  0.63116025422E+01  0.11299692419E+02  0.51100000000E-03 0.  1.
        -12    1    3    3    0    0  0.10001776692E+02  0.28829122766E+01  0.50932557465E+01  0.11588268822E+02  0.00000000000E+00 0.  1.
</event>
<event>
 7    1  0.4878192E-011  0.5052886E+02  0.7816164E-02  0.1300439E+00
        -11   -1    0    0    0    0  0.00000000000E+00  0.00000000000E+00  0.45593999997E+02  0.45594000000E+02  0.51100000000E-03 0.  1.
         11   -1    0    0    0    0 -0.00000000000E+00 -0.00000000000E+00 -0.45593999997E+02  0.45594000000E+02  0.51100000000E-03 0. -1.
    9900012    2    1    2    0    0  0.17864852841E+02  0.13530228076E+02 -0.33925591747E+02  0.50528858172E+02  0.29999994898E+02 0.  0.
        -12    1    1    2    0    0 -0.17864852841E+02 -0.13530228076E+02  0.33925591747E+02  0.40659141828E+02  0.00000000000E+00 0.  1.
         11    1    3    3    0    0  0.17334210704E+02  0.49342277697E+01 -0.25370949280E+02  0.31120837586E+02  0.51100000000E-03 0. -1.
        -11    1    3    3    0    0  0.23056455523E+01  0.11609834905E+02 -0.20361573493E+01  0.12010420681E+02  0.51100000000E-03 0.  1.
         12    1    3    3    0    0 -0.17750034146E+01 -0.30138345990E+01 -0.65184851179E+01  0.73975999043E+01  0.00000000000E+00 0. -1.
</event>
<event>
 7    1  0.4878192E-011  0.5052886E+02  0.7816164E-02  0.1300439E+00
        -11   -1    0    0    0    0  0.00000000000E+00  0.00000000000E+00  0.45593999997E+02  0.45594000000E+02  0.51100000000E-03 0.  1.
         11   -1    0    0    0    0 -0.00000000000E+00 -0.00000000000E+00 -0.45593999997E+02  0.45594000000E+02  0.51100000000E-03 0. -1.
    9900012    2    1    2    0    0 -0.38459335718E+02 -0.10401487553E+02 -0.81150556237E+01  0.50528861114E+02  0.30000003842E+02 0.  0.
        -12    1    1    2    0    0  0.38459335718E+02  0.10401487553E+02  0.81150556237E+01  0.40659138886E+02  0.00000000000E+00 0.  1.
         11    1    3    3    0    0  0.60325305948E-01 -0.29366766428E+01 -0.42450381267E+01  0.51621756852E+01  0.51100000000E-03 0. -1.
        -11    1    3    3    0    0 -0.22816145791E+02  0.67235303546E+01 -0.44310339352E+01  0.24195380368E+02  0.51100000000E-03 0.  1.
        -12    1    3    3    0    0 -0.15703515233E+02 -0.14188341265E+02  0.56101643817E+00  0.21171305061E+02  0.00000000000E+00 0.  1.
</event>
<event>
 7    1  0.4878192E-011  0.5052886E+02  0.7816164E-02  0.1300439E+00
        -11   -1    0    0    0    0  0.00000000000E+00  0.00000000000E+00  0.45593999997E+02  0.45594000000E+02  0.51100000000E-03 0.  1.
         11   -1    0    0    0    0 -0.00000000000E+00 -0.00000000000E+00 -0.45593999997E+02  0.45594000000E+02  0.51100000000E-03 0. -1.
    9900012    2    1    2    0    0 -0.23478771572E+02 -0.24791060920E+02 -0.22075234022E+02  0.50528863595E+02  0.30000011384E+02 0.  0.
        -12    1    1    2    0    0  0.23478771572E+02  0.24791060920E+02  0.22075234022E+02  0.40659136405E+02  0.00000000000E+00 0.  1.
         11    1    3    3    0    0 -0.92578850723E+01 -0.73855918180E+01  0.38341418008E+01  0.12448134243E+02  0.51100000000E-03 0. -1.
        -11    1    3    3    0    0  0.17696673193E+00 -0.12727431435E+02 -0.12857725903E+02  0.18092538346E+02  0.51100000000E-03 0.  1.
        -12    1    3    3    0    0 -0.14397853231E+02 -0.46780376678E+01 -0.13051649920E+02  0.19988191007E+02  0.00000000000E+00 0.  1.
</event>
<event>
 7    1  0.4878192E-011  0.5052886E+02  0.7816164E-02  0.1300439E+00
        -11   -1    0    0    0    0  0.00000000000E+00  0.00000000000E+00  0.45593999997E+02  0.45594000000E+02  0.51100000000E-03 0.  1.
         11   -1    0    0    0    0 -0.00000000000E+00 -0.00000000000E+00 -0.45593999997E+02  0.45594000000E+02  0.51100000000E-03 0. -1.
    9900012    2    1    2    0    0  0.83869018632E+01  0.31759733544E+02 -0.23961313841E+02  0.50528863775E+02  0.30000011929E+02 0.  0.
        -12    1    1    2    0    0 -0.83869018632E+01 -0.31759733544E+02  0.23961313841E+02  0.40659136225E+02  0.00000000000E+00 0.  1.
         11    1    3    3    0    0  0.18033945543E+01  0.62529206430E+01  0.56594583161E+01  0.86244256144E+01  0.51100000000E-03 0. -1.
        -11    1    3    3    0    0 -0.27524040620E+01  0.98135346610E+01 -0.16592634273E+02  0.19472973657E+02  0.51100000000E-03 0.  1.
        -12    1    3    3    0    0  0.93359113709E+01  0.15693278240E+02 -0.13028137884E+02  0.22431464503E+02  0.00000000000E+00 0.  1.
</event>
<event>
 7    1  0.4878192E-011  0.5052886E+02  0.7816164E-02  0.1300439E+00
        -11   -1    0    0    0    0  0.00000000000E+00  0.00000000000E+00  0.45593999997E+02  0.45594000000E+02  0.51100000000E-03 0.  1.
         11   -1    0    0    0    0 -0.00000000000E+00 -0.00000000000E+00 -0.45593999997E+02  0.45594000000E+02  0.51100000000E-03 0. -1.
    9900012    2    1    2    0    0 -0.15125396321E+02  0.16255421719E+02 -0.34060966148E+02  0.50528858789E+02  0.29999996774E+02 0.  0.
        -12    1    1    2    0    0  0.15125396321E+02 -0.16255421719E+02  0.34060966148E+02  0.40659141211E+02  0.00000000000E+00 0.  1.
         11    1    3    3    0    0 -0.12095795845E+02  0.23146032434E+02 -0.29018903338E+02  0.39040284909E+02  0.51100000000E-03 0. -1.
        -11    1    3    3    0    0  0.22437146612E+01 -0.11880150356E+01 -0.15315504886E+01  0.29650096738E+01  0.51100000000E-03 0.  1.
         12    1    3    3    0    0 -0.52733151370E+01 -0.57025956796E+01 -0.35105123211E+01  0.85235642060E+01  0.00000000000E+00 0. -1.
</event>
<event>
 7    1  0.4878192E-011  0.5052886E+02  0.7816164E-02  0.1300439E+00
        -11   -1    0    0    0    0  0.00000000000E+00  0.00000000000E+00  0.45593999997E+02  0.45594000000E+02  0.51100000000E-03 0.  1.
         11   -1    0    0    0    0 -0.00000000000E+00 -0.00000000000E+00 -0.45593999997E+02  0.45594000000E+02  0.51100000000E-03 0. -1.
    9900012    2    1    2    0    0  0.12518597464E+02  0.38681957320E+02  0.39556155445E+00  0.50528861132E+02  0.30000003898E+02 0.  0.
        -12    1    1    2    0    0 -0.12518597464E+02 -0.38681957320E+02 -0.39556155445E+00  0.40659138868E+02  0.00000000000E+00 0.  1.
         11    1    3    3    0    0  0.13570734707E+02  0.16361793813E+02  0.35304197317E+01  0.21548480248E+02  0.51100000000E-03 0. -1.
        -11    1    3    3    0    0  0.38177866099E+00  0.52428992992E+01 -0.93701000038E+01  0.10743952827E+02  0.51100000000E-03 0.  1.
         12    1    3    3    0    0 -0.14339159049E+01  0.17077264208E+02  0.62352418265E+01  0.18236428057E+02  0.00000000000E+00 0. -1.
</event>
<event>
 7    1  0.4878192E-011  0.5052891E+02  0.7816164E-02  0.1300439E+00
        -11   -1    0    0    0    0  0.00000000000E+00  0.00000000000E+00  0.45593999997E+02  0.45594000000E+02  0.51100000000E-03 0.  1.
         11   -1    0    0    0    0 -0.00000000000E+00 -0.00000000000E+00 -0.45593999997E+02  0.45594000000E+02  0.51100000000E-03 0. -1.
    9900012    2    1    2    0    0  0.29954003597E+02  0.27331360993E+02 -0.29860161432E+01  0.50528906089E+02  0.30000140549E+02 0.  0.
        -12    1    1    2    0    0 -0.29954003597E+02 -0.27331360993E+02  0.29860161432E+01  0.40659093911E+02  0.00000000000E+00 0.  1.
         11    1    3    3    0    0  0.20838460050E+02  0.25244079173E+02 -0.14299952953E+02  0.35721052690E+02  0.51100000000E-03 0. -1.
        -11    1    3    3    0    0  0.47438799447E+01  0.15232722623E+01  0.46317606488E+01  0.68027907717E+01  0.51100000000E-03 0.  1.
         12    1    3    3    0    0  0.43716636022E+01  0.56400955810E+00  0.66821761610E+01  0.80050626280E+01  0.00000000000E+00 0. -1.
</event>
<event>
 7    1  0.4878192E-011  0.5052887E+02  0.7816164E-02  0.1300439E+00
        -11   -1    0    0    0    0  0.00000000000E+00  0.00000000000E+00  0.45593999997E+02  0.45594000000E+02  0.51100000000E-03 0. -1.
         11   -1    0    0    0    0 -0.00000000000E+00 -0.00000000000E+00 -0.45593999997E+02  0.45594000000E+02  0.51100000000E-03 0.  1.
    9900012    2    1    2    0    0  0.13474394805E+02 -0.81418634159E+01  0.37487542647E+02  0.50528866845E+02  0.30000021262E+02 0.  0.
        -12    1    1    2    0    0 -0.13474394805E+02  0.81418634159E+01 -0.37487542647E+02  0.40659133155E+02  0.00000000000E+00 0.  1.
         11    1    3    3    0    0  0.30615225572E+01 -0.16963517310E+00 -0.45265022979E+01  0.54672588904E+01  0.51100000000E-03 0. -1.
        -11    1    3    3    0    0 -0.14139834703E+01 -0.20952219697E+01  0.32992642232E+01  0.41562542068E+01  0.51100000000E-03 0.  1.
         12    1    3    3    0    0  0.11826855718E+02 -0.58770062731E+01  0.38714780721E+02  0.40905353748E+02  0.00000000000E+00 0. -1.
</event>
<event>
 7    1  0.4878192E-011  0.5052885E+02  0.7816164E-02  0.1300439E+00
        -11   -1    0    0    0    0  0.00000000000E+00  0.00000000000E+00  0.45593999997E+02  0.45594000000E+02  0.51100000000E-03 0.  1.
         11   -1    0    0    0    0 -0.00000000000E+00 -0.00000000000E+00 -0.45593999997E+02  0.45594000000E+02  0.51100000000E-03 0. -1.
    9900012    2    1    2    0    0  0.13777217020E+02  0.12799028155E+02 -0.36049129563E+02  0.50528848843E+02  0.29999966543E+02 0.  0.
        -12    1    1    2    0    0 -0.13777217020E+02 -0.12799028155E+02  0.36049129563E+02  0.40659151157E+02  0.00000000000E+00 0.  1.
         11    1    3    3    0    0  0.10859686214E+02  0.81957738978E+01 -0.19360091122E+02  0.23662557406E+02  0.51100000000E-03 0. -1.
        -11    1    3    3    0    0 -0.13726884918E+01 -0.51672036470E+00  0.44560308621E+01  0.46912135888E+01  0.51100000000E-03 0.  1.
        -12    1    3    3    0    0  0.42902192975E+01  0.51199746216E+01 -0.21145069304E+02  0.22175077849E+02  0.00000000000E+00 0.  1.
</event>
<event>
 7    1  0.4878192E-011  0.5052886E+02  0.7816164E-02  0.1300439E+00
        -11   -1    0    0    0    0  0.00000000000E+00  0.00000000000E+00  0.45593999997E+02  0.45594000000E+02  0.51100000000E-03 0.  1.
         11   -1    0    0    0    0 -0.00000000000E+00 -0.00000000000E+00 -0.45593999997E+02  0.45594000000E+02  0.51100000000E-03 0. -1.
    9900012    2    1    2    0    0 -0.86559656631E+00  0.28770071771E+02 -0.28717575060E+02  0.50528863210E+02  0.30000010215E+02 0.  0.
        -12    1    1    2    0    0  0.86559656631E+00 -0.28770071771E+02  0.28717575060E+02  0.40659136790E+02  0.00000000000E+00 0.  1.
         11    1    3    3    0    0 -0.37809183533E+01  0.24754482944E+02 -0.30774213387E+02  0.39675332125E+02  0.51100000000E-03 0. -1.
        -11    1    3    3    0    0  0.49365667867E+01  0.59288311611E+01  0.23244352455E+01  0.80575262983E+01  0.51100000000E-03 0.  1.
         12    1    3    3    0    0 -0.20212449997E+01 -0.19132423340E+01 -0.26779691873E+00  0.27960047867E+01  0.00000000000E+00 0. -1.
</event>
<event>
 7    1  0.4878192E-011  0.5052885E+02  0.7816164E-02  0.1300439E+00
        -11   -1    0    0    0    0  0.00000000000E+00  0.00000000000E+00  0.45593999997E+02  0.45594000000E+02  0.51100000000E-03 0.  1.
         11   -1    0    0    0    0 -0.00000000000E+00 -0.00000000000E+00 -0.45593999997E+02  0.45594000000E+02  0.51100000000E-03 0. -1.
    9900012    2    1    2    0    0 -0.77692015381E+01  0.38158001206E+02  0.11695001788E+02  0.50528848319E+02  0.29999964950E+02 0.  0.
        -12    1    1    2    0    0  0.77692015381E+01 -0.38158001206E+02 -0.11695001788E+02  0.40659151681E+02  0.00000000000E+00 0.  1.
         11    1    3    3    0    0 -0.30004592939E+01 -0.32738497206E+01  0.22457455517E+01  0.49763662758E+01  0.51100000000E-03 0.  1.
        -11    1    3    3    0    0 -0.88163640128E+01  0.27665500423E+02  0.11148802410E+02  0.31103118549E+02  0.51100000000E-03 0. -1.
         12    1    3    3    0    0  0.40476217686E+01  0.13766350504E+02 -0.16995461734E+01  0.14449363494E+02  0.00000000000E+00 0. -1.
</event>
<event>
 7    1  0.4878192E-011  0.5052886E+02  0.7816164E-02  0.1300439E+00
        -11   -1    0    0    0    0  0.00000000000E+00  0.00000000000E+00  0.45593999997E+02  0.45594000000E+02  0.51100000000E-03 0.  1.
         11   -1    0    0    0    0 -0.00000000000E+00 -0.00000000000E+00 -0.45593999997E+02  0.45594000000E+02  0.51100000000E-03 0. -1.
    9900012    2    1    2    0    0  0.52999513980E+00 -0.40338858063E+02  0.50656748484E+01  0.50528862941E+02  0.30000009396E+02 0.  0.
        -12    1    1    2    0    0 -0.52999513980E+00  0.40338858063E+02 -0.50656748484E+01  0.40659137059E+02  0.00000000000E+00 0.  1.
         11    1    3    3    0    0 -0.45829039971E+01 -0.91861101032E+01 -0.41200746142E+01  0.11061764912E+02  0.51100000000E-03 0. -1.
        -11    1    3    3    0    0  0.10508502119E+02 -0.51693254650E+01  0.13031030728E+01  0.11783404450E+02  0.51100000000E-03 0.  1.
        -12    1    3    3    0    0 -0.53956029825E+01 -0.25983422495E+02  0.78826463898E+01  0.27683693579E+02  0.00000000000E+00 0.  1.
</event>
<event>
 7    1  0.4878192E-011  0.5052886E+02  0.7816164E-02  0.1300439E+00
        -11   -1    0    0    0    0  0.00000000000E+00  0.00000000000E+00  0.45593999997E+02  0.45594000000E+02  0.51100000000E-03 0.  1.
         11   -1    0    0    0    0 -0.00000000000E+00 -0.00000000000E+00 -0.45593999997E+02  0.45594000000E+02  0.51100000000E-03 0. -1.
    9900012    2    1    2    0    0  0.38651083091E+02 -0.60324774693E+01  0.11084624915E+02  0.50528856895E+02  0.29999991018E+02 0.  0.
        -12    1    1    2    0    0 -0.38651083091E+02  0.60324774693E+01 -0.11084624915E+02  0.40659143105E+02  0.00000000000E+00 0.  1.
         11    1    3    3    0    0  0.23730630967E+02  0.10242363121E+01 -0.63871530454E+00  0.23761310225E+02  0.51100000000E-03 0. -1.
        -11    1    3    3    0    0  0.17056844538E+01 -0.55863892022E+01  0.12132099179E+02  0.13464952080E+02  0.51100000000E-03 0.  1.
        -12    1    3    3    0    0  0.13214767670E+02 -0.14703245792E+01 -0.40875895894E+00  0.13302594590E+02  0.00000000000E+00 0.  1.
</event>
<event>
 7    1  0.4878192E-011  0.5052883E+02  0.7816164E-02  0.1300439E+00
        -11   -1    0    0    0    0  0.00000000000E+00  0.00000000000E+00  0.45593999997E+02  0.45594000000E+02  0.51100000000E-03 0.  1.
         11   -1    0    0    0    0 -0.00000000000E+00 -0.00000000000E+00 -0.45593999997E+02  0.45594000000E+02  0.51100000000E-03 0. -1.
    9900012    2    1    2    0    0  0.24915257785E+02  0.28754358144E+02  0.14338237289E+02  0.50528828448E+02  0.29999904549E+02 0.  0.
        -12    1    1    2    0    0 -0.24915257785E+02 -0.28754358144E+02 -0.14338237289E+02  0.40659171552E+02  0.00000000000E+00 0.  1.
         11    1    3    3    0    0 -0.27009370954E+01  0.90651748648E+01 -0.53094385434E+00  0.94738776729E+01  0.51100000000E-03 0. -1.
        -11    1    3    3    0    0  0.10411604578E+02  0.52248631563E+01  0.14467447701E+02  0.18574384193E+02  0.51100000000E-03 0.  1.
        -12    1    3    3    0    0  0.17204590302E+02  0.14464320123E+02  0.40173344237E+00  0.22480566582E+02  0.00000000000E+00 0.  1.
</event>
<event>
 7    1  0.4878192E-011  0.5052889E+02  0.7816164E-02  0.1300439E+00
        -11   -1    0    0    0    0  0.00000000000E+00  0.00000000000E+00  0.45593999997E+02  0.45594000000E+02  0.51100000000E-03 0.  1.
         11   -1    0    0    0    0 -0.00000000000E+00 -0.00000000000E+00 -0.45593999997E+02  0.45594000000E+02  0.51100000000E-03 0. -1.
    9900012    2    1    2    0    0  0.99898606984E+01  0.90682237942E+00 -0.39402333176E+02  0.50528886590E+02  0.30000081279E+02 0.  0.
        -12    1    1    2    0    0 -0.99898606984E+01 -0.90682237942E+00  0.39402333176E+02  0.40659113410E+02  0.00000000000E+00 0.  1.
         11    1    3    3    0    0  0.16234935354E+02 -0.89334621450E+01 -0.30396214269E+02  0.35599293729E+02  0.51100000000E-03 0. -1.
        -11    1    3    3    0    0 -0.18090412334E+01  0.14486677406E+01 -0.10506090982E+01  0.25446115902E+01  0.51100000000E-03 0.  1.
         12    1    3    3    0    0 -0.44360334221E+01  0.83916167838E+01 -0.79555098083E+01  0.12384981271E+02  0.00000000000E+00 0. -1.
</event>
<event>
 7    1  0.4878192E-011  0.5052887E+02  0.7816164E-02  0.1300439E+00
        -11   -1    0    0    0    0  0.00000000000E+00  0.00000000000E+00  0.45593999997E+02  0.45594000000E+02  0.51100000000E-03 0. -1.
         11   -1    0    0    0    0 -0.00000000000E+00 -0.00000000000E+00 -0.45593999997E+02  0.45594000000E+02  0.51100000000E-03 0.  1.
    9900012    2    1    2    0    0 -0.33559960269E+02 -0.20842795114E+02  0.96162292865E+01  0.50528869326E+02  0.30000028805E+02 0.  0.
        -12    1    1    2    0    0  0.33559960269E+02  0.20842795114E+02 -0.96162292865E+01  0.40659130674E+02  0.00000000000E+00 0.  1.
         11    1    3    3    0    0 -0.20149456869E+02 -0.21717780329E+02  0.13578332860E+02  0.32588858803E+02  0.51100000000E-03 0. -1.
        -11    1    3    3    0    0 -0.10876795925E+02 -0.10336535135E+01  0.20742073716E+01  0.11120947157E+02  0.51100000000E-03 0.  1.
         12    1    3    3    0    0 -0.25337074745E+01  0.19086387287E+01 -0.60363109455E+01  0.68190633663E+01  0.00000000000E+00 0. -1.
</event>
<event>
 7    1  0.4878192E-011  0.5052885E+02  0.7816164E-02  0.1300439E+00
        -11   -1    0    0    0    0  0.00000000000E+00  0.00000000000E+00  0.45593999997E+02  0.45594000000E+02  0.51100000000E-03 0.  1.
         11   -1    0    0    0    0 -0.00000000000E+00 -0.00000000000E+00 -0.45593999997E+02  0.45594000000E+02  0.51100000000E-03 0. -1.
    9900012    2    1    2    0    0 -0.19797026470E+02  0.11035500323E+02 -0.33755916203E+02  0.50528850930E+02  0.29999972885E+02 0.  0.
        -12    1    1    2    0    0  0.19797026470E+02 -0.11035500323E+02  0.33755916203E+02  0.40659149070E+02  0.00000000000E+00 0.  1.
         11    1    3    3    0    0 -0.12111011450E+02  0.27040172554E+01 -0.34334462061E+02  0.36508130504E+02  0.51100000000E-03 0. -1.
        -11    1    3    3    0    0 -0.61904026385E+01  0.73862401836E+00  0.75562165392E+00  0.62799374688E+01  0.51100000000E-03 0.  1.
         12    1    3    3    0    0 -0.14956123820E+01  0.75928590496E+01 -0.17707579609E+00  0.77407829566E+01  0.00000000000E+00 0. -1.
</event>
<event>
 7    1  0.4878192E-011  0.5052887E+02  0.7816164E-02  0.1300439E+00
        -11   -1    0    0    0    0  0.00000000000E+00  0.00000000000E+00  0.45593999997E+02  0.45594000000E+02  0.51100000000E-03 0. -1.
         11   -1    0    0    0    0 -0.00000000000E+00 -0.00000000000E+00 -0.45593999997E+02  0.45594000000E+02  0.51100000000E-03 0.  1.
    9900012    2    1    2    0    0  0.18751977195E+02 -0.23383025436E+02  0.27472930720E+02  0.50528874953E+02  0.30000045907E+02 0.  0.
        -12    1    1    2    0    0 -0.18751977195E+02  0.23383025436E+02 -0.27472930720E+02  0.40659125047E+02  0.00000000000E+00 0.  1.
         11    1    3    3    0    0  0.99677176159E+01 -0.17321111859E+02  0.32226721808E+02  0.37920151756E+02  0.51100000000E-03 0. -1.
        -11    1    3    3    0    0  0.42277949350E+01 -0.12011606891E+01 -0.39292785113E+01  0.58954445883E+01  0.51100000000E-03 0.  1.
         12    1    3    3    0    0  0.45564646437E+01 -0.48607528877E+01 -0.82451257623E+00  0.67132786083E+01  0.00000000000E+00 0. -1.
</event>
<event>
 7    1  0.4878192E-011  0.5052885E+02  0.7816164E-02  0.1300439E+00
        -11   -1    0    0    0    0  0.00000000000E+00  0.00000000000E+00  0.45593999997E+02  0.45594000000E+02  0.51100000000E-03 0. -1.
         11   -1    0    0    0    0 -0.00000000000E+00 -0.00000000000E+00 -0.45593999997E+02  0.45594000000E+02  0.51100000000E-03 0.  1.
    9900012    2    1    2    0    0 -0.93072378743E+01 -0.94282778593E+01  0.38440208360E+02  0.50528847045E+02  0.29999961078E+02 0.  0.
        -12    1    1    2    0    0  0.93072378743E+01  0.94282778593E+01 -0.38440208360E+02  0.40659152955E+02  0.00000000000E+00 0.  1.
         11    1    3    3    0    0  0.52874169876E+01 -0.21173775129E+01  0.73869734401E+01  0.93277780205E+01  0.51100000000E-03 0. -1.
        -11    1    3    3    0    0 -0.99561482102E+01 -0.13790018368E+02  0.12807867925E+02  0.21291570511E+02  0.51100000000E-03 0.  1.
        -12    1    3    3    0    0 -0.46385066517E+01  0.64791180212E+01  0.18245366995E+02  0.19909498514E+02  0.00000000000E+00 0.  1.
</event>
<event>
 7    1  0.4878192E-011  0.5052886E+02  0.7816164E-02  0.1300439E+00
        -11   -1    0    0    0    0  0.00000000000E+00  0.00000000000E+00  0.45593999997E+02  0.45594000000E+02  0.51100000000E-03 0. -1.
         11   -1    0    0    0    0 -0.00000000000E+00 -0.00000000000E+00 -0.45593999997E+02  0.45594000000E+02  0.51100000000E-03 0.  1.
    9900012    2    1    2    0    0 -0.64203152645E+00 -0.40472322973E+02  0.38398304210E+01  0.50528862909E+02  0.30000009298E+02 0.  0.
        -12    1    1    2    0    0  0.64203152645E+00  0.40472322973E+02 -0.38398304210E+01  0.40659137091E+02  0.00000000000E+00 0.  1.
         11    1    3    3    0    0 -0.34435780547E+00 -0.23858548437E+02  0.57593379217E+01  0.24546260191E+02  0.51100000000E-03 0. -1.
        -11    1    3    3    0    0 -0.23618024377E+01 -0.10345966970E+02 -0.10652756745E+02  0.15036567755E+02  0.51100000000E-03 0.  1.
        -12    1    3    3    0    0  0.20641287167E+01 -0.62678075662E+01  0.87332492446E+01  0.10946034963E+02  0.00000000000E+00 0.  1.
</event>
<event>
 7    1  0.4878192E-011  0.5052885E+02  0.7816164E-02  0.1300439E+00
        -11   -1    0    0    0    0  0.00000000000E+00  0.00000000000E+00  0.45593999997E+02  0.45594000000E+02  0.51100000000E-03 0. -1.
         11   -1    0    0    0    0 -0.00000000000E+00 -0.00000000000E+00 -0.45593999997E+02  0.45594000000E+02  0.51100000000E-03 0.  1.
    9900012    2    1    2    0    0 -0.35154272651E+02  0.74217141769E+01  0.19033181247E+02  0.50528847091E+02  0.29999961217E+02 0.  0.
        -12    1    1    2    0    0  0.35154272651E+02 -0.74217141769E+01 -0.19033181247E+02  0.40659152909E+02  0.00000000000E+00 0.  1.
         11    1    3    3    0    0 -0.36242501556E+01  0.90190521387E+01 -0.11811153731E+01  0.97915026659E+01  0.51100000000E-03 0.  1.
        -11    1    3    3    0    0 -0.22553181351E+02  0.49852821705E+00  0.21814763257E+02  0.31381179323E+02  0.51100000000E-03 0. -1.
         12    1    3    3    0    0 -0.89768411437E+01 -0.20958661788E+01 -0.16004666374E+01  0.93561651020E+01  0.00000000000E+00 0. -1.
</event>
<event>
 7    1  0.4878192E-011  0.5052886E+02  0.7816164E-02  0.1300439E+00
        -11   -1    0    0    0    0  0.00000000000E+00  0.00000000000E+00  0.45593999997E+02  0.45594000000E+02  0.51100000000E-03 0.  1.
         11   -1    0    0    0    0 -0.00000000000E+00 -0.00000000000E+00 -0.45593999997E+02  0.45594000000E+02  0.51100000000E-03 0. -1.
    9900012    2    1    2    0    0  0.64075722456E+01  0.29668311040E+02 -0.27053651477E+02  0.50528859327E+02  0.29999998410E+02 0.  0.
        -12    1    1    2    0    0 -0.64075722456E+01 -0.29668311040E+02  0.27053651477E+02  0.40659140673E+02  0.00000000000E+00 0.  1.
         11    1    3    3    0    0  0.94230032118E+01  0.12737206154E+02  0.15875796753E+01  0.15923247773E+02  0.51100000000E-03 0. -1.
        -11    1    3    3    0    0 -0.41151252803E+01  0.93506959743E+01 -0.93483719015E+01  0.13847809529E+02  0.51100000000E-03 0.  1.
         12    1    3    3    0    0  0.10996943141E+01  0.75804089112E+01 -0.19292859251E+02  0.20757802025E+02  0.00000000000E+00 0. -1.
</event>
<event>
 7    1  0.4878192E-011  0.5052888E+02  0.7816164E-02  0.1300439E+00
        -11   -1    0    0    0    0  0.00000000000E+00  0.00000000000E+00  0.45593999997E+02  0.45594000000E+02  0.51100000000E-03 0.  1.
         11   -1    0    0    0    0 -0.00000000000E+00 -0.00000000000E+00 -0.45593999997E+02  0.45594000000E+02  0.51100000000E-03 0. -1.
    9900012    2    1    2    0    0  0.99030899966E-01  0.39463961775E+02 -0.97852036472E+01  0.50528876836E+02  0.30000051630E+02 0.  0.
        -12    1    1    2    0    0 -0.99030899966E-01 -0.39463961775E+02  0.97852036472E+01  0.40659123164E+02  0.00000000000E+00 0.  1.
         11    1    3    3    0    0  0.10188696930E+00  0.60776790803E+01 -0.72270519606E+01  0.94434551018E+01  0.51100000000E-03 0. -1.
        -11    1    3    3    0    0 -0.53199425125E+01  0.23757799368E+02  0.82096577395E+01  0.25693059367E+02  0.51100000000E-03 0.  1.
        -12    1    3    3    0    0  0.53170864432E+01  0.96284833262E+01 -0.10767809426E+02  0.15392362367E+02  0.00000000000E+00 0.  1.
</event>
<event>
 7    1  0.4878192E-011  0.5052886E+02  0.7816164E-02  0.1300439E+00
        -11   -1    0    0    0    0  0.00000000000E+00  0.00000000000E+00  0.45593999997E+02  0.45594000000E+02  0.51100000000E-03 0.  1.
         11   -1    0    0    0    0 -0.00000000000E+00 -0.00000000000E+00 -0.45593999997E+02  0.45594000000E+02  0.51100000000E-03 0. -1.
    9900012    2    1    2    0    0 -0.17748211216E+01 -0.10098165474E+02 -0.39345177928E+02  0.50528856353E+02  0.29999989370E+02 0.  0.
        -12    1    1    2    0    0  0.17748211216E+01  0.10098165474E+02  0.39345177928E+02  0.40659143647E+02  0.00000000000E+00 0.  1.
         11    1    3    3    0    0 -0.76774836721E+01 -0.36936736559E+01 -0.12318266369E+02  0.14977538757E+02  0.51100000000E-03 0.  1.
        -11    1    3    3    0    0  0.58145689396E+01  0.53124920593E+01 -0.20887395540E+02  0.22322971947E+02  0.51100000000E-03 0. -1.
         12    1    3    3    0    0  0.88093610874E-01 -0.11716983877E+02 -0.61395160183E+01  0.13228345649E+02  0.00000000000E+00 0. -1.
</event>
<event>
 7    1  0.4878192E-011  0.5052892E+02  0.7816164E-02  0.1300439E+00
        -11   -1    0    0    0    0  0.00000000000E+00  0.00000000000E+00  0.45593999997E+02  0.45594000000E+02  0.51100000000E-03 0. -1.
         11   -1    0    0    0    0 -0.00000000000E+00 -0.00000000000E+00 -0.45593999997E+02  0.45594000000E+02  0.51100000000E-03 0.  1.
    9900012    2    1    2    0    0 -0.69589872586E+01  0.23538751915E+02  0.32413894867E+02  0.50528918286E+02  0.30000177621E+02 0.  0.
        -12    1    1    2    0    0  0.69589872586E+01 -0.23538751915E+02 -0.32413894867E+02  0.40659081714E+02  0.00000000000E+00 0.  1.
         11    1    3    3    0    0  0.69590194910E+01  0.37862253010E+01  0.20949741061E+02  0.22397658473E+02  0.51100000000E-03 0. -1.
        -11    1    3    3    0    0 -0.14701352537E+02  0.18182465832E+02  0.12019706980E+02  0.26290781394E+02  0.51100000000E-03 0.  1.
        -12    1    3    3    0    0  0.78334578744E+00  0.15700607821E+01 -0.55555317375E+00  0.18404784191E+01  0.00000000000E+00 0.  1.
</event>
<event>
 7    1  0.4878192E-011  0.5052889E+02  0.7816164E-02  0.1300439E+00
        -11   -1    0    0    0    0  0.00000000000E+00  0.00000000000E+00  0.45593999997E+02  0.45594000000E+02  0.51100000000E-03 0.  1.
         11   -1    0    0    0    0 -0.00000000000E+00 -0.00000000000E+00 -0.45593999997E+02  0.45594000000E+02  0.51100000000E-03 0. -1.
    9900012    2    1    2    0    0 -0.29228203264E+02  0.22054881718E+02 -0.17676465231E+02  0.50528891590E+02  0.30000096476E+02 0.  0.
        -12    1    1    2    0    0  0.29228203264E+02 -0.22054881718E+02  0.17676465231E+02  0.40659108410E+02  0.00000000000E+00 0.  1.
         11    1    3    3    0    0 -0.19973454422E+02  0.18736661667E+02 -0.85254340360E+01  0.28682475446E+02  0.51100000000E-03 0. -1.
        -11    1    3    3    0    0 -0.47742543165E+01 -0.70491284980E+01 -0.45259196807E+01  0.96419741795E+01  0.51100000000E-03 0.  1.
        -12    1    3    3    0    0 -0.44804945253E+01  0.10367348549E+02 -0.46251115145E+01  0.12204441964E+02  0.00000000000E+00 0.  1.
</event>
<event>
 7    1  0.4878192E-011  0.5052886E+02  0.7816164E-02  0.1300439E+00
        -11   -1    0    0    0    0  0.00000000000E+00  0.00000000000E+00  0.45593999997E+02  0.45594000000E+02  0.51100000000E-03 0. -1.
         11   -1    0    0    0    0 -0.00000000000E+00 -0.00000000000E+00 -0.45593999997E+02  0.45594000000E+02  0.51100000000E-03 0.  1.
    9900012    2    1    2    0    0 -0.21671143640E+01  0.20447969254E+02  0.35076344451E+02  0.50528858699E+02  0.29999996501E+02 0.  0.
        -12    1    1    2    0    0  0.21671143640E+01 -0.20447969254E+02 -0.35076344451E+02  0.40659141301E+02  0.00000000000E+00 0.  1.
         11    1    3    3    0    0 -0.63716439389E+01  0.15497639199E+02  0.19304400789E+02  0.25562366035E+02  0.51100000000E-03 0. -1.
        -11    1    3    3    0    0 -0.25617039734E+01 -0.59750844535E+01  0.54614639088E+01  0.84906742819E+01  0.51100000000E-03 0.  1.
         12    1    3    3    0    0  0.67662335482E+01  0.10925414508E+02  0.10310479754E+02  0.16475818382E+02  0.00000000000E+00 0. -1.
</event>
<event>
 7    1  0.4878192E-011  0.5052884E+02  0.7816164E-02  0.1300439E+00
        -11   -1    0    0    0    0  0.00000000000E+00  0.00000000000E+00  0.45593999997E+02  0.45594000000E+02  0.51100000000E-03 0. -1.
         11   -1    0    0    0    0 -0.00000000000E+00 -0.00000000000E+00 -0.45593999997E+02  0.45594000000E+02  0.51100000000E-03 0.  1.
    9900012    2    1    2    0    0 -0.35535587927E+02 -0.19714060532E+02 -0.13209169480E+01  0.50528843423E+02  0.29999950068E+02 0.  0.
        -12    1    1    2    0    0  0.35535587927E+02  0.19714060532E+02  0.13209169480E+01  0.40659156577E+02  0.00000000000E+00 0.  1.
         11    1    3    3    0    0 -0.12501883680E+02 -0.85718792183E+01  0.13164427455E+01  0.15215361667E+02  0.51100000000E-03 0. -1.
        -11    1    3    3    0    0 -0.78789187539E+01 -0.39586063997E+01 -0.12919255809E+02  0.15641454417E+02  0.51100000000E-03 0.  1.
        -12    1    3    3    0    0 -0.15154785493E+02 -0.71835749145E+01  0.10281896116E+02  0.19672027339E+02  0.00000000000E+00 0.  1.
</event>
<event>
 7    1  0.4878192E-011  0.5052886E+02  0.7816164E-02  0.1300439E+00
        -11   -1    0    0    0    0  0.00000000000E+00  0.00000000000E+00  0.45593999997E+02  0.45594000000E+02  0.51100000000E-03 0. -1.
         11   -1    0    0    0    0 -0.00000000000E+00 -0.00000000000E+00 -0.45593999997E+02  0.45594000000E+02  0.51100000000E-03 0.  1.
    9900012    2    1    2    0    0  0.18466411419E+02 -0.31041928488E+02  0.18669655834E+02  0.50528859282E+02  0.29999998273E+02 0.  0.
        -12    1    1    2    0    0 -0.18466411419E+02  0.31041928488E+02 -0.18669655834E+02  0.40659140718E+02  0.00000000000E+00 0.  1.
         11    1    3    3    0    0  0.10877436944E+02 -0.26972883578E+01  0.12453492349E+02  0.16753610683E+02  0.51100000000E-03 0. -1.
        -11    1    3    3    0    0  0.93332640448E+01 -0.28048807522E+02  0.25085161932E+01  0.29667121108E+02  0.51100000000E-03 0.  1.
         12    1    3    3    0    0 -0.17442895697E+01 -0.29583260846E+00  0.37076472921E+01  0.41081274905E+01  0.00000000000E+00 0. -1.
</event>
<event>
 7    1  0.4878192E-011  0.5052887E+02  0.7816164E-02  0.1300439E+00
        -11   -1    0    0    0    0  0.00000000000E+00  0.00000000000E+00  0.45593999997E+02  0.45594000000E+02  0.51100000000E-03 0. -1.
         11   -1    0    0    0    0 -0.00000000000E+00 -0.00000000000E+00 -0.45593999997E+02  0.45594000000E+02  0.51100000000E-03 0.  1.
    9900012    2    1    2    0    0 -0.17962940990E+02 -0.65192167584E+01  0.35888684039E+02  0.50528867222E+02  0.30000022409E+02 0.  0.
        -12    1    1    2    0    0  0.17962940990E+02  0.65192167584E+01 -0.35888684039E+02  0.40659132778E+02  0.00000000000E+00 0.  1.
         11    1    3    3    0    0 -0.15055315849E+02 -0.15000174514E+02  0.25949024369E+02  0.33541312389E+02  0.51100000000E-03 0. -1.
        -11    1    3    3    0    0  0.34047853826E+01  0.57667924941E+01  0.63781493130E+01  0.92482024249E+01  0.51100000000E-03 0.  1.
         12    1    3    3    0    0 -0.63124105237E+01  0.27141652616E+01  0.35615103568E+01  0.77393524089E+01  0.00000000000E+00 0. -1.
</event>
<event>
 7    1  0.4878192E-011  0.5052886E+02  0.7816164E-02  0.1300439E+00
        -11   -1    0    0    0    0  0.00000000000E+00  0.00000000000E+00  0.45593999997E+02  0.45594000000E+02  0.51100000000E-03 0. -1.
         11   -1    0    0    0    0 -0.00000000000E+00 -0.00000000000E+00 -0.45593999997E+02  0.45594000000E+02  0.51100000000E-03 0.  1.
    9900012    2    1    2    0    0  0.14822971134E+02  0.37664693320E+02  0.38491191623E+01  0.50528864318E+02  0.30000013580E+02 0.  0.
        -12    1    1    2    0    0 -0.14822971134E+02 -0.37664693320E+02 -0.38491191623E+01  0.40659135682E+02  0.00000000000E+00 0.  1.
         11    1    3    3    0    0 -0.10718578066E+01  0.16666998773E+02 -0.53715597374E+01  0.17543984198E+02  0.51100000000E-03 0. -1.
        -11    1    3    3    0    0  0.12539086337E+02  0.24009391690E+02  0.86812900933E+01  0.28443705339E+02  0.51100000000E-03 0.  1.
        -12    1    3    3    0    0  0.33557426033E+01 -0.30116971434E+01  0.53938880635E+00  0.45411747806E+01  0.00000000000E+00 0.  1.
</event>
<event>
 7    1  0.4878192E-011  0.5052885E+02  0.7816164E-02  0.1300439E+00
        -11   -1    0    0    0    0  0.00000000000E+00  0.00000000000E+00  0.45593999997E+02  0.45594000000E+02  0.51100000000E-03 0.  1.
         11   -1    0    0    0    0 -0.00000000000E+00 -0.00000000000E+00 -0.45593999997E+02  0.45594000000E+02  0.51100000000E-03 0. -1.
    9900012    2    1    2    0    0 -0.30315753229E+02  0.19727561258E+02 -0.18572684827E+02  0.50528853566E+02  0.29999980900E+02 0.  0.
        -12    1    1    2    0    0  0.30315753229E+02 -0.19727561258E+02  0.18572684827E+02  0.40659146434E+02  0.00000000000E+00 0.  1.
         11    1    3    3    0    0 -0.10748849297E+02 -0.40340632511E+01 -0.30320322366E+01  0.11874537771E+02  0.51100000000E-03 0. -1.
        -11    1    3    3    0    0 -0.20053113437E+01  0.15982978442E+02 -0.58203462243E+01  0.17127559776E+02  0.51100000000E-03 0.  1.
         12    1    3    3    0    0 -0.17561592588E+02  0.77786460676E+01 -0.97203063661E+01  0.21526756020E+02  0.00000000000E+00 0. -1.
</event>
<event>
 7    1  0.4878192E-011  0.5052886E+02  0.7816164E-02  0.1300439E+00
        -11   -1    0    0    0    0  0.00000000000E+00  0.00000000000E+00  0.45593999997E+02  0.45594000000E+02  0.51100000000E-03 0. -1.
         11   -1    0    0    0    0 -0.00000000000E+00 -0.00000000000E+00 -0.45593999997E+02  0.45594000000E+02  0.51100000000E-03 0.  1.
    9900012    2    1    2    0    0  0.27523594198E+02  0.21279813504E+01  0.29851111961E+02  0.50528862927E+02  0.30000009354E+02 0.  0.
        -12    1    1    2    0    0 -0.27523594198E+02 -0.21279813504E+01 -0.29851111961E+02  0.40659137073E+02  0.00000000000E+00 0.  1.
         11    1    3    3    0    0  0.14417317383E+02  0.25511757301E+01  0.15964504122E+02  0.21661785020E+02  0.51100000000E-03 0. -1.
        -11    1    3    3    0    0  0.18658781785E+01  0.87723721063E+01  0.29039960808E+00  0.89733129858E+01  0.51100000000E-03 0.  1.
        -12    1    3    3    0    0  0.11240398636E+02 -0.91955664860E+01  0.13596208231E+02  0.19893764922E+02  0.00000000000E+00 0.  1.
</event>
<event>
 7    1  0.4878192E-011  0.5052886E+02  0.7816164E-02  0.1300439E+00
        -11   -1    0    0    0    0  0.00000000000E+00  0.00000000000E+00  0.45593999997E+02  0.45594000000E+02  0.51100000000E-03 0.  1.
         11   -1    0    0    0    0 -0.00000000000E+00 -0.00000000000E+00 -0.45593999997E+02  0.45594000000E+02  0.51100000000E-03 0. -1.
    9900012    2    1    2    0    0 -0.97248259368E+01  0.26195334913E+02 -0.29536387897E+02  0.50528855632E+02  0.29999987180E+02 0.  0.
        -12    1    1    2    0    0  0.97248259368E+01 -0.26195334913E+02  0.29536387897E+02  0.40659144368E+02  0.00000000000E+00 0.  1.
         11    1    3    3    0    0 -0.53134538416E+01 -0.56769614105E+00 -0.31005273959E+01  0.61780531747E+01  0.51100000000E-03 0. -1.
        -11    1    3    3    0    0 -0.16790645309E+01  0.29496784723E+02 -0.16842447601E+02  0.34008052107E+02  0.51100000000E-03 0.  1.
        -12    1    3    3    0    0 -0.27323075644E+01 -0.27337536683E+01 -0.95934128994E+01  0.10342750350E+02  0.00000000000E+00 0.  1.
</event>
<event>
 7    1  0.4878192E-011  0.5052886E+02  0.7816164E-02  0.1300439E+00
        -11   -1    0    0    0    0  0.00000000000E+00  0.00000000000E+00  0.45593999997E+02  0.45594000000E+02  0.51100000000E-03 0.  1.
         11   -1    0    0    0    0 -0.00000000000E+00 -0.00000000000E+00 -0.45593999997E+02  0.45594000000E+02  0.51100000000E-03 0. -1.
    9900012    2    1    2    0    0 -0.18786460143E+02  0.64153496860E+01 -0.35483491199E+02  0.50528856576E+02  0.29999990047E+02 0.  0.
        -12    1    1    2    0    0  0.18786460143E+02 -0.64153496860E+01  0.35483491199E+02  0.40659143424E+02  0.00000000000E+00 0.  1.
         11    1    3    3    0    0 -0.15632258157E+02  0.61655595436E+01 -0.38977524253E+02  0.42445600676E+02  0.51100000000E-03 0. -1.
        -11    1    3    3    0    0 -0.73105249615E+00 -0.27794835010E+01  0.17326780793E-01  0.28740679816E+01  0.51100000000E-03 0.  1.
         12    1    3    3    0    0 -0.24231494901E+01  0.30292736435E+01  0.34767062728E+01  0.52091879181E+01  0.00000000000E+00 0. -1.
</event>
<event>
 7    1  0.4878192E-011  0.5052886E+02  0.7816164E-02  0.1300439E+00
        -11   -1    0    0    0    0  0.00000000000E+00  0.00000000000E+00  0.45593999997E+02  0.45594000000E+02  0.51100000000E-03 0.  1.
         11   -1    0    0    0    0 -0.00000000000E+00 -0.00000000000E+00 -0.45593999997E+02  0.45594000000E+02  0.51100000000E-03 0. -1.
    9900012    2    1    2    0    0 -0.20399778999E+01  0.25392154287E+02 -0.31689791048E+02  0.50528857537E+02  0.29999992968E+02 0.  0.
        -12    1    1    2    0    0  0.20399778999E+01 -0.25392154287E+02  0.31689791048E+02  0.40659142463E+02  0.00000000000E+00 0.  1.
         11    1    3    3    0    0 -0.40391240518E+01  0.15738833697E+02 -0.24437125672E+02  0.29346184090E+02  0.51100000000E-03 0. -1.
        -11    1    3    3    0    0 -0.47603355380E+00  0.95281711614E+01  0.34895847857E+01  0.10158240786E+02  0.51100000000E-03 0.  1.
         12    1    3    3    0    0  0.24751797057E+01  0.12514942867E+00 -0.10742250162E+02  0.11024432661E+02  0.00000000000E+00 0. -1.
</event>
<event>
 7    1  0.4878192E-011  0.5052886E+02  0.7816164E-02  0.1300439E+00
        -11   -1    0    0    0    0  0.00000000000E+00  0.00000000000E+00  0.45593999997E+02  0.45594000000E+02  0.51100000000E-03 0.  1.
         11   -1    0    0    0    0 -0.00000000000E+00 -0.00000000000E+00 -0.45593999997E+02  0.45594000000E+02  0.51100000000E-03 0. -1.
    9900012    2    1    2    0    0  0.40705477764E+01  0.21713755781E+02 -0.34133699911E+02  0.50528855655E+02  0.29999987248E+02 0.  0.
        -12    1    1    2    0    0 -0.40705477764E+01 -0.21713755781E+02  0.34133699911E+02  0.40659144345E+02  0.00000000000E+00 0.  1.
         11    1    3    3    0    0 -0.50180718934E+00  0.34453344114E+01 -0.22622872213E+02  0.22889222073E+02  0.51100000000E-03 0. -1.
        -11    1    3    3    0    0  0.87004230353E+01  0.45841862882E+01 -0.97415825310E+00  0.98823635574E+01  0.51100000000E-03 0.  1.
         12    1    3    3    0    0 -0.41280680695E+01  0.13684235081E+02 -0.10536669444E+02  0.17757270024E+02  0.00000000000E+00 0. -1.
</event>
<event>
 7    1  0.4878192E-011  0.5052886E+02  0.7816164E-02  0.1300439E+00
        -11   -1    0    0    0    0  0.00000000000E+00  0.00000000000E+00  0.45593999997E+02  0.45594000000E+02  0.51100000000E-03 0.  1.
         11   -1    0    0    0    0 -0.00000000000E+00 -0.00000000000E+00 -0.45593999997E+02  0.45594000000E+02  0.51100000000E-03 0. -1.
    9900012    2    1    2    0    0 -0.36965823160E+02 -0.15147323580E+02 -0.75665334536E+01  0.50528856846E+02  0.29999990869E+02 0.  0.
        -12    1    1    2    0    0  0.36965823160E+02  0.15147323580E+02  0.75665334536E+01  0.40659143154E+02  0.00000000000E+00 0.  1.
         11    1    3    3    0    0 -0.20083296417E+02 -0.15960351391E+02  0.66887809204E+00  0.25661625235E+02  0.51100000000E-03 0. -1.
        -11    1    3    3    0    0  0.22783010559E+01  0.21890797151E+01 -0.41696615327E+01  0.52315201671E+01  0.51100000000E-03 0.  1.
        -12    1    3    3    0    0 -0.19160827798E+02 -0.13760519035E+01 -0.40657500129E+01  0.19635711444E+02  0.00000000000E+00 0.  1.
</event>
<event>
 7    1  0.4878192E-011  0.5052887E+02  0.7816164E-02  0.1300439E+00
        -11   -1    0    0    0    0  0.00000000000E+00  0.00000000000E+00  0.45593999997E+02  0.45594000000E+02  0.51100000000E-03 0. -1.
         11   -1    0    0    0    0 -0.00000000000E+00 -0.00000000000E+00 -0.45593999997E+02  0.45594000000E+02  0.51100000000E-03 0.  1.
    9900012    2    1    2    0    0  0.23439719929E+02 -0.32779247075E+02 -0.54097806770E+01  0.50528865281E+02  0.30000016507E+02 0.  0.
        -12    1    1    2    0    0 -0.23439719929E+02  0.32779247075E+02  0.54097806770E+01  0.40659134719E+02  0.00000000000E+00 0.  1.
         11    1    3    3    0    0  0.96749237449E+01  0.40706073303E+00 -0.58488337447E+01  0.11312767316E+02  0.51100000000E-03 0.  1.
        -11    1    3    3    0    0  0.10935059966E+02 -0.34426575219E+02  0.28493197201E+00  0.36122649464E+02  0.51100000000E-03 0. -1.
         12    1    3    3    0    0  0.28297362184E+01  0.12402674113E+01  0.15412109573E+00  0.30934485011E+01  0.00000000000E+00 0. -1.
</event>
<event>
 7    1  0.4878192E-011  0.5052888E+02  0.7816164E-02  0.1300439E+00
        -11   -1    0    0    0    0  0.00000000000E+00  0.00000000000E+00  0.45593999997E+02  0.45594000000E+02  0.51100000000E-03 0. -1.
         11   -1    0    0    0    0 -0.00000000000E+00 -0.00000000000E+00 -0.45593999997E+02  0.45594000000E+02  0.51100000000E-03 0.  1.
    9900012    2    1    2    0    0  0.36000947781E+02 -0.17161672539E+02  0.79102833067E+01  0.50528882604E+02  0.30000069162E+02 0.  0.
        -12    1    1    2    0    0 -0.36000947781E+02  0.17161672539E+02 -0.79102833067E+01  0.40659117396E+02  0.00000000000E+00 0.  1.
         11    1    3    3    0    0  0.85874622873E+01 -0.16508027751E+02  0.71479757115E+01  0.19933716307E+02  0.51100000000E-03 0. -1.
        -11    1    3    3    0    0  0.22354335375E+02 -0.41167885451E+01 -0.36770385825E+01  0.23025743657E+02  0.51100000000E-03 0.  1.
         12    1    3    3    0    0  0.50591501189E+01  0.34631437574E+01  0.44393461776E+01  0.75694226395E+01  0.00000000000E+00 0. -1.
</event>
<event>
 7    1  0.4878192E-011  0.5052887E+02  0.7816164E-02  0.1300439E+00
        -11   -1    0    0    0    0  0.00000000000E+00  0.00000000000E+00  0.45593999997E+02  0.45594000000E+02  0.51100000000E-03 0. -1.
         11   -1    0    0    0    0 -0.00000000000E+00 -0.00000000000E+00 -0.45593999997E+02  0.45594000000E+02  0.51100000000E-03 0.  1.
    9900012    2    1    2    0    0  0.75802839907E+01  0.40697573318E+01  0.39738413125E+02  0.50528866858E+02  0.30000021302E+02 0.  0.
        -12    1    1    2    0    0 -0.75802839907E+01 -0.40697573318E+01 -0.39738413125E+02  0.40659133142E+02  0.00000000000E+00 0.  1.
         11    1    3    3    0    0  0.95570726285E+01 -0.94331748580E+01  0.12795968758E+02  0.18548833975E+02  0.51100000000E-03 0.  1.
        -11    1    3    3    0    0 -0.61250270977E+01  0.65970732739E+01  0.16445071605E+02  0.18747738879E+02  0.51100000000E-03 0. -1.
         12    1    3    3    0    0  0.41482384599E+01  0.69058589159E+01  0.10497372763E+02  0.13232294004E+02  0.00000000000E+00 0. -1.
</event>
<event>
 7    1  0.4878192E-011  0.5052886E+02  0.7816164E-02  0.1300439E+00
        -11   -1    0    0    0    0  0.00000000000E+00  0.00000000000E+00  0.45593999997E+02  0.45594000000E+02  0.51100000000E-03 0.  1.
         11   -1    0    0    0    0 -0.00000000000E+00 -0.00000000000E+00 -0.45593999997E+02  0.45594000000E+02  0.51100000000E-03 0. -1.
    9900012    2    1    2    0    0 -0.12490941867E+02 -0.23563535658E+02 -0.30690424179E+02  0.50528856161E+02  0.29999988788E+02 0.  0.
        -12    1    1    2    0    0  0.12490941867E+02  0.23563535658E+02  0.30690424179E+02  0.40659143839E+02  0.00000000000E+00 0.  1.
         11    1    3    3    0    0  0.38488599804E+01 -0.13192819032E+01 -0.84753890664E+00  0.41560257878E+01  0.51100000000E-03 0.  1.
        -11    1    3    3    0    0 -0.18857674267E+02 -0.23848609537E+02 -0.20768224773E+02  0.36819658012E+02  0.51100000000E-03 0. -1.
         12    1    3    3    0    0  0.25178724197E+01  0.16043557825E+01 -0.90746604990E+01  0.95531723616E+01  0.00000000000E+00 0. -1.
</event>
<event>
 7    1  0.4878192E-011  0.5052886E+02  0.7816164E-02  0.1300439E+00
        -11   -1    0    0    0    0  0.00000000000E+00  0.00000000000E+00  0.45593999997E+02  0.45594000000E+02  0.51100000000E-03 0.  1.
         11   -1    0    0    0    0 -0.00000000000E+00 -0.00000000000E+00 -0.45593999997E+02  0.45594000000E+02  0.51100000000E-03 0. -1.
    9900012    2    1    2    0    0 -0.10532511724E+02 -0.39246729867E+02  0.13877663070E+01  0.50528861989E+02  0.30000006502E+02 0.  0.
        -12    1    1    2    0    0  0.10532511724E+02  0.39246729867E+02 -0.13877663070E+01  0.40659138011E+02  0.00000000000E+00 0.  1.
         11    1    3    3    0    0  0.34115119232E+01 -0.21965532627E+02  0.12657770459E-01  0.22228882061E+02  0.51100000000E-03 0. -1.
        -11    1    3    3    0    0 -0.13359623700E+02 -0.91692918056E+01 -0.60414256647E+01  0.17293185998E+02  0.51100000000E-03 0.  1.
        -12    1    3    3    0    0 -0.58439994698E+00 -0.81119054346E+01  0.74165342013E+01  0.11006793931E+02  0.00000000000E+00 0.  1.
</event>
<event>
 7    1  0.4878192E-011  0.5052886E+02  0.7816164E-02  0.1300439E+00
        -11   -1    0    0    0    0  0.00000000000E+00  0.00000000000E+00  0.45593999997E+02  0.45594000000E+02  0.51100000000E-03 0. -1.
         11   -1    0    0    0    0 -0.00000000000E+00 -0.00000000000E+00 -0.45593999997E+02  0.45594000000E+02  0.51100000000E-03 0.  1.
    9900012    2    1    2    0    0 -0.24482464214E+02 -0.27475375863E+02 -0.17288097731E+02  0.50528860118E+02  0.30000000814E+02 0.  0.
        -12    1    1    2    0    0  0.24482464214E+02  0.27475375863E+02  0.17288097731E+02  0.40659139882E+02  0.00000000000E+00 0.  1.
         11    1    3    3    0    0 -0.48960015629E+01 -0.10827347248E+02 -0.14320852544E+02  0.18608844606E+02  0.51100000000E-03 0. -1.
        -11    1    3    3    0    0 -0.67041553989E+01  0.44781968185E+00  0.57143235314E+01  0.88204158498E+01  0.51100000000E-03 0.  1.
        -12    1    3    3    0    0 -0.12882307252E+02 -0.17095848297E+02 -0.86815687188E+01  0.23099599662E+02  0.00000000000E+00 0.  1.
</event>
<event>
 7    1  0.4972253E-011  0.5052891E+02  0.7816164E-02  0.1300439E+00
        -11   -1    0    0    0    0  0.00000000000E+00  0.00000000000E+00  0.45593999997E+02  0.45594000000E+02  0.51100000000E-03 0. -1.
         11   -1    0    0    0    0 -0.00000000000E+00 -0.00000000000E+00 -0.45593999997E+02  0.45594000000E+02  0.51100000000E-03 0.  1.
    9900012    2    1    2    0    0  0.11868936921E+02  0.26361860929E+02  0.28589191436E+02  0.50528914395E+02  0.30000165793E+02 0.  0.
        -12    1    1    2    0    0 -0.11868936921E+02 -0.26361860929E+02 -0.28589191436E+02  0.40659085605E+02  0.00000000000E+00 0.  1.
         11    1    3    3    0    0  0.51704163970E+01 -0.19440121570E+01  0.11962939666E+02  0.13176657949E+02  0.51100000000E-03 0. -1.
        -11    1    3    3    0    0 -0.12903983158E+01  0.10931629058E+02 -0.13705873746E+01  0.11092526840E+02  0.51100000000E-03 0.  1.
         12    1    3    3    0    0  0.79889188394E+01  0.17374244028E+02  0.17996839145E+02  0.26259729606E+02  0.00000000000E+00 0. -1.
</event>
<event>
 7    1  0.4878192E-011  0.5052885E+02  0.7816164E-02  0.1300439E+00
        -11   -1    0    0    0    0  0.00000000000E+00  0.00000000000E+00  0.45593999997E+02  0.45594000000E+02  0.51100000000E-03 0.  1.
         11   -1    0    0    0    0 -0.00000000000E+00 -0.00000000000E+00 -0.45593999997E+02  0.45594000000E+02  0.51100000000E-03 0. -1.
    9900012    2    1    2    0    0 -0.43423047342E+01 -0.40412795230E+02  0.10567450864E+01  0.50528851719E+02  0.29999975286E+02 0.  0.
        -12    1    1    2    0    0  0.43423047342E+01  0.40412795230E+02 -0.10567450864E+01  0.40659148281E+02  0.00000000000E+00 0.  1.
         11    1    3    3    0    0  0.74386337436E+01 -0.55046240500E+01  0.58888350977E+01  0.10968707170E+02  0.51100000000E-03 0.  1.
        -11    1    3    3    0    0 -0.13316550369E+02 -0.18932332345E+02 -0.39954878948E+01  0.23488883446E+02  0.51100000000E-03 0. -1.
         12    1    3    3    0    0  0.15356118908E+01 -0.15975838835E+02 -0.83660211646E+00  0.16071261104E+02  0.00000000000E+00 0. -1.
</event>
<event>
 7    1  0.4878192E-011  0.5052886E+02  0.7816164E-02  0.1300439E+00
        -11   -1    0    0    0    0  0.00000000000E+00  0.00000000000E+00  0.45593999997E+02  0.45594000000E+02  0.51100000000E-03 0.  1.
         11   -1    0    0    0    0 -0.00000000000E+00 -0.00000000000E+00 -0.45593999997E+02  0.45594000000E+02  0.51100000000E-03 0. -1.
    9900012    2    1    2    0    0 -0.42174903688E+01  0.11932925132E+02 -0.38639143645E+02  0.50528863895E+02  0.30000012294E+02 0.  0.
        -12    1    1    2    0    0  0.42174903688E+01 -0.11932925132E+02  0.38639143645E+02  0.40659136105E+02  0.00000000000E+00 0.  1.
         11    1    3    3    0    0  0.35463747929E+01  0.92538152312E+01 -0.27597082571E+02  0.29322497117E+02  0.51100000000E-03 0. -1.
        -11    1    3    3    0    0  0.17728859910E+01 -0.43180482576E+01  0.48158102113E+00  0.46926097252E+01  0.51100000000E-03 0.  1.
        -12    1    3    3    0    0 -0.95367511527E+01  0.69971581581E+01 -0.11523642095E+02  0.16513757052E+02  0.00000000000E+00 0.  1.
</event>
<event>
 7    1  0.4878192E-011  0.5052885E+02  0.7816164E-02  0.1300439E+00
        -11   -1    0    0    0    0  0.00000000000E+00  0.00000000000E+00  0.45593999997E+02  0.45594000000E+02  0.51100000000E-03 0.  1.
         11   -1    0    0    0    0 -0.00000000000E+00 -0.00000000000E+00 -0.45593999997E+02  0.45594000000E+02  0.51100000000E-03 0. -1.
    9900012    2    1    2    0    0 -0.29260723198E+01 -0.40096549110E+02  0.60722077379E+01  0.50528845354E+02  0.29999955938E+02 0.  0.
        -12    1    1    2    0    0  0.29260723198E+01  0.40096549110E+02 -0.60722077379E+01  0.40659154646E+02  0.00000000000E+00 0.  1.
         11    1    3    3    0    0  0.30263732822E+01 -0.32506000884E+02 -0.38009316954E+01  0.32867097692E+02  0.51100000000E-03 0. -1.
        -11    1    3    3    0    0 -0.62153658314E+01 -0.87879288800E+01  0.11416602845E+02  0.15690675167E+02  0.51100000000E-03 0.  1.
        -12    1    3    3    0    0  0.26292022947E+00  0.11973806541E+01 -0.15434634115E+01  0.19710724950E+01  0.00000000000E+00 0.  1.
</event>
<event>
 7    1  0.4878192E-011  0.5052886E+02  0.7816164E-02  0.1300439E+00
        -11   -1    0    0    0    0  0.00000000000E+00  0.00000000000E+00  0.45593999997E+02  0.45594000000E+02  0.51100000000E-03 0.  1.
         11   -1    0    0    0    0 -0.00000000000E+00 -0.00000000000E+00 -0.45593999997E+02  0.45594000000E+02  0.51100000000E-03 0. -1.
    9900012    2    1    2    0    0  0.15823096051E+02 -0.69936205734E+01 -0.36795165484E+02  0.50528864490E+02  0.30000014105E+02 0.  0.
        -12    1    1    2    0    0 -0.15823096051E+02  0.69936205734E+01  0.36795165484E+02  0.40659135510E+02  0.00000000000E+00 0.  1.
         11    1    3    3    0    0  0.14294411124E+02 -0.95501594495E+00 -0.27228645187E+02  0.30767537500E+02  0.51100000000E-03 0. -1.
        -11    1    3    3    0    0  0.72241378278E+01 -0.69441357470E+01 -0.19509825428E+01  0.10208600383E+02  0.51100000000E-03 0.  1.
        -12    1    3    3    0    0 -0.56954529008E+01  0.90553111851E+00 -0.76155377547E+01  0.95527266079E+01  0.00000000000E+00 0.  1.
</event>
<event>
 7    1  0.4878192E-011  0.5052888E+02  0.7816164E-02  0.1300439E+00
        -11   -1    0    0    0    0  0.00000000000E+00  0.00000000000E+00  0.45593999997E+02  0.45594000000E+02  0.51100000000E-03 0.  1.
         11   -1    0    0    0    0 -0.00000000000E+00 -0.00000000000E+00 -0.45593999997E+02  0.45594000000E+02  0.51100000000E-03 0. -1.
    9900012    2    1    2    0    0 -0.36809055716E+02  0.17052884839E+02 -0.27306254161E+01  0.50528883197E+02  0.30000070966E+02 0.  0.
        -12    1    1    2    0    0  0.36809055716E+02 -0.17052884839E+02  0.27306254161E+01  0.40659116803E+02  0.00000000000E+00 0.  1.
         11    1    3    3    0    0 -0.20368422921E+02  0.16337884048E+02  0.47418204362E+01  0.26538349021E+02  0.51100000000E-03 0. -1.
        -11    1    3    3    0    0 -0.17317355527E+02  0.39179529840E+01 -0.94624711176E+01  0.20119133131E+02  0.51100000000E-03 0.  1.
        -12    1    3    3    0    0  0.87672273191E+00 -0.32029521927E+01  0.19900252652E+01  0.38714010453E+01  0.00000000000E+00 0.  1.
</event>
<event>
 7    1  0.4878192E-011  0.5052888E+02  0.7816164E-02  0.1300439E+00
        -11   -1    0    0    0    0  0.00000000000E+00  0.00000000000E+00  0.45593999997E+02  0.45594000000E+02  0.51100000000E-03 0.  1.
         11   -1    0    0    0    0 -0.00000000000E+00 -0.00000000000E+00 -0.45593999997E+02  0.45594000000E+02  0.51100000000E-03 0. -1.
    9900012    2    1    2    0    0  0.66162471832E+01 -0.98424892714E+01 -0.38891059360E+02  0.50528882695E+02  0.30000069441E+02 0.  0.
        -12    1    1    2    0    0 -0.66162471832E+01  0.98424892714E+01  0.38891059360E+02  0.40659117305E+02  0.00000000000E+00 0.  1.
         11    1    3    3    0    0  0.40747838715E+00 -0.11690931619E+02 -0.33491102134E+02  0.35475313151E+02  0.51100000000E-03 0. -1.
        -11    1    3    3    0    0  0.55180665982E+01 -0.74535882033E+00  0.29369136049E+01  0.62952426908E+01  0.51100000000E-03 0.  1.
        -12    1    3    3    0    0  0.69070219786E+00  0.25938011678E+01 -0.83368708306E+01  0.87583268534E+01  0.00000000000E+00 0.  1.
</event>
<event>
 7    1  0.4878192E-011  0.5052886E+02  0.7816164E-02  0.1300439E+00
        -11   -1    0    0    0    0  0.00000000000E+00  0.00000000000E+00  0.45593999997E+02  0.45594000000E+02  0.51100000000E-03 0. -1.
         11   -1    0    0    0    0 -0.00000000000E+00 -0.00000000000E+00 -0.45593999997E+02  0.45594000000E+02  0.51100000000E-03 0.  1.
    9900012    2    1    2    0    0  0.21180659877E+02 -0.23589726923E+02  0.25457221147E+02  0.50528859851E+02  0.30000000004E+02 0.  0.
        -12    1    1    2    0    0 -0.21180659877E+02  0.23589726923E+02 -0.25457221147E+02  0.40659140149E+02  0.00000000000E+00 0.  1.
         11    1    3    3    0    0 -0.73470424555E+00 -0.19906814064E+02  0.15767453001E+02  0.25405385471E+02  0.51100000000E-03 0. -1.
        -11    1    3    3    0    0  0.43439067342E+01  0.88368866570E+00 -0.22280803400E+00  0.44384766592E+01  0.51100000000E-03 0.  1.
         12    1    3    3    0    0  0.17571457388E+02 -0.45666015246E+01  0.99125761792E+01  0.20684997721E+02  0.00000000000E+00 0. -1.
</event>
<event>
 7    1  0.4878192E-011  0.5052886E+02  0.7816164E-02  0.1300439E+00
        -11   -1    0    0    0    0  0.00000000000E+00  0.00000000000E+00  0.45593999997E+02  0.45594000000E+02  0.51100000000E-03 0.  1.
         11   -1    0    0    0    0 -0.00000000000E+00 -0.00000000000E+00 -0.45593999997E+02  0.45594000000E+02  0.51100000000E-03 0. -1.
    9900012    2    1    2    0    0 -0.26766707629E+02  0.30583022324E+02  0.11779558713E+01  0.50528862382E+02  0.30000007696E+02 0.  0.
        -12    1    1    2    0    0  0.26766707629E+02 -0.30583022324E+02 -0.11779558713E+01  0.40659137618E+02  0.00000000000E+00 0.  1.
         11    1    3    3    0    0 -0.14003367772E+02  0.72706267224E+01 -0.47843503073E+01  0.16487763039E+02  0.51100000000E-03 0. -1.
        -11    1    3    3    0    0  0.45172484180E+01  0.11416918546E+02  0.17864053777E+00  0.12279392292E+02  0.51100000000E-03 0.  1.
        -12    1    3    3    0    0 -0.17280588275E+02  0.11895477056E+02  0.57836656408E+01  0.21761707051E+02  0.00000000000E+00 0.  1.
</event>
<event>
 7    1  0.4878192E-011  0.5052889E+02  0.7816164E-02  0.1300439E+00
        -11   -1    0    0    0    0  0.00000000000E+00  0.00000000000E+00  0.45593999997E+02  0.45594000000E+02  0.51100000000E-03 0.  1.
         11   -1    0    0    0    0 -0.00000000000E+00 -0.00000000000E+00 -0.45593999997E+02  0.45594000000E+02  0.51100000000E-03 0. -1.
    9900012    2    1    2    0    0 -0.33298963101E+02  0.58721124507E+01 -0.22580100924E+02  0.50528885327E+02  0.30000077441E+02 0.  0.
        -12    1    1    2    0    0  0.33298963101E+02 -0.58721124507E+01  0.22580100924E+02  0.40659114673E+02  0.00000000000E+00 0.  1.
         11    1    3    3    0    0 -0.18039097359E+02 -0.93355641223E+01 -0.33537125784E+01  0.20586626225E+02  0.51100000000E-03 0.  1.
        -11    1    3    3    0    0 -0.49359067645E+01  0.10499676936E+02 -0.10038524887E+02  0.15342045937E+02  0.51100000000E-03 0. -1.
        -12    1    3    3    0    0 -0.10323958977E+02  0.47079996366E+01 -0.91878634587E+01  0.14600213165E+02  0.00000000000E+00 0.  1.
</event>
<event>
 7    1  0.4878192E-011  0.5052885E+02  0.7816164E-02  0.1300439E+00
        -11   -1    0    0    0    0  0.00000000000E+00  0.00000000000E+00  0.45593999997E+02  0.45594000000E+02  0.51100000000E-03 0. -1.
         11   -1    0    0    0    0 -0.00000000000E+00 -0.00000000000E+00 -0.45593999997E+02  0.45594000000E+02  0.51100000000E-03 0.  1.
    9900012    2    1    2    0    0  0.27176585873E+01 -0.15709638069E+02  0.37403045285E+02  0.50528853513E+02  0.29999980737E+02 0.  0.
        -12    1    1    2    0    0 -0.27176585873E+01  0.15709638069E+02 -0.37403045285E+02  0.40659146487E+02  0.00000000000E+00 0.  1.
         11    1    3    3    0    0  0.29678717660E+00 -0.20333218526E+01  0.21382089014E+01  0.29655383915E+01  0.51100000000E-03 0. -1.
        -11    1    3    3    0    0  0.26572484046E+01 -0.16082624865E+02  0.47860356910E+01  0.16988758917E+02  0.51100000000E-03 0.  1.
        -12    1    3    3    0    0 -0.23637699396E+00  0.24063086488E+01  0.30478800693E+02  0.30574556204E+02  0.00000000000E+00 0.  1.
</event>
<event>
 7    1  0.4878192E-011  0.5052890E+02  0.7816164E-02  0.1300439E+00
        -11   -1    0    0    0    0  0.00000000000E+00  0.00000000000E+00  0.45593999997E+02  0.45594000000E+02  0.51100000000E-03 0.  1.
         11   -1    0    0    0    0 -0.00000000000E+00 -0.00000000000E+00 -0.45593999997E+02  0.45594000000E+02  0.51100000000E-03 0. -1.
    9900012    2    1    2    0    0  0.31442697289E+02 -0.90309630295E+01  0.24144584613E+02  0.50528899270E+02  0.30000119819E+02 0.  0.
        -12    1    1    2    0    0 -0.31442697289E+02  0.90309630295E+01 -0.24144584613E+02  0.40659100730E+02  0.00000000000E+00 0.  1.
         11    1    3    3    0    0  0.14387369096E+02  0.79179236511E+01  0.87003680743E+01  0.18584571809E+02  0.51100000000E-03 0. -1.
        -11    1    3    3    0    0  0.18936717680E+02 -0.15283992719E+02  0.10715915667E+02  0.26590046234E+02  0.51100000000E-03 0.  1.
        -12    1    3    3    0    0 -0.18813894865E+01 -0.16648939619E+01  0.47283008724E+01  0.53542812257E+01  0.00000000000E+00 0.  1.
</event>
<event>
 7    1  0.4878192E-011  0.5052888E+02  0.7816164E-02  0.1300439E+00
        -11   -1    0    0    0    0  0.00000000000E+00  0.00000000000E+00  0.45593999997E+02  0.45594000000E+02  0.51100000000E-03 0.  1.
         11   -1    0    0    0    0 -0.00000000000E+00 -0.00000000000E+00 -0.45593999997E+02  0.45594000000E+02  0.51100000000E-03 0. -1.
    9900012    2    1    2    0    0  0.23731464238E+02  0.11600957900E+00 -0.33014671616E+02  0.50528875624E+02  0.30000047947E+02 0.  0.
        -12    1    1    2    0    0 -0.23731464238E+02 -0.11600957900E+00  0.33014671616E+02  0.40659124376E+02  0.00000000000E+00 0.  1.
         11    1    3    3    0    0  0.25179243238E+02  0.10690175219E+02 -0.21714075323E+02  0.34925280294E+02  0.51100000000E-03 0. -1.
        -11    1    3    3    0    0  0.22008282112E-01 -0.47901942361E+01 -0.49005833076E+01  0.68528944396E+01  0.51100000000E-03 0.  1.
         12    1    3    3    0    0 -0.14697872816E+01 -0.57839714040E+01 -0.64000129853E+01  0.87507008901E+01  0.00000000000E+00 0. -1.
</event>
<event>
 7    1  0.4878192E-011  0.5052886E+02  0.7816164E-02  0.1300439E+00
        -11   -1    0    0    0    0  0.00000000000E+00  0.00000000000E+00  0.45593999997E+02  0.45594000000E+02  0.51100000000E-03 0.  1.
         11   -1    0    0    0    0 -0.00000000000E+00 -0.00000000000E+00 -0.45593999997E+02  0.45594000000E+02  0.51100000000E-03 0. -1.
    9900012    2    1    2    0    0 -0.22869171015E+02  0.33177718287E+02  0.54227366005E+01  0.50528855323E+02  0.29999986238E+02 0.  0.
        -12    1    1    2    0    0  0.22869171015E+02 -0.33177718287E+02 -0.54227366005E+01  0.40659144677E+02  0.00000000000E+00 0.  1.
         11    1    3    3    0    0 -0.16147994169E+02  0.27557013987E+02 -0.84788876385E+01  0.33046002352E+02  0.51100000000E-03 0. -1.
        -11    1    3    3    0    0 -0.54231542630E+01  0.30338343043E+01  0.45724989224E+01  0.77150825921E+01  0.51100000000E-03 0.  1.
         12    1    3    3    0    0 -0.12980225830E+01  0.25868699955E+01  0.93291253165E+01  0.97677703787E+01  0.00000000000E+00 0. -1.
</event>
<event>
 7    1  0.4878192E-011  0.5052886E+02  0.7816164E-02  0.1300439E+00
        -11   -1    0    0    0    0  0.00000000000E+00  0.00000000000E+00  0.45593999997E+02  0.45594000000E+02  0.51100000000E-03 0.  1.
         11   -1    0    0    0    0 -0.00000000000E+00 -0.00000000000E+00 -0.45593999997E+02  0.45594000000E+02  0.51100000000E-03 0. -1.
    9900012    2    1    2    0    0  0.39978091599E+02 -0.67803109041E+00 -0.73796018006E+01  0.50528855188E+02  0.29999985831E+02 0.  0.
        -12    1    1    2    0    0 -0.39978091599E+02  0.67803109041E+00  0.73796018006E+01  0.40659144812E+02  0.00000000000E+00 0.  1.
         11    1    3    3    0    0  0.27915579547E+02 -0.12920653810E+02 -0.27982995459E+01  0.30887754159E+02  0.51100000000E-03 0. -1.
        -11    1    3    3    0    0  0.81617552975E+01  0.62663266367E+01  0.13283616681E+01  0.10375241878E+02  0.51100000000E-03 0.  1.
        -12    1    3    3    0    0  0.39007567544E+01  0.59762960833E+01 -0.59096639228E+01  0.92658591513E+01  0.00000000000E+00 0.  1.
</event>
<event>
 7    1  0.4878192E-011  0.5052886E+02  0.7816164E-02  0.1300439E+00
        -11   -1    0    0    0    0  0.00000000000E+00  0.00000000000E+00  0.45593999997E+02  0.45594000000E+02  0.51100000000E-03 0. -1.
         11   -1    0    0    0    0 -0.00000000000E+00 -0.00000000000E+00 -0.45593999997E+02  0.45594000000E+02  0.51100000000E-03 0.  1.
    9900012    2    1    2    0    0 -0.17240172676E+02  0.24410003708E+02  0.27569795329E+02  0.50528862658E+02  0.30000008535E+02 0.  0.
        -12    1    1    2    0    0  0.17240172676E+02 -0.24410003708E+02 -0.27569795329E+02  0.40659137342E+02  0.00000000000E+00 0.  1.
         11    1    3    3    0    0 -0.33077572326E+00  0.23585856643E+01  0.30428530657E+00  0.24010265980E+01  0.51100000000E-03 0. -1.
        -11    1    3    3    0    0  0.13421345457E+01  0.77696587753E+01 -0.42900955689E+01  0.89762933817E+01  0.51100000000E-03 0.  1.
        -12    1    3    3    0    0 -0.18251531498E+02  0.14281759269E+02  0.31555605591E+02  0.39151542678E+02  0.00000000000E+00 0.  1.
</event>
<event>
 7    1  0.4878192E-011  0.5052885E+02  0.7816164E-02  0.1300439E+00
        -11   -1    0    0    0    0  0.00000000000E+00  0.00000000000E+00  0.45593999997E+02  0.45594000000E+02  0.51100000000E-03 0. -1.
         11   -1    0    0    0    0 -0.00000000000E+00 -0.00000000000E+00 -0.45593999997E+02  0.45594000000E+02  0.51100000000E-03 0.  1.
    9900012    2    1    2    0    0  0.24953596834E+02  0.26336081970E+02  0.18354717195E+02  0.50528845412E+02  0.29999956116E+02 0.  0.
        -12    1    1    2    0    0 -0.24953596834E+02 -0.26336081970E+02 -0.18354717195E+02  0.40659154588E+02  0.00000000000E+00 0.  1.
         11    1    3    3    0    0  0.12654376014E+02  0.21806447870E+02  0.25147316867E+02  0.35609576618E+02  0.51100000000E-03 0. -1.
        -11    1    3    3    0    0  0.89135162319E+01  0.23418282105E+01 -0.52249829011E+01  0.10594119952E+02  0.51100000000E-03 0.  1.
         12    1    3    3    0    0  0.33857045881E+01  0.21878058892E+01 -0.15676167713E+01  0.43251488424E+01  0.00000000000E+00 0. -1.
</event>
<event>
 7    1  0.4878192E-011  0.5052886E+02  0.7816164E-02  0.1300439E+00
        -11   -1    0    0    0    0  0.00000000000E+00  0.00000000000E+00  0.45593999997E+02  0.45594000000E+02  0.51100000000E-03 0.  1.
         11   -1    0    0    0    0 -0.00000000000E+00 -0.00000000000E+00 -0.45593999997E+02  0.45594000000E+02  0.51100000000E-03 0. -1.
    9900012    2    1    2    0    0 -0.34579919681E+02  0.19832122488E+02 -0.80050926744E+01  0.50528862820E+02  0.30000009027E+02 0.  0.
        -12    1    1    2    0    0  0.34579919681E+02 -0.19832122488E+02  0.80050926744E+01  0.40659137180E+02  0.00000000000E+00 0.  1.
         11    1    3    3    0    0 -0.33817056465E+02  0.20540970981E+02 -0.27632998626E+00  0.39567678165E+02  0.51100000000E-03 0. -1.
        -11    1    3    3    0    0 -0.28312249191E+01 -0.30851841137E+01 -0.61423651660E+01  0.74338984155E+01  0.51100000000E-03 0.  1.
         12    1    3    3    0    0  0.20683617034E+01  0.23763356208E+01 -0.15863975221E+01  0.35272862397E+01  0.00000000000E+00 0. -1.
</event>
<event>
 7    1  0.4878192E-011  0.5052886E+02  0.7816164E-02  0.1300439E+00
        -11   -1    0    0    0    0  0.00000000000E+00  0.00000000000E+00  0.45593999997E+02  0.45594000000E+02  0.51100000000E-03 0.  1.
         11   -1    0    0    0    0 -0.00000000000E+00 -0.00000000000E+00 -0.45593999997E+02  0.45594000000E+02  0.51100000000E-03 0. -1.
    9900012    2    1    2    0    0  0.24374355723E+02 -0.32155926078E+00 -0.32541556055E+02  0.50528862187E+02  0.30000007103E+02 0.  0.
        -12    1    1    2    0    0 -0.24374355723E+02  0.32155926078E+00  0.32541556055E+02  0.40659137813E+02  0.00000000000E+00 0.  1.
         11    1    3    3    0    0  0.59042920016E+01  0.87347061214E+01 -0.25480862127E+02  0.27575896904E+02  0.51100000000E-03 0. -1.
        -11    1    3    3    0    0  0.72373302981E+01  0.31700438014E-01 -0.10892269204E+01  0.73189049937E+01  0.51100000000E-03 0.  1.
         12    1    3    3    0    0  0.11232733423E+02 -0.90879658202E+01 -0.59714670077E+01  0.15634060289E+02  0.00000000000E+00 0. -1.
</event>
<event>
 7    1  0.4878192E-011  0.5052887E+02  0.7816164E-02  0.1300439E+00
        -11   -1    0    0    0    0  0.00000000000E+00  0.00000000000E+00  0.45593999997E+02  0.45594000000E+02  0.51100000000E-03 0.  1.
         11   -1    0    0    0    0 -0.00000000000E+00 -0.00000000000E+00 -0.45593999997E+02  0.45594000000E+02  0.51100000000E-03 0. -1.
    9900012    2    1    2    0    0  0.17079090267E+02 -0.47188562613E+01 -0.36595108358E+02  0.50528869605E+02  0.30000029651E+02 0.  0.
        -12    1    1    2    0    0 -0.17079090267E+02  0.47188562613E+01  0.36595108358E+02  0.40659130395E+02  0.00000000000E+00 0.  1.
         11    1    3    3    0    0  0.14658523775E+02  0.26692238840E+01 -0.21583251193E+02  0.26226585896E+02  0.51100000000E-03 0. -1.
        -11    1    3    3    0    0 -0.55399241729E+00  0.28353422551E+01  0.24914680389E+01  0.38149032166E+01  0.51100000000E-03 0.  1.
        -12    1    3    3    0    0  0.29745589089E+01 -0.10223422400E+02 -0.17503325203E+02  0.20487380493E+02  0.00000000000E+00 0.  1.
</event>
<event>
 7    1  0.4878192E-011  0.5052886E+02  0.7816164E-02  0.1300439E+00
        -11   -1    0    0    0    0  0.00000000000E+00  0.00000000000E+00  0.45593999997E+02  0.45594000000E+02  0.51100000000E-03 0.  1.
         11   -1    0    0    0    0 -0.00000000000E+00 -0.00000000000E+00 -0.45593999997E+02  0.45594000000E+02  0.51100000000E-03 0. -1.
    9900012    2    1    2    0    0  0.28990541074E+02  0.24054388266E+02 -0.15300343818E+02  0.50528860959E+02  0.30000003372E+02 0.  0.
        -12    1    1    2    0    0 -0.28990541074E+02 -0.24054388266E+02  0.15300343818E+02  0.40659139041E+02  0.00000000000E+00 0.  1.
         11    1    3    3    0    0  0.11171749729E+01  0.59829118264E+01 -0.77046945105E+01  0.98186369524E+01  0.51100000000E-03 0. -1.
        -11    1    3    3    0    0  0.18983146075E+02 -0.71321690617E+00 -0.57425993053E+01  0.19845552658E+02  0.51100000000E-03 0.  1.
        -12    1    3    3    0    0  0.88902200252E+01  0.18784693345E+02 -0.18530500026E+01  0.20864671349E+02  0.00000000000E+00 0.  1.
</event>
<event>
 7    1  0.4878192E-011  0.5052886E+02  0.7816164E-02  0.1300439E+00
        -11   -1    0    0    0    0  0.00000000000E+00  0.00000000000E+00  0.45593999997E+02  0.45594000000E+02  0.51100000000E-03 0.  1.
         11   -1    0    0    0    0 -0.00000000000E+00 -0.00000000000E+00 -0.45593999997E+02  0.45594000000E+02  0.51100000000E-03 0. -1.
    9900012    2    1    2    0    0 -0.12396666206E+02  0.15833317441E+02 -0.35338289122E+02  0.50528856474E+02  0.29999989737E+02 0.  0.
        -12    1    1    2    0    0  0.12396666206E+02 -0.15833317441E+02  0.35338289122E+02  0.40659143526E+02  0.00000000000E+00 0.  1.
         11    1    3    3    0    0 -0.38316367281E+01  0.11483018760E+02 -0.30247232516E+02  0.32579690529E+02  0.51100000000E-03 0. -1.
        -11    1    3    3    0    0  0.15910524709E+01 -0.19166212452E+01  0.27183754680E+01  0.36870652841E+01  0.51100000000E-03 0.  1.
         12    1    3    3    0    0 -0.10156081949E+02  0.62669199266E+01 -0.78094320744E+01  0.14262100660E+02  0.00000000000E+00 0. -1.
</event>
<event>
 7    1  0.4878192E-011  0.5052886E+02  0.7816164E-02  0.1300439E+00
        -11   -1    0    0    0    0  0.00000000000E+00  0.00000000000E+00  0.45593999997E+02  0.45594000000E+02  0.51100000000E-03 0. -1.
         11   -1    0    0    0    0 -0.00000000000E+00 -0.00000000000E+00 -0.45593999997E+02  0.45594000000E+02  0.51100000000E-03 0.  1.
    9900012    2    1    2    0    0 -0.15885210002E+02 -0.22340611973E+02  0.30028699287E+02  0.50528860548E+02  0.30000002121E+02 0.  0.
        -12    1    1    2    0    0  0.15885210002E+02  0.22340611973E+02 -0.30028699287E+02  0.40659139452E+02  0.00000000000E+00 0.  1.
         11    1    3    3    0    0 -0.71443212040E+01 -0.19915327162E+02  0.27153719210E+01  0.21331545335E+02  0.51100000000E-03 0. -1.
        -11    1    3    3    0    0 -0.30802101147E+01  0.14258288804E+01  0.74386704427E+01  0.81764601487E+01  0.51100000000E-03 0.  1.
         12    1    3    3    0    0 -0.56606786831E+01 -0.38511136912E+01  0.19874656923E+02  0.21020855064E+02  0.00000000000E+00 0. -1.
</event>
<event>
 7    1  0.4878192E-011  0.5052887E+02  0.7816164E-02  0.1300439E+00
        -11   -1    0    0    0    0  0.00000000000E+00  0.00000000000E+00  0.45593999997E+02  0.45594000000E+02  0.51100000000E-03 0.  1.
         11   -1    0    0    0    0 -0.00000000000E+00 -0.00000000000E+00 -0.45593999997E+02  0.45594000000E+02  0.51100000000E-03 0. -1.
    9900012    2    1    2    0    0  0.29847995982E+02  0.58856322798E+01 -0.26974460878E+02  0.50528867310E+02  0.30000022675E+02 0.  0.
        -12    1    1    2    0    0 -0.29847995982E+02 -0.58856322798E+01  0.26974460878E+02  0.40659132690E+02  0.00000000000E+00 0.  1.
         11    1    3    3    0    0  0.81922300612E+01 -0.50195327609E+00 -0.28680912700E+01  0.86942819291E+01  0.51100000000E-03 0. -1.
        -11    1    3    3    0    0  0.15247646903E+02  0.14467277153E+02 -0.23464857878E+02  0.31502260233E+02  0.51100000000E-03 0.  1.
        -12    1    3    3    0    0  0.64081190183E+01 -0.80796915975E+01 -0.64151173012E+00  0.10332325148E+02  0.00000000000E+00 0.  1.
</event>
<event>
 7    1  0.4878192E-011  0.5052888E+02  0.7816164E-02  0.1300439E+00
        -11   -1    0    0    0    0  0.00000000000E+00  0.00000000000E+00  0.45593999997E+02  0.45594000000E+02  0.51100000000E-03 0.  1.
         11   -1    0    0    0    0 -0.00000000000E+00 -0.00000000000E+00 -0.45593999997E+02  0.45594000000E+02  0.51100000000E-03 0. -1.
    9900012    2    1    2    0    0  0.54637463890E+01  0.16676535284E+02 -0.36677030020E+02  0.50528881899E+02  0.30000067020E+02 0.  0.
        -12    1    1    2    0    0 -0.54637463890E+01 -0.16676535284E+02  0.36677030020E+02  0.40659118101E+02  0.00000000000E+00 0.  1.
         11    1    3    3    0    0 -0.17448578321E+01  0.43871765770E+01 -0.32766779636E+02  0.33105191363E+02  0.51100000000E-03 0. -1.
        -11    1    3    3    0    0 -0.20011882808E+01  0.41377015287E+01 -0.18431106418E+01  0.49520082365E+01  0.51100000000E-03 0.  1.
         12    1    3    3    0    0  0.92097925019E+01  0.81516571783E+01 -0.20671397418E+01  0.12471682300E+02  0.00000000000E+00 0. -1.
</event>
<event>
 7    1  0.4878192E-011  0.5052886E+02  0.7816164E-02  0.1300439E+00
        -11   -1    0    0    0    0  0.00000000000E+00  0.00000000000E+00  0.45593999997E+02  0.45594000000E+02  0.51100000000E-03 0. -1.
         11   -1    0    0    0    0 -0.00000000000E+00 -0.00000000000E+00 -0.45593999997E+02  0.45594000000E+02  0.51100000000E-03 0.  1.
    9900012    2    1    2    0    0  0.26019785742E+02 -0.10296036978E+02  0.29497930649E+02  0.50528861542E+02  0.30000005144E+02 0.  0.
        -12    1    1    2    0    0 -0.26019785742E+02  0.10296036978E+02 -0.29497930649E+02  0.40659138458E+02  0.00000000000E+00 0.  1.
         11    1    3    3    0    0  0.19155155138E+02 -0.11603171182E+02  0.19246188186E+02  0.29529126465E+02  0.51100000000E-03 0. -1.
        -11    1    3    3    0    0  0.85557691652E+01  0.73587970803E+01  0.93431775855E+01  0.14650871924E+02  0.51100000000E-03 0.  1.
        -12    1    3    3    0    0 -0.16911385607E+01 -0.60516628769E+01  0.90856487765E+00  0.63488631537E+01  0.00000000000E+00 0.  1.
</event>
<event>
 7    1  0.4878192E-011  0.5052887E+02  0.7816164E-02  0.1300439E+00
        -11   -1    0    0    0    0  0.00000000000E+00  0.00000000000E+00  0.45593999997E+02  0.45594000000E+02  0.51100000000E-03 0.  1.
         11   -1    0    0    0    0 -0.00000000000E+00 -0.00000000000E+00 -0.45593999997E+02  0.45594000000E+02  0.51100000000E-03 0. -1.
    9900012    2    1    2    0    0  0.96048331465E+01  0.17619746173E+02 -0.35361790837E+02  0.50528874012E+02  0.30000043045E+02 0.  0.
        -12    1    1    2    0    0 -0.96048331465E+01 -0.17619746173E+02  0.35361790837E+02  0.40659125988E+02  0.00000000000E+00 0.  1.
         11    1    3    3    0    0  0.10221002118E+02 -0.53992691284E+00 -0.40784682115E+01  0.11017908539E+02  0.51100000000E-03 0.  1.
        -11    1    3    3    0    0  0.15220573244E+01  0.14974850836E+02 -0.10441475004E+02  0.18319039728E+02  0.51100000000E-03 0. -1.
         12    1    3    3    0    0 -0.21382262960E+01  0.31848222499E+01 -0.20841847621E+02  0.21191925744E+02  0.00000000000E+00 0. -1.
</event>
<event>
 7    1  0.4878192E-011  0.5052886E+02  0.7816164E-02  0.1300439E+00
        -11   -1    0    0    0    0  0.00000000000E+00  0.00000000000E+00  0.45593999997E+02  0.45594000000E+02  0.51100000000E-03 0.  1.
         11   -1    0    0    0    0 -0.00000000000E+00 -0.00000000000E+00 -0.45593999997E+02  0.45594000000E+02  0.51100000000E-03 0. -1.
    9900012    2    1    2    0    0  0.25013480225E+02  0.29090107841E+02 -0.13463169428E+02  0.50528862058E+02  0.30000006712E+02 0.  0.
        -12    1    1    2    0    0 -0.25013480225E+02 -0.29090107841E+02  0.13463169428E+02  0.40659137942E+02  0.00000000000E+00 0.  1.
         11    1    3    3    0    0  0.44406474306E+01  0.19180149641E+01 -0.32298066830E+01  0.58163375484E+01  0.51100000000E-03 0. -1.
        -11    1    3    3    0    0  0.14517816672E+02  0.29784013917E+02 -0.15202990245E+02  0.36455252003E+02  0.51100000000E-03 0.  1.
        -12    1    3    3    0    0  0.60550161223E+01 -0.26119210404E+01  0.49696275008E+01  0.82572725072E+01  0.00000000000E+00 0.  1.
</event>
<event>
 7    1  0.4878192E-011  0.5052884E+02  0.7816164E-02  0.1300439E+00
        -11   -1    0    0    0    0  0.00000000000E+00  0.00000000000E+00  0.45593999997E+02  0.45594000000E+02  0.51100000000E-03 0. -1.
         11   -1    0    0    0    0 -0.00000000000E+00 -0.00000000000E+00 -0.45593999997E+02  0.45594000000E+02  0.51100000000E-03 0.  1.
    9900012    2    1    2    0    0 -0.39723940647E+02 -0.80704984955E+01  0.31690480971E+01  0.50528840240E+02  0.29999940395E+02 0.  0.
        -12    1    1    2    0    0  0.39723940647E+02  0.80704984955E+01 -0.31690480971E+01  0.40659159760E+02  0.00000000000E+00 0.  1.
         11    1    3    3    0    0 -0.28106726768E+02 -0.77050349523E+01 -0.67843134551E+01  0.29922943748E+02  0.51100000000E-03 0. -1.
        -11    1    3    3    0    0 -0.46360162787E+01 -0.70056382449E+01  0.49242319992E+01  0.97375394837E+01  0.51100000000E-03 0.  1.
         12    1    3    3    0    0 -0.69811976004E+01  0.66401747017E+01  0.50291295530E+01  0.10868357009E+02  0.00000000000E+00 0. -1.
</event>
<event>
 7    1  0.4878192E-011  0.5052884E+02  0.7816164E-02  0.1300439E+00
        -11   -1    0    0    0    0  0.00000000000E+00  0.00000000000E+00  0.45593999997E+02  0.45594000000E+02  0.51100000000E-03 0.  1.
         11   -1    0    0    0    0 -0.00000000000E+00 -0.00000000000E+00 -0.45593999997E+02  0.45594000000E+02  0.51100000000E-03 0. -1.
    9900012    2    1    2    0    0 -0.30748552862E+02 -0.25713680645E+02 -0.68191135113E+01  0.50528841321E+02  0.29999943680E+02 0.  0.
        -12    1    1    2    0    0  0.30748552862E+02  0.25713680645E+02  0.68191135113E+01  0.40659158679E+02  0.00000000000E+00 0.  1.
         11    1    3    3    0    0 -0.28974641960E+02 -0.20877745299E+02 -0.17681162807E+01  0.35756626811E+02  0.51100000000E-03 0. -1.
        -11    1    3    3    0    0 -0.13459278876E+01 -0.36347442451E+01 -0.94384067747E+01  0.10203254888E+02  0.51100000000E-03 0.  1.
         12    1    3    3    0    0 -0.42798301477E+00 -0.12011911003E+01  0.43874095440E+01  0.45689596220E+01  0.00000000000E+00 0. -1.
</event>
<event>
 7    1  0.4878192E-011  0.5052886E+02  0.7816164E-02  0.1300439E+00
        -11   -1    0    0    0    0  0.00000000000E+00  0.00000000000E+00  0.45593999997E+02  0.45594000000E+02  0.51100000000E-03 0.  1.
         11   -1    0    0    0    0 -0.00000000000E+00 -0.00000000000E+00 -0.45593999997E+02  0.45594000000E+02  0.51100000000E-03 0. -1.
    9900012    2    1    2    0    0  0.49569760138E+01 -0.15984696227E+02 -0.37055137962E+02  0.50528863584E+02  0.30000011350E+02 0.  0.
        -12    1    1    2    0    0 -0.49569760138E+01  0.15984696227E+02  0.37055137962E+02  0.40659136416E+02  0.00000000000E+00 0.  1.
         11    1    3    3    0    0  0.34459645756E+01 -0.15181267510E+02 -0.38223783608E+01  0.16029851267E+02  0.51100000000E-03 0. -1.
        -11    1    3    3    0    0 -0.18377902547E+01  0.71066345734E+00 -0.13116995524E+01  0.23670808070E+01  0.51100000000E-03 0.  1.
         12    1    3    3    0    0  0.33488016929E+01 -0.15140921749E+01 -0.31921060049E+02  0.32131931510E+02  0.00000000000E+00 0. -1.
</event>
<event>
 7    1  0.4878192E-011  0.5052887E+02  0.7816164E-02  0.1300439E+00
        -11   -1    0    0    0    0  0.00000000000E+00  0.00000000000E+00  0.45593999997E+02  0.45594000000E+02  0.51100000000E-03 0.  1.
         11   -1    0    0    0    0 -0.00000000000E+00 -0.00000000000E+00 -0.45593999997E+02  0.45594000000E+02  0.51100000000E-03 0. -1.
    9900012    2    1    2    0    0  0.36998829616E+02  0.16446912266E+02 -0.37081919763E+01  0.50528868138E+02  0.30000025193E+02 0.  0.
        -12    1    1    2    0    0 -0.36998829616E+02 -0.16446912266E+02  0.37081919763E+01  0.40659131862E+02  0.00000000000E+00 0.  1.
         11    1    3    3    0    0  0.10456034536E+02  0.11233857091E+02 -0.65373093618E+01  0.16681265459E+02  0.51100000000E-03 0. -1.
        -11    1    3    3    0    0  0.28593837292E+02  0.51270804323E+00  0.25429190720E+01  0.28711266748E+02  0.51100000000E-03 0.  1.
        -12    1    3    3    0    0 -0.20510422124E+01  0.47003471327E+01  0.28619831350E+00  0.51363359313E+01  0.00000000000E+00 0.  1.
</event>
<event>
 7    1  0.4878192E-011  0.5052886E+02  0.7816164E-02  0.1300439E+00
        -11   -1    0    0    0    0  0.00000000000E+00  0.00000000000E+00  0.45593999997E+02  0.45594000000E+02  0.51100000000E-03 0.  1.
         11   -1    0    0    0    0 -0.00000000000E+00 -0.00000000000E+00 -0.45593999997E+02  0.45594000000E+02  0.51100000000E-03 0. -1.
    9900012    2    1    2    0    0  0.16831613817E+02 -0.30294356302E+02 -0.21262973821E+02  0.50528864456E+02  0.30000014001E+02 0.  0.
        -12    1    1    2    0    0 -0.16831613817E+02  0.30294356302E+02  0.21262973821E+02  0.40659135544E+02  0.00000000000E+00 0.  1.
         11    1    3    3    0    0  0.56526284085E+01 -0.26417328100E+02 -0.15077625888E+02  0.30938038634E+02  0.51100000000E-03 0. -1.
        -11    1    3    3    0    0  0.87663550960E+01 -0.22055994268E+01 -0.10823617837E+02  0.14101927309E+02  0.51100000000E-03 0.  1.
        -12    1    3    3    0    0  0.24126303129E+01 -0.16714287754E+01  0.46382699041E+01  0.54888985126E+01  0.00000000000E+00 0.  1.
</event>
<event>
 7    1  0.4878192E-011  0.5052886E+02  0.7816164E-02  0.1300439E+00
        -11   -1    0    0    0    0  0.00000000000E+00  0.00000000000E+00  0.45593999997E+02  0.45594000000E+02  0.51100000000E-03 0.  1.
         11   -1    0    0    0    0 -0.00000000000E+00 -0.00000000000E+00 -0.45593999997E+02  0.45594000000E+02  0.51100000000E-03 0. -1.
    9900012    2    1    2    0    0 -0.90909766297E+01  0.34609172214E+02 -0.19306093307E+02  0.50528857163E+02  0.29999991834E+02 0.  0.
        -12    1    1    2    0    0  0.90909766297E+01 -0.34609172214E+02  0.19306093307E+02  0.40659142837E+02  0.00000000000E+00 0.  1.
         11    1    3    3    0    0 -0.15173332982E+02  0.29795089778E+02 -0.20321414735E+02  0.39127193942E+02  0.51100000000E-03 0. -1.
        -11    1    3    3    0    0  0.35048612047E+01  0.53614680981E+01  0.38963367935E+01  0.74973884053E+01  0.51100000000E-03 0.  1.
        -12    1    3    3    0    0  0.25774951480E+01 -0.54738566235E+00 -0.28810153658E+01  0.39042748161E+01  0.00000000000E+00 0.  1.
</event>
<event>
 7    1  0.4878192E-011  0.5052886E+02  0.7816164E-02  0.1300439E+00
        -11   -1    0    0    0    0  0.00000000000E+00  0.00000000000E+00  0.45593999997E+02  0.45594000000E+02  0.51100000000E-03 0.  1.
         11   -1    0    0    0    0 -0.00000000000E+00 -0.00000000000E+00 -0.45593999997E+02  0.45594000000E+02  0.51100000000E-03 0. -1.
    9900012    2    1    2    0    0  0.38994835886E+02 -0.58630444791E+01 -0.99092502442E+01  0.50528858878E+02  0.29999997046E+02 0.  0.
        -12    1    1    2    0    0 -0.38994835886E+02  0.58630444791E+01  0.99092502442E+01  0.40659141122E+02  0.00000000000E+00 0.  1.
         11    1    3    3    0    0  0.94281513954E+01 -0.14145476845E+02  0.20185465259E+01  0.17118968551E+02  0.51100000000E-03 0. -1.
        -11    1    3    3    0    0  0.16256058901E+02  0.73801821297E+01 -0.63295346890E+01  0.18941740915E+02  0.51100000000E-03 0.  1.
         12    1    3    3    0    0  0.13310625590E+02  0.90225023621E+00 -0.55982620811E+01  0.14468149412E+02  0.00000000000E+00 0. -1.
</event>
<event>
 7    1  0.4878192E-011  0.5052885E+02  0.7816164E-02  0.1300439E+00
        -11   -1    0    0    0    0  0.00000000000E+00  0.00000000000E+00  0.45593999997E+02  0.45594000000E+02  0.51100000000E-03 0.  1.
         11   -1    0    0    0    0 -0.00000000000E+00 -0.00000000000E+00 -0.45593999997E+02  0.45594000000E+02  0.51100000000E-03 0. -1.
    9900012    2    1    2    0    0  0.23362556958E+01  0.37273294283E+02 -0.16075121726E+02  0.50528854708E+02  0.29999984369E+02 0.  0.
        -12    1    1    2    0    0 -0.23362556958E+01 -0.37273294283E+02  0.16075121726E+02  0.40659145292E+02  0.00000000000E+00 0.  1.
         11    1    3    3    0    0 -0.61292516350E+01  0.17889404404E+02 -0.20849166825E+02  0.28147580235E+02  0.51100000000E-03 0. -1.
        -11    1    3    3    0    0  0.11672758360E+01  0.77160953524E+01  0.35228429715E+01  0.85621891609E+01  0.51100000000E-03 0.  1.
         12    1    3    3    0    0  0.72982314948E+01  0.11667794527E+02  0.12512021278E+01  0.13819085311E+02  0.00000000000E+00 0. -1.
</event>
<event>
 7    1  0.4878192E-011  0.5052886E+02  0.7816164E-02  0.1300439E+00
        -11   -1    0    0    0    0  0.00000000000E+00  0.00000000000E+00  0.45593999997E+02  0.45594000000E+02  0.51100000000E-03 0. -1.
         11   -1    0    0    0    0 -0.00000000000E+00 -0.00000000000E+00 -0.45593999997E+02  0.45594000000E+02  0.51100000000E-03 0.  1.
    9900012    2    1    2    0    0 -0.40288283763E+02  0.46806398789E+01  0.28480926332E+01  0.50528857979E+02  0.29999994313E+02 0.  0.
        -12    1    1    2    0    0  0.40288283763E+02 -0.46806398789E+01 -0.28480926332E+01  0.40659142021E+02  0.00000000000E+00 0.  1.
         11    1    3    3    0    0 -0.26587174667E+02 -0.11642333744E+02  0.29565017283E+00  0.29026009045E+02  0.51100000000E-03 0. -1.
        -11    1    3    3    0    0 -0.63605073743E+01  0.83939803812E+01  0.87123041078E+00  0.10567592128E+02  0.51100000000E-03 0.  1.
         12    1    3    3    0    0 -0.73406017218E+01  0.79289932418E+01  0.16812120495E+01  0.10935256806E+02  0.00000000000E+00 0. -1.
</event>
<event>
 7    1  0.4878192E-011  0.5052893E+02  0.7816164E-02  0.1300439E+00
        -11   -1    0    0    0    0  0.00000000000E+00  0.00000000000E+00  0.45593999997E+02  0.45594000000E+02  0.51100000000E-03 0. -1.
         11   -1    0    0    0    0 -0.00000000000E+00 -0.00000000000E+00 -0.45593999997E+02  0.45594000000E+02  0.51100000000E-03 0.  1.
    9900012    2    1    2    0    0  0.96075910096E+01  0.10203873282E+02  0.38167196829E+02  0.50528932761E+02  0.30000221620E+02 0.  0.
        -12    1    1    2    0    0 -0.96075910096E+01 -0.10203873282E+02 -0.38167196829E+02  0.40659067239E+02  0.00000000000E+00 0.  1.
         11    1    3    3    0    0 -0.87303997262E+01  0.38436788713E+01  0.25162053996E+02  0.26909528205E+02  0.51100000000E-03 0. -1.
        -11    1    3    3    0    0  0.66917420406E+01  0.27984729583E+01  0.29659773343E+01  0.78363182838E+01  0.51100000000E-03 0.  1.
         12    1    3    3    0    0  0.11646248695E+02  0.35617214522E+01  0.10039165498E+02  0.15783086272E+02  0.00000000000E+00 0. -1.
</event>
<event>
 7    1  0.4878192E-011  0.5052892E+02  0.7816164E-02  0.1300439E+00
        -11   -1    0    0    0    0  0.00000000000E+00  0.00000000000E+00  0.45593999997E+02  0.45594000000E+02  0.51100000000E-03 0.  1.
         11   -1    0    0    0    0 -0.00000000000E+00 -0.00000000000E+00 -0.45593999997E+02  0.45594000000E+02  0.51100000000E-03 0. -1.
    9900012    2    1    2    0    0 -0.24874772105E+02  0.14088799778E+02 -0.28912146451E+02  0.50528920093E+02  0.30000183114E+02 0.  0.
        -12    1    1    2    0    0  0.24874772105E+02 -0.14088799778E+02  0.28912146451E+02  0.40659079907E+02  0.00000000000E+00 0.  1.
         11    1    3    3    0    0 -0.12143342225E+01  0.12314734253E+02 -0.39900398977E+00  0.12380892204E+02  0.51100000000E-03 0. -1.
        -11    1    3    3    0    0 -0.95392357961E+01 -0.24075047191E+01 -0.16190787748E+02  0.18945572219E+02  0.51100000000E-03 0.  1.
        -12    1    3    3    0    0 -0.14121202087E+02  0.41815702447E+01 -0.12322354713E+02  0.19202455670E+02  0.00000000000E+00 0.  1.
</event>
<event>
 7    1  0.4878192E-011  0.5052887E+02  0.7816164E-02  0.1300439E+00
        -11   -1    0    0    0    0  0.00000000000E+00  0.00000000000E+00  0.45593999997E+02  0.45594000000E+02  0.51100000000E-03 0.  1.
         11   -1    0    0    0    0 -0.00000000000E+00 -0.00000000000E+00 -0.45593999997E+02  0.45594000000E+02  0.51100000000E-03 0. -1.
    9900012    2    1    2    0    0  0.28309457077E+02 -0.17734910222E+02 -0.23177852310E+02  0.50528865254E+02  0.30000016426E+02 0.  0.
        -12    1    1    2    0    0 -0.28309457077E+02  0.17734910222E+02  0.23177852310E+02  0.40659134746E+02  0.00000000000E+00 0.  1.
         11    1    3    3    0    0  0.18335895733E+02 -0.22101207936E+02 -0.26103867283E+02  0.38808251081E+02  0.51100000000E-03 0. -1.
        -11    1    3    3    0    0  0.91061839019E+00  0.42846641069E+00  0.13966942122E+01  0.17215005958E+01  0.51100000000E-03 0.  1.
         12    1    3    3    0    0  0.90629429535E+01  0.39378313031E+01  0.15293207599E+01  0.99991135776E+01  0.00000000000E+00 0. -1.
</event>
<event>
 7    1  0.4878192E-011  0.5052885E+02  0.7816164E-02  0.1300439E+00
        -11   -1    0    0    0    0  0.00000000000E+00  0.00000000000E+00  0.45593999997E+02  0.45594000000E+02  0.51100000000E-03 0. -1.
         11   -1    0    0    0    0 -0.00000000000E+00 -0.00000000000E+00 -0.45593999997E+02  0.45594000000E+02  0.51100000000E-03 0.  1.
    9900012    2    1    2    0    0 -0.20193547653E+02  0.35096400186E+02 -0.36918976585E+01  0.50528846282E+02  0.29999958757E+02 0.  0.
        -12    1    1    2    0    0  0.20193547653E+02 -0.35096400186E+02  0.36918976585E+01  0.40659153718E+02  0.00000000000E+00 0.  1.
         11    1    3    3    0    0 -0.35176052433E+01  0.10602556087E+02 -0.89450915666E+00  0.11206600248E+02  0.51100000000E-03 0. -1.
        -11    1    3    3    0    0 -0.48149535813E+01 -0.48247290190E+01  0.24891185787E+01  0.72565487428E+01  0.51100000000E-03 0.  1.
        -12    1    3    3    0    0 -0.11860988828E+02  0.29318573117E+02 -0.52865070805E+01  0.32065697290E+02  0.00000000000E+00 0.  1.
</event>
<event>
 7    1  0.4878192E-011  0.5052886E+02  0.7816164E-02  0.1300439E+00
        -11   -1    0    0    0    0  0.00000000000E+00  0.00000000000E+00  0.45593999997E+02  0.45594000000E+02  0.51100000000E-03 0.  1.
         11   -1    0    0    0    0 -0.00000000000E+00 -0.00000000000E+00 -0.45593999997E+02  0.45594000000E+02  0.51100000000E-03 0. -1.
    9900012    2    1    2    0    0 -0.22047135514E+02 -0.19130683830E+02 -0.28303819031E+02  0.50528863021E+02  0.30000009638E+02 0.  0.
        -12    1    1    2    0    0  0.22047135514E+02  0.19130683830E+02  0.28303819031E+02  0.40659136979E+02  0.00000000000E+00 0.  1.
         11    1    3    3    0    0 -0.49679344827E+00 -0.19406812431E+02 -0.15108015681E+02  0.24599254268E+02  0.51100000000E-03 0. -1.
        -11    1    3    3    0    0 -0.20440926835E+02  0.16675004402E+01 -0.11746399379E+02  0.23634507531E+02  0.51100000000E-03 0.  1.
        -12    1    3    3    0    0 -0.11094152307E+01 -0.13913718387E+01 -0.14494039709E+01  0.22951012218E+01  0.00000000000E+00 0.  1.
</event>
<event>
 7    1  0.4878192E-011  0.5052886E+02  0.7816164E-02  0.1300439E+00
        -11   -1    0    0    0    0  0.00000000000E+00  0.00000000000E+00  0.45593999997E+02  0.45594000000E+02  0.51100000000E-03 0.  1.
         11   -1    0    0    0    0 -0.00000000000E+00 -0.00000000000E+00 -0.45593999997E+02  0.45594000000E+02  0.51100000000E-03 0. -1.
    9900012    2    1    2    0    0 -0.18842785846E+02 -0.18630434107E+02 -0.30838650735E+02  0.50528855486E+02  0.29999986735E+02 0.  0.
        -12    1    1    2    0    0  0.18842785846E+02  0.18630434107E+02  0.30838650735E+02  0.40659144514E+02  0.00000000000E+00 0.  1.
         11    1    3    3    0    0 -0.13263477962E+02 -0.19460527132E+02 -0.34786935853E+02  0.42009080806E+02  0.51100000000E-03 0. -1.
        -11    1    3    3    0    0 -0.16346889832E+01  0.26836127204E+01  0.11800009466E+01  0.33565440262E+01  0.51100000000E-03 0.  1.
         12    1    3    3    0    0 -0.39446189007E+01 -0.18535196951E+01  0.27682841706E+01  0.51632306534E+01  0.00000000000E+00 0. -1.
</event>
<event>
 7    1  0.4878192E-011  0.5052885E+02  0.7816164E-02  0.1300439E+00
        -11   -1    0    0    0    0  0.00000000000E+00  0.00000000000E+00  0.45593999997E+02  0.45594000000E+02  0.51100000000E-03 0.  1.
         11   -1    0    0    0    0 -0.00000000000E+00 -0.00000000000E+00 -0.45593999997E+02  0.45594000000E+02  0.51100000000E-03 0. -1.
    9900012    2    1    2    0    0  0.29106919957E+02  0.70544781348E+01 -0.27498873701E+02  0.50528849664E+02  0.29999969040E+02 0.  0.
        -12    1    1    2    0    0 -0.29106919957E+02 -0.70544781348E+01  0.27498873701E+02  0.40659150336E+02  0.00000000000E+00 0.  1.
         11    1    3    3    0    0  0.14733483062E+02 -0.41855629274E+01 -0.12363041815E+02  0.19683476912E+02  0.51100000000E-03 0. -1.
        -11    1    3    3    0    0  0.91463896807E+01  0.57418335414E+01  0.29819306624E+01  0.11203437300E+02  0.51100000000E-03 0.  1.
        -12    1    3    3    0    0  0.52270472142E+01  0.54982075208E+01 -0.18117762549E+02  0.19641935452E+02  0.00000000000E+00 0.  1.
</event>
<event>
 7    1  0.4878192E-011  0.5052888E+02  0.7816164E-02  0.1300439E+00
        -11   -1    0    0    0    0  0.00000000000E+00  0.00000000000E+00  0.45593999997E+02  0.45594000000E+02  0.51100000000E-03 0. -1.
         11   -1    0    0    0    0 -0.00000000000E+00 -0.00000000000E+00 -0.45593999997E+02  0.45594000000E+02  0.51100000000E-03 0.  1.
    9900012    2    1    2    0    0  0.28098407838E+02 -0.10899032961E+02  0.27292017190E+02  0.50528884849E+02  0.30000075988E+02 0.  0.
        -12    1    1    2    0    0 -0.28098407838E+02  0.10899032961E+02 -0.27292017190E+02  0.40659115151E+02  0.00000000000E+00 0.  1.
         11    1    3    3    0    0 -0.60049581229E+01 -0.44567716145E+01  0.51212956705E+01  0.90636639880E+01  0.51100000000E-03 0. -1.
        -11    1    3    3    0    0  0.14535067111E+02 -0.39069117402E+01  0.71291836274E+01  0.16654050400E+02  0.51100000000E-03 0.  1.
         12    1    3    3    0    0  0.19568298850E+02 -0.25353496064E+01  0.15041537892E+02  0.24811170461E+02  0.00000000000E+00 0. -1.
</event>
<event>
 7    1  0.4878192E-011  0.5052887E+02  0.7816164E-02  0.1300439E+00
        -11   -1    0    0    0    0  0.00000000000E+00  0.00000000000E+00  0.45593999997E+02  0.45594000000E+02  0.51100000000E-03 0. -1.
         11   -1    0    0    0    0 -0.00000000000E+00 -0.00000000000E+00 -0.45593999997E+02  0.45594000000E+02  0.51100000000E-03 0.  1.
    9900012    2    1    2    0    0  0.21128633041E+02 -0.26898068549E+02  0.21982721152E+02  0.50528865047E+02  0.30000015797E+02 0.  0.
        -12    1    1    2    0    0 -0.21128633041E+02  0.26898068549E+02 -0.21982721152E+02  0.40659134953E+02  0.00000000000E+00 0.  1.
         11    1    3    3    0    0 -0.18342265155E+01  0.32004799740E+01  0.59361533914E+00  0.37362867136E+01  0.51100000000E-03 0. -1.
        -11    1    3    3    0    0  0.12947576967E+02 -0.26810724856E+02  0.20633787449E+02  0.36224410297E+02  0.51100000000E-03 0.  1.
        -12    1    3    3    0    0  0.10015282590E+02 -0.32878236673E+01  0.75531836407E+00  0.10568168037E+02  0.00000000000E+00 0.  1.
</event>
<event>
 7    1  0.4878192E-011  0.5052886E+02  0.7816164E-02  0.1300439E+00
        -11   -1    0    0    0    0  0.00000000000E+00  0.00000000000E+00  0.45593999997E+02  0.45594000000E+02  0.51100000000E-03 0. -1.
         11   -1    0    0    0    0 -0.00000000000E+00 -0.00000000000E+00 -0.45593999997E+02  0.45594000000E+02  0.51100000000E-03 0.  1.
    9900012    2    1    2    0    0  0.23520485107E+02  0.73736070891E+01  0.32335461892E+02  0.50528863303E+02  0.30000010496E+02 0.  0.
        -12    1    1    2    0    0 -0.23520485107E+02 -0.73736070891E+01 -0.32335461892E+02  0.40659136697E+02  0.00000000000E+00 0.  1.
         11    1    3    3    0    0  0.17651092287E+02  0.53448094895E+01  0.67059996229E+01  0.19623926177E+02  0.51100000000E-03 0. -1.
        -11    1    3    3    0    0 -0.43155986642E+01  0.49522011778E+01  0.11497146268E+02  0.13241339091E+02  0.51100000000E-03 0.  1.
        -12    1    3    3    0    0  0.10184991485E+02 -0.29234035782E+01  0.14132316001E+02  0.17663598036E+02  0.00000000000E+00 0.  1.
</event>
<event>
 7    1  0.4878192E-011  0.5052886E+02  0.7816164E-02  0.1300439E+00
        -11   -1    0    0    0    0  0.00000000000E+00  0.00000000000E+00  0.45593999997E+02  0.45594000000E+02  0.51100000000E-03 0.  1.
         11   -1    0    0    0    0 -0.00000000000E+00 -0.00000000000E+00 -0.45593999997E+02  0.45594000000E+02  0.51100000000E-03 0. -1.
    9900012    2    1    2    0    0 -0.16327017726E+02 -0.34670442752E+02  0.13585072695E+02  0.50528864389E+02  0.30000013798E+02 0.  0.
        -12    1    1    2    0    0  0.16327017726E+02  0.34670442752E+02 -0.13585072695E+02  0.40659135611E+02  0.00000000000E+00 0.  1.
         11    1    3    3    0    0 -0.73447697900E+01 -0.21082684183E+02  0.80069492808E+01  0.23717850929E+02  0.51100000000E-03 0. -1.
        -11    1    3    3    0    0 -0.14348881203E+01 -0.38411859421E+01 -0.76808908283E+01  0.87068764512E+01  0.51100000000E-03 0.  1.
        -12    1    3    3    0    0 -0.75473598159E+01 -0.97465726267E+01  0.13259014243E+02  0.18104137009E+02  0.00000000000E+00 0.  1.
</event>
<event>
 7    1  0.4878192E-011  0.5052886E+02  0.7816164E-02  0.1300439E+00
        -11   -1    0    0    0    0  0.00000000000E+00  0.00000000000E+00  0.45593999997E+02  0.45594000000E+02  0.51100000000E-03 0.  1.
         11   -1    0    0    0    0 -0.00000000000E+00 -0.00000000000E+00 -0.45593999997E+02  0.45594000000E+02  0.51100000000E-03 0. -1.
    9900012    2    1    2    0    0  0.17180288951E+02 -0.30239251416E+02 -0.21061606512E+02  0.50528856828E+02  0.29999990813E+02 0.  0.
        -12    1    1    2    0    0 -0.17180288951E+02  0.30239251416E+02  0.21061606512E+02  0.40659143172E+02  0.00000000000E+00 0.  1.
         11    1    3    3    0    0  0.13151160699E+02 -0.67716045022E+01 -0.15970709510E+02  0.21768583275E+02  0.51100000000E-03 0. -1.
        -11    1    3    3    0    0 -0.27768942729E+00 -0.23503060584E+01  0.45665546965E+01  0.51433911035E+01  0.51100000000E-03 0.  1.
         12    1    3    3    0    0  0.43068176792E+01 -0.21117340855E+02 -0.96574516989E+01  0.23616882449E+02  0.00000000000E+00 0. -1.
</event>
<event>
 7    1  0.4878192E-011  0.5052887E+02  0.7816164E-02  0.1300439E+00
        -11   -1    0    0    0    0  0.00000000000E+00  0.00000000000E+00  0.45593999997E+02  0.45594000000E+02  0.51100000000E-03 0. -1.
         11   -1    0    0    0    0 -0.00000000000E+00 -0.00000000000E+00 -0.45593999997E+02  0.45594000000E+02  0.51100000000E-03 0.  1.
    9900012    2    1    2    0    0 -0.28739801908E+02 -0.24972548395E+01 -0.28652263872E+02  0.50528871622E+02  0.30000035783E+02 0.  0.
        -12    1    1    2    0    0  0.28739801908E+02  0.24972548395E+01  0.28652263872E+02  0.40659128378E+02  0.00000000000E+00 0.  1.
         11    1    3    3    0    0 -0.59695438226E+01 -0.59771919769E+01 -0.16136911700E+02  0.18214340418E+02  0.51100000000E-03 0.  1.
        -11    1    3    3    0    0 -0.13719282690E+02  0.11342791299E+02 -0.76672790733E+01  0.19382074209E+02  0.51100000000E-03 0. -1.
         12    1    3    3    0    0 -0.90509753959E+01 -0.78628541617E+01 -0.48480730983E+01  0.12932456996E+02  0.00000000000E+00 0. -1.
</event>
<event>
 7    1  0.4878192E-011  0.5052888E+02  0.7816164E-02  0.1300439E+00
        -11   -1    0    0    0    0  0.00000000000E+00  0.00000000000E+00  0.45593999997E+02  0.45594000000E+02  0.51100000000E-03 0.  1.
         11   -1    0    0    0    0 -0.00000000000E+00 -0.00000000000E+00 -0.45593999997E+02  0.45594000000E+02  0.51100000000E-03 0. -1.
    9900012    2    1    2    0    0  0.30154299806E+01  0.40205787229E+02 -0.52503598207E+01  0.50528875281E+02  0.30000046905E+02 0.  0.
        -12    1    1    2    0    0 -0.30154299806E+01 -0.40205787229E+02  0.52503598207E+01  0.40659124719E+02  0.00000000000E+00 0.  1.
         11    1    3    3    0    0 -0.42646344549E+01  0.60892516557E+01 -0.56109604461E+01  0.93139127197E+01  0.51100000000E-03 0. -1.
        -11    1    3    3    0    0  0.86464708882E+01  0.23473978535E+02  0.98555470263E+01  0.26887189041E+02  0.51100000000E-03 0.  1.
        -12    1    3    3    0    0 -0.13664064526E+01  0.10642557038E+02 -0.94949464009E+01  0.14327773521E+02  0.00000000000E+00 0.  1.
</event>
<event>
 7    1  0.4878192E-011  0.5052885E+02  0.7816164E-02  0.1300439E+00
        -11   -1    0    0    0    0  0.00000000000E+00  0.00000000000E+00  0.45593999997E+02  0.45594000000E+02  0.51100000000E-03 0.  1.
         11   -1    0    0    0    0 -0.00000000000E+00 -0.00000000000E+00 -0.45593999997E+02  0.45594000000E+02  0.51100000000E-03 0. -1.
    9900012    2    1    2    0    0 -0.44485619767E+01  0.23222096208E+02 -0.33077346359E+02  0.50528852221E+02  0.29999976812E+02 0.  0.
        -12    1    1    2    0    0  0.44485619767E+01 -0.23222096208E+02  0.33077346359E+02  0.40659147779E+02  0.00000000000E+00 0.  1.
         11    1    3    3    0    0 -0.10161731580E+02  0.16126782200E+02 -0.69015270101E+01  0.20272270918E+02  0.51100000000E-03 0. -1.
        -11    1    3    3    0    0 -0.10219261186E+01  0.38736944905E+01 -0.20474270111E+02  0.20862540086E+02  0.51100000000E-03 0.  1.
         12    1    3    3    0    0  0.67350957214E+01  0.32216195174E+01 -0.57015492370E+01  0.93940412173E+01  0.00000000000E+00 0. -1.
</event>
<event>
 7    1  0.4878192E-011  0.5052886E+02  0.7816164E-02  0.1300439E+00
        -11   -1    0    0    0    0  0.00000000000E+00  0.00000000000E+00  0.45593999997E+02  0.45594000000E+02  0.51100000000E-03 0.  1.
         11   -1    0    0    0    0 -0.00000000000E+00 -0.00000000000E+00 -0.45593999997E+02  0.45594000000E+02  0.51100000000E-03 0. -1.
    9900012    2    1    2    0    0  0.16524053219E+02 -0.36411807033E+01 -0.36971112441E+02  0.50528859738E+02  0.29999999660E+02 0.  0.
        -12    1    1    2    0    0 -0.16524053219E+02  0.36411807033E+01  0.36971112441E+02  0.40659140262E+02  0.00000000000E+00 0.  1.
         11    1    3    3    0    0 -0.47943363893E+01  0.13099757227E+01 -0.90378423916E+00  0.50515862875E+01  0.51100000000E-03 0. -1.
        -11    1    3    3    0    0 -0.12888811490E+01  0.33713530517E+01 -0.48229363603E+01  0.60239481582E+01  0.51100000000E-03 0.  1.
         12    1    3    3    0    0  0.22607270757E+02 -0.83225094777E+01 -0.31244391842E+02  0.39453325293E+02  0.00000000000E+00 0. -1.
</event>
<event>
 7    1  0.4878192E-011  0.5052887E+02  0.7816164E-02  0.1300439E+00
        -11   -1    0    0    0    0  0.00000000000E+00  0.00000000000E+00  0.45593999997E+02  0.45594000000E+02  0.51100000000E-03 0.  1.
         11   -1    0    0    0    0 -0.00000000000E+00 -0.00000000000E+00 -0.45593999997E+02  0.45594000000E+02  0.51100000000E-03 0. -1.
    9900012    2    1    2    0    0  0.44964968311E+00  0.95266252286E+01 -0.39524757519E+02  0.50528865356E+02  0.30000016736E+02 0.  0.
        -12    1    1    2    0    0 -0.44964968311E+00 -0.95266252286E+01  0.39524757519E+02  0.40659134644E+02  0.00000000000E+00 0.  1.
         11    1    3    3    0    0 -0.22180746669E+01 -0.33380790314E+01 -0.17023254949E+02  0.17488677370E+02  0.51100000000E-03 0. -1.
        -11    1    3    3    0    0  0.24879995341E+01  0.15873238611E+02 -0.74863726854E+01  0.17725564079E+02  0.51100000000E-03 0.  1.
        -12    1    3    3    0    0  0.17972481595E+00 -0.30085343506E+01 -0.15015129885E+02  0.15314623907E+02  0.00000000000E+00 0.  1.
</event>
<event>
 7    1  0.4878192E-011  0.5052886E+02  0.7816164E-02  0.1300439E+00
        -11   -1    0    0    0    0  0.00000000000E+00  0.00000000000E+00  0.45593999997E+02  0.45594000000E+02  0.51100000000E-03 0.  1.
         11   -1    0    0    0    0 -0.00000000000E+00 -0.00000000000E+00 -0.45593999997E+02  0.45594000000E+02  0.51100000000E-03 0. -1.
    9900012    2    1    2    0    0  0.20333995650E+02 -0.19703692120E+02 -0.29179760688E+02  0.50528864544E+02  0.30000014267E+02 0.  0.
        -12    1    1    2    0    0 -0.20333995650E+02  0.19703692120E+02  0.29179760688E+02  0.40659135456E+02  0.00000000000E+00 0.  1.
         11    1    3    3    0    0 -0.24688986646E+01 -0.12742811308E+02 -0.15478660315E+02  0.20200584795E+02  0.51100000000E-03 0. -1.
        -11    1    3    3    0    0  0.19257141110E+02 -0.70260810653E+01 -0.16084029715E+02  0.26055696325E+02  0.51100000000E-03 0.  1.
        -12    1    3    3    0    0  0.35457532055E+01  0.65200253415E-01  0.23829293419E+01  0.42725834241E+01  0.00000000000E+00 0.  1.
</event>
<event>
 7    1  0.4878192E-011  0.5052886E+02  0.7816164E-02  0.1300439E+00
        -11   -1    0    0    0    0  0.00000000000E+00  0.00000000000E+00  0.45593999997E+02  0.45594000000E+02  0.51100000000E-03 0.  1.
         11   -1    0    0    0    0 -0.00000000000E+00 -0.00000000000E+00 -0.45593999997E+02  0.45594000000E+02  0.51100000000E-03 0. -1.
    9900012    2    1    2    0    0  0.39206345662E+02 -0.95335922601E+01 -0.50138834420E+01  0.50528856518E+02  0.29999989872E+02 0.  0.
        -12    1    1    2    0    0 -0.39206345662E+02  0.95335922601E+01  0.50138834420E+01  0.40659143482E+02  0.00000000000E+00 0.  1.
         11    1    3    3    0    0  0.19682647373E+02  0.22059269651E+01 -0.27773878715E+01  0.19999665123E+02  0.51100000000E-03 0.  1.
        -11    1    3    3    0    0  0.83259058167E+01 -0.11957077055E+02  0.68563978262E+01  0.16102875234E+02  0.51100000000E-03 0. -1.
         12    1    3    3    0    0  0.11197792472E+02  0.21755783014E+00 -0.90928933967E+01  0.14426316161E+02  0.00000000000E+00 0. -1.
</event>
<event>
 7    1  0.4878192E-011  0.5052888E+02  0.7816164E-02  0.1300439E+00
        -11   -1    0    0    0    0  0.00000000000E+00  0.00000000000E+00  0.45593999997E+02  0.45594000000E+02  0.51100000000E-03 0.  1.
         11   -1    0    0    0    0 -0.00000000000E+00 -0.00000000000E+00 -0.45593999997E+02  0.45594000000E+02  0.51100000000E-03 0. -1.
    9900012    2    1    2    0    0  0.49205970617E+01 -0.15691315324E+02 -0.37185137355E+02  0.50528879348E+02  0.30000059267E+02 0.  0.
        -12    1    1    2    0    0 -0.49205970617E+01  0.15691315324E+02  0.37185137355E+02  0.40659120652E+02  0.00000000000E+00 0.  1.
         11    1    3    3    0    0 -0.32225705266E+00 -0.32478209769E+01  0.23076702566E+01  0.39971906360E+01  0.51100000000E-03 0.  1.
        -11    1    3    3    0    0 -0.18011588577E+01 -0.15459856252E+02 -0.33007014400E+02  0.36492661295E+02  0.51100000000E-03 0. -1.
        -12    1    3    3    0    0  0.70440129720E+01  0.30163619051E+01 -0.64857932123E+01  0.10039027417E+02  0.00000000000E+00 0.  1.
</event>
<event>
 7    1  0.4878192E-011  0.5052886E+02  0.7816164E-02  0.1300439E+00
        -11   -1    0    0    0    0  0.00000000000E+00  0.00000000000E+00  0.45593999997E+02  0.45594000000E+02  0.51100000000E-03 0.  1.
         11   -1    0    0    0    0 -0.00000000000E+00 -0.00000000000E+00 -0.45593999997E+02  0.45594000000E+02  0.51100000000E-03 0. -1.
    9900012    2    1    2    0    0  0.15800775002E+02 -0.36821870845E+02 -0.69029656931E+01  0.50528860824E+02  0.30000002960E+02 0.  0.
        -12    1    1    2    0    0 -0.15800775002E+02  0.36821870845E+02  0.69029656931E+01  0.40659139176E+02  0.00000000000E+00 0.  1.
         11    1    3    3    0    0 -0.67551620587E+01 -0.13573346287E+02 -0.70632512711E+01  0.16725951771E+02  0.51100000000E-03 0. -1.
        -11    1    3    3    0    0  0.57739289834E+01 -0.58812350688E+01  0.43060928746E+01  0.92989041261E+01  0.51100000000E-03 0.  1.
         12    1    3    3    0    0  0.16782008077E+02 -0.17367289489E+02 -0.41458072966E+01  0.24504004927E+02  0.00000000000E+00 0. -1.
</event>
<event>
 7    1  0.4878192E-011  0.5052885E+02  0.7816164E-02  0.1300439E+00
        -11   -1    0    0    0    0  0.00000000000E+00  0.00000000000E+00  0.45593999997E+02  0.45594000000E+02  0.51100000000E-03 0. -1.
         11   -1    0    0    0    0 -0.00000000000E+00 -0.00000000000E+00 -0.45593999997E+02  0.45594000000E+02  0.51100000000E-03 0.  1.
    9900012    2    1    2    0    0  0.17134251104E+02  0.36142870885E+02  0.72990781803E+01  0.50528853194E+02  0.29999979770E+02 0.  0.
        -12    1    1    2    0    0 -0.17134251104E+02 -0.36142870885E+02 -0.72990781803E+01  0.40659146806E+02  0.00000000000E+00 0.  1.
         11    1    3    3    0    0  0.21348855018E+02  0.16150205866E+02  0.87905132052E+00  0.26783866255E+02  0.51100000000E-03 0. -1.
        -11    1    3    3    0    0 -0.72216730925E+01  0.16411705188E+02  0.36118726331E+01  0.18290496265E+02  0.51100000000E-03 0.  1.
        -12    1    3    3    0    0  0.30070691783E+01  0.35809598304E+01  0.28081542266E+01  0.54544906738E+01  0.00000000000E+00 0.  1.
</event>
<event>
 7    1  0.4878192E-011  0.5052886E+02  0.7816164E-02  0.1300439E+00
        -11   -1    0    0    0    0  0.00000000000E+00  0.00000000000E+00  0.45593999997E+02  0.45594000000E+02  0.51100000000E-03 0. -1.
         11   -1    0    0    0    0 -0.00000000000E+00 -0.00000000000E+00 -0.45593999997E+02  0.45594000000E+02  0.51100000000E-03 0.  1.
    9900012    2    1    2    0    0 -0.13876976188E+02  0.33704981891E+02  0.18015818626E+02  0.50528855971E+02  0.29999988211E+02 0.  0.
        -12    1    1    2    0    0  0.13876976188E+02 -0.33704981891E+02 -0.18015818626E+02  0.40659144029E+02  0.00000000000E+00 0.  1.
         11    1    3    3    0    0 -0.39120192420E+01  0.19655017820E+00 -0.59688290439E+01  0.71392889659E+01  0.51100000000E-03 0. -1.
        -11    1    3    3    0    0  0.11158603232E+01  0.38874529926E+00  0.39902410009E+00  0.12471919107E+01  0.51100000000E-03 0.  1.
         12    1    3    3    0    0 -0.11080817269E+02  0.33119686413E+02  0.23585623570E+02  0.42142375095E+02  0.00000000000E+00 0. -1.
</event>
<event>
 7    1  0.4878192E-011  0.5052886E+02  0.7816164E-02  0.1300439E+00
        -11   -1    0    0    0    0  0.00000000000E+00  0.00000000000E+00  0.45593999997E+02  0.45594000000E+02  0.51100000000E-03 0.  1.
         11   -1    0    0    0    0 -0.00000000000E+00 -0.00000000000E+00 -0.45593999997E+02  0.45594000000E+02  0.51100000000E-03 0. -1.
    9900012    2    1    2    0    0 -0.10152956824E+02  0.44521085222E+01 -0.39118558689E+02  0.50528862817E+02  0.30000009019E+02 0.  0.
        -12    1    1    2    0    0  0.10152956824E+02 -0.44521085222E+01  0.39118558689E+02  0.40659137183E+02  0.00000000000E+00 0.  1.
         11    1    3    3    0    0 -0.53132517385E+01  0.86983707846E+01 -0.17767934810E+02  0.20483940198E+02  0.51100000000E-03 0. -1.
        -11    1    3    3    0    0  0.48796502006E+01 -0.90419521308E+01 -0.11136504010E+02  0.15152214566E+02  0.51100000000E-03 0.  1.
        -12    1    3    3    0    0 -0.97193552861E+01  0.47956898684E+01 -0.10214119868E+02  0.14892708053E+02  0.00000000000E+00 0.  1.
</event>
<event>
 7    1  0.4878192E-011  0.5052886E+02  0.7816164E-02  0.1300439E+00
        -11   -1    0    0    0    0  0.00000000000E+00  0.00000000000E+00  0.45593999997E+02  0.45594000000E+02  0.51100000000E-03 0.  1.
         11   -1    0    0    0    0 -0.00000000000E+00 -0.00000000000E+00 -0.45593999997E+02  0.45594000000E+02  0.51100000000E-03 0. -1.
    9900012    2    1    2    0    0 -0.38037897420E+02 -0.14081347231E+02  0.28284386063E+01  0.50528855335E+02  0.29999986276E+02 0.  0.
        -12    1    1    2    0    0  0.38037897420E+02  0.14081347231E+02 -0.28284386063E+01  0.40659144665E+02  0.00000000000E+00 0.  1.
         11    1    3    3    0    0 -0.18383148274E+02  0.79643314759E+01  0.11406868862E+01  0.20066685904E+02  0.51100000000E-03 0. -1.
        -11    1    3    3    0    0 -0.16602956516E+02 -0.14319539969E+02  0.27124311901E+01  0.22092185795E+02  0.51100000000E-03 0.  1.
         12    1    3    3    0    0 -0.30517926291E+01 -0.77261387379E+01 -0.10246794699E+01  0.83699836358E+01  0.00000000000E+00 0. -1.
</event>
<event>
 7    1  0.4878192E-011  0.5052886E+02  0.7816164E-02  0.1300439E+00
        -11   -1    0    0    0    0  0.00000000000E+00  0.00000000000E+00  0.45593999997E+02  0.45594000000E+02  0.51100000000E-03 0. -1.
         11   -1    0    0    0    0 -0.00000000000E+00 -0.00000000000E+00 -0.45593999997E+02  0.45594000000E+02  0.51100000000E-03 0.  1.
    9900012    2    1    2    0    0 -0.23163024655E+02 -0.30420264581E+02  0.13829236225E+02  0.50528856097E+02  0.29999988592E+02 0.  0.
        -12    1    1    2    0    0  0.23163024655E+02  0.30420264581E+02 -0.13829236225E+02  0.40659143903E+02  0.00000000000E+00 0.  1.
         11    1    3    3    0    0  0.46650250957E+00 -0.10216386926E+02 -0.55969626341E+01  0.11658395147E+02  0.51100000000E-03 0.  1.
        -11    1    3    3    0    0 -0.20765163738E+02 -0.21806137923E+02  0.18886516751E+02  0.35544341201E+02  0.51100000000E-03 0. -1.
        -12    1    3    3    0    0 -0.28643634270E+01  0.16022602677E+01  0.53968210856E+00  0.33261197491E+01  0.00000000000E+00 0.  1.
</event>
<event>
 7    1  0.4878192E-011  0.5052886E+02  0.7816164E-02  0.1300439E+00
        -11   -1    0    0    0    0  0.00000000000E+00  0.00000000000E+00  0.45593999997E+02  0.45594000000E+02  0.51100000000E-03 0. -1.
         11   -1    0    0    0    0 -0.00000000000E+00 -0.00000000000E+00 -0.45593999997E+02  0.45594000000E+02  0.51100000000E-03 0.  1.
    9900012    2    1    2    0    0  0.26163939971E+02 -0.67463666695E+01  0.30382562905E+02  0.50528863920E+02  0.30000012373E+02 0.  0.
        -12    1    1    2    0    0 -0.26163939971E+02  0.67463666695E+01 -0.30382562905E+02  0.40659136080E+02  0.00000000000E+00 0.  1.
         11    1    3    3    0    0  0.30701095820E+02 -0.82071088854E+00  0.19969890480E+02  0.36633691828E+02  0.51100000000E-03 0. -1.
        -11    1    3    3    0    0 -0.25461093194E+01 -0.77944813624E+00  0.74732077560E+00  0.27656284396E+01  0.51100000000E-03 0.  1.
         12    1    3    3    0    0 -0.19910465299E+01 -0.51462076447E+01  0.96653516494E+01  0.11129543652E+02  0.00000000000E+00 0. -1.
</event>
<event>
 7    1  0.4878192E-011  0.5052886E+02  0.7816164E-02  0.1300439E+00
        -11   -1    0    0    0    0  0.00000000000E+00  0.00000000000E+00  0.45593999997E+02  0.45594000000E+02  0.51100000000E-03 0. -1.
         11   -1    0    0    0    0 -0.00000000000E+00 -0.00000000000E+00 -0.45593999997E+02  0.45594000000E+02  0.51100000000E-03 0.  1.
    9900012    2    1    2    0    0 -0.81349532102E+00 -0.40458158921E+02  0.39549287450E+01  0.50528857617E+02  0.29999993213E+02 0.  0.
        -12    1    1    2    0    0  0.81349532102E+00  0.40458158921E+02 -0.39549287450E+01  0.40659142383E+02  0.00000000000E+00 0.  1.
         11    1    3    3    0    0 -0.71764144853E+01 -0.95147655992E+00  0.27970451540E+00  0.72446164416E+01  0.51100000000E-03 0. -1.
        -11    1    3    3    0    0 -0.14138519659E+01 -0.32691790398E+02  0.38076343347E+01  0.32943136103E+02  0.51100000000E-03 0.  1.
         12    1    3    3    0    0  0.77767711302E+01 -0.68148919630E+01 -0.13241010506E+00  0.10341105072E+02  0.00000000000E+00 0. -1.
</event>
<event>
 7    1  0.4878192E-011  0.5052886E+02  0.7816164E-02  0.1300439E+00
        -11   -1    0    0    0    0  0.00000000000E+00  0.00000000000E+00  0.45593999997E+02  0.45594000000E+02  0.51100000000E-03 0.  1.
         11   -1    0    0    0    0 -0.00000000000E+00 -0.00000000000E+00 -0.45593999997E+02  0.45594000000E+02  0.51100000000E-03 0. -1.
    9900012    2    1    2    0    0  0.23979290744E+01  0.19742255957E+02 -0.35463488935E+02  0.50528858573E+02  0.29999996119E+02 0.  0.
        -12    1    1    2    0    0 -0.23979290744E+01 -0.19742255957E+02  0.35463488935E+02  0.40659141427E+02  0.00000000000E+00 0.  1.
         11    1    3    3    0    0 -0.77546346236E+01  0.18336307189E+01 -0.10081155278E+02  0.12850145982E+02  0.51100000000E-03 0. -1.
        -11    1    3    3    0    0  0.13332902011E+02  0.18824135213E+02 -0.16965586066E+02  0.28634689685E+02  0.51100000000E-03 0.  1.
        -12    1    3    3    0    0 -0.31803383134E+01 -0.91550997480E+00 -0.84167475917E+01  0.90440229060E+01  0.00000000000E+00 0.  1.
</event>
<event>
 7    1  0.4878192E-011  0.5052886E+02  0.7816164E-02  0.1300439E+00
        -11   -1    0    0    0    0  0.00000000000E+00  0.00000000000E+00  0.45593999997E+02  0.45594000000E+02  0.51100000000E-03 0.  1.
         11   -1    0    0    0    0 -0.00000000000E+00 -0.00000000000E+00 -0.45593999997E+02  0.45594000000E+02  0.51100000000E-03 0. -1.
    9900012    2    1    2    0    0 -0.14620236986E+02  0.29085294537E+02 -0.24361038542E+02  0.50528857281E+02  0.29999992190E+02 0.  0.
        -12    1    1    2    0    0  0.14620236986E+02 -0.29085294537E+02  0.24361038542E+02  0.40659142719E+02  0.00000000000E+00 0.  1.
         11    1    3    3    0    0  0.61179460819E+01  0.10459899407E+02 -0.83598974958E+01  0.14721638709E+02  0.51100000000E-03 0. -1.
        -11    1    3    3    0    0 -0.52496610235E+01  0.40116130734E+00  0.22463952791E+01  0.57241735882E+01  0.51100000000E-03 0.  1.
         12    1    3    3    0    0 -0.15488522045E+02  0.18224233823E+02 -0.18247536325E+02  0.30083044983E+02  0.00000000000E+00 0. -1.
</event>
<event>
 7    1  0.4878192E-011  0.5052886E+02  0.7816164E-02  0.1300439E+00
        -11   -1    0    0    0    0  0.00000000000E+00  0.00000000000E+00  0.45593999997E+02  0.45594000000E+02  0.51100000000E-03 0.  1.
         11   -1    0    0    0    0 -0.00000000000E+00 -0.00000000000E+00 -0.45593999997E+02  0.45594000000E+02  0.51100000000E-03 0. -1.
    9900012    2    1    2    0    0 -0.10075632182E+02 -0.12700930500E+02 -0.37287179179E+02  0.50528859200E+02  0.29999998024E+02 0.  0.
        -12    1    1    2    0    0  0.10075632182E+02  0.12700930500E+02  0.37287179179E+02  0.40659140800E+02  0.00000000000E+00 0.  1.
         11    1    3    3    0    0 -0.45881930025E+01 -0.45182243322E+01 -0.15758099579E+02  0.17023030539E+02  0.51100000000E-03 0. -1.
        -11    1    3    3    0    0  0.81085088466E+01 -0.89035205404E+01 -0.95113720978E+01  0.15345578945E+02  0.51100000000E-03 0.  1.
        -12    1    3    3    0    0 -0.13595948026E+02  0.72081437281E+00 -0.12017707503E+02  0.18160249715E+02  0.00000000000E+00 0.  1.
</event>
<event>
 7    1  0.4878192E-011  0.5052886E+02  0.7816164E-02  0.1300439E+00
        -11   -1    0    0    0    0  0.00000000000E+00  0.00000000000E+00  0.45593999997E+02  0.45594000000E+02  0.51100000000E-03 0.  1.
         11   -1    0    0    0    0 -0.00000000000E+00 -0.00000000000E+00 -0.45593999997E+02  0.45594000000E+02  0.51100000000E-03 0. -1.
    9900012    2    1    2    0    0 -0.66246199694E+01  0.11378378767E+02 -0.38468336280E+02  0.50528856019E+02  0.29999988356E+02 0.  0.
        -12    1    1    2    0    0  0.66246199694E+01 -0.11378378767E+02  0.38468336280E+02  0.40659143981E+02  0.00000000000E+00 0.  1.
         11    1    3    3    0    0  0.58754884135E+01 -0.19324601438E+01 -0.60139816874E+01  0.86269196300E+01  0.51100000000E-03 0. -1.
        -11    1    3    3    0    0 -0.10902109642E+02  0.17668596937E+02 -0.20941560357E+02  0.29488714160E+02  0.51100000000E-03 0.  1.
        -12    1    3    3    0    0 -0.15979987410E+01 -0.43577580263E+01 -0.11512794236E+02  0.12413222229E+02  0.00000000000E+00 0.  1.
</event>
<event>
 7    1  0.4878192E-011  0.5052886E+02  0.7816164E-02  0.1300439E+00
        -11   -1    0    0    0    0  0.00000000000E+00  0.00000000000E+00  0.45593999997E+02  0.45594000000E+02  0.51100000000E-03 0.  1.
         11   -1    0    0    0    0 -0.00000000000E+00 -0.00000000000E+00 -0.45593999997E+02  0.45594000000E+02  0.51100000000E-03 0. -1.
    9900012    2    1    2    0    0 -0.16372751245E+02  0.99416102136E+01 -0.35864508632E+02  0.50528861096E+02  0.30000003788E+02 0.  0.
        -12    1    1    2    0    0  0.16372751245E+02 -0.99416102136E+01  0.35864508632E+02  0.40659138904E+02  0.00000000000E+00 0.  1.
         11    1    3    3    0    0 -0.46637437543E+01 -0.85797309602E+01 -0.12891869413E+02  0.16172896660E+02  0.51100000000E-03 0. -1.
        -11    1    3    3    0    0 -0.12883431625E+00  0.66488326856E+01 -0.84589411253E+00  0.67036640334E+01  0.51100000000E-03 0.  1.
         12    1    3    3    0    0 -0.11580173174E+02  0.11872508488E+02 -0.22126745107E+02  0.27652300403E+02  0.00000000000E+00 0. -1.
</event>
<event>
 7    1  0.4878192E-011  0.5052882E+02  0.7816164E-02  0.1300439E+00
        -11   -1    0    0    0    0  0.00000000000E+00  0.00000000000E+00  0.45593999997E+02  0.45594000000E+02  0.51100000000E-03 0.  1.
         11   -1    0    0    0    0 -0.00000000000E+00 -0.00000000000E+00 -0.45593999997E+02  0.45594000000E+02  0.51100000000E-03 0. -1.
    9900012    2    1    2    0    0 -0.24012585161E+02 -0.17026056293E+02 -0.28047780700E+02  0.50528820947E+02  0.29999881751E+02 0.  0.
        -12    1    1    2    0    0  0.24012585161E+02  0.17026056293E+02  0.28047780700E+02  0.40659179053E+02  0.00000000000E+00 0.  1.
         11    1    3    3    0    0 -0.14317249591E+02 -0.24060473918E+02 -0.16551568591E+02  0.32524520966E+02  0.51100000000E-03 0. -1.
        -11    1    3    3    0    0 -0.12845514824E+01  0.45293502011E+01 -0.21246710600E+01  0.51652021383E+01  0.51100000000E-03 0.  1.
         12    1    3    3    0    0 -0.84107840877E+01  0.25050674240E+01 -0.93715410498E+01  0.12839097843E+02  0.00000000000E+00 0. -1.
</event>
<event>
 7    1  0.4878192E-011  0.5052886E+02  0.7816164E-02  0.1300439E+00
        -11   -1    0    0    0    0  0.00000000000E+00  0.00000000000E+00  0.45593999997E+02  0.45594000000E+02  0.51100000000E-03 0. -1.
         11   -1    0    0    0    0 -0.00000000000E+00 -0.00000000000E+00 -0.45593999997E+02  0.45594000000E+02  0.51100000000E-03 0.  1.
    9900012    2    1    2    0    0 -0.26241410061E+02 -0.30182734743E+02  0.73182229943E+01  0.50528862449E+02  0.30000007901E+02 0.  0.
        -12    1    1    2    0    0  0.26241410061E+02  0.30182734743E+02 -0.73182229943E+01  0.40659137551E+02  0.00000000000E+00 0.  1.
         11    1    3    3    0    0 -0.18693225004E+02 -0.17041643058E+02  0.87158149710E+00  0.25310351909E+02  0.51100000000E-03 0. -1.
        -11    1    3    3    0    0  0.29359712814E+01 -0.97383623829E+01 -0.31034731223E+01  0.10634245387E+02  0.51100000000E-03 0.  1.
        -12    1    3    3    0    0 -0.10484156339E+02 -0.34027293020E+01  0.95501146195E+01  0.14584265154E+02  0.00000000000E+00 0.  1.
</event>
<event>
 7    1  0.4878192E-011  0.5052886E+02  0.7816164E-02  0.1300439E+00
        -11   -1    0    0    0    0  0.00000000000E+00  0.00000000000E+00  0.45593999997E+02  0.45594000000E+02  0.51100000000E-03 0.  1.
         11   -1    0    0    0    0 -0.00000000000E+00 -0.00000000000E+00 -0.45593999997E+02  0.45594000000E+02  0.51100000000E-03 0. -1.
    9900012    2    1    2    0    0 -0.90946052685E+00  0.31230273786E+02 -0.26019387957E+02  0.50528859959E+02  0.30000000331E+02 0.  0.
        -12    1    1    2    0    0  0.90946052685E+00 -0.31230273786E+02  0.26019387957E+02  0.40659140041E+02  0.00000000000E+00 0.  1.
         11    1    3    3    0    0  0.26592700769E+01  0.18326384293E+02 -0.42955883741E+01  0.19010001534E+02  0.51100000000E-03 0. -1.
        -11    1    3    3    0    0  0.37230631258E+01  0.32656274788E+01 -0.18298847499E+02  0.18957144878E+02  0.51100000000E-03 0.  1.
        -12    1    3    3    0    0 -0.72917937296E+01  0.96382620151E+01 -0.34249520842E+01  0.12561713547E+02  0.00000000000E+00 0.  1.
</event>
<event>
 7    1  0.4878192E-011  0.5052885E+02  0.7816164E-02  0.1300439E+00
        -11   -1    0    0    0    0  0.00000000000E+00  0.00000000000E+00  0.45593999997E+02  0.45594000000E+02  0.51100000000E-03 0. -1.
         11   -1    0    0    0    0 -0.00000000000E+00 -0.00000000000E+00 -0.45593999997E+02  0.45594000000E+02  0.51100000000E-03 0.  1.
    9900012    2    1    2    0    0  0.14734792400E+01  0.24618707255E+02  0.32325138973E+02  0.50528849768E+02  0.29999969355E+02 0.  0.
        -12    1    1    2    0    0 -0.14734792400E+01 -0.24618707255E+02 -0.32325138973E+02  0.40659150232E+02  0.00000000000E+00 0.  1.
         11    1    3    3    0    0 -0.53993547453E+01  0.96803353191E+01  0.27814131527E+02  0.29941406720E+02  0.51100000000E-03 0. -1.
        -11    1    3    3    0    0  0.97924001386E+01  0.98990410415E+01  0.48729931840E+01  0.14752226166E+02  0.51100000000E-03 0.  1.
        -12    1    3    3    0    0 -0.29195661532E+01  0.50393308943E+01 -0.36198573793E+00  0.58352168820E+01  0.00000000000E+00 0.  1.
</event>
<event>
 7    1  0.4878192E-011  0.5052886E+02  0.7816164E-02  0.1300439E+00
        -11   -1    0    0    0    0  0.00000000000E+00  0.00000000000E+00  0.45593999997E+02  0.45594000000E+02  0.51100000000E-03 0.  1.
         11   -1    0    0    0    0 -0.00000000000E+00 -0.00000000000E+00 -0.45593999997E+02  0.45594000000E+02  0.51100000000E-03 0. -1.
    9900012    2    1    2    0    0  0.81969841096E+01 -0.28580528939E-02 -0.39824299372E+02  0.50528863546E+02  0.30000011236E+02 0.  0.
        -12    1    1    2    0    0 -0.81969841096E+01  0.28580528939E-02  0.39824299372E+02  0.40659136454E+02  0.00000000000E+00 0.  1.
         11    1    3    3    0    0  0.10348999136E+02 -0.52354716974E+01 -0.33532992371E+02  0.35482016919E+02  0.51100000000E-03 0. -1.
        -11    1    3    3    0    0  0.50699980428E+01  0.31825323291E+01 -0.16073895389E+01  0.61981524320E+01  0.51100000000E-03 0.  1.
         12    1    3    3    0    0 -0.72220130693E+01  0.20500813154E+01 -0.46839174623E+01  0.88486941955E+01  0.00000000000E+00 0. -1.
</event>
<event>
 7    1  0.4878192E-011  0.5052886E+02  0.7816164E-02  0.1300439E+00
        -11   -1    0    0    0    0  0.00000000000E+00  0.00000000000E+00  0.45593999997E+02  0.45594000000E+02  0.51100000000E-03 0. -1.
         11   -1    0    0    0    0 -0.00000000000E+00 -0.00000000000E+00 -0.45593999997E+02  0.45594000000E+02  0.51100000000E-03 0.  1.
    9900012    2    1    2    0    0  0.38271424461E+02 -0.17344835012E+01  0.13618207591E+02  0.50528856609E+02  0.29999990149E+02 0.  0.
        -12    1    1    2    0    0 -0.38271424461E+02  0.17344835012E+01 -0.13618207591E+02  0.40659143391E+02  0.00000000000E+00 0.  1.
         11    1    3    3    0    0  0.11987446267E+02 -0.12580091132E+02  0.11327590265E+02  0.20742995502E+02  0.51100000000E-03 0. -1.
        -11    1    3    3    0    0  0.10675171561E+02  0.83785884089E+01  0.32496593445E+01  0.13954222217E+02  0.51100000000E-03 0.  1.
         12    1    3    3    0    0  0.15608806633E+02  0.24670192222E+01 -0.95904201918E+00  0.15831638890E+02  0.00000000000E+00 0. -1.
</event>
<event>
 7    1  0.4878192E-011  0.5052887E+02  0.7816164E-02  0.1300439E+00
        -11   -1    0    0    0    0  0.00000000000E+00  0.00000000000E+00  0.45593999997E+02  0.45594000000E+02  0.51100000000E-03 0.  1.
         11   -1    0    0    0    0 -0.00000000000E+00 -0.00000000000E+00 -0.45593999997E+02  0.45594000000E+02  0.51100000000E-03 0. -1.
    9900012    2    1    2    0    0 -0.23310654118E+01  0.32045423806E+02 -0.24916295667E+02  0.50528870120E+02  0.30000031217E+02 0.  0.
        -12    1    1    2    0    0  0.23310654118E+01 -0.32045423806E+02  0.24916295667E+02  0.40659129880E+02  0.00000000000E+00 0.  1.
         11    1    3    3    0    0  0.40847469242E+01  0.10082633697E+02 -0.10458072629E+02  0.15090259874E+02  0.51100000000E-03 0. -1.
        -11    1    3    3    0    0 -0.12943532939E+02  0.45011074831E+01 -0.65476700714E+01  0.15187725212E+02  0.51100000000E-03 0.  1.
        -12    1    3    3    0    0  0.65277206025E+01  0.17461682626E+02 -0.79105529664E+01  0.20250885033E+02  0.00000000000E+00 0.  1.
</event>
<event>
 7    1  0.4878192E-011  0.5052887E+02  0.7816164E-02  0.1300439E+00
        -11   -1    0    0    0    0  0.00000000000E+00  0.00000000000E+00  0.45593999997E+02  0.45594000000E+02  0.51100000000E-03 0.  1.
         11   -1    0    0    0    0 -0.00000000000E+00 -0.00000000000E+00 -0.45593999997E+02  0.45594000000E+02  0.51100000000E-03 0. -1.
    9900012    2    1    2    0    0  0.24469862315E+02 -0.26856813295E+02 -0.18251084119E+02  0.50528872444E+02  0.30000038282E+02 0.  0.
        -12    1    1    2    0    0 -0.24469862315E+02  0.26856813295E+02  0.18251084119E+02  0.40659127556E+02  0.00000000000E+00 0.  1.
         11    1    3    3    0    0  0.20952402166E+02 -0.16091841763E+02 -0.24470490512E+02  0.36010490611E+02  0.51100000000E-03 0. -1.
        -11    1    3    3    0    0  0.45466081415E+01 -0.41239860639E+01  0.15372638951E+01  0.63278817303E+01  0.51100000000E-03 0.  1.
         12    1    3    3    0    0 -0.10291479931E+01 -0.66409854677E+01  0.46821424976E+01  0.81905001033E+01  0.00000000000E+00 0. -1.
</event>
<event>
 7    1  0.4878192E-011  0.5052885E+02  0.7816164E-02  0.1300439E+00
        -11   -1    0    0    0    0  0.00000000000E+00  0.00000000000E+00  0.45593999997E+02  0.45594000000E+02  0.51100000000E-03 0.  1.
         11   -1    0    0    0    0 -0.00000000000E+00 -0.00000000000E+00 -0.45593999997E+02  0.45594000000E+02  0.51100000000E-03 0. -1.
    9900012    2    1    2    0    0 -0.26936883957E+02  0.16867996840E+02 -0.25358257554E+02  0.50528852679E+02  0.29999978202E+02 0.  0.
        -12    1    1    2    0    0  0.26936883957E+02 -0.16867996840E+02  0.25358257554E+02  0.40659147321E+02  0.00000000000E+00 0.  1.
         11    1    3    3    0    0 -0.76421061604E+01  0.45114749791E+01 -0.19002678536E+02  0.20972767697E+02  0.51100000000E-03 0. -1.
        -11    1    3    3    0    0 -0.17702392371E+02  0.12412397048E+02  0.13739596117E+01  0.21664026897E+02  0.51100000000E-03 0.  1.
        -12    1    3    3    0    0 -0.15923854259E+01 -0.55875187020E-01 -0.77295386295E+01  0.78920580843E+01  0.00000000000E+00 0.  1.
</event>
<event>
 7    1  0.4878192E-011  0.5052886E+02  0.7816164E-02  0.1300439E+00
        -11   -1    0    0    0    0  0.00000000000E+00  0.00000000000E+00  0.45593999997E+02  0.45594000000E+02  0.51100000000E-03 0. -1.
         11   -1    0    0    0    0 -0.00000000000E+00 -0.00000000000E+00 -0.45593999997E+02  0.45594000000E+02  0.51100000000E-03 0.  1.
    9900012    2    1    2    0    0  0.16331677510E+02 -0.36334453359E+02  0.81393830618E+01  0.50528858988E+02  0.29999997380E+02 0.  0.
        -12    1    1    2    0    0 -0.16331677510E+02  0.36334453359E+02 -0.81393830618E+01  0.40659141012E+02  0.00000000000E+00 0.  1.
         11    1    3    3    0    0  0.16390267864E+02 -0.28819137371E+02  0.55274959577E+01  0.33611557109E+02  0.51100000000E-03 0. -1.
        -11    1    3    3    0    0 -0.69312545664E+01 -0.61836611321E+01 -0.39790418991E+00  0.92972190932E+01  0.51100000000E-03 0.  1.
         12    1    3    3    0    0  0.68726642128E+01 -0.13316548563E+01  0.30097912940E+01  0.76200827864E+01  0.00000000000E+00 0. -1.
</event>
<event>
 7    1  0.4878192E-011  0.5052885E+02  0.7816164E-02  0.1300439E+00
        -11   -1    0    0    0    0  0.00000000000E+00  0.00000000000E+00  0.45593999997E+02  0.45594000000E+02  0.51100000000E-03 0.  1.
         11   -1    0    0    0    0 -0.00000000000E+00 -0.00000000000E+00 -0.45593999997E+02  0.45594000000E+02  0.51100000000E-03 0. -1.
    9900012    2    1    2    0    0 -0.21778975723E+02  0.30666845788E+02  0.15439807018E+02  0.50528845374E+02  0.29999955999E+02 0.  0.
        -12    1    1    2    0    0  0.21778975723E+02 -0.30666845788E+02 -0.15439807018E+02  0.40659154626E+02  0.00000000000E+00 0.  1.
         11    1    3    3    0    0 -0.49254232505E+01  0.79628711179E+01  0.65926692685E+01  0.11451218231E+02  0.51100000000E-03 0. -1.
        -11    1    3    3    0    0 -0.94702086380E+00  0.19906544417E+02 -0.13541626759E+01  0.19975012290E+02  0.51100000000E-03 0.  1.
        -12    1    3    3    0    0 -0.15906531609E+02  0.27974302527E+01  0.10201300425E+02  0.19102614853E+02  0.00000000000E+00 0.  1.
</event>
<event>
 7    1  0.4878192E-011  0.5052891E+02  0.7816164E-02  0.1300439E+00
        -11   -1    0    0    0    0  0.00000000000E+00  0.00000000000E+00  0.45593999997E+02  0.45594000000E+02  0.51100000000E-03 0. -1.
         11   -1    0    0    0    0 -0.00000000000E+00 -0.00000000000E+00 -0.45593999997E+02  0.45594000000E+02  0.51100000000E-03 0.  1.
    9900012    2    1    2    0    0  0.99869640192E+01  0.29041222276E+02  0.26646385390E+02  0.50528906355E+02  0.30000141357E+02 0.  0.
        -12    1    1    2    0    0 -0.99869640192E+01 -0.29041222276E+02 -0.26646385390E+02  0.40659093645E+02  0.00000000000E+00 0.  1.
         11    1    3    3    0    0  0.14874910491E+02  0.94757315641E+01  0.14092698127E+02  0.22575575110E+02  0.51100000000E-03 0. -1.
        -11    1    3    3    0    0 -0.90565101412E+01  0.18390014056E+02  0.11465180524E+02  0.23487514930E+02  0.51100000000E-03 0.  1.
        -12    1    3    3    0    0  0.41685636693E+01  0.11754766568E+01  0.10885067402E+01  0.44658163150E+01  0.00000000000E+00 0.  1.
</event>
<event>
 7    1  0.4878192E-011  0.5052891E+02  0.7816164E-02  0.1300439E+00
        -11   -1    0    0    0    0  0.00000000000E+00  0.00000000000E+00  0.45593999997E+02  0.45594000000E+02  0.51100000000E-03 0.  1.
         11   -1    0    0    0    0 -0.00000000000E+00 -0.00000000000E+00 -0.45593999997E+02  0.45594000000E+02  0.51100000000E-03 0. -1.
    9900012    2    1    2    0    0 -0.56974839548E+01  0.29604100029E+02 -0.27281820384E+02  0.50528907715E+02  0.30000145490E+02 0.  0.
        -12    1    1    2    0    0  0.56974839548E+01 -0.29604100029E+02  0.27281820384E+02  0.40659092285E+02  0.00000000000E+00 0.  1.
         11    1    3    3    0    0  0.43612326244E+01  0.17303007987E+01 -0.93640851333E+01  0.10473794990E+02  0.51100000000E-03 0. -1.
        -11    1    3    3    0    0 -0.16248601402E+02  0.19097520376E+02 -0.12108394928E+02  0.27845027564E+02  0.51100000000E-03 0.  1.
        -12    1    3    3    0    0  0.61898848225E+01  0.87762788541E+01 -0.58093403235E+01  0.12210085161E+02  0.00000000000E+00 0.  1.
</event>
<event>
 7    1  0.4878192E-011  0.5052885E+02  0.7816164E-02  0.1300439E+00
        -11   -1    0    0    0    0  0.00000000000E+00  0.00000000000E+00  0.45593999997E+02  0.45594000000E+02  0.51100000000E-03 0. -1.
         11   -1    0    0    0    0 -0.00000000000E+00 -0.00000000000E+00 -0.45593999997E+02  0.45594000000E+02  0.51100000000E-03 0.  1.
    9900012    2    1    2    0    0  0.38304358162E+02 -0.72923387425E+01  0.11522336505E+02  0.50528852234E+02  0.29999976849E+02 0.  0.
        -12    1    1    2    0    0 -0.38304358162E+02  0.72923387425E+01 -0.11522336505E+02  0.40659147766E+02  0.00000000000E+00 0.  1.
         11    1    3    3    0    0  0.16453374917E+01 -0.83662437851E+00  0.22392579218E+01  0.29019566009E+01  0.51100000000E-03 0. -1.
        -11    1    3    3    0    0  0.40878242737E+02 -0.41928796552E+01  0.11001861128E+02  0.42540003733E+02  0.51100000000E-03 0.  1.
        -12    1    3    3    0    0 -0.42192220661E+01 -0.22628347088E+01 -0.17187825452E+01  0.50868918998E+01  0.00000000000E+00 0.  1.
</event>
<event>
 7    1  0.4878192E-011  0.5052886E+02  0.7816164E-02  0.1300439E+00
        -11   -1    0    0    0    0  0.00000000000E+00  0.00000000000E+00  0.45593999997E+02  0.45594000000E+02  0.51100000000E-03 0.  1.
         11   -1    0    0    0    0 -0.00000000000E+00 -0.00000000000E+00 -0.45593999997E+02  0.45594000000E+02  0.51100000000E-03 0. -1.
    9900012    2    1    2    0    0  0.33622445564E+02 -0.19685406793E+02 -0.11626757990E+02  0.50528860957E+02  0.30000003366E+02 0.  0.
        -12    1    1    2    0    0 -0.33622445564E+02  0.19685406793E+02  0.11626757990E+02  0.40659139043E+02  0.00000000000E+00 0.  1.
         11    1    3    3    0    0  0.12946083871E+02 -0.15430010279E+02 -0.15325338314E+02  0.25309134705E+02  0.51100000000E-03 0. -1.
        -11    1    3    3    0    0  0.75493870376E+01 -0.40577053160E+01  0.76722061345E+01  0.11503084991E+02  0.51100000000E-03 0.  1.
        -12    1    3    3    0    0  0.13126974656E+02 -0.19769119784E+00 -0.39736258102E+01  0.13716641262E+02  0.00000000000E+00 0.  1.
</event>
<event>
 7    1  0.4878192E-011  0.5052886E+02  0.7816164E-02  0.1300439E+00
        -11   -1    0    0    0    0  0.00000000000E+00  0.00000000000E+00  0.45593999997E+02  0.45594000000E+02  0.51100000000E-03 0.  1.
         11   -1    0    0    0    0 -0.00000000000E+00 -0.00000000000E+00 -0.45593999997E+02  0.45594000000E+02  0.51100000000E-03 0. -1.
    9900012    2    1    2    0    0  0.19466194751E+02  0.17362493788E+02 -0.31189370150E+02  0.50528859097E+02  0.29999997711E+02 0.  0.
        -12    1    1    2    0    0 -0.19466194751E+02 -0.17362493788E+02  0.31189370150E+02  0.40659140903E+02  0.00000000000E+00 0.  1.
         11    1    3    3    0    0  0.44304569207E+01  0.20347453963E+02 -0.10654736146E+02  0.23391691557E+02  0.51100000000E-03 0. -1.
        -11    1    3    3    0    0  0.67610231540E+01  0.15675469184E+01 -0.14080643153E+02  0.15698189364E+02  0.51100000000E-03 0.  1.
         12    1    3    3    0    0  0.82747146764E+01 -0.45525070929E+01 -0.64539908506E+01  0.11438978176E+02  0.00000000000E+00 0. -1.
</event>
<event>
 7    1  0.4878192E-011  0.5052887E+02  0.7816164E-02  0.1300439E+00
        -11   -1    0    0    0    0  0.00000000000E+00  0.00000000000E+00  0.45593999997E+02  0.45594000000E+02  0.51100000000E-03 0.  1.
         11   -1    0    0    0    0 -0.00000000000E+00 -0.00000000000E+00 -0.45593999997E+02  0.45594000000E+02  0.51100000000E-03 0. -1.
    9900012    2    1    2    0    0 -0.15368721251E+02  0.14982889705E+02 -0.34532307905E+02  0.50528869832E+02  0.30000030340E+02 0.  0.
        -12    1    1    2    0    0  0.15368721251E+02 -0.14982889705E+02  0.34532307905E+02  0.40659130168E+02  0.00000000000E+00 0.  1.
         11    1    3    3    0    0  0.16878661961E+01  0.40691645502E+01 -0.21629128653E+02  0.22073200923E+02  0.51100000000E-03 0. -1.
        -11    1    3    3    0    0 -0.95037336606E+01  0.12396112305E+02 -0.29873455472E+01  0.15903106220E+02  0.51100000000E-03 0.  1.
         12    1    3    3    0    0 -0.75528537863E+01 -0.14823871506E+01 -0.99158337045E+01  0.12552562688E+02  0.00000000000E+00 0. -1.
</event>
<event>
 7    1  0.4878192E-011  0.5052886E+02  0.7816164E-02  0.1300439E+00
        -11   -1    0    0    0    0  0.00000000000E+00  0.00000000000E+00  0.45593999997E+02  0.45594000000E+02  0.51100000000E-03 0.  1.
         11   -1    0    0    0    0 -0.00000000000E+00 -0.00000000000E+00 -0.45593999997E+02  0.45594000000E+02  0.51100000000E-03 0. -1.
    9900012    2    1    2    0    0  0.23476003348E+02  0.12828560230E+02 -0.30618144461E+02  0.50528862515E+02  0.30000008100E+02 0.  0.
        -12    1    1    2    0    0 -0.23476003348E+02 -0.12828560230E+02  0.30618144461E+02  0.40659137485E+02  0.00000000000E+00 0.  1.
         11    1    3    3    0    0  0.76897678349E+01  0.14580136821E+02 -0.46960340802E+01  0.17139593210E+02  0.51100000000E-03 0. -1.
        -11    1    3    3    0    0  0.27935776376E+01 -0.65471626649E+01 -0.74769540628E+01  0.10323480871E+02  0.51100000000E-03 0.  1.
        -12    1    3    3    0    0  0.12992657876E+02  0.47955860742E+01 -0.18445156318E+02  0.23065788434E+02  0.00000000000E+00 0.  1.
</event>
<event>
 7    1  0.4878192E-011  0.5052885E+02  0.7816164E-02  0.1300439E+00
        -11   -1    0    0    0    0  0.00000000000E+00  0.00000000000E+00  0.45593999997E+02  0.45594000000E+02  0.51100000000E-03 0.  1.
         11   -1    0    0    0    0 -0.00000000000E+00 -0.00000000000E+00 -0.45593999997E+02  0.45594000000E+02  0.51100000000E-03 0. -1.
    9900012    2    1    2    0    0 -0.13772527334E+01 -0.27100744083E+02 -0.30279018414E+02  0.50528854521E+02  0.29999983802E+02 0.  0.
        -12    1    1    2    0    0  0.13772527334E+01  0.27100744083E+02  0.30279018414E+02  0.40659145479E+02  0.00000000000E+00 0.  1.
         11    1    3    3    0    0 -0.36542747577E+01 -0.27147826402E+02 -0.19821605784E+02  0.33812043098E+02  0.51100000000E-03 0. -1.
        -11    1    3    3    0    0  0.64454573226E+01  0.35843026843E+01 -0.45394071012E+01  0.86601017847E+01  0.51100000000E-03 0.  1.
        -12    1    3    3    0    0 -0.41684352982E+01 -0.35372203651E+01 -0.59180055293E+01  0.80567096380E+01  0.00000000000E+00 0.  1.
</event>
<event>
 7    1  0.4878192E-011  0.5052886E+02  0.7816164E-02  0.1300439E+00
        -11   -1    0    0    0    0  0.00000000000E+00  0.00000000000E+00  0.45593999997E+02  0.45594000000E+02  0.51100000000E-03 0. -1.
         11   -1    0    0    0    0 -0.00000000000E+00 -0.00000000000E+00 -0.45593999997E+02  0.45594000000E+02  0.51100000000E-03 0.  1.
    9900012    2    1    2    0    0 -0.12048677070E+02  0.36806416846E+02 -0.12380733257E+02  0.50528862083E+02  0.30000006788E+02 0.  0.
        -12    1    1    2    0    0  0.12048677070E+02 -0.36806416846E+02  0.12380733257E+02  0.40659137917E+02  0.00000000000E+00 0.  1.
         11    1    3    3    0    0 -0.78793595278E+01  0.22676664612E+02 -0.13536392447E+02  0.27559922809E+02  0.51100000000E-03 0. -1.
        -11    1    3    3    0    0  0.62408516928E+01  0.14161439190E+01  0.13293385810E+01  0.65361177143E+01  0.51100000000E-03 0.  1.
         12    1    3    3    0    0 -0.10410169235E+02  0.12713608315E+02 -0.17367939061E+00  0.16432821560E+02  0.00000000000E+00 0. -1.
</event>
<event>
 7    1  0.4878192E-011  0.5052883E+02  0.7816164E-02  0.1300439E+00
        -11   -1    0    0    0    0  0.00000000000E+00  0.00000000000E+00  0.45593999997E+02  0.45594000000E+02  0.51100000000E-03 0.  1.
         11   -1    0    0    0    0 -0.00000000000E+00 -0.00000000000E+00 -0.45593999997E+02  0.45594000000E+02  0.51100000000E-03 0. -1.
    9900012    2    1    2    0    0  0.10702318384E+02 -0.39177977216E+02  0.19272859246E+01  0.50528831925E+02  0.29999915118E+02 0.  0.
        -12    1    1    2    0    0 -0.10702318384E+02  0.39177977216E+02 -0.19272859246E+01  0.40659168075E+02  0.00000000000E+00 0.  1.
         11    1    3    3    0    0  0.11639891037E+02 -0.89366168743E+01 -0.71130871442E+01  0.16307856803E+02  0.51100000000E-03 0. -1.
        -11    1    3    3    0    0 -0.14070020559E+01 -0.31029542617E+02  0.10244485417E+02  0.32707211002E+02  0.51100000000E-03 0.  1.
        -12    1    3    3    0    0  0.46942940300E+00  0.78818227501E+00 -0.12041123485E+01  0.15137641200E+01  0.00000000000E+00 0.  1.
</event>
<event>
 7    1  0.4878192E-011  0.5052878E+02  0.7816164E-02  0.1300439E+00
        -11   -1    0    0    0    0  0.00000000000E+00  0.00000000000E+00  0.45593999997E+02  0.45594000000E+02  0.51100000000E-03 0.  1.
         11   -1    0    0    0    0 -0.00000000000E+00 -0.00000000000E+00 -0.45593999997E+02  0.45594000000E+02  0.51100000000E-03 0. -1.
    9900012    2    1    2    0    0  0.28387528517E+02 -0.13599078665E+02 -0.25736851213E+02  0.50528779322E+02  0.29999755226E+02 0.  0.
        -12    1    1    2    0    0 -0.28387528517E+02  0.13599078665E+02  0.25736851213E+02  0.40659220678E+02  0.00000000000E+00 0.  1.
         11    1    3    3    0    0  0.89047407048E+01 -0.14957481338E+02 -0.20867842719E+02  0.27175126771E+02  0.51100000000E-03 0. -1.
        -11    1    3    3    0    0  0.18955199970E+02 -0.15142240915E+01 -0.63901855964E+01  0.20060582063E+02  0.51100000000E-03 0.  1.
         12    1    3    3    0    0  0.52758784169E+00  0.28726267647E+01  0.15211771026E+01  0.32930704878E+01  0.00000000000E+00 0. -1.
</event>
<event>
 7    1  0.4878192E-011  0.5052890E+02  0.7816164E-02  0.1300439E+00
        -11   -1    0    0    0    0  0.00000000000E+00  0.00000000000E+00  0.45593999997E+02  0.45594000000E+02  0.51100000000E-03 0.  1.
         11   -1    0    0    0    0 -0.00000000000E+00 -0.00000000000E+00 -0.45593999997E+02  0.45594000000E+02  0.51100000000E-03 0. -1.
    9900012    2    1    2    0    0 -0.35043149056E+02  0.46104747263E+01 -0.20096856119E+02  0.50528900172E+02  0.30000122562E+02 0.  0.
        -12    1    1    2    0    0  0.35043149056E+02 -0.46104747263E+01  0.20096856119E+02  0.40659099828E+02  0.00000000000E+00 0.  1.
         11    1    3    3    0    0 -0.41895738018E+01 -0.49778254954E+01 -0.67173436508E+01  0.93516833398E+01  0.51100000000E-03 0. -1.
        -11    1    3    3    0    0 -0.51434148473E+01  0.10985731255E+02 -0.88937728549E+01  0.15041283301E+02  0.51100000000E-03 0.  1.
        -12    1    3    3    0    0 -0.25710160407E+02 -0.13974310329E+01 -0.44857396135E+01  0.26135933531E+02  0.00000000000E+00 0.  1.
</event>
<event>
 7    1  0.4878192E-011  0.5052886E+02  0.7816164E-02  0.1300439E+00
        -11   -1    0    0    0    0  0.00000000000E+00  0.00000000000E+00  0.45593999997E+02  0.45594000000E+02  0.51100000000E-03 0.  1.
         11   -1    0    0    0    0 -0.00000000000E+00 -0.00000000000E+00 -0.45593999997E+02  0.45594000000E+02  0.51100000000E-03 0. -1.
    9900012    2    1    2    0    0  0.78445547915E+01  0.24454968646E+02 -0.31521147382E+02  0.50528864943E+02  0.30000015480E+02 0.  0.
        -12    1    1    2    0    0 -0.78445547915E+01 -0.24454968646E+02  0.31521147382E+02  0.40659135057E+02  0.00000000000E+00 0.  1.
         11    1    3    3    0    0 -0.79797054747E+01  0.14618491352E+01 -0.33770544837E+01  0.87873317682E+01  0.51100000000E-03 0. -1.
        -11    1    3    3    0    0  0.10609734740E+02  0.69224181454E+01 -0.63654209015E+01  0.14177620666E+02  0.51100000000E-03 0.  1.
         12    1    3    3    0    0  0.52145255258E+01  0.16070701365E+02 -0.21778671996E+02  0.27563912508E+02  0.00000000000E+00 0. -1.
</event>
<event>
 7    1  0.4878192E-011  0.5052886E+02  0.7816164E-02  0.1300439E+00
        -11   -1    0    0    0    0  0.00000000000E+00  0.00000000000E+00  0.45593999997E+02  0.45594000000E+02  0.51100000000E-03 0.  1.
         11   -1    0    0    0    0 -0.00000000000E+00 -0.00000000000E+00 -0.45593999997E+02  0.45594000000E+02  0.51100000000E-03 0. -1.
    9900012    2    1    2    0    0 -0.75910893768E+01  0.35706471178E+02 -0.17904995878E+02  0.50528860814E+02  0.30000002931E+02 0.  0.
        -12    1    1    2    0    0  0.75910893768E+01 -0.35706471178E+02  0.17904995878E+02  0.40659139186E+02  0.00000000000E+00 0.  1.
         11    1    3    3    0    0 -0.56197402454E+01  0.22077915299E+02 -0.27284089999E+01  0.22944717045E+02  0.51100000000E-03 0. -1.
        -11    1    3    3    0    0  0.15082540871E+01 -0.41124181931E+01 -0.56489628246E+01  0.71482581823E+01  0.51100000000E-03 0.  1.
        -12    1    3    3    0    0 -0.34796032186E+01  0.17740974072E+02 -0.95276240537E+01  0.20435885587E+02  0.00000000000E+00 0.  1.
</event>
<event>
 7    1  0.4878192E-011  0.5052886E+02  0.7816164E-02  0.1300439E+00
        -11   -1    0    0    0    0  0.00000000000E+00  0.00000000000E+00  0.45593999997E+02  0.45594000000E+02  0.51100000000E-03 0.  1.
         11   -1    0    0    0    0 -0.00000000000E+00 -0.00000000000E+00 -0.45593999997E+02  0.45594000000E+02  0.51100000000E-03 0. -1.
    9900012    2    1    2    0    0 -0.38508700646E+01  0.31850939584E+02 -0.24977069323E+02  0.50528861487E+02  0.30000004977E+02 0.  0.
        -12    1    1    2    0    0  0.38508700646E+01 -0.31850939584E+02  0.24977069323E+02  0.40659138513E+02  0.00000000000E+00 0.  1.
         11    1    3    3    0    0  0.14343302048E+01  0.17996404056E+02 -0.28098673133E+02  0.33398552276E+02  0.51100000000E-03 0. -1.
        -11    1    3    3    0    0  0.73244974356E+00  0.90108553240E+01  0.25032959642E+01  0.93807508891E+01  0.51100000000E-03 0.  1.
         12    1    3    3    0    0 -0.60176500129E+01  0.48436802036E+01  0.61830784526E+00  0.77495583219E+01  0.00000000000E+00 0. -1.
</event>
<event>
 7    1  0.4878192E-011  0.5052886E+02  0.7816164E-02  0.1300439E+00
        -11   -1    0    0    0    0  0.00000000000E+00  0.00000000000E+00  0.45593999997E+02  0.45594000000E+02  0.51100000000E-03 0.  1.
         11   -1    0    0    0    0 -0.00000000000E+00 -0.00000000000E+00 -0.45593999997E+02  0.45594000000E+02  0.51100000000E-03 0. -1.
    9900012    2    1    2    0    0 -0.25140748245E+02  0.72474814384E+01 -0.31122056922E+02  0.50528860357E+02  0.30000001540E+02 0.  0.
        -12    1    1    2    0    0  0.25140748245E+02 -0.72474814384E+01  0.31122056922E+02  0.40659139643E+02  0.00000000000E+00 0.  1.
         11    1    3    3    0    0 -0.19347066643E+02 -0.27078545223E+01 -0.43259175147E+01  0.20008873692E+02  0.51100000000E-03 0. -1.
        -11    1    3    3    0    0 -0.75699623950E+01  0.44178949293E+01 -0.15151753207E+02  0.17504220970E+02  0.51100000000E-03 0.  1.
         12    1    3    3    0    0  0.17762807937E+01  0.55374410314E+01 -0.11644386201E+02  0.13015765695E+02  0.00000000000E+00 0. -1.
</event>
<event>
 7    1  0.4878192E-011  0.5052886E+02  0.7816164E-02  0.1300439E+00
        -11   -1    0    0    0    0  0.00000000000E+00  0.00000000000E+00  0.45593999997E+02  0.45594000000E+02  0.51100000000E-03 0.  1.
         11   -1    0    0    0    0 -0.00000000000E+00 -0.00000000000E+00 -0.45593999997E+02  0.45594000000E+02  0.51100000000E-03 0. -1.
    9900012    2    1    2    0    0  0.37382371785E+01  0.31542848816E+02 -0.25381882739E+02  0.50528859576E+02  0.29999999168E+02 0.  0.
        -12    1    1    2    0    0 -0.37382371785E+01 -0.31542848816E+02  0.25381882739E+02  0.40659140424E+02  0.00000000000E+00 0.  1.
         11    1    3    3    0    0  0.30254794149E+01  0.22243659845E+02 -0.26115918773E+02  0.34437989816E+02  0.51100000000E-03 0. -1.
        -11    1    3    3    0    0  0.50935017385E+01 -0.63125313528E+00  0.10221578837E+01  0.52332635593E+01  0.51100000000E-03 0.  1.
         12    1    3    3    0    0 -0.43807439749E+01  0.99304421067E+01 -0.28812184912E+00  0.10857606201E+02  0.00000000000E+00 0. -1.
</event>
<event>
 7    1  0.4878192E-011  0.5052886E+02  0.7816164E-02  0.1300439E+00
        -11   -1    0    0    0    0  0.00000000000E+00  0.00000000000E+00  0.45593999997E+02  0.45594000000E+02  0.51100000000E-03 0.  1.
         11   -1    0    0    0    0 -0.00000000000E+00 -0.00000000000E+00 -0.45593999997E+02  0.45594000000E+02  0.51100000000E-03 0. -1.
    9900012    2    1    2    0    0  0.76669806390E+01  0.33573452030E+02 -0.21614956140E+02  0.50528860778E+02  0.30000002822E+02 0.  0.
        -12    1    1    2    0    0 -0.76669806390E+01 -0.33573452030E+02  0.21614956140E+02  0.40659139222E+02  0.00000000000E+00 0.  1.
         11    1    3    3    0    0  0.14542586248E+01  0.61105923203E+01 -0.13243991381E+02  0.14658018782E+02  0.51100000000E-03 0. -1.
        -11    1    3    3    0    0  0.74593801696E+01  0.30596927646E+02 -0.72531456370E+01  0.32317525521E+02  0.51100000000E-03 0.  1.
        -12    1    3    3    0    0 -0.12466581555E+01 -0.31340679363E+01 -0.11178191212E+01  0.35533164753E+01  0.00000000000E+00 0.  1.
</event>
<event>
 7    1  0.4878192E-011  0.5052884E+02  0.7816164E-02  0.1300439E+00
        -11   -1    0    0    0    0  0.00000000000E+00  0.00000000000E+00  0.45593999997E+02  0.45594000000E+02  0.51100000000E-03 0.  1.
         11   -1    0    0    0    0 -0.00000000000E+00 -0.00000000000E+00 -0.45593999997E+02  0.45594000000E+02  0.51100000000E-03 0. -1.
    9900012    2    1    2    0    0  0.32313142170E+02  0.16689314263E+01 -0.24621991124E+02  0.50528844378E+02  0.29999952971E+02 0.  0.
        -12    1    1    2    0    0 -0.32313142170E+02 -0.16689314263E+01  0.24621991124E+02  0.40659155622E+02  0.00000000000E+00 0.  1.
         11    1    3    3    0    0  0.44118646549E+01 -0.40441653849E+01 -0.64018116886E+01  0.87637330260E+01  0.51100000000E-03 0. -1.
        -11    1    3    3    0    0 -0.25270719109E+00  0.37436308477E+01  0.42648516459E+01  0.56804570829E+01  0.51100000000E-03 0.  1.
        -12    1    3    3    0    0  0.28153984706E+02  0.19694659636E+01 -0.22485031081E+02  0.36084654269E+02  0.00000000000E+00 0.  1.
</event>
<event>
 7    1  0.4878192E-011  0.5052886E+02  0.7816164E-02  0.1300439E+00
        -11   -1    0    0    0    0  0.00000000000E+00  0.00000000000E+00  0.45593999997E+02  0.45594000000E+02  0.51100000000E-03 0.  1.
         11   -1    0    0    0    0 -0.00000000000E+00 -0.00000000000E+00 -0.45593999997E+02  0.45594000000E+02  0.51100000000E-03 0. -1.
    9900012    2    1    2    0    0  0.77244012325E+01  0.37372183591E+02 -0.14029234758E+02  0.50528857010E+02  0.29999991368E+02 0.  0.
        -12    1    1    2    0    0 -0.77244012325E+01 -0.37372183591E+02  0.14029234758E+02  0.40659142990E+02  0.00000000000E+00 0.  1.
         11    1    3    3    0    0  0.86271936781E+01  0.91296231696E+01  0.29466290921E+01  0.12901980981E+02  0.51100000000E-03 0. -1.
        -11    1    3    3    0    0 -0.40234153039E+01  0.17040057022E+02 -0.18984530533E+02  0.25825642564E+02  0.51100000000E-03 0.  1.
         12    1    3    3    0    0  0.31206228583E+01  0.11202503400E+02  0.20086666829E+01  0.11801233465E+02  0.00000000000E+00 0. -1.
</event>
<event>
 7    1  0.4878192E-011  0.5052885E+02  0.7816164E-02  0.1300439E+00
        -11   -1    0    0    0    0  0.00000000000E+00  0.00000000000E+00  0.45593999997E+02  0.45594000000E+02  0.51100000000E-03 0.  1.
         11   -1    0    0    0    0 -0.00000000000E+00 -0.00000000000E+00 -0.45593999997E+02  0.45594000000E+02  0.51100000000E-03 0. -1.
    9900012    2    1    2    0    0  0.39208122970E+02 -0.10486198668E+01 -0.10714019640E+02  0.50528846943E+02  0.29999960769E+02 0.  0.
        -12    1    1    2    0    0 -0.39208122970E+02  0.10486198668E+01  0.10714019640E+02  0.40659153057E+02  0.00000000000E+00 0.  1.
         11    1    3    3    0    0  0.34866265901E+02  0.33265463758E+01 -0.10233226441E+02  0.36488920679E+02  0.51100000000E-03 0. -1.
        -11    1    3    3    0    0 -0.94296724065E+00 -0.76782249287E+01  0.39794473142E+00  0.77461400415E+01  0.51100000000E-03 0.  1.
        -12    1    3    3    0    0  0.52848243095E+01  0.33030586861E+01 -0.87873793017E+00  0.62937862227E+01  0.00000000000E+00 0.  1.
</event>
<event>
 7    1  0.4878192E-011  0.5052890E+02  0.7816164E-02  0.1300439E+00
        -11   -1    0    0    0    0  0.00000000000E+00  0.00000000000E+00  0.45593999997E+02  0.45594000000E+02  0.51100000000E-03 0.  1.
         11   -1    0    0    0    0 -0.00000000000E+00 -0.00000000000E+00 -0.45593999997E+02  0.45594000000E+02  0.51100000000E-03 0. -1.
    9900012    2    1    2    0    0  0.36809122423E+02  0.17116428086E+02  0.22975442089E+01  0.50528901223E+02  0.30000125757E+02 0.  0.
        -12    1    1    2    0    0 -0.36809122423E+02 -0.17116428086E+02 -0.22975442089E+01  0.40659098777E+02  0.00000000000E+00 0.  1.
         11    1    3    3    0    0  0.43525551767E+01  0.14708309090E+02 -0.51490144293E+01  0.16179970418E+02  0.51100000000E-03 0. -1.
        -11    1    3    3    0    0  0.26649744066E+02  0.47259571282E+01  0.75390504830E+01  0.28095921626E+02  0.51100000000E-03 0.  1.
        -12    1    3    3    0    0  0.58068231804E+01 -0.23178381328E+01 -0.92491844862E-01  0.62530091795E+01  0.00000000000E+00 0.  1.
</event>
<event>
 7    1  0.4878192E-011  0.5052885E+02  0.7816164E-02  0.1300439E+00
        -11   -1    0    0    0    0  0.00000000000E+00  0.00000000000E+00  0.45593999997E+02  0.45594000000E+02  0.51100000000E-03 0. -1.
         11   -1    0    0    0    0 -0.00000000000E+00 -0.00000000000E+00 -0.45593999997E+02  0.45594000000E+02  0.51100000000E-03 0.  1.
    9900012    2    1    2    0    0 -0.96393901443E+01  0.54647582109E+00  0.39496207264E+02  0.50528845233E+02  0.29999955570E+02 0.  0.
        -12    1    1    2    0    0  0.96393901443E+01 -0.54647582109E+00 -0.39496207264E+02  0.40659154767E+02  0.00000000000E+00 0.  1.
         11    1    3    3    0    0 -0.76705179848E+01 -0.58058781514E+01  0.18391722865E+01  0.97942647619E+01  0.51100000000E-03 0. -1.
        -11    1    3    3    0    0 -0.38360831513E+01  0.68674007902E+01  0.87629811941E+01  0.11775676933E+02  0.51100000000E-03 0.  1.
         12    1    3    3    0    0  0.18672109918E+01 -0.51504681769E+00  0.28894053783E+02  0.28958903538E+02  0.00000000000E+00 0. -1.
</event>
<event>
 7    1  0.4878192E-011  0.5052885E+02  0.7816164E-02  0.1300439E+00
        -11   -1    0    0    0    0  0.00000000000E+00  0.00000000000E+00  0.45593999997E+02  0.45594000000E+02  0.51100000000E-03 0. -1.
         11   -1    0    0    0    0 -0.00000000000E+00 -0.00000000000E+00 -0.45593999997E+02  0.45594000000E+02  0.51100000000E-03 0.  1.
    9900012    2    1    2    0    0 -0.32766589068E+02 -0.24044074674E+02 -0.11829081008E+01  0.50528853948E+02  0.29999982061E+02 0.  0.
        -12    1    1    2    0    0  0.32766589068E+02  0.24044074674E+02  0.11829081008E+01  0.40659146052E+02  0.00000000000E+00 0.  1.
         11    1    3    3    0    0 -0.47422897956E+01  0.59103629243E+01  0.29097119621E+01  0.81171501382E+01  0.51100000000E-03 0. -1.
        -11    1    3    3    0    0 -0.78294584062E+01 -0.90764313216E+01 -0.57968215087E+01  0.13314847515E+02  0.51100000000E-03 0.  1.
         12    1    3    3    0    0 -0.20194840866E+02 -0.20878006277E+02  0.17042014458E+01  0.29096856295E+02  0.00000000000E+00 0. -1.
</event>
<event>
 7    1  0.4878192E-011  0.5052888E+02  0.7816164E-02  0.1300439E+00
        -11   -1    0    0    0    0  0.00000000000E+00  0.00000000000E+00  0.45593999997E+02  0.45594000000E+02  0.51100000000E-03 0. -1.
         11   -1    0    0    0    0 -0.00000000000E+00 -0.00000000000E+00 -0.45593999997E+02  0.45594000000E+02  0.51100000000E-03 0.  1.
    9900012    2    1    2    0    0  0.87985594237E+01  0.37611130545E+02  0.12694582190E+02  0.50528877951E+02  0.30000055020E+02 0.  0.
        -12    1    1    2    0    0 -0.87985594237E+01 -0.37611130545E+02 -0.12694582190E+02  0.40659122049E+02  0.00000000000E+00 0.  1.
         11    1    3    3    0    0  0.92062648673E+01  0.39147782065E+02  0.14410496830E+02  0.42719627486E+02  0.51100000000E-03 0. -1.
        -11    1    3    3    0    0 -0.33364828511E+01 -0.13032996428E+00 -0.28275656778E+01  0.43754121679E+01  0.51100000000E-03 0.  1.
         12    1    3    3    0    0  0.29287774076E+01 -0.14063215553E+01  0.11116510380E+01  0.34338382970E+01  0.00000000000E+00 0. -1.
</event>
<event>
 7    1  0.4878192E-011  0.5052884E+02  0.7816164E-02  0.1300439E+00
        -11   -1    0    0    0    0  0.00000000000E+00  0.00000000000E+00  0.45593999997E+02  0.45594000000E+02  0.51100000000E-03 0. -1.
         11   -1    0    0    0    0 -0.00000000000E+00 -0.00000000000E+00 -0.45593999997E+02  0.45594000000E+02  0.51100000000E-03 0.  1.
    9900012    2    1    2    0    0 -0.32012346665E+02 -0.19184222002E+02  0.16135130724E+02  0.50528841667E+02  0.29999944732E+02 0.  0.
        -12    1    1    2    0    0  0.32012346665E+02  0.19184222002E+02 -0.16135130724E+02  0.40659158333E+02  0.00000000000E+00 0.  1.
         11    1    3    3    0    0 -0.45723413380E+01 -0.17662459208E+02  0.53597698754E+01  0.19015675217E+02  0.51100000000E-03 0.  1.
        -11    1    3    3    0    0 -0.15545143971E+02 -0.11068881463E+01  0.19116724562E+00  0.15585674436E+02  0.51100000000E-03 0. -1.
         12    1    3    3    0    0 -0.11894861356E+02 -0.41487464830E+00  0.10584193603E+02  0.15927492015E+02  0.00000000000E+00 0. -1.
</event>
<event>
 7    1  0.4878192E-011  0.5052877E+02  0.7816164E-02  0.1300439E+00
        -11   -1    0    0    0    0  0.00000000000E+00  0.00000000000E+00  0.45593999997E+02  0.45594000000E+02  0.51100000000E-03 0.  1.
         11   -1    0    0    0    0 -0.00000000000E+00 -0.00000000000E+00 -0.45593999997E+02  0.45594000000E+02  0.51100000000E-03 0. -1.
    9900012    2    1    2    0    0  0.33541925668E+02 -0.19361652693E+02 -0.12378951836E+02  0.50528772006E+02  0.29999732988E+02 0.  0.
        -12    1    1    2    0    0 -0.33541925668E+02  0.19361652693E+02  0.12378951836E+02  0.40659227994E+02  0.00000000000E+00 0.  1.
         11    1    3    3    0    0  0.26832162008E+02 -0.22654614434E+02 -0.15257983001E+02  0.38288412329E+02  0.51100000000E-03 0. -1.
        -11    1    3    3    0    0  0.34374493299E+01 -0.31413158619E+01  0.14914960938E+01  0.48896302620E+01  0.51100000000E-03 0.  1.
         12    1    3    3    0    0  0.32723143306E+01  0.64342776032E+01  0.13875350711E+01  0.73507294146E+01  0.00000000000E+00 0. -1.
</event>
<event>
 7    1  0.4878192E-011  0.5052886E+02  0.7816164E-02  0.1300439E+00
        -11   -1    0    0    0    0  0.00000000000E+00  0.00000000000E+00  0.45593999997E+02  0.45594000000E+02  0.51100000000E-03 0.  1.
         11   -1    0    0    0    0 -0.00000000000E+00 -0.00000000000E+00 -0.45593999997E+02  0.45594000000E+02  0.51100000000E-03 0. -1.
    9900012    2    1    2    0    0  0.17373189922E+02  0.35121621724E+02 -0.10854004015E+02  0.50528862727E+02  0.30000008746E+02 0.  0.
        -12    1    1    2    0    0 -0.17373189922E+02 -0.35121621724E+02  0.10854004015E+02  0.40659137273E+02  0.00000000000E+00 0.  1.
         11    1    3    3    0    0  0.41080254542E+01  0.21674136499E+02  0.14555606759E+01  0.22107978724E+02  0.51100000000E-03 0. -1.
        -11    1    3    3    0    0  0.16537623365E+02  0.62433298436E+01 -0.91053053838E+01  0.19884132883E+02  0.51100000000E-03 0.  1.
        -12    1    3    3    0    0 -0.32724588969E+01  0.72041553814E+01 -0.32042593067E+01  0.85367511206E+01  0.00000000000E+00 0.  1.
</event>
<event>
 7    1  0.4878192E-011  0.5052886E+02  0.7816164E-02  0.1300439E+00
        -11   -1    0    0    0    0  0.00000000000E+00  0.00000000000E+00  0.45593999997E+02  0.45594000000E+02  0.51100000000E-03 0.  1.
         11   -1    0    0    0    0 -0.00000000000E+00 -0.00000000000E+00 -0.45593999997E+02  0.45594000000E+02  0.51100000000E-03 0. -1.
    9900012    2    1    2    0    0 -0.23905294359E+01  0.30138632816E+02 -0.27186647399E+02  0.50528860612E+02  0.30000002315E+02 0.  0.
        -12    1    1    2    0    0  0.23905294359E+01 -0.30138632816E+02  0.27186647399E+02  0.40659139388E+02  0.00000000000E+00 0.  1.
         11    1    3    3    0    0 -0.85842098717E+01  0.47052568334E+01 -0.18409916848E+02  0.20850734750E+02  0.51100000000E-03 0. -1.
        -11    1    3    3    0    0  0.78796571895E+01  0.96095193084E+01 -0.34542654335E+01  0.12898209516E+02  0.51100000000E-03 0.  1.
         12    1    3    3    0    0 -0.16859767537E+01  0.15823856674E+02 -0.53224651176E+01  0.16779916346E+02  0.00000000000E+00 0. -1.
</event>
<event>
 7    1  0.4878192E-011  0.5052887E+02  0.7816164E-02  0.1300439E+00
        -11   -1    0    0    0    0  0.00000000000E+00  0.00000000000E+00  0.45593999997E+02  0.45594000000E+02  0.51100000000E-03 0. -1.
         11   -1    0    0    0    0 -0.00000000000E+00 -0.00000000000E+00 -0.45593999997E+02  0.45594000000E+02  0.51100000000E-03 0.  1.
    9900012    2    1    2    0    0  0.36887624981E+02 -0.91755443107E+01  0.14431831381E+02  0.50528865145E+02  0.30000016095E+02 0.  0.
        -12    1    1    2    0    0 -0.36887624981E+02  0.91755443107E+01 -0.14431831381E+02  0.40659134855E+02  0.00000000000E+00 0.  1.
         11    1    3    3    0    0  0.32674668050E+02 -0.86230282649E+00  0.84865604085E+01  0.33769797248E+02  0.51100000000E-03 0. -1.
        -11    1    3    3    0    0  0.29959184882E+01 -0.34503760707E+01  0.95485036843E+01  0.10585581963E+02  0.51100000000E-03 0.  1.
         12    1    3    3    0    0  0.12170384427E+01 -0.48628654136E+01 -0.36032327121E+01  0.61734859341E+01  0.00000000000E+00 0. -1.
</event>
<event>
 7    1  0.4878192E-011  0.5052886E+02  0.7816164E-02  0.1300439E+00
        -11   -1    0    0    0    0  0.00000000000E+00  0.00000000000E+00  0.45593999997E+02  0.45594000000E+02  0.51100000000E-03 0. -1.
         11   -1    0    0    0    0 -0.00000000000E+00 -0.00000000000E+00 -0.45593999997E+02  0.45594000000E+02  0.51100000000E-03 0.  1.
    9900012    2    1    2    0    0  0.34562251851E+02 -0.21806201360E+01  0.21304027817E+02  0.50528856398E+02  0.29999989508E+02 0.  0.
        -12    1    1    2    0    0 -0.34562251851E+02  0.21806201360E+01 -0.21304027817E+02  0.40659143602E+02  0.00000000000E+00 0.  1.
         11    1    3    3    0    0  0.97455254864E+01  0.97609946434E+00  0.48276677581E+01  0.10919451150E+02  0.51100000000E-03 0.  1.
        -11    1    3    3    0    0  0.65740652401E+01 -0.61132674611E+01  0.18945221333E+02  0.20964536352E+02  0.51100000000E-03 0. -1.
        -12    1    3    3    0    0  0.18242661125E+02  0.29565478607E+01 -0.24688612741E+01  0.18644868896E+02  0.00000000000E+00 0.  1.
</event>
<event>
 7    1  0.4878192E-011  0.5052897E+02  0.7816164E-02  0.1300438E+00
        -11   -1    0    0    0    0  0.00000000000E+00  0.00000000000E+00  0.45593999997E+02  0.45594000000E+02  0.51100000000E-03 0. -1.
         11   -1    0    0    0    0 -0.00000000000E+00 -0.00000000000E+00 -0.45593999997E+02  0.45594000000E+02  0.51100000000E-03 0.  1.
    9900012    2    1    2    0    0 -0.11124576105E+02  0.37526416600E+02  0.11007658583E+02  0.50528970452E+02  0.30000336183E+02 0.  0.
        -12    1    1    2    0    0  0.11124576105E+02 -0.37526416600E+02 -0.11007658583E+02  0.40659029548E+02  0.00000000000E+00 0.  1.
         11    1    3    3    0    0 -0.98248392598E+01  0.18768004009E+02  0.20116611350E+01  0.21279384900E+02  0.51100000000E-03 0. -1.
        -11    1    3    3    0    0 -0.36102270989E+01  0.76869680928E+01  0.14397788921E+02  0.16715847099E+02  0.51100000000E-03 0.  1.
        -12    1    3    3    0    0  0.23104902536E+01  0.11071444498E+02 -0.54017914725E+01  0.12533738453E+02  0.00000000000E+00 0.  1.
</event>
<event>
 7    1  0.4878192E-011  0.5052886E+02  0.7816164E-02  0.1300439E+00
        -11   -1    0    0    0    0  0.00000000000E+00  0.00000000000E+00  0.45593999997E+02  0.45594000000E+02  0.51100000000E-03 0.  1.
         11   -1    0    0    0    0 -0.00000000000E+00 -0.00000000000E+00 -0.45593999997E+02  0.45594000000E+02  0.51100000000E-03 0. -1.
    9900012    2    1    2    0    0 -0.19356323946E+02 -0.28636915899E+02 -0.21410869930E+02  0.50528861051E+02  0.30000003651E+02 0.  0.
        -12    1    1    2    0    0  0.19356323946E+02  0.28636915899E+02  0.21410869930E+02  0.40659138949E+02  0.00000000000E+00 0.  1.
         11    1    3    3    0    0 -0.30439900298E+00 -0.23701438739E+01 -0.13985123195E+01  0.27687682650E+01  0.51100000000E-03 0. -1.
        -11    1    3    3    0    0  0.53799185137E+01 -0.14847278550E+02 -0.11301618519E+02  0.19419366235E+02  0.51100000000E-03 0.  1.
        -12    1    3    3    0    0 -0.24431843457E+02 -0.11419493475E+02 -0.87107390910E+01  0.28340726551E+02  0.00000000000E+00 0.  1.
</event>
<event>
 7    1  0.4878192E-011  0.5052885E+02  0.7816164E-02  0.1300439E+00
        -11   -1    0    0    0    0  0.00000000000E+00  0.00000000000E+00  0.45593999997E+02  0.45594000000E+02  0.51100000000E-03 0.  1.
         11   -1    0    0    0    0 -0.00000000000E+00 -0.00000000000E+00 -0.45593999997E+02  0.45594000000E+02  0.51100000000E-03 0. -1.
    9900012    2    1    2    0    0  0.39775933174E+02  0.67371851745E+00 -0.84016634516E+01  0.50528847214E+02  0.29999961591E+02 0.  0.
        -12    1    1    2    0    0 -0.39775933174E+02 -0.67371851745E+00  0.84016634516E+01  0.40659152786E+02  0.00000000000E+00 0.  1.
         11    1    3    3    0    0  0.67022636792E+01 -0.97062605406E+01 -0.61569049927E+01  0.13305612029E+02  0.51100000000E-03 0. -1.
        -11    1    3    3    0    0  0.15982155565E+02  0.11858577011E+02 -0.25591395334E+01  0.20065002881E+02  0.51100000000E-03 0.  1.
         12    1    3    3    0    0  0.17091513930E+02 -0.14785979525E+01  0.31438107444E+00  0.17158232304E+02  0.00000000000E+00 0. -1.
</event>
<event>
 7    1  0.4878192E-011  0.5052886E+02  0.7816164E-02  0.1300439E+00
        -11   -1    0    0    0    0  0.00000000000E+00  0.00000000000E+00  0.45593999997E+02  0.45594000000E+02  0.51100000000E-03 0. -1.
         11   -1    0    0    0    0 -0.00000000000E+00 -0.00000000000E+00 -0.45593999997E+02  0.45594000000E+02  0.51100000000E-03 0.  1.
    9900012    2    1    2    0    0  0.13947931863E+02  0.37022801574E+02  0.93772660272E+01  0.50528858865E+02  0.29999997007E+02 0.  0.
        -12    1    1    2    0    0 -0.13947931863E+02 -0.37022801574E+02 -0.93772660272E+01  0.40659141135E+02  0.00000000000E+00 0.  1.
         11    1    3    3    0    0 -0.45145800127E+00  0.13418526035E+02 -0.12681991353E+01  0.13485880935E+02  0.51100000000E-03 0. -1.
        -11    1    3    3    0    0  0.15854827877E+02  0.65567443474E+01  0.10132562374E+02  0.19925744251E+02  0.51100000000E-03 0.  1.
        -12    1    3    3    0    0 -0.14554380127E+01  0.17047531192E+02  0.51290278827E+00  0.17117233679E+02  0.00000000000E+00 0.  1.
</event>
<event>
 7    1  0.4878192E-011  0.5052887E+02  0.7816164E-02  0.1300439E+00
        -11   -1    0    0    0    0  0.00000000000E+00  0.00000000000E+00  0.45593999997E+02  0.45594000000E+02  0.51100000000E-03 0.  1.
         11   -1    0    0    0    0 -0.00000000000E+00 -0.00000000000E+00 -0.45593999997E+02  0.45594000000E+02  0.51100000000E-03 0. -1.
    9900012    2    1    2    0    0  0.21310532536E+01 -0.40418428671E+02  0.38696660751E+01  0.50528867204E+02  0.30000022353E+02 0.  0.
        -12    1    1    2    0    0 -0.21310532536E+01  0.40418428671E+02 -0.38696660751E+01  0.40659132796E+02  0.00000000000E+00 0.  1.
         11    1    3    3    0    0 -0.95639318835E+01 -0.15907557943E+02 -0.84063493230E+01  0.20376111061E+02  0.51100000000E-03 0. -1.
        -11    1    3    3    0    0  0.35814525984E+01 -0.35279706054E+01  0.26499746483E+01  0.56829345593E+01  0.51100000000E-03 0.  1.
         12    1    3    3    0    0  0.81135325387E+01 -0.20982900122E+02  0.96260407498E+01  0.24469821583E+02  0.00000000000E+00 0. -1.
</event>
<event>
 7    1  0.4878192E-011  0.5052890E+02  0.7816164E-02  0.1300439E+00
        -11   -1    0    0    0    0  0.00000000000E+00  0.00000000000E+00  0.45593999997E+02  0.45594000000E+02  0.51100000000E-03 0.  1.
         11   -1    0    0    0    0 -0.00000000000E+00 -0.00000000000E+00 -0.45593999997E+02  0.45594000000E+02  0.51100000000E-03 0. -1.
    9900012    2    1    2    0    0 -0.52476811196E+00  0.20405990807E+02 -0.35163651137E+02  0.50528902572E+02  0.30000129857E+02 0.  0.
        -12    1    1    2    0    0  0.52476811196E+00 -0.20405990807E+02  0.35163651137E+02  0.40659097428E+02  0.00000000000E+00 0.  1.
         11    1    3    3    0    0 -0.63409551652E+01  0.12194251881E+02 -0.36640265417E+01  0.14224365789E+02  0.51100000000E-03 0. -1.
        -11    1    3    3    0    0 -0.23616961968E+01 -0.15098199638E+01 -0.16095357106E+02  0.16337615674E+02  0.51100000000E-03 0.  1.
         12    1    3    3    0    0  0.81778832500E+01  0.97215588902E+01 -0.15404267489E+02  0.19966921109E+02  0.00000000000E+00 0. -1.
</event>
<event>
 7    1  0.4878192E-011  0.5052886E+02  0.7816164E-02  0.1300439E+00
        -11   -1    0    0    0    0  0.00000000000E+00  0.00000000000E+00  0.45593999997E+02  0.45594000000E+02  0.51100000000E-03 0.  1.
         11   -1    0    0    0    0 -0.00000000000E+00 -0.00000000000E+00 -0.45593999997E+02  0.45594000000E+02  0.51100000000E-03 0. -1.
    9900012    2    1    2    0    0 -0.35298939576E+02 -0.17714438066E+02 -0.96617327517E+01  0.50528861655E+02  0.30000005487E+02 0.  0.
        -12    1    1    2    0    0  0.35298939576E+02  0.17714438066E+02  0.96617327517E+01  0.40659138345E+02  0.00000000000E+00 0.  1.
         11    1    3    3    0    0 -0.35423100941E+02 -0.15902072567E+02 -0.78707526126E+01  0.39618439384E+02  0.51100000000E-03 0. -1.
        -11    1    3    3    0    0  0.21387741019E+01 -0.35580740234E+01  0.32070736436E+01  0.52459095524E+01  0.51100000000E-03 0.  1.
         12    1    3    3    0    0 -0.20146127365E+01  0.17457085248E+01 -0.49980537826E+01  0.56645127192E+01  0.00000000000E+00 0. -1.
</event>
<event>
 7    1  0.4878192E-011  0.5052879E+02  0.7816164E-02  0.1300439E+00
        -11   -1    0    0    0    0  0.00000000000E+00  0.00000000000E+00  0.45593999997E+02  0.45594000000E+02  0.51100000000E-03 0. -1.
         11   -1    0    0    0    0 -0.00000000000E+00 -0.00000000000E+00 -0.45593999997E+02  0.45594000000E+02  0.51100000000E-03 0.  1.
    9900012    2    1    2    0    0  0.11938671708E+00  0.40654409155E+02 -0.61318850866E+00  0.50528791485E+02  0.29999792197E+02 0.  0.
        -12    1    1    2    0    0 -0.11938671708E+00 -0.40654409155E+02  0.61318850866E+00  0.40659208515E+02  0.00000000000E+00 0.  1.
         11    1    3    3    0    0 -0.59016345070E+01  0.21629955729E+02  0.72720588814E+01  0.23570471258E+02  0.51100000000E-03 0. -1.
        -11    1    3    3    0    0 -0.27657590891E+01  0.26995052934E+01 -0.74742107289E+01  0.84143079602E+01  0.51100000000E-03 0.  1.
         12    1    3    3    0    0  0.87867803132E+01  0.16324948133E+02 -0.41103666113E+00  0.18544012267E+02  0.00000000000E+00 0. -1.
</event>
<event>
 7    1  0.4878192E-011  0.5052886E+02  0.7816164E-02  0.1300439E+00
        -11   -1    0    0    0    0  0.00000000000E+00  0.00000000000E+00  0.45593999997E+02  0.45594000000E+02  0.51100000000E-03 0.  1.
         11   -1    0    0    0    0 -0.00000000000E+00 -0.00000000000E+00 -0.45593999997E+02  0.45594000000E+02  0.51100000000E-03 0. -1.
    9900012    2    1    2    0    0 -0.26053820695E+02  0.23397625597E+02 -0.20661933981E+02  0.50528856228E+02  0.29999988992E+02 0.  0.
        -12    1    1    2    0    0  0.26053820695E+02 -0.23397625597E+02  0.20661933981E+02  0.40659143772E+02  0.00000000000E+00 0.  1.
         11    1    3    3    0    0 -0.22133380222E+02  0.16774544376E+02 -0.80487138499E+01  0.28914592406E+02  0.51100000000E-03 0. -1.
        -11    1    3    3    0    0  0.45686372507E+01  0.55853375200E+01 -0.11416739925E+01  0.73056047872E+01  0.51100000000E-03 0.  1.
        -12    1    3    3    0    0 -0.84890777233E+01  0.10377437012E+01 -0.11471546139E+02  0.14308659036E+02  0.00000000000E+00 0.  1.
</event>
<event>
 7    1  0.4878192E-011  0.5052886E+02  0.7816164E-02  0.1300439E+00
        -11   -1    0    0    0    0  0.00000000000E+00  0.00000000000E+00  0.45593999997E+02  0.45594000000E+02  0.51100000000E-03 0.  1.
         11   -1    0    0    0    0 -0.00000000000E+00 -0.00000000000E+00 -0.45593999997E+02  0.45594000000E+02  0.51100000000E-03 0. -1.
    9900012    2    1    2    0    0 -0.36425698259E+01 -0.47546162899E+01 -0.40215551464E+02  0.50528864857E+02  0.30000015220E+02 0.  0.
        -12    1    1    2    0    0  0.36425698259E+01  0.47546162899E+01  0.40215551464E+02  0.40659135143E+02  0.00000000000E+00 0.  1.
         11    1    3    3    0    0  0.10970828592E+01  0.26750924733E+01 -0.20535673293E+02  0.20738215651E+02  0.51100000000E-03 0. -1.
        -11    1    3    3    0    0  0.11683365545E+01  0.80539459108E+00  0.38864035798E+01  0.41373667711E+01  0.51100000000E-03 0.  1.
        -12    1    3    3    0    0 -0.59079892397E+01 -0.82351033543E+01 -0.23566281751E+02  0.25653282435E+02  0.00000000000E+00 0.  1.
</event>
<event>
 7    1  0.4878192E-011  0.5052887E+02  0.7816164E-02  0.1300439E+00
        -11   -1    0    0    0    0  0.00000000000E+00  0.00000000000E+00  0.45593999997E+02  0.45594000000E+02  0.51100000000E-03 0. -1.
         11   -1    0    0    0    0 -0.00000000000E+00 -0.00000000000E+00 -0.45593999997E+02  0.45594000000E+02  0.51100000000E-03 0.  1.
    9900012    2    1    2    0    0 -0.33123596535E+02 -0.98688775239E+01  0.21414893605E+02  0.50528867457E+02  0.30000023124E+02 0.  0.
        -12    1    1    2    0    0  0.33123596535E+02  0.98688775239E+01 -0.21414893605E+02  0.40659132543E+02  0.00000000000E+00 0.  1.
         11    1    3    3    0    0 -0.52346541648E+01 -0.79349348386E+01  0.19353974191E+02  0.21562493185E+02  0.51100000000E-03 0. -1.
        -11    1    3    3    0    0 -0.45714038443E+01 -0.26450345309E+01 -0.11863471802E+01  0.54130731263E+01  0.51100000000E-03 0.  1.
         12    1    3    3    0    0 -0.23317538526E+02  0.71109184555E+00  0.32472665937E+01  0.23553301146E+02  0.00000000000E+00 0. -1.
</event>
<event>
 7    1  0.4878192E-011  0.5052887E+02  0.7816164E-02  0.1300439E+00
        -11   -1    0    0    0    0  0.00000000000E+00  0.00000000000E+00  0.45593999997E+02  0.45594000000E+02  0.51100000000E-03 0.  1.
         11   -1    0    0    0    0 -0.00000000000E+00 -0.00000000000E+00 -0.45593999997E+02  0.45594000000E+02  0.51100000000E-03 0. -1.
    9900012    2    1    2    0    0  0.21797569199E+02  0.17704869003E+02 -0.29403547132E+02  0.50528868266E+02  0.30000025581E+02 0.  0.
        -12    1    1    2    0    0 -0.21797569199E+02 -0.17704869003E+02  0.29403547132E+02  0.40659131734E+02  0.00000000000E+00 0.  1.
         11    1    3    3    0    0  0.12466259480E+02 -0.16166870726E+01 -0.22777061684E+01  0.12775337497E+02  0.51100000000E-03 0.  1.
        -11    1    3    3    0    0  0.70415458745E+01  0.12528582890E+02 -0.62331955632E+01  0.15665295552E+02  0.51100000000E-03 0. -1.
         12    1    3    3    0    0  0.22897638447E+01  0.67929731859E+01 -0.20892645401E+02  0.22088235217E+02  0.00000000000E+00 0. -1.
</event>
<event>
 7    1  0.4878192E-011  0.5052885E+02  0.7816164E-02  0.1300439E+00
        -11   -1    0    0    0    0  0.00000000000E+00  0.00000000000E+00  0.45593999997E+02  0.45594000000E+02  0.51100000000E-03 0.  1.
         11   -1    0    0    0    0 -0.00000000000E+00 -0.00000000000E+00 -0.45593999997E+02  0.45594000000E+02  0.51100000000E-03 0. -1.
    9900012    2    1    2    0    0 -0.59829173663E+01  0.34620758778E+02 -0.20463969398E+02  0.50528852418E+02  0.29999977409E+02 0.  0.
        -12    1    1    2    0    0  0.59829173663E+01 -0.34620758778E+02  0.20463969398E+02  0.40659147582E+02  0.00000000000E+00 0.  1.
         11    1    3    3    0    0 -0.26058674214E+01  0.12349731070E+02 -0.17604356023E+02  0.21661480876E+02  0.51100000000E-03 0. -1.
        -11    1    3    3    0    0 -0.62813908204E+01  0.73501976174E+00  0.19352222685E+01  0.66137137963E+01  0.51100000000E-03 0.  1.
         12    1    3    3    0    0  0.29043408755E+01  0.21536007946E+02 -0.47948356438E+01  0.22253657745E+02  0.00000000000E+00 0. -1.
</event>
<event>
 7    1  0.4878192E-011  0.5052895E+02  0.7816164E-02  0.1300438E+00
        -11   -1    0    0    0    0  0.00000000000E+00  0.00000000000E+00  0.45593999997E+02  0.45594000000E+02  0.51100000000E-03 0.  1.
         11   -1    0    0    0    0 -0.00000000000E+00 -0.00000000000E+00 -0.45593999997E+02  0.45594000000E+02  0.51100000000E-03 0. -1.
    9900012    2    1    2    0    0  0.36744638751E+02 -0.17358354272E+02 -0.12952162016E+01  0.50528947810E+02  0.30000267362E+02 0.  0.
        -12    1    1    2    0    0 -0.36744638751E+02  0.17358354272E+02  0.12952162016E+01  0.40659052190E+02  0.00000000000E+00 0.  1.
         11    1    3    3    0    0  0.16875221048E+02  0.41252859095E-01  0.43932167637E+01  0.17437750458E+02  0.51100000000E-03 0.  1.
        -11    1    3    3    0    0  0.15136272704E+02 -0.20168469711E+02 -0.36837357244E-01  0.25216567552E+02  0.51100000000E-03 0. -1.
        -12    1    3    3    0    0  0.47331449992E+01  0.27688625800E+01 -0.56515956081E+01  0.78746298000E+01  0.00000000000E+00 0.  1.
</event>
<event>
 7    1  0.4878192E-011  0.5052886E+02  0.7816164E-02  0.1300439E+00
        -11   -1    0    0    0    0  0.00000000000E+00  0.00000000000E+00  0.45593999997E+02  0.45594000000E+02  0.51100000000E-03 0. -1.
         11   -1    0    0    0    0 -0.00000000000E+00 -0.00000000000E+00 -0.45593999997E+02  0.45594000000E+02  0.51100000000E-03 0.  1.
    9900012    2    1    2    0    0 -0.27629781207E+02  0.29590702148E+02 -0.37618064635E+01  0.50528860178E+02  0.30000000998E+02 0.  0.
        -12    1    1    2    0    0  0.27629781207E+02 -0.29590702148E+02  0.37618064635E+01  0.40659139822E+02  0.00000000000E+00 0.  1.
         11    1    3    3    0    0 -0.67758444005E+01 -0.41419646623E+00 -0.28317937721E+01  0.73554525545E+01  0.51100000000E-03 0. -1.
        -11    1    3    3    0    0 -0.50337416968E+01  0.24612853612E+02 -0.57629456452E+01  0.25774845512E+02  0.51100000000E-03 0.  1.
        -12    1    3    3    0    0 -0.15820195110E+02  0.53920450022E+01  0.48329329538E+01  0.17398562112E+02  0.00000000000E+00 0.  1.
</event>
<event>
 7    1  0.4878192E-011  0.5052885E+02  0.7816164E-02  0.1300439E+00
        -11   -1    0    0    0    0  0.00000000000E+00  0.00000000000E+00  0.45593999997E+02  0.45594000000E+02  0.51100000000E-03 0.  1.
         11   -1    0    0    0    0 -0.00000000000E+00 -0.00000000000E+00 -0.45593999997E+02  0.45594000000E+02  0.51100000000E-03 0. -1.
    9900012    2    1    2    0    0 -0.87657307189E+01  0.49091587679E+01 -0.39398331678E+02  0.50528850797E+02  0.29999972483E+02 0.  0.
        -12    1    1    2    0    0  0.87657307189E+01 -0.49091587679E+01  0.39398331678E+02  0.40659149203E+02  0.00000000000E+00 0.  1.
         11    1    3    3    0    0 -0.18614861274E+02  0.58435233101E+01 -0.32854588357E+02  0.38211042924E+02  0.51100000000E-03 0. -1.
        -11    1    3    3    0    0  0.29645801570E+01 -0.15993569994E+01 -0.31566725879E+01  0.46164120708E+01  0.51100000000E-03 0.  1.
         12    1    3    3    0    0  0.68845503985E+01  0.66499245715E+00 -0.33870707332E+01  0.77013958026E+01  0.00000000000E+00 0. -1.
</event>
<event>
 7    1  0.4878192E-011  0.5052886E+02  0.7816164E-02  0.1300439E+00
        -11   -1    0    0    0    0  0.00000000000E+00  0.00000000000E+00  0.45593999997E+02  0.45594000000E+02  0.51100000000E-03 0.  1.
         11   -1    0    0    0    0 -0.00000000000E+00 -0.00000000000E+00 -0.45593999997E+02  0.45594000000E+02  0.51100000000E-03 0. -1.
    9900012    2    1    2    0    0 -0.48054101788E+01 -0.34115738316E+02 -0.21591434655E+02  0.50528860581E+02  0.30000002222E+02 0.  0.
        -12    1    1    2    0    0  0.48054101788E+01  0.34115738316E+02  0.21591434655E+02  0.40659139419E+02  0.00000000000E+00 0.  1.
         11    1    3    3    0    0  0.57923130683E+01 -0.12147835838E+01 -0.82641642695E+01  0.10164792235E+02  0.51100000000E-03 0. -1.
        -11    1    3    3    0    0 -0.76754958330E+01 -0.20234297435E+02  0.14658925116E+00  0.21641661619E+02  0.51100000000E-03 0.  1.
        -12    1    3    3    0    0 -0.29222274142E+01 -0.12666657298E+02 -0.13473859637E+02  0.18722406727E+02  0.00000000000E+00 0.  1.
</event>
<event>
 7    1  0.4878192E-011  0.5052885E+02  0.7816164E-02  0.1300439E+00
        -11   -1    0    0    0    0  0.00000000000E+00  0.00000000000E+00  0.45593999997E+02  0.45594000000E+02  0.51100000000E-03 0.  1.
         11   -1    0    0    0    0 -0.00000000000E+00 -0.00000000000E+00 -0.45593999997E+02  0.45594000000E+02  0.51100000000E-03 0. -1.
    9900012    2    1    2    0    0 -0.20581280229E+02  0.79009336508E+01 -0.34163621108E+02  0.50528845365E+02  0.29999955972E+02 0.  0.
        -12    1    1    2    0    0  0.20581280229E+02 -0.79009336508E+01  0.34163621108E+02  0.40659154635E+02  0.00000000000E+00 0.  1.
         11    1    3    3    0    0 -0.85823960232E+01  0.12751273907E+01 -0.60459527098E+01  0.10575302161E+02  0.51100000000E-03 0. -1.
        -11    1    3    3    0    0 -0.10887625952E+01  0.11840935119E+02 -0.24658836516E+02  0.27376109422E+02  0.51100000000E-03 0.  1.
        -12    1    3    3    0    0 -0.10910121611E+02 -0.52151288587E+01 -0.34588318821E+01  0.12577433783E+02  0.00000000000E+00 0.  1.
</event>
<event>
 7    1  0.4878192E-011  0.5052886E+02  0.7816164E-02  0.1300439E+00
        -11   -1    0    0    0    0  0.00000000000E+00  0.00000000000E+00  0.45593999997E+02  0.45594000000E+02  0.51100000000E-03 0. -1.
         11   -1    0    0    0    0 -0.00000000000E+00 -0.00000000000E+00 -0.45593999997E+02  0.45594000000E+02  0.51100000000E-03 0.  1.
    9900012    2    1    2    0    0 -0.60079183142E+01  0.13351156265E+02  0.37931744770E+02  0.50528859363E+02  0.29999998520E+02 0.  0.
        -12    1    1    2    0    0  0.60079183142E+01 -0.13351156265E+02 -0.37931744770E+02  0.40659140637E+02  0.00000000000E+00 0.  1.
         11    1    3    3    0    0 -0.66103565453E+01  0.14613704023E+02  0.26522308984E+02  0.30995000130E+02  0.51100000000E-03 0. -1.
        -11    1    3    3    0    0  0.72813850824E+01 -0.11069376618E+01  0.13957227581E+01  0.74961271323E+01  0.51100000000E-03 0.  1.
        -12    1    3    3    0    0 -0.66789468513E+01 -0.15561009620E+00  0.10013713027E+02  0.12037732101E+02  0.00000000000E+00 0.  1.
</event>
<event>
 7    1  0.4878192E-011  0.5052885E+02  0.7816164E-02  0.1300439E+00
        -11   -1    0    0    0    0  0.00000000000E+00  0.00000000000E+00  0.45593999997E+02  0.45594000000E+02  0.51100000000E-03 0.  1.
         11   -1    0    0    0    0 -0.00000000000E+00 -0.00000000000E+00 -0.45593999997E+02  0.45594000000E+02  0.51100000000E-03 0. -1.
    9900012    2    1    2    0    0  0.46036174223E+01  0.22090664138E+02 -0.33822708215E+02  0.50528851872E+02  0.29999975751E+02 0.  0.
        -12    1    1    2    0    0 -0.46036174223E+01 -0.22090664138E+02  0.33822708215E+02  0.40659148128E+02  0.00000000000E+00 0.  1.
         11    1    3    3    0    0  0.28578114340E+01  0.24927264490E+01 -0.22777028932E+02  0.23090556913E+02  0.51100000000E-03 0. -1.
        -11    1    3    3    0    0  0.69308778865E+01  0.17208449853E+02 -0.51989713463E+01  0.19266476532E+02  0.51100000000E-03 0.  1.
        -12    1    3    3    0    0 -0.51850718982E+01  0.23894878361E+01 -0.58467079373E+01  0.81718184275E+01  0.00000000000E+00 0.  1.
</event>
<event>
 7    1  0.4878192E-011  0.5052886E+02  0.7816164E-02  0.1300439E+00
        -11   -1    0    0    0    0  0.00000000000E+00  0.00000000000E+00  0.45593999997E+02  0.45594000000E+02  0.51100000000E-03 0. -1.
         11   -1    0    0    0    0 -0.00000000000E+00 -0.00000000000E+00 -0.45593999997E+02  0.45594000000E+02  0.51100000000E-03 0.  1.
    9900012    2    1    2    0    0 -0.18299674974E+02  0.15902119083E+02  0.32640619107E+02  0.50528861898E+02  0.30000006225E+02 0.  0.
        -12    1    1    2    0    0  0.18299674974E+02 -0.15902119083E+02 -0.32640619107E+02  0.40659138102E+02  0.00000000000E+00 0.  1.
         11    1    3    3    0    0 -0.21727357534E+02  0.49626998202E+01  0.13843542787E+02  0.26236427579E+02  0.51100000000E-03 0. -1.
        -11    1    3    3    0    0 -0.11795784608E+01  0.72277260445E+01  0.39736708198E+01  0.83319559027E+01  0.51100000000E-03 0.  1.
         12    1    3    3    0    0  0.46072610208E+01  0.37116932179E+01  0.14823405500E+02  0.15960478417E+02  0.00000000000E+00 0. -1.
</event>
<event>
 7    1  0.4878192E-011  0.5052887E+02  0.7816164E-02  0.1300439E+00
        -11   -1    0    0    0    0  0.00000000000E+00  0.00000000000E+00  0.45593999997E+02  0.45594000000E+02  0.51100000000E-03 0.  1.
         11   -1    0    0    0    0 -0.00000000000E+00 -0.00000000000E+00 -0.45593999997E+02  0.45594000000E+02  0.51100000000E-03 0. -1.
    9900012    2    1    2    0    0  0.90797332128E+01  0.34551268472E+02  0.19414762775E+02  0.50528871606E+02  0.30000035732E+02 0.  0.
        -12    1    1    2    0    0 -0.90797332128E+01 -0.34551268472E+02 -0.19414762775E+02  0.40659128394E+02  0.00000000000E+00 0.  1.
         11    1    3    3    0    0  0.12821874679E+02  0.34104736772E+01  0.70040487385E+01  0.15002949709E+02  0.51100000000E-03 0. -1.
        -11    1    3    3    0    0 -0.43878312422E+01  0.37176336756E+01  0.32508970823E+01  0.66062239787E+01  0.51100000000E-03 0.  1.
         12    1    3    3    0    0  0.64568977622E+00  0.27423161119E+02  0.91598169538E+01  0.28919697918E+02  0.00000000000E+00 0. -1.
</event>
<event>
 7    1  0.4878192E-011  0.5052888E+02  0.7816164E-02  0.1300439E+00
        -11   -1    0    0    0    0  0.00000000000E+00  0.00000000000E+00  0.45593999997E+02  0.45594000000E+02  0.51100000000E-03 0. -1.
         11   -1    0    0    0    0 -0.00000000000E+00 -0.00000000000E+00 -0.45593999997E+02  0.45594000000E+02  0.51100000000E-03 0.  1.
    9900012    2    1    2    0    0  0.34728696583E+01 -0.40003984062E+02 -0.63862908955E+01  0.50528877089E+02  0.30000052400E+02 0.  0.
        -12    1    1    2    0    0 -0.34728696583E+01  0.40003984062E+02  0.63862908955E+01  0.40659122911E+02  0.00000000000E+00 0.  1.
         11    1    3    3    0    0  0.10248158648E+02 -0.19481407384E+02 -0.10673413115E+02  0.24463682003E+02  0.51100000000E-03 0.  1.
        -11    1    3    3    0    0 -0.80110191960E+01 -0.45021383196E+01  0.39264207712E+01  0.99931205507E+01  0.51100000000E-03 0. -1.
         12    1    3    3    0    0  0.12357302059E+01 -0.16020438358E+02  0.36070144863E+00  0.16072074535E+02  0.00000000000E+00 0. -1.
</event>
<event>
 7    1  0.4878192E-011  0.5052886E+02  0.7816164E-02  0.1300439E+00
        -11   -1    0    0    0    0  0.00000000000E+00  0.00000000000E+00  0.45593999997E+02  0.45594000000E+02  0.51100000000E-03 0.  1.
         11   -1    0    0    0    0 -0.00000000000E+00 -0.00000000000E+00 -0.45593999997E+02  0.45594000000E+02  0.51100000000E-03 0. -1.
    9900012    2    1    2    0    0  0.25350497235E+02 -0.66106190492E+01 -0.31093695747E+02  0.50528857000E+02  0.29999991338E+02 0.  0.
        -12    1    1    2    0    0 -0.25350497235E+02  0.66106190492E+01  0.31093695747E+02  0.40659143000E+02  0.00000000000E+00 0.  1.
         11    1    3    3    0    0  0.51803199527E+01  0.25510539665E+00 -0.40848488197E+01  0.66020287577E+01  0.51100000000E-03 0. -1.
        -11    1    3    3    0    0  0.16224245875E+02 -0.13214451160E+02 -0.62120780295E+01  0.21827454900E+02  0.51100000000E-03 0.  1.
        -12    1    3    3    0    0  0.39459314068E+01  0.63487267146E+01 -0.20796768898E+02  0.22099373343E+02  0.00000000000E+00 0.  1.
</event>
<event>
 7    1  0.4878192E-011  0.5052886E+02  0.7816164E-02  0.1300439E+00
        -11   -1    0    0    0    0  0.00000000000E+00  0.00000000000E+00  0.45593999997E+02  0.45594000000E+02  0.51100000000E-03 0.  1.
         11   -1    0    0    0    0 -0.00000000000E+00 -0.00000000000E+00 -0.45593999997E+02  0.45594000000E+02  0.51100000000E-03 0. -1.
    9900012    2    1    2    0    0 -0.25355503033E+02 -0.91832148895E+01 -0.30429141381E+02  0.50528860622E+02  0.30000002347E+02 0.  0.
        -12    1    1    2    0    0  0.25355503033E+02  0.91832148895E+01  0.30429141381E+02  0.40659139378E+02  0.00000000000E+00 0.  1.
         11    1    3    3    0    0 -0.17012984785E+02 -0.83922166248E+01 -0.30169959966E+02  0.35638426393E+02  0.51100000000E-03 0. -1.
        -11    1    3    3    0    0  0.30694775460E+01 -0.64939548124E+00 -0.13702731837E+01  0.34236027450E+01  0.51100000000E-03 0.  1.
         12    1    3    3    0    0 -0.11411995794E+02 -0.14160278348E+00  0.11110917691E+01  0.11466831484E+02  0.00000000000E+00 0. -1.
</event>
<event>
 7    1  0.4878192E-011  0.5052886E+02  0.7816164E-02  0.1300439E+00
        -11   -1    0    0    0    0  0.00000000000E+00  0.00000000000E+00  0.45593999997E+02  0.45594000000E+02  0.51100000000E-03 0. -1.
         11   -1    0    0    0    0 -0.00000000000E+00 -0.00000000000E+00 -0.45593999997E+02  0.45594000000E+02  0.51100000000E-03 0.  1.
    9900012    2    1    2    0    0 -0.39882955570E+02  0.79015980995E+01 -0.28345203200E+00  0.50528859052E+02  0.29999997575E+02 0.  0.
        -12    1    1    2    0    0  0.39882955570E+02 -0.79015980995E+01  0.28345203200E+00  0.40659140948E+02  0.00000000000E+00 0.  1.
         11    1    3    3    0    0 -0.37360833486E+02  0.61039356787E+01  0.32754331868E+01  0.37997610088E+02  0.51100000000E-03 0. -1.
        -11    1    3    3    0    0  0.73000452993E+00  0.28868212347E+01  0.35528833984E+01  0.46356902570E+01  0.51100000000E-03 0.  1.
         12    1    3    3    0    0 -0.32521266139E+01 -0.10891588139E+01 -0.71117686172E+01  0.78955587073E+01  0.00000000000E+00 0. -1.
</event>
<event>
 7    1  0.4878192E-011  0.5052886E+02  0.7816164E-02  0.1300439E+00
        -11   -1    0    0    0    0  0.00000000000E+00  0.00000000000E+00  0.45593999997E+02  0.45594000000E+02  0.51100000000E-03 0. -1.
         11   -1    0    0    0    0 -0.00000000000E+00 -0.00000000000E+00 -0.45593999997E+02  0.45594000000E+02  0.51100000000E-03 0.  1.
    9900012    2    1    2    0    0  0.38053721784E+02 -0.14302949189E+02 -0.71100890203E+00  0.50528860428E+02  0.30000001756E+02 0.  0.
        -12    1    1    2    0    0 -0.38053721784E+02  0.14302949189E+02  0.71100890203E+00  0.40659139572E+02  0.00000000000E+00 0.  1.
         11    1    3    3    0    0  0.45926570255E+01 -0.13016041541E+02 -0.66454903172E+01  0.15319020130E+02  0.51100000000E-03 0. -1.
        -11    1    3    3    0    0  0.25399435211E+02 -0.97943970798E+00  0.84060707256E+01  0.26772236299E+02  0.51100000000E-03 0.  1.
         12    1    3    3    0    0  0.80616295478E+01 -0.30746794004E+00 -0.24715893105E+01  0.84376039976E+01  0.00000000000E+00 0. -1.
</event>
<event>
 7    1  0.4878192E-011  0.5052894E+02  0.7816164E-02  0.1300439E+00
        -11   -1    0    0    0    0  0.00000000000E+00  0.00000000000E+00  0.45593999997E+02  0.45594000000E+02  0.51100000000E-03 0. -1.
         11   -1    0    0    0    0 -0.00000000000E+00 -0.00000000000E+00 -0.45593999997E+02  0.45594000000E+02  0.51100000000E-03 0.  1.
    9900012    2    1    2    0    0  0.72884984813E+01 -0.39727693288E+02 -0.46634358754E+01  0.50528936334E+02  0.30000232479E+02 0.  0.
        -12    1    1    2    0    0 -0.72884984813E+01  0.39727693288E+02  0.46634358754E+01  0.40659063666E+02  0.00000000000E+00 0.  1.
         11    1    3    3    0    0  0.54420360887E+01 -0.10094968935E+02  0.11574424409E+02  0.16293908532E+02  0.51100000000E-03 0. -1.
        -11    1    3    3    0    0  0.92296672600E+00 -0.28286424945E+02 -0.14325447399E+02  0.31720531950E+02  0.51100000000E-03 0.  1.
         12    1    3    3    0    0  0.92349566654E+00 -0.13462994072E+01 -0.19124128857E+01  0.25144958511E+01  0.00000000000E+00 0. -1.
</event>
<event>
 7    1  0.4878192E-011  0.5052886E+02  0.7816164E-02  0.1300439E+00
        -11   -1    0    0    0    0  0.00000000000E+00  0.00000000000E+00  0.45593999997E+02  0.45594000000E+02  0.51100000000E-03 0. -1.
         11   -1    0    0    0    0 -0.00000000000E+00 -0.00000000000E+00 -0.45593999997E+02  0.45594000000E+02  0.51100000000E-03 0.  1.
    9900012    2    1    2    0    0 -0.64383375719E+01 -0.37327615068E+02  0.14777108651E+02  0.50528856164E+02  0.29999988797E+02 0.  0.
        -12    1    1    2    0    0  0.64383375719E+01  0.37327615068E+02 -0.14777108651E+02  0.40659143836E+02  0.00000000000E+00 0.  1.
         11    1    3    3    0    0 -0.34441769757E+01 -0.13887408850E+02 -0.39400437667E+01  0.14840701626E+02  0.51100000000E-03 0.  1.
        -11    1    3    3    0    0 -0.45126017439E+01 -0.16250378482E+02  0.21932409237E+02  0.27667109544E+02  0.51100000000E-03 0. -1.
         12    1    3    3    0    0  0.15184411477E+01 -0.71898277364E+01 -0.32152568187E+01  0.80210449948E+01  0.00000000000E+00 0. -1.
</event>
<event>
 7    1  0.4878192E-011  0.5052886E+02  0.7816164E-02  0.1300439E+00
        -11   -1    0    0    0    0  0.00000000000E+00  0.00000000000E+00  0.45593999997E+02  0.45594000000E+02  0.51100000000E-03 0.  1.
         11   -1    0    0    0    0 -0.00000000000E+00 -0.00000000000E+00 -0.45593999997E+02  0.45594000000E+02  0.51100000000E-03 0. -1.
    9900012    2    1    2    0    0 -0.35171441297E+02  0.19101440534E+01 -0.20309774202E+02  0.50528857592E+02  0.29999993137E+02 0.  0.
        -12    1    1    2    0    0  0.35171441297E+02 -0.19101440534E+01  0.20309774202E+02  0.40659142408E+02  0.00000000000E+00 0.  1.
         11    1    3    3    0    0 -0.30183734275E+02  0.11227311435E+02 -0.16926704453E+02  0.36381639060E+02  0.51100000000E-03 0. -1.
        -11    1    3    3    0    0 -0.17704506566E+01  0.13681693097E+01  0.56930994277E+00  0.23087868805E+01  0.51100000000E-03 0.  1.
         12    1    3    3    0    0 -0.32172563658E+01 -0.10685336691E+02 -0.39523796923E+01  0.11838431651E+02  0.00000000000E+00 0. -1.
</event>
<event>
 7    1  0.4878192E-011  0.5052885E+02  0.7816164E-02  0.1300439E+00
        -11   -1    0    0    0    0  0.00000000000E+00  0.00000000000E+00  0.45593999997E+02  0.45594000000E+02  0.51100000000E-03 0.  1.
         11   -1    0    0    0    0 -0.00000000000E+00 -0.00000000000E+00 -0.45593999997E+02  0.45594000000E+02  0.51100000000E-03 0. -1.
    9900012    2    1    2    0    0  0.32777326451E+02 -0.15317762259E+02  0.18552065685E+02  0.50528854521E+02  0.29999983801E+02 0.  0.
        -12    1    1    2    0    0 -0.32777326451E+02  0.15317762259E+02 -0.18552065685E+02  0.40659145479E+02  0.00000000000E+00 0.  1.
         11    1    3    3    0    0  0.93791056255E+01 -0.19032986957E+02  0.12703531953E+02  0.24730587118E+02  0.51100000000E-03 0. -1.
        -11    1    3    3    0    0  0.22730303423E+02  0.50433199337E+01  0.43471553468E+01  0.23685428633E+02  0.51100000000E-03 0.  1.
        -12    1    3    3    0    0  0.66791740294E+00 -0.13280952358E+01  0.15013783851E+01  0.21128387700E+01  0.00000000000E+00 0.  1.
</event>
<event>
 7    1  0.4878192E-011  0.5052884E+02  0.7816164E-02  0.1300439E+00
        -11   -1    0    0    0    0  0.00000000000E+00  0.00000000000E+00  0.45593999997E+02  0.45594000000E+02  0.51100000000E-03 0. -1.
         11   -1    0    0    0    0 -0.00000000000E+00 -0.00000000000E+00 -0.45593999997E+02  0.45594000000E+02  0.51100000000E-03 0.  1.
    9900012    2    1    2    0    0 -0.36196489586E+02 -0.18032472370E+02  0.42203103385E+01  0.50528844358E+02  0.29999952912E+02 0.  0.
        -12    1    1    2    0    0  0.36196489586E+02  0.18032472370E+02 -0.42203103385E+01  0.40659155642E+02  0.00000000000E+00 0.  1.
         11    1    3    3    0    0  0.81382786154E+00 -0.40750768040E+01  0.72816085766E+01  0.83839364544E+01  0.51100000000E-03 0.  1.
        -11    1    3    3    0    0 -0.26703885876E+02 -0.15907856265E+02 -0.49859637005E+01  0.31480426397E+02  0.51100000000E-03 0. -1.
        -12    1    3    3    0    0 -0.10306431571E+02  0.19504606991E+01  0.19246654623E+01  0.10664481507E+02  0.00000000000E+00 0.  1.
</event>
<event>
 7    1  0.4878192E-011  0.5052886E+02  0.7816164E-02  0.1300439E+00
        -11   -1    0    0    0    0  0.00000000000E+00  0.00000000000E+00  0.45593999997E+02  0.45594000000E+02  0.51100000000E-03 0.  1.
         11   -1    0    0    0    0 -0.00000000000E+00 -0.00000000000E+00 -0.45593999997E+02  0.45594000000E+02  0.51100000000E-03 0. -1.
    9900012    2    1    2    0    0  0.29437798726E+02  0.20865904023E+02  0.18740216439E+02  0.50528860108E+02  0.30000000785E+02 0.  0.
        -12    1    1    2    0    0 -0.29437798726E+02 -0.20865904023E+02 -0.18740216439E+02  0.40659139892E+02  0.00000000000E+00 0.  1.
         11    1    3    3    0    0  0.14223041094E+02  0.10508337964E+02  0.29962252951E+01  0.17935925708E+02  0.51100000000E-03 0. -1.
        -11    1    3    3    0    0 -0.53086752197E+01  0.74794470087E+00  0.73421510173E+00  0.54111483015E+01  0.51100000000E-03 0.  1.
        -12    1    3    3    0    0  0.20523432852E+02  0.96096213576E+01  0.15009776042E+02  0.27181786099E+02  0.00000000000E+00 0.  1.
</event>
<event>
 7    1  0.4878192E-011  0.5052886E+02  0.7816164E-02  0.1300439E+00
        -11   -1    0    0    0    0  0.00000000000E+00  0.00000000000E+00  0.45593999997E+02  0.45594000000E+02  0.51100000000E-03 0. -1.
         11   -1    0    0    0    0 -0.00000000000E+00 -0.00000000000E+00 -0.45593999997E+02  0.45594000000E+02  0.51100000000E-03 0.  1.
    9900012    2    1    2    0    0 -0.12362046056E+02  0.23070488284E+02  0.31114270159E+02  0.50528863021E+02  0.30000009639E+02 0.  0.
        -12    1    1    2    0    0  0.12362046056E+02 -0.23070488284E+02 -0.31114270159E+02  0.40659136979E+02  0.00000000000E+00 0.  1.
         11    1    3    3    0    0  0.32335207326E+01  0.88717001500E+01  0.97829654110E+01  0.13596658868E+02  0.51100000000E-03 0. -1.
        -11    1    3    3    0    0 -0.16914764622E+02  0.39039153166E+01  0.19976239023E+02  0.26465070239E+02  0.51100000000E-03 0.  1.
        -12    1    3    3    0    0  0.13191978339E+01  0.10294872817E+02  0.13550657251E+01  0.10467133914E+02  0.00000000000E+00 0.  1.
</event>
<event>
 7    1  0.4878192E-011  0.5052883E+02  0.7816164E-02  0.1300439E+00
        -11   -1    0    0    0    0  0.00000000000E+00  0.00000000000E+00  0.45593999997E+02  0.45594000000E+02  0.51100000000E-03 0.  1.
         11   -1    0    0    0    0 -0.00000000000E+00 -0.00000000000E+00 -0.45593999997E+02  0.45594000000E+02  0.51100000000E-03 0. -1.
    9900012    2    1    2    0    0 -0.28649287672E+02  0.25733943407E+02 -0.13044190978E+02  0.50528825812E+02  0.29999896538E+02 0.  0.
        -12    1    1    2    0    0  0.28649287672E+02 -0.25733943407E+02  0.13044190978E+02  0.40659174188E+02  0.00000000000E+00 0.  1.
         11    1    3    3    0    0 -0.16180557326E+02  0.13050772839E+01 -0.12033219382E+02  0.20206732319E+02  0.51100000000E-03 0. -1.
        -11    1    3    3    0    0 -0.12799716785E+02  0.17063719943E+02  0.35912210732E+01  0.21630999910E+02  0.51100000000E-03 0.  1.
        -12    1    3    3    0    0  0.33098643882E+00  0.73651461805E+01 -0.46021926700E+01  0.86910935822E+01  0.00000000000E+00 0.  1.
</event>
<event>
 7    1  0.4878192E-011  0.5052886E+02  0.7816164E-02  0.1300439E+00
        -11   -1    0    0    0    0  0.00000000000E+00  0.00000000000E+00  0.45593999997E+02  0.45594000000E+02  0.51100000000E-03 0.  1.
         11   -1    0    0    0    0 -0.00000000000E+00 -0.00000000000E+00 -0.45593999997E+02  0.45594000000E+02  0.51100000000E-03 0. -1.
    9900012    2    1    2    0    0  0.34740298962E+02  0.49688367943E+01  0.20532610294E+02  0.50528858389E+02  0.29999995559E+02 0.  0.
        -12    1    1    2    0    0 -0.34740298962E+02 -0.49688367943E+01 -0.20532610294E+02  0.40659141611E+02  0.00000000000E+00 0.  1.
         11    1    3    3    0    0 -0.10875619828E+01  0.49730963403E+01  0.59414225693E+01  0.78240002994E+01  0.51100000000E-03 0. -1.
        -11    1    3    3    0    0  0.27411820402E+02 -0.75332975428E+01  0.76109539793E+01  0.29429323648E+02  0.51100000000E-03 0.  1.
        -12    1    3    3    0    0  0.84160405428E+01  0.75290379968E+01  0.69802337456E+01  0.13275534442E+02  0.00000000000E+00 0.  1.
</event>
<event>
 7    1  0.4878192E-011  0.5052886E+02  0.7816164E-02  0.1300439E+00
        -11   -1    0    0    0    0  0.00000000000E+00  0.00000000000E+00  0.45593999997E+02  0.45594000000E+02  0.51100000000E-03 0.  1.
         11   -1    0    0    0    0 -0.00000000000E+00 -0.00000000000E+00 -0.45593999997E+02  0.45594000000E+02  0.51100000000E-03 0. -1.
    9900012    2    1    2    0    0  0.35165933169E+02 -0.82584862692E+01 -0.18663335886E+02  0.50528861329E+02  0.30000004496E+02 0.  0.
        -12    1    1    2    0    0 -0.35165933169E+02  0.82584862692E+01  0.18663335886E+02  0.40659138671E+02  0.00000000000E+00 0.  1.
         11    1    3    3    0    0  0.24217782259E+02 -0.29538759495E+01 -0.74288053632E+01  0.25503205878E+02  0.51100000000E-03 0. -1.
        -11    1    3    3    0    0 -0.23836008056E-01 -0.55337942041E+01  0.35786545664E+01  0.65901604848E+01  0.51100000000E-03 0.  1.
         12    1    3    3    0    0  0.10971986918E+02  0.22918388442E+00 -0.14813185089E+02  0.18435494967E+02  0.00000000000E+00 0. -1.
</event>
<event>
 7    1  0.4878192E-011  0.5052885E+02  0.7816164E-02  0.1300439E+00
        -11   -1    0    0    0    0  0.00000000000E+00  0.00000000000E+00  0.45593999997E+02  0.45594000000E+02  0.51100000000E-03 0.  1.
         11   -1    0    0    0    0 -0.00000000000E+00 -0.00000000000E+00 -0.45593999997E+02  0.45594000000E+02  0.51100000000E-03 0. -1.
    9900012    2    1    2    0    0 -0.17722122711E+02 -0.21874122011E+02 -0.29336246932E+02  0.50528853044E+02  0.29999979313E+02 0.  0.
        -12    1    1    2    0    0  0.17722122711E+02  0.21874122011E+02  0.29336246932E+02  0.40659146956E+02  0.00000000000E+00 0.  1.
         11    1    3    3    0    0 -0.90659054457E+00 -0.15496861128E+02 -0.18081407026E+02  0.23830902030E+02  0.51100000000E-03 0. -1.
        -11    1    3    3    0    0 -0.10613735538E+02 -0.42211998850E+01  0.22863096470E+01  0.11648910791E+02  0.51100000000E-03 0.  1.
         12    1    3    3    0    0 -0.62017966277E+01 -0.21560609979E+01 -0.13541149552E+02  0.15049040223E+02  0.00000000000E+00 0. -1.
</event>
<event>
 7    1  0.4878192E-011  0.5052887E+02  0.7816164E-02  0.1300439E+00
        -11   -1    0    0    0    0  0.00000000000E+00  0.00000000000E+00  0.45593999997E+02  0.45594000000E+02  0.51100000000E-03 0.  1.
         11   -1    0    0    0    0 -0.00000000000E+00 -0.00000000000E+00 -0.45593999997E+02  0.45594000000E+02  0.51100000000E-03 0. -1.
    9900012    2    1    2    0    0  0.65887744463E+01  0.39998440944E+02 -0.31428868828E+01  0.50528868620E+02  0.30000026657E+02 0.  0.
        -12    1    1    2    0    0 -0.65887744463E+01 -0.39998440944E+02  0.31428868828E+01  0.40659131380E+02  0.00000000000E+00 0.  1.
         11    1    3    3    0    0  0.34735638031E+01  0.20528911732E+02  0.12295386702E+02  0.24180124003E+02  0.51100000000E-03 0. -1.
        -11    1    3    3    0    0  0.46550537497E+01  0.55934301707E+01 -0.40253381244E+01  0.83162090982E+01  0.51100000000E-03 0.  1.
         12    1    3    3    0    0 -0.15398431066E+01  0.13876099041E+02 -0.11412935461E+02  0.18032535518E+02  0.00000000000E+00 0. -1.
</event>
<event>
 7    1  0.4878192E-011  0.5052886E+02  0.7816164E-02  0.1300439E+00
        -11   -1    0    0    0    0  0.00000000000E+00  0.00000000000E+00  0.45593999997E+02  0.45594000000E+02  0.51100000000E-03 0.  1.
         11   -1    0    0    0    0 -0.00000000000E+00 -0.00000000000E+00 -0.45593999997E+02  0.45594000000E+02  0.51100000000E-03 0. -1.
    9900012    2    1    2    0    0  0.10111972454E+02 -0.10681894358E+02 -0.37905287399E+02  0.50528859984E+02  0.30000000408E+02 0.  0.
        -12    1    1    2    0    0 -0.10111972454E+02  0.10681894358E+02  0.37905287399E+02  0.40659140016E+02  0.00000000000E+00 0.  1.
         11    1    3    3    0    0  0.17407961529E+02 -0.33990254301E+01 -0.17650088514E+02  0.25022312509E+02  0.51100000000E-03 0. -1.
        -11    1    3    3    0    0 -0.47093871854E+01  0.19682620323E+01 -0.11187328794E+02  0.12296695039E+02  0.51100000000E-03 0.  1.
         12    1    3    3    0    0 -0.25866018898E+01 -0.92511309607E+01 -0.90678700911E+01  0.13209852436E+02  0.00000000000E+00 0. -1.
</event>
<event>
 7    1  0.4878192E-011  0.5052886E+02  0.7816164E-02  0.1300439E+00
        -11   -1    0    0    0    0  0.00000000000E+00  0.00000000000E+00  0.45593999997E+02  0.45594000000E+02  0.51100000000E-03 0.  1.
         11   -1    0    0    0    0 -0.00000000000E+00 -0.00000000000E+00 -0.45593999997E+02  0.45594000000E+02  0.51100000000E-03 0. -1.
    9900012    2    1    2    0    0 -0.37361973092E+02  0.86156256825E+01 -0.13528481793E+02  0.50528857623E+02  0.29999993230E+02 0.  0.
        -12    1    1    2    0    0  0.37361973092E+02 -0.86156256825E+01  0.13528481793E+02  0.40659142377E+02  0.00000000000E+00 0.  1.
         11    1    3    3    0    0 -0.30961774933E+01  0.11129536075E+01 -0.13601950706E+02  0.13994214665E+02  0.51100000000E-03 0.  1.
        -11    1    3    3    0    0 -0.23189637599E+02  0.95992104166E+01 -0.15490188718E+01  0.25145647582E+02  0.51100000000E-03 0. -1.
        -12    1    3    3    0    0 -0.11076158000E+02 -0.20965383416E+01  0.16224877855E+01  0.11388995376E+02  0.00000000000E+00 0.  1.
</event>
<event>
 7    1  0.4878192E-011  0.5052886E+02  0.7816164E-02  0.1300439E+00
        -11   -1    0    0    0    0  0.00000000000E+00  0.00000000000E+00  0.45593999997E+02  0.45594000000E+02  0.51100000000E-03 0.  1.
         11   -1    0    0    0    0 -0.00000000000E+00 -0.00000000000E+00 -0.45593999997E+02  0.45594000000E+02  0.51100000000E-03 0. -1.
    9900012    2    1    2    0    0  0.36075948075E+02 -0.78926251758E+01 -0.17011701613E+02  0.50528861378E+02  0.30000004645E+02 0.  0.
        -12    1    1    2    0    0 -0.36075948075E+02  0.78926251758E+01  0.17011701613E+02  0.40659138622E+02  0.00000000000E+00 0.  1.
         11    1    3    3    0    0  0.15995542511E+02  0.13404837265E+01 -0.14893871607E+02  0.21897070319E+02  0.51100000000E-03 0. -1.
        -11    1    3    3    0    0  0.56111539663E+01 -0.12473727868E+02 -0.18750853865E+00  0.13678965438E+02  0.51100000000E-03 0.  1.
        -12    1    3    3    0    0  0.14469251598E+02  0.32406189652E+01 -0.19303214673E+01  0.14952825621E+02  0.00000000000E+00 0.  1.
</event>
<event>
 7    1  0.4878192E-011  0.5052887E+02  0.7816164E-02  0.1300439E+00
        -11   -1    0    0    0    0  0.00000000000E+00  0.00000000000E+00  0.45593999997E+02  0.45594000000E+02  0.51100000000E-03 0.  1.
         11   -1    0    0    0    0 -0.00000000000E+00 -0.00000000000E+00 -0.45593999997E+02  0.45594000000E+02  0.51100000000E-03 0. -1.
    9900012    2    1    2    0    0 -0.23451662692E+02 -0.22439389382E+02 -0.24487922886E+02  0.50528867617E+02  0.30000023610E+02 0.  0.
        -12    1    1    2    0    0  0.23451662692E+02  0.22439389382E+02  0.24487922886E+02  0.40659132383E+02  0.00000000000E+00 0.  1.
         11    1    3    3    0    0 -0.69526072302E+01 -0.65361119184E+01 -0.61756021077E+01  0.11366510809E+02  0.51100000000E-03 0. -1.
        -11    1    3    3    0    0  0.41781267112E+01  0.26833986768E+01 -0.81826390240E+01  0.95714655582E+01  0.51100000000E-03 0.  1.
        -12    1    3    3    0    0 -0.20677182173E+02 -0.18586676140E+02 -0.10129681754E+02  0.29590891251E+02  0.00000000000E+00 0.  1.
</event>
<event>
 7    1  0.4878192E-011  0.5052888E+02  0.7816164E-02  0.1300439E+00
        -11   -1    0    0    0    0  0.00000000000E+00  0.00000000000E+00  0.45593999997E+02  0.45594000000E+02  0.51100000000E-03 0. -1.
         11   -1    0    0    0    0 -0.00000000000E+00 -0.00000000000E+00 -0.45593999997E+02  0.45594000000E+02  0.51100000000E-03 0.  1.
    9900012    2    1    2    0    0  0.34661281912E+02  0.87310163439E+01  0.19378579027E+02  0.50528875129E+02  0.30000046443E+02 0.  0.
        -12    1    1    2    0    0 -0.34661281912E+02 -0.87310163439E+01 -0.19378579027E+02  0.40659124871E+02  0.00000000000E+00 0.  1.
         11    1    3    3    0    0 -0.22844314641E+01  0.34931717468E+01  0.53332965540E+00  0.42077686188E+01  0.51100000000E-03 0. -1.
        -11    1    3    3    0    0  0.14495204480E+02 -0.43000573931E+01 -0.59222669717E+00  0.15131165825E+02  0.51100000000E-03 0.  1.
         12    1    3    3    0    0  0.22450508896E+02  0.95379019902E+01  0.19437476068E+02  0.31189940685E+02  0.00000000000E+00 0. -1.
</event>
<event>
 7    1  0.4878192E-011  0.5052886E+02  0.7816164E-02  0.1300439E+00
        -11   -1    0    0    0    0  0.00000000000E+00  0.00000000000E+00  0.45593999997E+02  0.45594000000E+02  0.51100000000E-03 0.  1.
         11   -1    0    0    0    0 -0.00000000000E+00 -0.00000000000E+00 -0.45593999997E+02  0.45594000000E+02  0.51100000000E-03 0. -1.
    9900012    2    1    2    0    0  0.34319122571E+01  0.32028805193E+02 -0.24810141793E+02  0.50528861795E+02  0.30000005911E+02 0.  0.
        -12    1    1    2    0    0 -0.34319122571E+01 -0.32028805193E+02  0.24810141793E+02  0.40659138205E+02  0.00000000000E+00 0.  1.
         11    1    3    3    0    0  0.31206990636E+01 -0.19452190947E+01  0.33665422701E+01  0.49856039844E+01  0.51100000000E-03 0. -1.
        -11    1    3    3    0    0 -0.48984326615E+01  0.21248294227E+02 -0.19720627629E+02  0.29400472861E+02  0.51100000000E-03 0.  1.
         12    1    3    3    0    0  0.52096458550E+01  0.12725730061E+02 -0.84560564342E+01  0.16142784950E+02  0.00000000000E+00 0. -1.
</event>
<event>
 7    1  0.4878192E-011  0.5052886E+02  0.7816164E-02  0.1300439E+00
        -11   -1    0    0    0    0  0.00000000000E+00  0.00000000000E+00  0.45593999997E+02  0.45594000000E+02  0.51100000000E-03 0. -1.
         11   -1    0    0    0    0 -0.00000000000E+00 -0.00000000000E+00 -0.45593999997E+02  0.45594000000E+02  0.51100000000E-03 0.  1.
    9900012    2    1    2    0    0  0.27953793629E+02  0.85258742495E+01  0.28267664424E+02  0.50528856355E+02  0.29999989377E+02 0.  0.
        -12    1    1    2    0    0 -0.27953793629E+02 -0.85258742495E+01 -0.28267664424E+02  0.40659143645E+02  0.00000000000E+00 0.  1.
         11    1    3    3    0    0  0.10575137816E+02  0.11627167900E+02  0.81810093245E+00  0.15738292874E+02  0.51100000000E-03 0. -1.
        -11    1    3    3    0    0  0.29148722274E+01 -0.46050767176E+01  0.13836907383E+02  0.14871557345E+02  0.51100000000E-03 0.  1.
         12    1    3    3    0    0  0.14463783586E+02  0.15037830673E+01  0.13612656109E+02  0.19919006136E+02  0.00000000000E+00 0. -1.
</event>
<event>
 7    1  0.4878192E-011  0.5052886E+02  0.7816164E-02  0.1300439E+00
        -11   -1    0    0    0    0  0.00000000000E+00  0.00000000000E+00  0.45593999997E+02  0.45594000000E+02  0.51100000000E-03 0.  1.
         11   -1    0    0    0    0 -0.00000000000E+00 -0.00000000000E+00 -0.45593999997E+02  0.45594000000E+02  0.51100000000E-03 0. -1.
    9900012    2    1    2    0    0  0.11096457663E+02  0.26544111159E+02 -0.28730549175E+02  0.50528859997E+02  0.30000000446E+02 0.  0.
        -12    1    1    2    0    0 -0.11096457663E+02 -0.26544111159E+02  0.28730549175E+02  0.40659140003E+02  0.00000000000E+00 0.  1.
         11    1    3    3    0    0 -0.59358717802E-01  0.10259601168E+02  0.25483499968E+00  0.10262937236E+02  0.51100000000E-03 0. -1.
        -11    1    3    3    0    0  0.14486953945E+02  0.18489088240E+02 -0.21807026137E+02  0.32050968905E+02  0.51100000000E-03 0.  1.
        -12    1    3    3    0    0 -0.33311375649E+01 -0.22045782482E+01 -0.71783580377E+01  0.82149538554E+01  0.00000000000E+00 0.  1.
</event>
<event>
 7    1  0.4878192E-011  0.5052886E+02  0.7816164E-02  0.1300439E+00
        -11   -1    0    0    0    0  0.00000000000E+00  0.00000000000E+00  0.45593999997E+02  0.45594000000E+02  0.51100000000E-03 0.  1.
         11   -1    0    0    0    0 -0.00000000000E+00 -0.00000000000E+00 -0.45593999997E+02  0.45594000000E+02  0.51100000000E-03 0. -1.
    9900012    2    1    2    0    0  0.26369610811E+02  0.29061390549E+02 -0.10641672783E+02  0.50528855954E+02  0.29999988156E+02 0.  0.
        -12    1    1    2    0    0 -0.26369610811E+02 -0.29061390549E+02  0.10641672783E+02  0.40659144046E+02  0.00000000000E+00 0.  1.
         11    1    3    3    0    0  0.13222146205E+02  0.18135684926E+02 -0.19264788444E+02  0.29578037326E+02  0.51100000000E-03 0. -1.
        -11    1    3    3    0    0 -0.89387780715E+00  0.26458667560E+01  0.12138396250E+01  0.30451658938E+01  0.51100000000E-03 0.  1.
         12    1    3    3    0    0  0.14041342413E+02  0.82798388670E+01  0.74092760366E+01  0.17905652734E+02  0.00000000000E+00 0. -1.
</event>
<event>
 7    1  0.4878192E-011  0.5052886E+02  0.7816164E-02  0.1300439E+00
        -11   -1    0    0    0    0  0.00000000000E+00  0.00000000000E+00  0.45593999997E+02  0.45594000000E+02  0.51100000000E-03 0. -1.
         11   -1    0    0    0    0 -0.00000000000E+00 -0.00000000000E+00 -0.45593999997E+02  0.45594000000E+02  0.51100000000E-03 0.  1.
    9900012    2    1    2    0    0 -0.61614958287E+01 -0.38051290676E+02  0.12934496444E+02  0.50528856487E+02  0.29999989778E+02 0.  0.
        -12    1    1    2    0    0  0.61614958287E+01  0.38051290676E+02 -0.12934496444E+02  0.40659143513E+02  0.00000000000E+00 0.  1.
         11    1    3    3    0    0 -0.78405054769E+01 -0.18751454237E+02  0.16635942899E+01  0.20392599353E+02  0.51100000000E-03 0. -1.
        -11    1    3    3    0    0  0.37725000624E+01 -0.11832534148E+02  0.16596281020E+02  0.20728655650E+02  0.51100000000E-03 0.  1.
        -12    1    3    3    0    0 -0.20934904142E+01 -0.74673022905E+01 -0.53253788663E+01  0.94076014840E+01  0.00000000000E+00 0.  1.
</event>
<event>
 7    1  0.7970898E-011  0.5052886E+02  0.7816164E-02  0.1300439E+00
        -11   -1    0    0    0    0  0.00000000000E+00  0.00000000000E+00  0.45593999997E+02  0.45594000000E+02  0.51100000000E-03 0.  1.
         11   -1    0    0    0    0 -0.00000000000E+00 -0.00000000000E+00 -0.45593999997E+02  0.45594000000E+02  0.51100000000E-03 0. -1.
    9900012    2    1    2    0    0 -0.45362088819E+01  0.40146185180E+02 -0.45686030854E+01  0.50528861917E+02  0.30000006283E+02 0.  0.
        -12    1    1    2    0    0  0.45362088819E+01 -0.40146185180E+02  0.45686030854E+01  0.40659138083E+02  0.00000000000E+00 0.  1.
         11    1    3    3    0    0  0.52202056743E+01  0.26595822060E+02  0.16567163525E+01  0.27153876476E+02  0.51100000000E-03 0. -1.
        -11    1    3    3    0    0 -0.23237111538E+01 -0.28000659895E+01  0.13516250281E+01  0.38816096596E+01  0.51100000000E-03 0.  1.
         12    1    3    3    0    0 -0.74327034024E+01  0.16350429109E+02 -0.75769444661E+01  0.19493375781E+02  0.00000000000E+00 0. -1.
</event>
<event>
 7    1  0.5577008E-011  0.5052885E+02  0.7816164E-02  0.1300439E+00
        -11   -1    0    0    0    0  0.00000000000E+00  0.00000000000E+00  0.45593999997E+02  0.45594000000E+02  0.51100000000E-03 0. -1.
         11   -1    0    0    0    0 -0.00000000000E+00 -0.00000000000E+00 -0.45593999997E+02  0.45594000000E+02  0.51100000000E-03 0.  1.
    9900012    2    1    2    0    0  0.24227762245E+01  0.22829503830E+01  0.40522642605E+02  0.50528852557E+02  0.29999977833E+02 0.  0.
        -12    1    1    2    0    0 -0.24227762245E+01 -0.22829503830E+01 -0.40522642605E+02  0.40659147443E+02  0.00000000000E+00 0.  1.
         11    1    3    3    0    0  0.12694619453E+02  0.66883637929E+00  0.25034986244E+02  0.28077593231E+02  0.51100000000E-03 0. -1.
        -11    1    3    3    0    0 -0.61011197693E+01  0.32397128656E+01  0.63306991739E+00  0.69368710290E+01  0.51100000000E-03 0.  1.
         12    1    3    3    0    0 -0.41707234592E+01 -0.16255988619E+01  0.14854586443E+02  0.15514388297E+02  0.00000000000E+00 0. -1.
</event>
<event>
 7    1  0.4878192E-011  0.5052888E+02  0.7816164E-02  0.1300439E+00
        -11   -1    0    0    0    0  0.00000000000E+00  0.00000000000E+00  0.45593999997E+02  0.45594000000E+02  0.51100000000E-03 0. -1.
         11   -1    0    0    0    0 -0.00000000000E+00 -0.00000000000E+00 -0.45593999997E+02  0.45594000000E+02  0.51100000000E-03 0.  1.
    9900012    2    1    2    0    0 -0.13239306411E+02  0.38439818067E+02 -0.51514971175E+00  0.50528877697E+02  0.30000054247E+02 0.  0.
        -12    1    1    2    0    0  0.13239306411E+02 -0.38439818067E+02  0.51514971175E+00  0.40659122303E+02  0.00000000000E+00 0.  1.
         11    1    3    3    0    0 -0.18068204227E+02  0.34639269958E+02  0.40569976669E+01  0.39278470662E+02  0.51100000000E-03 0. -1.
        -11    1    3    3    0    0 -0.42994182138E+00 -0.20634725364E+01  0.67426064149E-01  0.21088659069E+01  0.51100000000E-03 0.  1.
         12    1    3    3    0    0  0.52588396376E+01  0.58640206452E+01 -0.46395734428E+01  0.91415411278E+01  0.00000000000E+00 0. -1.
</event>
<event>
 7    1  0.4878192E-011  0.5052886E+02  0.7816164E-02  0.1300439E+00
        -11   -1    0    0    0    0  0.00000000000E+00  0.00000000000E+00  0.45593999997E+02  0.45594000000E+02  0.51100000000E-03 0.  1.
         11   -1    0    0    0    0 -0.00000000000E+00 -0.00000000000E+00 -0.45593999997E+02  0.45594000000E+02  0.51100000000E-03 0. -1.
    9900012    2    1    2    0    0 -0.17364321485E+02 -0.30447948259E+02 -0.20605067837E+02  0.50528855464E+02  0.29999986668E+02 0.  0.
        -12    1    1    2    0    0  0.17364321485E+02  0.30447948259E+02  0.20605067837E+02  0.40659144536E+02  0.00000000000E+00 0.  1.
         11    1    3    3    0    0  0.25050546356E+01 -0.21280965145E+02 -0.10749862640E+02  0.23973200105E+02  0.51100000000E-03 0. -1.
        -11    1    3    3    0    0 -0.18188148962E+02 -0.48975671715E+01 -0.11018393085E+02  0.21822005254E+02  0.51100000000E-03 0.  1.
         12    1    3    3    0    0 -0.16812271587E+01 -0.42694159429E+01  0.11631878884E+01  0.47336501049E+01  0.00000000000E+00 0. -1.
</event>
<event>
 7    1  0.4878192E-011  0.5052886E+02  0.7816164E-02  0.1300439E+00
        -11   -1    0    0    0    0  0.00000000000E+00  0.00000000000E+00  0.45593999997E+02  0.45594000000E+02  0.51100000000E-03 0.  1.
         11   -1    0    0    0    0 -0.00000000000E+00 -0.00000000000E+00 -0.45593999997E+02  0.45594000000E+02  0.51100000000E-03 0. -1.
    9900012    2    1    2    0    0 -0.72506518048E+01 -0.37206462119E+02 -0.14706211786E+02  0.50528862772E+02  0.30000008882E+02 0.  0.
        -12    1    1    2    0    0  0.72506518048E+01  0.37206462119E+02  0.14706211786E+02  0.40659137228E+02  0.00000000000E+00 0.  1.
         11    1    3    3    0    0 -0.26285019966E+01 -0.13451567984E+02 -0.70364175951E+01  0.15406650408E+02  0.51100000000E-03 0. -1.
        -11    1    3    3    0    0 -0.69753829548E+01 -0.15128833919E+02  0.68965648608E+01  0.18030534941E+02  0.51100000000E-03 0.  1.
        -12    1    3    3    0    0  0.23532331466E+01 -0.86260602163E+01 -0.14566359052E+02  0.17091677423E+02  0.00000000000E+00 0.  1.
</event>
<event>
 7    1  0.4878192E-011  0.5052884E+02  0.7816164E-02  0.1300439E+00
        -11   -1    0    0    0    0  0.00000000000E+00  0.00000000000E+00  0.45593999997E+02  0.45594000000E+02  0.51100000000E-03 0. -1.
         11   -1    0    0    0    0 -0.00000000000E+00 -0.00000000000E+00 -0.45593999997E+02  0.45594000000E+02  0.51100000000E-03 0.  1.
    9900012    2    1    2    0    0  0.36202192325E+02 -0.18370792277E+02  0.22543628040E+01  0.50528844946E+02  0.29999954697E+02 0.  0.
        -12    1    1    2    0    0 -0.36202192325E+02  0.18370792277E+02 -0.22543628040E+01  0.40659155054E+02  0.00000000000E+00 0.  1.
         11    1    3    3    0    0 -0.87754131686E-01 -0.10116158548E+02  0.46424290941E+01  0.11130881039E+02  0.51100000000E-03 0. -1.
        -11    1    3    3    0    0  0.23040697106E+02 -0.53791882951E+00  0.27884565647E+01  0.23215050508E+02  0.51100000000E-03 0.  1.
         12    1    3    3    0    0  0.13249249351E+02 -0.77167149002E+01 -0.51765228548E+01  0.16182913399E+02  0.00000000000E+00 0. -1.
</event>
<event>
 7    1  0.4878192E-011  0.5052886E+02  0.7816164E-02  0.1300439E+00
        -11   -1    0    0    0    0  0.00000000000E+00  0.00000000000E+00  0.45593999997E+02  0.45594000000E+02  0.51100000000E-03 0.  1.
         11   -1    0    0    0    0 -0.00000000000E+00 -0.00000000000E+00 -0.45593999997E+02  0.45594000000E+02  0.51100000000E-03 0. -1.
    9900012    2    1    2    0    0  0.12880299465E+02  0.16516500923E+02 -0.34849228245E+02  0.50528860483E+02  0.30000001923E+02 0.  0.
        -12    1    1    2    0    0 -0.12880299465E+02 -0.16516500923E+02  0.34849228245E+02  0.40659139517E+02  0.00000000000E+00 0.  1.
         11    1    3    3    0    0  0.70775746118E+01 -0.53593696265E+01 -0.98912640447E+01  0.13291049990E+02  0.51100000000E-03 0. -1.
        -11    1    3    3    0    0 -0.41158969886E+01  0.62615742726E+01 -0.20015415173E+01  0.77559067232E+01  0.51100000000E-03 0.  1.
         12    1    3    3    0    0  0.99186218418E+01  0.15614296277E+02 -0.22956422683E+02  0.29481903769E+02  0.00000000000E+00 0. -1.
</event>
<event>
 7    1  0.4878192E-011  0.5052886E+02  0.7816164E-02  0.1300439E+00
        -11   -1    0    0    0    0  0.00000000000E+00  0.00000000000E+00  0.45593999997E+02  0.45594000000E+02  0.51100000000E-03 0.  1.
         11   -1    0    0    0    0 -0.00000000000E+00 -0.00000000000E+00 -0.45593999997E+02  0.45594000000E+02  0.51100000000E-03 0. -1.
    9900012    2    1    2    0    0 -0.26802671977E+02 -0.15755021529E+02 -0.26202327870E+02  0.50528856941E+02  0.29999991158E+02 0.  0.
        -12    1    1    2    0    0  0.26802671977E+02  0.15755021529E+02  0.26202327870E+02  0.40659143059E+02  0.00000000000E+00 0.  1.
         11    1    3    3    0    0 -0.21264272053E+02 -0.15792556647E+02 -0.37570700698E+01  0.26752377225E+02  0.51100000000E-03 0. -1.
        -11    1    3    3    0    0 -0.21108926489E+01  0.41439961651E+00 -0.18109159590E+02  0.18236481463E+02  0.51100000000E-03 0.  1.
        -12    1    3    3    0    0 -0.34275072744E+01 -0.37686449912E+00 -0.43360982101E+01  0.55399982540E+01  0.00000000000E+00 0.  1.
</event>
<event>
 7    1  0.4878192E-011  0.5052888E+02  0.7816164E-02  0.1300439E+00
        -11   -1    0    0    0    0  0.00000000000E+00  0.00000000000E+00  0.45593999997E+02  0.45594000000E+02  0.51100000000E-03 0.  1.
         11   -1    0    0    0    0 -0.00000000000E+00 -0.00000000000E+00 -0.45593999997E+02  0.45594000000E+02  0.51100000000E-03 0. -1.
    9900012    2    1    2    0    0 -0.20114879592E+02  0.34297259088E+02  0.85001977362E+01  0.50528883882E+02  0.30000073046E+02 0.  0.
        -12    1    1    2    0    0  0.20114879592E+02 -0.34297259088E+02 -0.85001977362E+01  0.40659116118E+02  0.00000000000E+00 0.  1.
         11    1    3    3    0    0 -0.59147761569E+01  0.96240803403E+01 -0.55989531079E+01  0.12607766477E+02  0.51100000000E-03 0. -1.
        -11    1    3    3    0    0 -0.77522491042E+01 -0.71599381415E+00  0.77124526088E+01  0.10958646760E+02  0.51100000000E-03 0.  1.
        -12    1    3    3    0    0 -0.64478543314E+01  0.25389172562E+02  0.63866982354E+01  0.26962470644E+02  0.00000000000E+00 0.  1.
</event>
<event>
 7    1  0.4878192E-011  0.5052887E+02  0.7816164E-02  0.1300439E+00
        -11   -1    0    0    0    0  0.00000000000E+00  0.00000000000E+00  0.45593999997E+02  0.45594000000E+02  0.51100000000E-03 0.  1.
         11   -1    0    0    0    0 -0.00000000000E+00 -0.00000000000E+00 -0.45593999997E+02  0.45594000000E+02  0.51100000000E-03 0. -1.
    9900012    2    1    2    0    0 -0.15156389195E+02 -0.10081903796E+01 -0.37715151263E+02  0.50528865527E+02  0.30000017256E+02 0.  0.
        -12    1    1    2    0    0  0.15156389195E+02  0.10081903796E+01  0.37715151263E+02  0.40659134473E+02  0.00000000000E+00 0.  1.
         11    1    3    3    0    0 -0.13628588428E+02  0.36472451517E+00 -0.13485190629E+02  0.19176073975E+02  0.51100000000E-03 0. -1.
        -11    1    3    3    0    0  0.43239270733E+01  0.17205844519E+01  0.14176525584E+01  0.48648222197E+01  0.51100000000E-03 0.  1.
        -12    1    3    3    0    0 -0.58517278409E+01 -0.30934993466E+01 -0.25647613192E+02  0.26487969333E+02  0.00000000000E+00 0.  1.
</event>
<event>
 7    1  0.4878192E-011  0.5052886E+02  0.7816164E-02  0.1300439E+00
        -11   -1    0    0    0    0  0.00000000000E+00  0.00000000000E+00  0.45593999997E+02  0.45594000000E+02  0.51100000000E-03 0.  1.
         11   -1    0    0    0    0 -0.00000000000E+00 -0.00000000000E+00 -0.45593999997E+02  0.45594000000E+02  0.51100000000E-03 0. -1.
    9900012    2    1    2    0    0  0.39013021392E+02  0.66276207800E+01 -0.93394084153E+01  0.50528859025E+02  0.29999997491E+02 0.  0.
        -12    1    1    2    0    0 -0.39013021392E+02 -0.66276207800E+01  0.93394084153E+01  0.40659140975E+02  0.00000000000E+00 0.  1.
         11    1    3    3    0    0  0.11182640020E+02 -0.54738674171E+01  0.78824389391E+01  0.14735925699E+02  0.51100000000E-03 0. -1.
        -11    1    3    3    0    0  0.19656414418E+02  0.51286399199E+01 -0.13634446412E+02  0.24465806842E+02  0.51100000000E-03 0.  1.
        -12    1    3    3    0    0  0.81739669528E+01  0.69728482773E+01 -0.35874009426E+01  0.11327126483E+02  0.00000000000E+00 0.  1.
</event>
<event>
 7    1  0.4878192E-011  0.5052884E+02  0.7816164E-02  0.1300439E+00
        -11   -1    0    0    0    0  0.00000000000E+00  0.00000000000E+00  0.45593999997E+02  0.45594000000E+02  0.51100000000E-03 0.  1.
         11   -1    0    0    0    0 -0.00000000000E+00 -0.00000000000E+00 -0.45593999997E+02  0.45594000000E+02  0.51100000000E-03 0. -1.
    9900012    2    1    2    0    0  0.10180258204E+02  0.29198928901E+01 -0.39255616883E+02  0.50528844962E+02  0.29999954745E+02 0.  0.
        -12    1    1    2    0    0 -0.10180258204E+02 -0.29198928901E+01  0.39255616883E+02  0.40659155038E+02  0.00000000000E+00 0.  1.
         11    1    3    3    0    0 -0.25188626333E+01  0.87620609615E+01 -0.31738410981E+02  0.33021888394E+02  0.51100000000E-03 0. -1.
        -11    1    3    3    0    0  0.11349688844E+02 -0.60472153532E+01 -0.88406163289E+01  0.15605792121E+02  0.51100000000E-03 0.  1.
         12    1    3    3    0    0  0.13494319931E+01  0.20504728186E+00  0.13234104274E+01  0.19011644461E+01  0.00000000000E+00 0. -1.
</event>
<event>
 7    1  0.4878192E-011  0.5052886E+02  0.7816164E-02  0.1300439E+00
        -11   -1    0    0    0    0  0.00000000000E+00  0.00000000000E+00  0.45593999997E+02  0.45594000000E+02  0.51100000000E-03 0.  1.
         11   -1    0    0    0    0 -0.00000000000E+00 -0.00000000000E+00 -0.45593999997E+02  0.45594000000E+02  0.51100000000E-03 0. -1.
    9900012    2    1    2    0    0  0.10795987798E+02 -0.20084477049E+02 -0.33663418513E+02  0.50528864288E+02  0.30000013490E+02 0.  0.
        -12    1    1    2    0    0 -0.10795987798E+02  0.20084477049E+02  0.33663418513E+02  0.40659135712E+02  0.00000000000E+00 0.  1.
         11    1    3    3    0    0  0.18504999941E+01 -0.11100291962E+02 -0.26136801915E+02  0.28456515010E+02  0.51100000000E-03 0. -1.
        -11    1    3    3    0    0  0.83651262664E+01 -0.13724660838E+00  0.24576833062E+01  0.87197695829E+01  0.51100000000E-03 0.  1.
        -12    1    3    3    0    0  0.58036153787E+00 -0.88469384786E+01 -0.99842999038E+01  0.13352579696E+02  0.00000000000E+00 0.  1.
</event>
<event>
 7    1  0.4878192E-011  0.5052885E+02  0.7816164E-02  0.1300439E+00
        -11   -1    0    0    0    0  0.00000000000E+00  0.00000000000E+00  0.45593999997E+02  0.45594000000E+02  0.51100000000E-03 0.  1.
         11   -1    0    0    0    0 -0.00000000000E+00 -0.00000000000E+00 -0.45593999997E+02  0.45594000000E+02  0.51100000000E-03 0. -1.
    9900012    2    1    2    0    0  0.29228570320E+02  0.28236882432E+02  0.12392826198E+01  0.50528847600E+02  0.29999962766E+02 0.  0.
        -12    1    1    2    0    0 -0.29228570320E+02 -0.28236882432E+02 -0.12392826198E+01  0.40659152400E+02  0.00000000000E+00 0.  1.
         11    1    3    3    0    0  0.69833693622E+01 -0.50396310671E+00  0.89060456140E+01  0.11328683737E+02  0.51100000000E-03 0. -1.
        -11    1    3    3    0    0  0.10103248207E+02  0.10278486745E+02  0.29079276206E+01  0.14703025450E+02  0.51100000000E-03 0.  1.
         12    1    3    3    0    0  0.12141952751E+02  0.18462358794E+02 -0.10574690615E+02  0.24497138414E+02  0.00000000000E+00 0. -1.
</event>
<event>
 7    1  0.4878192E-011  0.5052884E+02  0.7816164E-02  0.1300439E+00
        -11   -1    0    0    0    0  0.00000000000E+00  0.00000000000E+00  0.45593999997E+02  0.45594000000E+02  0.51100000000E-03 0.  1.
         11   -1    0    0    0    0 -0.00000000000E+00 -0.00000000000E+00 -0.45593999997E+02  0.45594000000E+02  0.51100000000E-03 0. -1.
    9900012    2    1    2    0    0 -0.23339631414E+02 -0.10357551882E+02 -0.31640954000E+02  0.50528840570E+02  0.29999941397E+02 0.  0.
        -12    1    1    2    0    0  0.23339631414E+02  0.10357551882E+02  0.31640954000E+02  0.40659159430E+02  0.00000000000E+00 0.  1.
         11    1    3    3    0    0 -0.78840116289E+00  0.47294686709E+01  0.24559455187E+01  0.53871252960E+01  0.51100000000E-03 0. -1.
        -11    1    3    3    0    0 -0.97463854484E+01 -0.12279281117E+02 -0.13303780712E+02  0.20561209973E+02  0.51100000000E-03 0.  1.
         12    1    3    3    0    0 -0.12804844803E+02 -0.28077394363E+01 -0.20793118807E+02  0.24580505301E+02  0.00000000000E+00 0. -1.
</event>
<event>
 7    1  0.4878192E-011  0.5052885E+02  0.7816164E-02  0.1300439E+00
        -11   -1    0    0    0    0  0.00000000000E+00  0.00000000000E+00  0.45593999997E+02  0.45594000000E+02  0.51100000000E-03 0.  1.
         11   -1    0    0    0    0 -0.00000000000E+00 -0.00000000000E+00 -0.45593999997E+02  0.45594000000E+02  0.51100000000E-03 0. -1.
    9900012    2    1    2    0    0  0.19841668661E+02  0.12206197292E+02 -0.33323915326E+02  0.50528850965E+02  0.29999972994E+02 0.  0.
        -12    1    1    2    0    0 -0.19841668661E+02 -0.12206197292E+02  0.33323915326E+02  0.40659149035E+02  0.00000000000E+00 0.  1.
         11    1    3    3    0    0  0.14203786965E+02 -0.24255579447E+01 -0.26640307181E+02  0.30287569438E+02  0.51100000000E-03 0. -1.
        -11    1    3    3    0    0  0.82465071576E+01  0.84191499607E+01 -0.18049135863E+01  0.11922444367E+02  0.51100000000E-03 0.  1.
         12    1    3    3    0    0 -0.26086254617E+01  0.62126052757E+01 -0.48786945584E+01  0.83188371606E+01  0.00000000000E+00 0. -1.
</event>
<event>
 7    1  0.4878192E-011  0.5052890E+02  0.7816164E-02  0.1300439E+00
        -11   -1    0    0    0    0  0.00000000000E+00  0.00000000000E+00  0.45593999997E+02  0.45594000000E+02  0.51100000000E-03 0.  1.
         11   -1    0    0    0    0 -0.00000000000E+00 -0.00000000000E+00 -0.45593999997E+02  0.45594000000E+02  0.51100000000E-03 0. -1.
    9900012    2    1    2    0    0  0.31935752290E+02 -0.20633323792E+02 -0.14406116288E+02  0.50528898786E+02  0.30000118350E+02 0.  0.
        -12    1    1    2    0    0 -0.31935752290E+02  0.20633323792E+02  0.14406116288E+02  0.40659101214E+02  0.00000000000E+00 0.  1.
         11    1    3    3    0    0  0.18358322558E+02 -0.18020750063E+02 -0.16546366135E+02  0.30586887264E+02  0.51100000000E-03 0. -1.
        -11    1    3    3    0    0  0.47145976866E+01 -0.24903789759E+01  0.77832909826E+01  0.94344601102E+01  0.51100000000E-03 0.  1.
        -12    1    3    3    0    0  0.88628320452E+01 -0.12219475333E+00 -0.56430411354E+01  0.10507551412E+02  0.00000000000E+00 0.  1.
</event>
<event>
 7    1  0.4878192E-011  0.5052882E+02  0.7816164E-02  0.1300439E+00
        -11   -1    0    0    0    0  0.00000000000E+00  0.00000000000E+00  0.45593999997E+02  0.45594000000E+02  0.51100000000E-03 0. -1.
         11   -1    0    0    0    0 -0.00000000000E+00 -0.00000000000E+00 -0.45593999997E+02  0.45594000000E+02  0.51100000000E-03 0.  1.
    9900012    2    1    2    0    0 -0.26131298546E+01 -0.12922379375E+02  0.38462349472E+02  0.50528823136E+02  0.29999888403E+02 0.  0.
        -12    1    1    2    0    0  0.26131298546E+01  0.12922379375E+02 -0.38462349472E+02  0.40659176864E+02  0.00000000000E+00 0.  1.
         11    1    3    3    0    0  0.81760191564E-01 -0.10573184933E+02  0.49441103243E+01  0.11672324169E+02  0.51100000000E-03 0. -1.
        -11    1    3    3    0    0 -0.10455459112E+02 -0.35100912308E+01  0.24711997056E+02  0.27061414679E+02  0.51100000000E-03 0.  1.
        -12    1    3    3    0    0  0.77605690655E+01  0.11608967879E+01  0.88062420920E+01  0.11795084288E+02  0.00000000000E+00 0.  1.
</event>
<event>
 7    1  0.4878192E-011  0.5052886E+02  0.7816164E-02  0.1300439E+00
        -11   -1    0    0    0    0  0.00000000000E+00  0.00000000000E+00  0.45593999997E+02  0.45594000000E+02  0.51100000000E-03 0.  1.
         11   -1    0    0    0    0 -0.00000000000E+00 -0.00000000000E+00 -0.45593999997E+02  0.45594000000E+02  0.51100000000E-03 0. -1.
    9900012    2    1    2    0    0  0.35126668763E+02 -0.10751036917E+01 -0.20448146230E+02  0.50528863381E+02  0.30000010734E+02 0.  0.
        -12    1    1    2    0    0 -0.35126668763E+02  0.10751036917E+01  0.20448146230E+02  0.40659136619E+02  0.00000000000E+00 0.  1.
         11    1    3    3    0    0  0.31551646146E+02  0.49740675747E-01 -0.28371996447E+01  0.31678992262E+02  0.51100000000E-03 0. -1.
        -11    1    3    3    0    0  0.32171892039E+01  0.33837579352E+00 -0.39476800163E+01  0.51038203656E+01  0.51100000000E-03 0.  1.
         12    1    3    3    0    0  0.35783341314E+00 -0.14632201610E+01 -0.13663266569E+02  0.13746050754E+02  0.00000000000E+00 0. -1.
</event>
<event>
 7    1  0.4878192E-011  0.5052886E+02  0.7816164E-02  0.1300439E+00
        -11   -1    0    0    0    0  0.00000000000E+00  0.00000000000E+00  0.45593999997E+02  0.45594000000E+02  0.51100000000E-03 0.  1.
         11   -1    0    0    0    0 -0.00000000000E+00 -0.00000000000E+00 -0.45593999997E+02  0.45594000000E+02  0.51100000000E-03 0. -1.
    9900012    2    1    2    0    0 -0.19749548866E+02 -0.16930295793E+02 -0.31248773387E+02  0.50528862844E+02  0.30000009101E+02 0.  0.
        -12    1    1    2    0    0  0.19749548866E+02  0.16930295793E+02  0.31248773387E+02  0.40659137156E+02  0.00000000000E+00 0.  1.
         11    1    3    3    0    0 -0.15774664648E+02 -0.15331128019E+02 -0.30617874115E+02  0.37700633239E+02  0.51100000000E-03 0. -1.
        -11    1    3    3    0    0  0.34482850777E+01  0.22197981921E+01  0.12179096904E+01  0.42780227052E+01  0.51100000000E-03 0.  1.
         12    1    3    3    0    0 -0.74231692959E+01 -0.38189659658E+01 -0.18488089630E+01  0.85502068996E+01  0.00000000000E+00 0. -1.
</event>
<event>
 7    1  0.4878192E-011  0.5052886E+02  0.7816164E-02  0.1300439E+00
        -11   -1    0    0    0    0  0.00000000000E+00  0.00000000000E+00  0.45593999997E+02  0.45594000000E+02  0.51100000000E-03 0. -1.
         11   -1    0    0    0    0 -0.00000000000E+00 -0.00000000000E+00 -0.45593999997E+02  0.45594000000E+02  0.51100000000E-03 0.  1.
    9900012    2    1    2    0    0  0.11166116010E+02  0.30983452389E+02  0.23843435832E+02  0.50528857105E+02  0.29999991656E+02 0.  0.
        -12    1    1    2    0    0 -0.11166116010E+02 -0.30983452389E+02 -0.23843435832E+02  0.40659142895E+02  0.00000000000E+00 0.  1.
         11    1    3    3    0    0 -0.31669477317E+01  0.26123275842E+02  0.15438916701E+02  0.30509264951E+02  0.51100000000E-03 0. -1.
        -11    1    3    3    0    0  0.46166237360E+01 -0.28907207323E+01  0.95846658918E+00  0.55306545305E+01  0.51100000000E-03 0.  1.
         12    1    3    3    0    0  0.97164400054E+01  0.77508972790E+01  0.74460525420E+01  0.14488937624E+02  0.00000000000E+00 0. -1.
</event>
<event>
 7    1  0.4878192E-011  0.5052886E+02  0.7816164E-02  0.1300439E+00
        -11   -1    0    0    0    0  0.00000000000E+00  0.00000000000E+00  0.45593999997E+02  0.45594000000E+02  0.51100000000E-03 0.  1.
         11   -1    0    0    0    0 -0.00000000000E+00 -0.00000000000E+00 -0.45593999997E+02  0.45594000000E+02  0.51100000000E-03 0. -1.
    9900012    2    1    2    0    0 -0.16810702338E+02  0.17194692003E+02 -0.32785795216E+02  0.50528861862E+02  0.30000006117E+02 0.  0.
        -12    1    1    2    0    0  0.16810702338E+02 -0.17194692003E+02  0.32785795216E+02  0.40659138138E+02  0.00000000000E+00 0.  1.
         11    1    3    3    0    0  0.71077914332E+01 -0.94985035344E+00 -0.69635477307E+01  0.99956946737E+01  0.51100000000E-03 0. -1.
        -11    1    3    3    0    0 -0.16628299672E+02  0.85232867107E+01 -0.19084158564E+02  0.26708647938E+02  0.51100000000E-03 0.  1.
         12    1    3    3    0    0 -0.72901940987E+01  0.96212556456E+01 -0.67380889212E+01  0.13824519250E+02  0.00000000000E+00 0. -1.
</event>
<event>
 7    1  0.4878192E-011  0.5052886E+02  0.7816164E-02  0.1300439E+00
        -11   -1    0    0    0    0  0.00000000000E+00  0.00000000000E+00  0.45593999997E+02  0.45594000000E+02  0.51100000000E-03 0.  1.
         11   -1    0    0    0    0 -0.00000000000E+00 -0.00000000000E+00 -0.45593999997E+02  0.45594000000E+02  0.51100000000E-03 0. -1.
    9900012    2    1    2    0    0 -0.92993612454E+01 -0.72582672368E+01 -0.38910222857E+02  0.50528855818E+02  0.29999987745E+02 0.  0.
        -12    1    1    2    0    0  0.92993612454E+01  0.72582672368E+01  0.38910222857E+02  0.40659144182E+02  0.00000000000E+00 0.  1.
         11    1    3    3    0    0  0.26614770622E+01 -0.13947487570E+02 -0.28946323604E+02  0.32241363496E+02  0.51100000000E-03 0. -1.
        -11    1    3    3    0    0 -0.89756749647E+01  0.79015342405E+01 -0.88560357328E+01  0.14880401661E+02  0.51100000000E-03 0.  1.
         12    1    3    3    0    0 -0.29851633429E+01 -0.12123139077E+01 -0.11078635201E+01  0.34070906613E+01  0.00000000000E+00 0. -1.
</event>
<event>
 7    1  0.4878192E-011  0.5052887E+02  0.7816164E-02  0.1300439E+00
        -11   -1    0    0    0    0  0.00000000000E+00  0.00000000000E+00  0.45593999997E+02  0.45594000000E+02  0.51100000000E-03 0. -1.
         11   -1    0    0    0    0 -0.00000000000E+00 -0.00000000000E+00 -0.45593999997E+02  0.45594000000E+02  0.51100000000E-03 0.  1.
    9900012    2    1    2    0    0 -0.34827045774E+02 -0.14547244868E+02 -0.15120155817E+02  0.50528873564E+02  0.30000041686E+02 0.  0.
        -12    1    1    2    0    0  0.34827045774E+02  0.14547244868E+02  0.15120155817E+02  0.40659126436E+02  0.00000000000E+00 0.  1.
         11    1    3    3    0    0 -0.23672150279E+02 -0.15802471363E+02 -0.16740861165E+01  0.28511249790E+02  0.51100000000E-03 0. -1.
        -11    1    3    3    0    0 -0.29263602224E+01 -0.51912015524E+01 -0.86814442562E+01  0.10529939807E+02  0.51100000000E-03 0.  1.
         12    1    3    3    0    0 -0.82285352730E+01  0.64464280475E+01 -0.47646254441E+01  0.11487683967E+02  0.00000000000E+00 0. -1.
</event>
<event>
 7    1  0.4878192E-011  0.5052886E+02  0.7816164E-02  0.1300439E+00
        -11   -1    0    0    0    0  0.00000000000E+00  0.00000000000E+00  0.45593999997E+02  0.45594000000E+02  0.51100000000E-03 0.  1.
         11   -1    0    0    0    0 -0.00000000000E+00 -0.00000000000E+00 -0.45593999997E+02  0.45594000000E+02  0.51100000000E-03 0. -1.
    9900012    2    1    2    0    0  0.34443956271E+02 -0.13629303877E+02 -0.16763700487E+02  0.50528859554E+02  0.29999999100E+02 0.  0.
        -12    1    1    2    0    0 -0.34443956271E+02  0.13629303877E+02  0.16763700487E+02  0.40659140446E+02  0.00000000000E+00 0.  1.
         11    1    3    3    0    0  0.15298172055E+02 -0.14321697646E+02 -0.36895644500E+01  0.21278110296E+02  0.51100000000E-03 0. -1.
        -11    1    3    3    0    0  0.13841361513E+02  0.23628892273E+01 -0.17288986113E+02  0.22272754098E+02  0.51100000000E-03 0.  1.
        -12    1    3    3    0    0  0.53044227031E+01 -0.16704954582E+01  0.42148500757E+01  0.69779951597E+01  0.00000000000E+00 0.  1.
</event>
<event>
 7    1  0.4878192E-011  0.5052885E+02  0.7816164E-02  0.1300439E+00
        -11   -1    0    0    0    0  0.00000000000E+00  0.00000000000E+00  0.45593999997E+02  0.45594000000E+02  0.51100000000E-03 0.  1.
         11   -1    0    0    0    0 -0.00000000000E+00 -0.00000000000E+00 -0.45593999997E+02  0.45594000000E+02  0.51100000000E-03 0. -1.
    9900012    2    1    2    0    0  0.15018688554E+02 -0.37771100106E+02  0.97428855636E+00  0.50528852846E+02  0.29999978711E+02 0.  0.
        -12    1    1    2    0    0 -0.15018688554E+02  0.37771100106E+02 -0.97428855636E+00  0.40659147154E+02  0.00000000000E+00 0.  1.
         11    1    3    3    0    0  0.12323909560E+02 -0.35362014425E+02 -0.38700564915E+01  0.37647418883E+02  0.51100000000E-03 0. -1.
        -11    1    3    3    0    0 -0.20122618733E+01  0.34423841999E+01  0.80546580632E-01  0.39881944335E+01  0.51100000000E-03 0.  1.
         12    1    3    3    0    0  0.47070408679E+01 -0.58514698810E+01  0.47637984672E+01  0.88932395299E+01  0.00000000000E+00 0. -1.
</event>
<event>
 7    1  0.4878192E-011  0.5052885E+02  0.7816164E-02  0.1300439E+00
        -11   -1    0    0    0    0  0.00000000000E+00  0.00000000000E+00  0.45593999997E+02  0.45594000000E+02  0.51100000000E-03 0.  1.
         11   -1    0    0    0    0 -0.00000000000E+00 -0.00000000000E+00 -0.45593999997E+02  0.45594000000E+02  0.51100000000E-03 0. -1.
    9900012    2    1    2    0    0  0.20827446263E+00 -0.34469684532E+01 -0.40512237016E+02  0.50528851978E+02  0.29999976073E+02 0.  0.
        -12    1    1    2    0    0 -0.20827446263E+00  0.34469684532E+01  0.40512237016E+02  0.40659148022E+02  0.00000000000E+00 0.  1.
         11    1    3    3    0    0  0.30288038367E+01  0.10519493628E+02 -0.30179636265E+02  0.32103642226E+02  0.51100000000E-03 0. -1.
        -11    1    3    3    0    0 -0.37118276978E+01 -0.51239162172E+01 -0.36370012337E+01  0.72979422096E+01  0.51100000000E-03 0.  1.
         12    1    3    3    0    0  0.89129832374E+00 -0.88425458637E+01 -0.66955995180E+01  0.11127267542E+02  0.00000000000E+00 0. -1.
</event>
<event>
 7    1  0.4878192E-011  0.5052886E+02  0.7816164E-02  0.1300439E+00
        -11   -1    0    0    0    0  0.00000000000E+00  0.00000000000E+00  0.45593999997E+02  0.45594000000E+02  0.51100000000E-03 0. -1.
         11   -1    0    0    0    0 -0.00000000000E+00 -0.00000000000E+00 -0.45593999997E+02  0.45594000000E+02  0.51100000000E-03 0.  1.
    9900012    2    1    2    0    0  0.21614971626E+01 -0.40353757207E+02  0.44796783029E+01  0.50528864392E+02  0.30000013804E+02 0.  0.
        -12    1    1    2    0    0 -0.21614971626E+01  0.40353757207E+02 -0.44796783029E+01  0.40659135608E+02  0.00000000000E+00 0.  1.
         11    1    3    3    0    0 -0.47865708504E+01 -0.13569463486E+02 -0.29924113348E+01  0.14696806649E+02  0.51100000000E-03 0. -1.
        -11    1    3    3    0    0  0.14069558300E+02 -0.15830096251E+02  0.87874246004E+00  0.21197089580E+02  0.51100000000E-03 0.  1.
        -12    1    3    3    0    0 -0.71214902874E+01 -0.10954197470E+02  0.65933471776E+01  0.14634968163E+02  0.00000000000E+00 0.  1.
</event>
<event>
 7    1  0.4878192E-011  0.5052886E+02  0.7816164E-02  0.1300439E+00
        -11   -1    0    0    0    0  0.00000000000E+00  0.00000000000E+00  0.45593999997E+02  0.45594000000E+02  0.51100000000E-03 0. -1.
         11   -1    0    0    0    0 -0.00000000000E+00 -0.00000000000E+00 -0.45593999997E+02  0.45594000000E+02  0.51100000000E-03 0.  1.
    9900012    2    1    2    0    0  0.16560153985E+02 -0.36334815424E+02 -0.76621354537E+01  0.50528857957E+02  0.29999994247E+02 0.  0.
        -12    1    1    2    0    0 -0.16560153985E+02  0.36334815424E+02  0.76621354537E+01  0.40659142043E+02  0.00000000000E+00 0.  1.
         11    1    3    3    0    0  0.50033186783E+01 -0.11718419511E+02  0.11312501870E+01  0.12791961573E+02  0.51100000000E-03 0. -1.
        -11    1    3    3    0    0 -0.34422245329E+01  0.15005246918E+01 -0.65322149010E+01  0.75346078769E+01  0.51100000000E-03 0.  1.
        -12    1    3    3    0    0  0.14999059840E+02 -0.26116920605E+02 -0.22611707398E+01  0.30202288508E+02  0.00000000000E+00 0.  1.
</event>
<event>
 7    1  0.4878192E-011  0.5052885E+02  0.7816164E-02  0.1300439E+00
        -11   -1    0    0    0    0  0.00000000000E+00  0.00000000000E+00  0.45593999997E+02  0.45594000000E+02  0.51100000000E-03 0.  1.
         11   -1    0    0    0    0 -0.00000000000E+00 -0.00000000000E+00 -0.45593999997E+02  0.45594000000E+02  0.51100000000E-03 0. -1.
    9900012    2    1    2    0    0  0.26503459460E+02 -0.21609897693E+02 -0.21994209178E+02  0.50528852456E+02  0.29999977524E+02 0.  0.
        -12    1    1    2    0    0 -0.26503459460E+02  0.21609897693E+02  0.21994209178E+02  0.40659147544E+02  0.00000000000E+00 0.  1.
         11    1    3    3    0    0  0.48324245461E+01 -0.68933300766E+01 -0.47196516899E+01  0.96511884695E+01  0.51100000000E-03 0. -1.
        -11    1    3    3    0    0  0.11855870741E+02 -0.30103341255E+01  0.55341123331E+01  0.13425728366E+02  0.51100000000E-03 0.  1.
        -12    1    3    3    0    0  0.98151641730E+01 -0.11706233491E+02 -0.22808669821E+02  0.27451935620E+02  0.00000000000E+00 0.  1.
</event>
<event>
 7    1  0.4878192E-011  0.5052886E+02  0.7816164E-02  0.1300439E+00
        -11   -1    0    0    0    0  0.00000000000E+00  0.00000000000E+00  0.45593999997E+02  0.45594000000E+02  0.51100000000E-03 0. -1.
         11   -1    0    0    0    0 -0.00000000000E+00 -0.00000000000E+00 -0.45593999997E+02  0.45594000000E+02  0.51100000000E-03 0.  1.
    9900012    2    1    2    0    0  0.69009114059E+01  0.15168092931E+02  0.37087354076E+02  0.50528862605E+02  0.30000008373E+02 0.  0.
        -12    1    1    2    0    0 -0.69009114059E+01 -0.15168092931E+02 -0.37087354076E+02  0.40659137395E+02  0.00000000000E+00 0.  1.
         11    1    3    3    0    0  0.54166736888E+00 -0.20267607429E+01  0.22935349228E+02  0.23031096525E+02  0.51100000000E-03 0. -1.
        -11    1    3    3    0    0  0.10649499956E+02  0.78938669199E+01  0.90822475503E+01  0.16068982702E+02  0.51100000000E-03 0.  1.
        -12    1    3    3    0    0 -0.42902559189E+01  0.93009867536E+01  0.50697572974E+01  0.11428783378E+02  0.00000000000E+00 0.  1.
</event>
<event>
 7    1  0.4878192E-011  0.5052889E+02  0.7816164E-02  0.1300439E+00
        -11   -1    0    0    0    0  0.00000000000E+00  0.00000000000E+00  0.45593999997E+02  0.45594000000E+02  0.51100000000E-03 0.  1.
         11   -1    0    0    0    0 -0.00000000000E+00 -0.00000000000E+00 -0.45593999997E+02  0.45594000000E+02  0.51100000000E-03 0. -1.
    9900012    2    1    2    0    0 -0.72954140357E+01 -0.35415625383E+02 -0.18592298552E+02  0.50528890901E+02  0.30000094384E+02 0.  0.
        -12    1    1    2    0    0  0.72954140357E+01  0.35415625383E+02  0.18592298552E+02  0.40659109099E+02  0.00000000000E+00 0.  1.
         11    1    3    3    0    0 -0.10330995178E+01 -0.32523608211E+02 -0.75897889029E+01  0.33413429659E+02  0.51100000000E-03 0. -1.
        -11    1    3    3    0    0  0.20436041555E+01  0.14372420050E+01  0.20798755330E+00  0.25070384139E+01  0.51100000000E-03 0.  1.
         12    1    3    3    0    0 -0.83059186734E+01 -0.43292591772E+01 -0.11210497202E+02  0.14608422829E+02  0.00000000000E+00 0. -1.
</event>
<event>
 7    1  0.4878192E-011  0.5052886E+02  0.7816164E-02  0.1300439E+00
        -11   -1    0    0    0    0  0.00000000000E+00  0.00000000000E+00  0.45593999997E+02  0.45594000000E+02  0.51100000000E-03 0.  1.
         11   -1    0    0    0    0 -0.00000000000E+00 -0.00000000000E+00 -0.45593999997E+02  0.45594000000E+02  0.51100000000E-03 0. -1.
    9900012    2    1    2    0    0 -0.30559671648E+02  0.23913617151E+01 -0.26712428208E+02  0.50528856344E+02  0.29999989342E+02 0.  0.
        -12    1    1    2    0    0  0.30559671648E+02 -0.23913617151E+01  0.26712428208E+02  0.40659143656E+02  0.00000000000E+00 0.  1.
         11    1    3    3    0    0 -0.41930217242E+01  0.10311402358E+02 -0.10714964982E+02  0.15450466809E+02  0.51100000000E-03 0. -1.
        -11    1    3    3    0    0 -0.76068470634E+01 -0.91245365762E+01 -0.30884282386E+01  0.12274350460E+02  0.51100000000E-03 0.  1.
        -12    1    3    3    0    0 -0.18759802861E+02  0.12044959329E+01 -0.12909034987E+02  0.22804039075E+02  0.00000000000E+00 0.  1.
</event>
<event>
 7    1  0.4878192E-011  0.5052887E+02  0.7816164E-02  0.1300439E+00
        -11   -1    0    0    0    0  0.00000000000E+00  0.00000000000E+00  0.45593999997E+02  0.45594000000E+02  0.51100000000E-03 0.  1.
         11   -1    0    0    0    0 -0.00000000000E+00 -0.00000000000E+00 -0.45593999997E+02  0.45594000000E+02  0.51100000000E-03 0. -1.
    9900012    2    1    2    0    0 -0.44895227520E+01 -0.39514173285E+02 -0.84639728486E+01  0.50528873825E+02  0.30000042477E+02 0.  0.
        -12    1    1    2    0    0  0.44895227520E+01  0.39514173285E+02  0.84639728486E+01  0.40659126175E+02  0.00000000000E+00 0.  1.
         11    1    3    3    0    0 -0.35029408535E+01 -0.21628200190E+02  0.10442515241E+02  0.24271295040E+02  0.51100000000E-03 0. -1.
        -11    1    3    3    0    0 -0.84734663420E+00 -0.68272171462E+01 -0.95567587033E+01  0.11775420479E+02  0.51100000000E-03 0.  1.
         12    1    3    3    0    0 -0.13923526430E+00 -0.11058755949E+02 -0.93497293864E+01  0.14482158306E+02  0.00000000000E+00 0. -1.
</event>
<event>
 7    1  0.4878192E-011  0.5052886E+02  0.7816164E-02  0.1300439E+00
        -11   -1    0    0    0    0  0.00000000000E+00  0.00000000000E+00  0.45593999997E+02  0.45594000000E+02  0.51100000000E-03 0.  1.
         11   -1    0    0    0    0 -0.00000000000E+00 -0.00000000000E+00 -0.45593999997E+02  0.45594000000E+02  0.51100000000E-03 0. -1.
    9900012    2    1    2    0    0 -0.39335836004E+02 -0.91576985707E+01 -0.46897978079E+01  0.50528860305E+02  0.30000001383E+02 0.  0.
        -12    1    1    2    0    0  0.39335836004E+02  0.91576985707E+01  0.46897978079E+01  0.40659139695E+02  0.00000000000E+00 0.  1.
         11    1    3    3    0    0 -0.26119840272E+02 -0.10492176139E+02 -0.15730851911E+02  0.32245798456E+02  0.51100000000E-03 0. -1.
        -11    1    3    3    0    0 -0.34817273182E+01 -0.23022578865E+01  0.29052916930E+01  0.50856205695E+01  0.51100000000E-03 0.  1.
         12    1    3    3    0    0 -0.97342684140E+01  0.36367354552E+01  0.81357624100E+01  0.13197441279E+02  0.00000000000E+00 0. -1.
</event>
<event>
 7    1  0.4878192E-011  0.5052886E+02  0.7816164E-02  0.1300439E+00
        -11   -1    0    0    0    0  0.00000000000E+00  0.00000000000E+00  0.45593999997E+02  0.45594000000E+02  0.51100000000E-03 0.  1.
         11   -1    0    0    0    0 -0.00000000000E+00 -0.00000000000E+00 -0.45593999997E+02  0.45594000000E+02  0.51100000000E-03 0. -1.
    9900012    2    1    2    0    0 -0.32970033872E+02 -0.17145016790E+02 -0.16498215383E+02  0.50528857792E+02  0.29999993745E+02 0.  0.
        -12    1    1    2    0    0  0.32970033872E+02  0.17145016790E+02  0.16498215383E+02  0.40659142208E+02  0.00000000000E+00 0.  1.
         11    1    3    3    0    0 -0.23934412996E+02 -0.15603720250E+01 -0.18813395879E+01  0.24058892851E+02  0.51100000000E-03 0. -1.
        -11    1    3    3    0    0 -0.92221097511E+00 -0.12846786307E+02 -0.56293734241E+01  0.14056323733E+02  0.51100000000E-03 0.  1.
         12    1    3    3    0    0 -0.81134099007E+01 -0.27378584582E+01 -0.89875023713E+01  0.12413641207E+02  0.00000000000E+00 0. -1.
</event>
<event>
 7    1  0.4878192E-011  0.5052886E+02  0.7816164E-02  0.1300439E+00
        -11   -1    0    0    0    0  0.00000000000E+00  0.00000000000E+00  0.45593999997E+02  0.45594000000E+02  0.51100000000E-03 0.  1.
         11   -1    0    0    0    0 -0.00000000000E+00 -0.00000000000E+00 -0.45593999997E+02  0.45594000000E+02  0.51100000000E-03 0. -1.
    9900012    2    1    2    0    0 -0.25701621696E+02  0.11342057897E+02 -0.29393033221E+02  0.50528855431E+02  0.29999986569E+02 0.  0.
        -12    1    1    2    0    0  0.25701621696E+02 -0.11342057897E+02  0.29393033221E+02  0.40659144569E+02  0.00000000000E+00 0.  1.
         11    1    3    3    0    0 -0.94170917155E+01  0.15044673911E+02 -0.21483638306E+02  0.27867015351E+02  0.51100000000E-03 0. -1.
        -11    1    3    3    0    0 -0.16371349366E+02  0.10138981346E+01 -0.71094838330E+01  0.17877187422E+02  0.51100000000E-03 0.  1.
        -12    1    3    3    0    0  0.86819386056E-01 -0.47165141483E+01 -0.79991108178E+00  0.47846526578E+01  0.00000000000E+00 0.  1.
</event>
<event>
 7    1  0.4878192E-011  0.5052893E+02  0.7816164E-02  0.1300439E+00
        -11   -1    0    0    0    0  0.00000000000E+00  0.00000000000E+00  0.45593999997E+02  0.45594000000E+02  0.51100000000E-03 0.  1.
         11   -1    0    0    0    0 -0.00000000000E+00 -0.00000000000E+00 -0.45593999997E+02  0.45594000000E+02  0.51100000000E-03 0. -1.
    9900012    2    1    2    0    0  0.28940838307E+02 -0.13169876151E+00 -0.28558193533E+02  0.50528931093E+02  0.30000216550E+02 0.  0.
        -12    1    1    2    0    0 -0.28940838307E+02  0.13169876151E+00  0.28558193533E+02  0.40659068907E+02  0.00000000000E+00 0.  1.
         11    1    3    3    0    0 -0.77122449517E+00  0.75155579949E+01 -0.22002776247E+01  0.78689021524E+01  0.51100000000E-03 0. -1.
        -11    1    3    3    0    0  0.26317799647E+02 -0.98999972105E+01 -0.26423838379E+02  0.38585693695E+02  0.51100000000E-03 0.  1.
         12    1    3    3    0    0  0.33942631556E+01  0.22527404540E+01  0.65922470146E-01  0.40743352457E+01  0.00000000000E+00 0. -1.
</event>
<event>
 7    1  0.4878192E-011  0.5052887E+02  0.7816164E-02  0.1300439E+00
        -11   -1    0    0    0    0  0.00000000000E+00  0.00000000000E+00  0.45593999997E+02  0.45594000000E+02  0.51100000000E-03 0. -1.
         11   -1    0    0    0    0 -0.00000000000E+00 -0.00000000000E+00 -0.45593999997E+02  0.45594000000E+02  0.51100000000E-03 0.  1.
    9900012    2    1    2    0    0  0.21392039987E+02 -0.65193949662E+01  0.33956492089E+02  0.50528865226E+02  0.30000016342E+02 0.  0.
        -12    1    1    2    0    0 -0.21392039987E+02  0.65193949662E+01 -0.33956492089E+02  0.40659134774E+02  0.00000000000E+00 0.  1.
         11    1    3    3    0    0  0.11509963306E+02 -0.79453378786E+01  0.32315299379E+02  0.35212018169E+02  0.51100000000E-03 0. -1.
        -11    1    3    3    0    0  0.65828323669E+01 -0.46969510858E+01 -0.31154623733E+00  0.80927185045E+01  0.51100000000E-03 0.  1.
         12    1    3    3    0    0  0.32992443136E+01  0.61228939983E+01  0.19527389480E+01  0.72241285532E+01  0.00000000000E+00 0. -1.
</event>
<event>
 7    1  0.4878192E-011  0.5052886E+02  0.7816164E-02  0.1300439E+00
        -11   -1    0    0    0    0  0.00000000000E+00  0.00000000000E+00  0.45593999997E+02  0.45594000000E+02  0.51100000000E-03 0. -1.
         11   -1    0    0    0    0 -0.00000000000E+00 -0.00000000000E+00 -0.45593999997E+02  0.45594000000E+02  0.51100000000E-03 0.  1.
    9900012    2    1    2    0    0  0.35091228108E+02  0.60394637695E+01  0.19628955163E+02  0.50528864575E+02  0.30000014361E+02 0.  0.
        -12    1    1    2    0    0 -0.35091228108E+02 -0.60394637695E+01 -0.19628955163E+02  0.40659135425E+02  0.00000000000E+00 0.  1.
         11    1    3    3    0    0  0.74888496756E+01 -0.10264743715E+01 -0.10712889153E+01  0.76344075932E+01  0.51100000000E-03 0.  1.
        -11    1    3    3    0    0  0.30643386169E+02  0.72292155642E+01  0.23072986352E+02  0.39033849067E+02  0.51100000000E-03 0. -1.
        -12    1    3    3    0    0 -0.30410077366E+01 -0.16327742328E+00 -0.23727422733E+01  0.38606079141E+01  0.00000000000E+00 0.  1.
</event>
<event>
 7    1  0.4878192E-011  0.5052889E+02  0.7816164E-02  0.1300439E+00
        -11   -1    0    0    0    0  0.00000000000E+00  0.00000000000E+00  0.45593999997E+02  0.45594000000E+02  0.51100000000E-03 0. -1.
         11   -1    0    0    0    0 -0.00000000000E+00 -0.00000000000E+00 -0.45593999997E+02  0.45594000000E+02  0.51100000000E-03 0.  1.
    9900012    2    1    2    0    0 -0.19147501678E+02  0.10517218711E+02  0.34291755209E+02  0.50528890502E+02  0.30000093169E+02 0.  0.
        -12    1    1    2    0    0  0.19147501678E+02 -0.10517218711E+02 -0.34291755209E+02  0.40659109498E+02  0.00000000000E+00 0.  1.
         11    1    3    3    0    0 -0.20115857501E+01 -0.45718691322E+01  0.76013144740E+01  0.90955179394E+01  0.51100000000E-03 0. -1.
        -11    1    3    3    0    0 -0.47655479474E+01  0.17794365144E+02  0.11754964633E+02  0.21852438580E+02  0.51100000000E-03 0.  1.
        -12    1    3    3    0    0 -0.12370367980E+02 -0.27052773011E+01  0.14935476102E+02  0.19580933982E+02  0.00000000000E+00 0.  1.
</event>
<event>
 7    1  0.4878192E-011  0.5052886E+02  0.7816164E-02  0.1300439E+00
        -11   -1    0    0    0    0  0.00000000000E+00  0.00000000000E+00  0.45593999997E+02  0.45594000000E+02  0.51100000000E-03 0. -1.
         11   -1    0    0    0    0 -0.00000000000E+00 -0.00000000000E+00 -0.45593999997E+02  0.45594000000E+02  0.51100000000E-03 0.  1.
    9900012    2    1    2    0    0  0.93723328212E+00 -0.39931704388E+02  0.75991064385E+01  0.50528857852E+02  0.29999993926E+02 0.  0.
        -12    1    1    2    0    0 -0.93723328212E+00  0.39931704388E+02 -0.75991064385E+01  0.40659142148E+02  0.00000000000E+00 0.  1.
         11    1    3    3    0    0  0.33608480551E+01 -0.23338088176E+02 -0.99145856211E+01  0.25578519653E+02  0.51100000000E-03 0.  1.
        -11    1    3    3    0    0 -0.37760751202E+01 -0.14492635146E+02  0.13190743817E+02  0.19957227751E+02  0.51100000000E-03 0. -1.
        -12    1    3    3    0    0  0.13524603472E+01 -0.21009810663E+01  0.43229482427E+01  0.49931104474E+01  0.00000000000E+00 0.  1.
</event>
<event>
 7    1  0.4878192E-011  0.5052886E+02  0.7816164E-02  0.1300439E+00
        -11   -1    0    0    0    0  0.00000000000E+00  0.00000000000E+00  0.45593999997E+02  0.45594000000E+02  0.51100000000E-03 0.  1.
         11   -1    0    0    0    0 -0.00000000000E+00 -0.00000000000E+00 -0.45593999997E+02  0.45594000000E+02  0.51100000000E-03 0. -1.
    9900012    2    1    2    0    0  0.37544822764E+01 -0.34138005897E+02 -0.21763867725E+02  0.50528861764E+02  0.30000005817E+02 0.  0.
        -12    1    1    2    0    0 -0.37544822764E+01  0.34138005897E+02  0.21763867725E+02  0.40659138236E+02  0.00000000000E+00 0.  1.
         11    1    3    3    0    0 -0.69088338148E-01 -0.19515542624E+01 -0.92319338108E+00  0.21600054439E+01  0.51100000000E-03 0. -1.
        -11    1    3    3    0    0  0.90992706114E+01 -0.32644925468E+02 -0.24598278259E+02  0.41875567793E+02  0.51100000000E-03 0.  1.
        -12    1    3    3    0    0 -0.52756999969E+01  0.45847383363E+00  0.37576039143E+01  0.64932885266E+01  0.00000000000E+00 0.  1.
</event>
<event>
 7    1  0.4878192E-011  0.5052886E+02  0.7816164E-02  0.1300439E+00
        -11   -1    0    0    0    0  0.00000000000E+00  0.00000000000E+00  0.45593999997E+02  0.45594000000E+02  0.51100000000E-03 0. -1.
         11   -1    0    0    0    0 -0.00000000000E+00 -0.00000000000E+00 -0.45593999997E+02  0.45594000000E+02  0.51100000000E-03 0.  1.
    9900012    2    1    2    0    0 -0.25841880611E+02  0.30899623504E+02  0.55295660777E+01  0.50528860471E+02  0.30000001889E+02 0.  0.
        -12    1    1    2    0    0  0.25841880611E+02 -0.30899623504E+02 -0.55295660777E+01  0.40659139529E+02  0.00000000000E+00 0.  1.
         11    1    3    3    0    0  0.12821154534E+01 -0.11785008638E+01  0.88988558443E+00  0.19556535829E+01  0.51100000000E-03 0. -1.
        -11    1    3    3    0    0 -0.16250256707E+02  0.32323187472E+02 -0.12591626649E+01  0.36200066053E+02  0.51100000000E-03 0.  1.
        -12    1    3    3    0    0 -0.10873739357E+02 -0.24506310364E+00  0.58988431581E+01  0.12373140835E+02  0.00000000000E+00 0.  1.
</event>
<event>
 7    1  0.4878192E-011  0.5052884E+02  0.7816164E-02  0.1300439E+00
        -11   -1    0    0    0    0  0.00000000000E+00  0.00000000000E+00  0.45593999997E+02  0.45594000000E+02  0.51100000000E-03 0. -1.
         11   -1    0    0    0    0 -0.00000000000E+00 -0.00000000000E+00 -0.45593999997E+02  0.45594000000E+02  0.51100000000E-03 0.  1.
    9900012    2    1    2    0    0 -0.13930087358E+02  0.34526800290E+02 -0.16340735207E+02  0.50528844830E+02  0.29999954345E+02 0.  0.
        -12    1    1    2    0    0  0.13930087358E+02 -0.34526800290E+02  0.16340735207E+02  0.40659155170E+02  0.00000000000E+00 0.  1.
         11    1    3    3    0    0 -0.26302564194E+01  0.19776321911E+01  0.67361056087E+01  0.74969591801E+01  0.51100000000E-03 0. -1.
        -11    1    3    3    0    0 -0.11652240878E+01  0.10347425130E+02 -0.12928849994E+02  0.16600666144E+02  0.51100000000E-03 0.  1.
         12    1    3    3    0    0 -0.10134606851E+02  0.22201742968E+02 -0.10147990822E+02  0.26431219506E+02  0.00000000000E+00 0. -1.
</event>
<event>
 7    1  0.4878192E-011  0.5052886E+02  0.7816164E-02  0.1300439E+00
        -11   -1    0    0    0    0  0.00000000000E+00  0.00000000000E+00  0.45593999997E+02  0.45594000000E+02  0.51100000000E-03 0. -1.
         11   -1    0    0    0    0 -0.00000000000E+00 -0.00000000000E+00 -0.45593999997E+02  0.45594000000E+02  0.51100000000E-03 0.  1.
    9900012    2    1    2    0    0 -0.35141449387E+01  0.29473953916E+02  0.27786726482E+02  0.50528863971E+02  0.30000012525E+02 0.  0.
        -12    1    1    2    0    0  0.35141449387E+01 -0.29473953916E+02 -0.27786726482E+02  0.40659136029E+02  0.00000000000E+00 0.  1.
         11    1    3    3    0    0 -0.31028884507E+01  0.16626791099E+02  0.66202476635E+01  0.18163308574E+02  0.51100000000E-03 0. -1.
        -11    1    3    3    0    0  0.53046833009E+01 -0.33402612928E+01  0.18778819715E+01  0.65439629726E+01  0.51100000000E-03 0.  1.
        -12    1    3    3    0    0 -0.57159397888E+01  0.16187424110E+02  0.19288596847E+02  0.25821592424E+02  0.00000000000E+00 0.  1.
</event>
<event>
 7    1  0.7149971E-011  0.5052883E+02  0.7816164E-02  0.1300439E+00
        -11   -1    0    0    0    0  0.00000000000E+00  0.00000000000E+00  0.45593999997E+02  0.45594000000E+02  0.51100000000E-03 0.  1.
         11   -1    0    0    0    0 -0.00000000000E+00 -0.00000000000E+00 -0.45593999997E+02  0.45594000000E+02  0.51100000000E-03 0. -1.
    9900012    2    1    2    0    0  0.23670620680E+02  0.33054892156E+02 -0.49352877098E+00  0.50528834373E+02  0.29999922561E+02 0.  0.
        -12    1    1    2    0    0 -0.23670620680E+02 -0.33054892156E+02  0.49352877098E+00  0.40659165627E+02  0.00000000000E+00 0.  1.
         11    1    3    3    0    0  0.22854736950E+02  0.15125016276E+02  0.38030475754E+01  0.27668904740E+02  0.51100000000E-03 0. -1.
        -11    1    3    3    0    0 -0.27035460641E+01  0.18092941159E+01  0.33538223805E+01  0.46723475192E+01  0.51100000000E-03 0.  1.
         12    1    3    3    0    0  0.35194297943E+01  0.16120581764E+02 -0.76503987268E+01  0.18187582114E+02  0.00000000000E+00 0. -1.
</event>
<event>
 7    1  0.4878192E-011  0.5052885E+02  0.7816164E-02  0.1300439E+00
        -11   -1    0    0    0    0  0.00000000000E+00  0.00000000000E+00  0.45593999997E+02  0.45594000000E+02  0.51100000000E-03 0. -1.
         11   -1    0    0    0    0 -0.00000000000E+00 -0.00000000000E+00 -0.45593999997E+02  0.45594000000E+02  0.51100000000E-03 0.  1.
    9900012    2    1    2    0    0  0.18635220605E+02 -0.24830479231E+02 -0.26255326200E+02  0.50528852202E+02  0.29999976753E+02 0.  0.
        -12    1    1    2    0    0 -0.18635220605E+02  0.24830479231E+02  0.26255326200E+02  0.40659147798E+02  0.00000000000E+00 0.  1.
         11    1    3    3    0    0  0.59830786209E+01 -0.51785807648E+01  0.98137235038E+00  0.79735826623E+01  0.51100000000E-03 0. -1.
        -11    1    3    3    0    0  0.16758374239E+02 -0.22215089154E+02 -0.22540660654E+02  0.35811097110E+02  0.51100000000E-03 0.  1.
        -12    1    3    3    0    0 -0.41062322552E+01  0.25631906881E+01 -0.46960378958E+01  0.67441724293E+01  0.00000000000E+00 0.  1.
</event>
<event>
 7    1  0.4878192E-011  0.5052887E+02  0.7816164E-02  0.1300439E+00
        -11   -1    0    0    0    0  0.00000000000E+00  0.00000000000E+00  0.45593999997E+02  0.45594000000E+02  0.51100000000E-03 0.  1.
         11   -1    0    0    0    0 -0.00000000000E+00 -0.00000000000E+00 -0.45593999997E+02  0.45594000000E+02  0.51100000000E-03 0. -1.
    9900012    2    1    2    0    0 -0.67509583974E+01  0.11557130003E+02 -0.38392992869E+02  0.50528873169E+02  0.30000040485E+02 0.  0.
        -12    1    1    2    0    0  0.67509583974E+01 -0.11557130003E+02  0.38392992869E+02  0.40659126831E+02  0.00000000000E+00 0.  1.
         11    1    3    3    0    0 -0.93210504922E+01 -0.14955382632E+01 -0.29885599962E+02  0.31341150303E+02  0.51100000000E-03 0. -1.
        -11    1    3    3    0    0  0.12083296238E+01  0.14870687888E+02 -0.71891369066E+01  0.16561434372E+02  0.51100000000E-03 0.  1.
         12    1    3    3    0    0  0.13617624710E+01 -0.18180196213E+01 -0.13182560007E+01  0.26262884941E+01  0.00000000000E+00 0. -1.
</event>
<event>
 7    1  0.4878192E-011  0.5052888E+02  0.7816164E-02  0.1300439E+00
        -11   -1    0    0    0    0  0.00000000000E+00  0.00000000000E+00  0.45593999997E+02  0.45594000000E+02  0.51100000000E-03 0.  1.
         11   -1    0    0    0    0 -0.00000000000E+00 -0.00000000000E+00 -0.45593999997E+02  0.45594000000E+02  0.51100000000E-03 0. -1.
    9900012    2    1    2    0    0 -0.25037279082E+01 -0.17054987690E+02 -0.36824210071E+02  0.50528884099E+02  0.30000073706E+02 0.  0.
        -12    1    1    2    0    0  0.25037279082E+01  0.17054987690E+02  0.36824210071E+02  0.40659115901E+02  0.00000000000E+00 0.  1.
         11    1    3    3    0    0  0.42867725366E+00 -0.82156629687E+01 -0.30739445780E+02  0.31821288618E+02  0.51100000000E-03 0. -1.
        -11    1    3    3    0    0 -0.24891595876E+01  0.39657294325E+01 -0.42801485034E+00  0.47017148316E+01  0.51100000000E-03 0.  1.
         12    1    3    3    0    0 -0.44324557421E+00 -0.12805054153E+02 -0.56567494409E+01  0.14005880649E+02  0.00000000000E+00 0. -1.
</event>
<event>
 7    1  0.4878192E-011  0.5052887E+02  0.7816164E-02  0.1300439E+00
        -11   -1    0    0    0    0  0.00000000000E+00  0.00000000000E+00  0.45593999997E+02  0.45594000000E+02  0.51100000000E-03 0. -1.
         11   -1    0    0    0    0 -0.00000000000E+00 -0.00000000000E+00 -0.45593999997E+02  0.45594000000E+02  0.51100000000E-03 0.  1.
    9900012    2    1    2    0    0  0.35900617044E+02  0.64882038348E+01  0.17950315855E+02  0.50528869015E+02  0.30000027858E+02 0.  0.
        -12    1    1    2    0    0 -0.35900617044E+02 -0.64882038348E+01 -0.17950315855E+02  0.40659130985E+02  0.00000000000E+00 0.  1.
         11    1    3    3    0    0  0.17159101747E+02 -0.58169146337E-01 -0.14309751664E+01  0.17218764375E+02  0.51100000000E-03 0. -1.
        -11    1    3    3    0    0 -0.16203653447E-01 -0.15631883261E+01  0.11182249050E+02  0.11290992622E+02  0.51100000000E-03 0.  1.
        -12    1    3    3    0    0  0.18757718950E+02  0.81095613072E+01  0.81990419712E+01  0.22019112018E+02  0.00000000000E+00 0.  1.
</event>
<event>
 7    1  0.4878192E-011  0.5052885E+02  0.7816164E-02  0.1300439E+00
        -11   -1    0    0    0    0  0.00000000000E+00  0.00000000000E+00  0.45593999997E+02  0.45594000000E+02  0.51100000000E-03 0. -1.
         11   -1    0    0    0    0 -0.00000000000E+00 -0.00000000000E+00 -0.45593999997E+02  0.45594000000E+02  0.51100000000E-03 0.  1.
    9900012    2    1    2    0    0  0.39365211211E+01 -0.21258964815E+02  0.34434382628E+02  0.50528849855E+02  0.29999969620E+02 0.  0.
        -12    1    1    2    0    0 -0.39365211211E+01  0.21258964815E+02 -0.34434382628E+02  0.40659150145E+02  0.00000000000E+00 0.  1.
         11    1    3    3    0    0  0.12720163880E+02 -0.45606344466E+01  0.91865136972E+01  0.16339950730E+02  0.51100000000E-03 0. -1.
        -11    1    3    3    0    0 -0.11102642536E+02 -0.16629621779E+02  0.19240279097E+02  0.27748897848E+02  0.51100000000E-03 0.  1.
         12    1    3    3    0    0  0.23189997768E+01 -0.68708588726E-01  0.60075898335E+01  0.64400012766E+01  0.00000000000E+00 0. -1.
</event>
<event>
 7    1  0.4878192E-011  0.5052886E+02  0.7816164E-02  0.1300439E+00
        -11   -1    0    0    0    0  0.00000000000E+00  0.00000000000E+00  0.45593999997E+02  0.45594000000E+02  0.51100000000E-03 0.  1.
         11   -1    0    0    0    0 -0.00000000000E+00 -0.00000000000E+00 -0.45593999997E+02  0.45594000000E+02  0.51100000000E-03 0. -1.
    9900012    2    1    2    0    0  0.15259532708E+02  0.18966162465E+02 -0.32566806802E+02  0.50528861269E+02  0.30000004313E+02 0.  0.
        -12    1    1    2    0    0 -0.15259532708E+02 -0.18966162465E+02  0.32566806802E+02  0.40659138731E+02  0.00000000000E+00 0.  1.
         11    1    3    3    0    0  0.66954012699E+01  0.24426189590E+02 -0.27023318813E+02  0.37036831614E+02  0.51100000000E-03 0. -1.
        -11    1    3    3    0    0  0.89767084525E+01 -0.25165974854E+01 -0.40279148627E+01  0.10155720356E+02  0.51100000000E-03 0.  1.
         12    1    3    3    0    0 -0.41257701477E+00 -0.29434296401E+01 -0.15155731261E+01  0.33363092992E+01  0.00000000000E+00 0. -1.
</event>
<event>
 7    1  0.4878192E-011  0.5052882E+02  0.7816164E-02  0.1300439E+00
        -11   -1    0    0    0    0  0.00000000000E+00  0.00000000000E+00  0.45593999997E+02  0.45594000000E+02  0.51100000000E-03 0.  1.
         11   -1    0    0    0    0 -0.00000000000E+00 -0.00000000000E+00 -0.45593999997E+02  0.45594000000E+02  0.51100000000E-03 0. -1.
    9900012    2    1    2    0    0 -0.10520767664E+02 -0.32053931042E+02 -0.22694232210E+02  0.50528816252E+02  0.29999867478E+02 0.  0.
        -12    1    1    2    0    0  0.10520767664E+02  0.32053931042E+02  0.22694232210E+02  0.40659183748E+02  0.00000000000E+00 0.  1.
         11    1    3    3    0    0 -0.70518272773E+01 -0.26564751511E+02 -0.17850191664E+02  0.32772604923E+02  0.51100000000E-03 0. -1.
        -11    1    3    3    0    0 -0.65300477605E+01 -0.45014327665E+01  0.36076198535E+01  0.87131706040E+01  0.51100000000E-03 0.  1.
        -12    1    3    3    0    0  0.30611073735E+01 -0.98774676464E+00 -0.84516604002E+01  0.90430407244E+01  0.00000000000E+00 0.  1.
</event>
<event>
 7    1  0.4878192E-011  0.5052886E+02  0.7816164E-02  0.1300439E+00
        -11   -1    0    0    0    0  0.00000000000E+00  0.00000000000E+00  0.45593999997E+02  0.45594000000E+02  0.51100000000E-03 0.  1.
         11   -1    0    0    0    0 -0.00000000000E+00 -0.00000000000E+00 -0.45593999997E+02  0.45594000000E+02  0.51100000000E-03 0. -1.
    9900012    2    1    2    0    0  0.71432820089E+01  0.21501661453E+02 -0.33761191824E+02  0.50528855930E+02  0.29999988085E+02 0.  0.
        -12    1    1    2    0    0 -0.71432820089E+01 -0.21501661453E+02  0.33761191824E+02  0.40659144070E+02  0.00000000000E+00 0.  1.
         11    1    3    3    0    0  0.20635258679E+01  0.18615917196E+02 -0.28331332672E+02  0.33962846219E+02  0.51100000000E-03 0. -1.
        -11    1    3    3    0    0 -0.35743107229E+01 -0.20974906127E+01 -0.51037070163E+01  0.65744193344E+01  0.51100000000E-03 0.  1.
         12    1    3    3    0    0  0.86540668639E+01  0.49832348693E+01 -0.32615213639E+00  0.99915903771E+01  0.00000000000E+00 0. -1.
</event>
<event>
 7    1  0.4878192E-011  0.5052889E+02  0.7816164E-02  0.1300439E+00
        -11   -1    0    0    0    0  0.00000000000E+00  0.00000000000E+00  0.45593999997E+02  0.45594000000E+02  0.51100000000E-03 0.  1.
         11   -1    0    0    0    0 -0.00000000000E+00 -0.00000000000E+00 -0.45593999997E+02  0.45594000000E+02  0.51100000000E-03 0. -1.
    9900012    2    1    2    0    0  0.18766569765E+02 -0.34634987669E+02 -0.10069580021E+02  0.50528893353E+02  0.30000101836E+02 0.  0.
        -12    1    1    2    0    0 -0.18766569765E+02  0.34634987669E+02  0.10069580021E+02  0.40659106647E+02  0.00000000000E+00 0.  1.
         11    1    3    3    0    0  0.44001847799E+00 -0.24692736031E+01 -0.10383133192E+02  0.10681778107E+02  0.51100000000E-03 0. -1.
        -11    1    3    3    0    0  0.57055613188E+01 -0.93239405956E+01  0.69069654649E+01  0.12930408748E+02  0.51100000000E-03 0.  1.
         12    1    3    3    0    0  0.12620989968E+02 -0.22841773470E+02 -0.65934122933E+01  0.26916706498E+02  0.00000000000E+00 0. -1.
</event>
<event>
 7    1  0.4878192E-011  0.5052886E+02  0.7816164E-02  0.1300439E+00
        -11   -1    0    0    0    0  0.00000000000E+00  0.00000000000E+00  0.45593999997E+02  0.45594000000E+02  0.51100000000E-03 0. -1.
         11   -1    0    0    0    0 -0.00000000000E+00 -0.00000000000E+00 -0.45593999997E+02  0.45594000000E+02  0.51100000000E-03 0.  1.
    9900012    2    1    2    0    0 -0.34838428768E+02  0.18895219243E+02  0.90785613712E+01  0.50528859505E+02  0.29999998951E+02 0.  0.
        -12    1    1    2    0    0  0.34838428768E+02 -0.18895219243E+02 -0.90785613712E+01  0.40659140495E+02  0.00000000000E+00 0.  1.
         11    1    3    3    0    0 -0.16050409987E+02  0.85123219055E+01 -0.80934449450E+00  0.18185992515E+02  0.51100000000E-03 0.  1.
        -11    1    3    3    0    0 -0.58214306574E+01  0.15647228223E+02  0.67038502831E+01  0.17990731359E+02  0.51100000000E-03 0. -1.
        -12    1    3    3    0    0 -0.12966588123E+02 -0.52643308855E+01  0.31840555825E+01  0.14352135632E+02  0.00000000000E+00 0.  1.
</event>
<event>
 7    1  0.4878192E-011  0.5052885E+02  0.7816164E-02  0.1300439E+00
        -11   -1    0    0    0    0  0.00000000000E+00  0.00000000000E+00  0.45593999997E+02  0.45594000000E+02  0.51100000000E-03 0.  1.
         11   -1    0    0    0    0 -0.00000000000E+00 -0.00000000000E+00 -0.45593999997E+02  0.45594000000E+02  0.51100000000E-03 0. -1.
    9900012    2    1    2    0    0  0.19463722199E+02  0.31869265612E+02 -0.16083524830E+02  0.50528851663E+02  0.29999975116E+02 0.  0.
        -12    1    1    2    0    0 -0.19463722199E+02 -0.31869265612E+02  0.16083524830E+02  0.40659148337E+02  0.00000000000E+00 0.  1.
         11    1    3    3    0    0  0.22278479527E+02  0.34249648124E+02 -0.15045626311E+02  0.43540095521E+02  0.51100000000E-03 0. -1.
        -11    1    3    3    0    0  0.24160350100E+00 -0.35372222273E+01  0.45889946011E-01  0.35457607767E+01  0.51100000000E-03 0.  1.
         12    1    3    3    0    0 -0.30563608295E+01  0.11568397153E+01 -0.10837884655E+01  0.34429953652E+01  0.00000000000E+00 0. -1.
</event>
<event>
 7    1  0.4878192E-011  0.5052885E+02  0.7816164E-02  0.1300439E+00
        -11   -1    0    0    0    0  0.00000000000E+00  0.00000000000E+00  0.45593999997E+02  0.45594000000E+02  0.51100000000E-03 0. -1.
         11   -1    0    0    0    0 -0.00000000000E+00 -0.00000000000E+00 -0.45593999997E+02  0.45594000000E+02  0.51100000000E-03 0.  1.
    9900012    2    1    2    0    0 -0.58390253021E+00  0.37149215503E+02 -0.16515486531E+02  0.50528850353E+02  0.29999971133E+02 0.  0.
        -12    1    1    2    0    0  0.58390253021E+00 -0.37149215503E+02  0.16515486531E+02  0.40659149647E+02  0.00000000000E+00 0.  1.
         11    1    3    3    0    0  0.53684352146E+01  0.37048611181E+02 -0.55706275462E+01  0.37847742054E+02  0.51100000000E-03 0. -1.
        -11    1    3    3    0    0 -0.21161503587E+01  0.91823101935E-01 -0.18576099558E+01  0.28173105671E+01  0.51100000000E-03 0.  1.
         12    1    3    3    0    0 -0.38361873861E+01  0.87812205000E-02 -0.90872490293E+01  0.98637977317E+01  0.00000000000E+00 0. -1.
</event>
<event>
 7    1  0.4878192E-011  0.5052887E+02  0.7816164E-02  0.1300439E+00
        -11   -1    0    0    0    0  0.00000000000E+00  0.00000000000E+00  0.45593999997E+02  0.45594000000E+02  0.51100000000E-03 0.  1.
         11   -1    0    0    0    0 -0.00000000000E+00 -0.00000000000E+00 -0.45593999997E+02  0.45594000000E+02  0.51100000000E-03 0. -1.
    9900012    2    1    2    0    0  0.30290798408E+02  0.12157087601E+02 -0.24245367949E+02  0.50528866781E+02  0.30000021069E+02 0.  0.
        -12    1    1    2    0    0 -0.30290798408E+02 -0.12157087601E+02  0.24245367949E+02  0.40659133219E+02  0.00000000000E+00 0.  1.
         11    1    3    3    0    0 -0.33751432499E+00  0.45546304446E+01 -0.51108212879E+01  0.68541278734E+01  0.51100000000E-03 0. -1.
        -11    1    3    3    0    0  0.13965038609E+02 -0.75713569584E+01 -0.12403252876E+02  0.20154116991E+02  0.51100000000E-03 0.  1.
        -12    1    3    3    0    0  0.16663274124E+02  0.15173814115E+02 -0.67312937848E+01  0.23520621917E+02  0.00000000000E+00 0.  1.
</event>
<event>
 7    1  0.4878192E-011  0.5052885E+02  0.7816164E-02  0.1300439E+00
        -11   -1    0    0    0    0  0.00000000000E+00  0.00000000000E+00  0.45593999997E+02  0.45594000000E+02  0.51100000000E-03 0.  1.
         11   -1    0    0    0    0 -0.00000000000E+00 -0.00000000000E+00 -0.45593999997E+02  0.45594000000E+02  0.51100000000E-03 0. -1.
    9900012    2    1    2    0    0  0.32538482574E+02  0.22844175026E+02 -0.85180389817E+01  0.50528853810E+02  0.29999981641E+02 0.  0.
        -12    1    1    2    0    0 -0.32538482574E+02 -0.22844175026E+02  0.85180389817E+01  0.40659146190E+02  0.00000000000E+00 0.  1.
         11    1    3    3    0    0  0.24844821024E+02  0.24176833630E+00 -0.77378913454E+00  0.24858043638E+02  0.51100000000E-03 0. -1.
        -11    1    3    3    0    0  0.27886774880E+01  0.12817109672E+02 -0.65458775075E+01  0.14659588503E+02  0.51100000000E-03 0.  1.
         12    1    3    3    0    0  0.49049840618E+01  0.97852970175E+01 -0.11983723396E+01  0.11011221668E+02  0.00000000000E+00 0. -1.
</event>
<event>
 7    1  0.4878192E-011  0.5052885E+02  0.7816164E-02  0.1300439E+00
        -11   -1    0    0    0    0  0.00000000000E+00  0.00000000000E+00  0.45593999997E+02  0.45594000000E+02  0.51100000000E-03 0. -1.
         11   -1    0    0    0    0 -0.00000000000E+00 -0.00000000000E+00 -0.45593999997E+02  0.45594000000E+02  0.51100000000E-03 0.  1.
    9900012    2    1    2    0    0  0.14028282342E+02 -0.31881104541E+02  0.20975438117E+02  0.50528849290E+02  0.29999967903E+02 0.  0.
        -12    1    1    2    0    0 -0.14028282342E+02  0.31881104541E+02 -0.20975438117E+02  0.40659150710E+02  0.00000000000E+00 0.  1.
         11    1    3    3    0    0  0.27315400718E+01 -0.24271573563E+02  0.21118163619E+02  0.32288503051E+02  0.51100000000E-03 0. -1.
        -11    1    3    3    0    0  0.97241804595E+01  0.68897583805E+00 -0.71532552170E+00  0.97747667071E+01  0.51100000000E-03 0.  1.
        -12    1    3    3    0    0  0.15725618108E+01 -0.82985068162E+01  0.57260001949E+00  0.84655795318E+01  0.00000000000E+00 0.  1.
</event>
<event>
 7    1  0.4878192E-011  0.5052886E+02  0.7816164E-02  0.1300439E+00
        -11   -1    0    0    0    0  0.00000000000E+00  0.00000000000E+00  0.45593999997E+02  0.45594000000E+02  0.51100000000E-03 0.  1.
         11   -1    0    0    0    0 -0.00000000000E+00 -0.00000000000E+00 -0.45593999997E+02  0.45594000000E+02  0.51100000000E-03 0. -1.
    9900012    2    1    2    0    0 -0.37158332059E+02  0.10687072727E+02 -0.12578175415E+02  0.50528860048E+02  0.30000000602E+02 0.  0.
        -12    1    1    2    0    0  0.37158332059E+02 -0.10687072727E+02  0.12578175415E+02  0.40659139952E+02  0.00000000000E+00 0.  1.
         11    1    3    3    0    0 -0.79518596679E+01  0.14699295026E+02 -0.12049922291E+02  0.20603445681E+02  0.51100000000E-03 0. -1.
        -11    1    3    3    0    0 -0.22559129669E+02 -0.36420548377E+01 -0.24855634545E+01  0.22986015766E+02  0.51100000000E-03 0.  1.
         12    1    3    3    0    0 -0.66473427223E+01 -0.37016746148E+00  0.19573103304E+01  0.69393986012E+01  0.00000000000E+00 0. -1.
</event>
<event>
 7    1  0.4878192E-011  0.5052886E+02  0.7816164E-02  0.1300439E+00
        -11   -1    0    0    0    0  0.00000000000E+00  0.00000000000E+00  0.45593999997E+02  0.45594000000E+02  0.51100000000E-03 0.  1.
         11   -1    0    0    0    0 -0.00000000000E+00 -0.00000000000E+00 -0.45593999997E+02  0.45594000000E+02  0.51100000000E-03 0. -1.
    9900012    2    1    2    0    0 -0.24970099138E+02  0.30349453097E+02 -0.10419723347E+02  0.50528858484E+02  0.29999995847E+02 0.  0.
        -12    1    1    2    0    0  0.24970099138E+02 -0.30349453097E+02  0.10419723347E+02  0.40659141516E+02  0.00000000000E+00 0.  1.
         11    1    3    3    0    0 -0.90430075792E+01 -0.10600757372E+01  0.52741083511E+01  0.10522165452E+02  0.51100000000E-03 0.  1.
        -11    1    3    3    0    0 -0.74262634171E+01  0.24742124707E+02 -0.93165327704E+01  0.27461243717E+02  0.51100000000E-03 0. -1.
         12    1    3    3    0    0 -0.85008281414E+01  0.66674041274E+01 -0.63772989282E+01  0.12545449315E+02  0.00000000000E+00 0. -1.
</event>
<event>
 7    1  0.4878192E-011  0.5052886E+02  0.7816164E-02  0.1300439E+00
        -11   -1    0    0    0    0  0.00000000000E+00  0.00000000000E+00  0.45593999997E+02  0.45594000000E+02  0.51100000000E-03 0.  1.
         11   -1    0    0    0    0 -0.00000000000E+00 -0.00000000000E+00 -0.45593999997E+02  0.45594000000E+02  0.51100000000E-03 0. -1.
    9900012    2    1    2    0    0 -0.12324844642E+02  0.57782706597E+01 -0.38312863776E+02  0.50528859109E+02  0.29999997749E+02 0.  0.
        -12    1    1    2    0    0  0.12324844642E+02 -0.57782706597E+01  0.38312863776E+02  0.40659140891E+02  0.00000000000E+00 0.  1.
         11    1    3    3    0    0 -0.10002042351E+02 -0.65000554995E+01 -0.32259601885E+02  0.34394381616E+02  0.51100000000E-03 0. -1.
        -11    1    3    3    0    0 -0.52260175849E+01  0.92206238814E+01 -0.53049857991E+01  0.11852174448E+02  0.51100000000E-03 0.  1.
         12    1    3    3    0    0  0.29032152938E+01  0.30577022779E+01 -0.74827609157E+00  0.42823030453E+01  0.00000000000E+00 0. -1.
</event>
<event>
 7    1  0.4878192E-011  0.5052886E+02  0.7816164E-02  0.1300439E+00
        -11   -1    0    0    0    0  0.00000000000E+00  0.00000000000E+00  0.45593999997E+02  0.45594000000E+02  0.51100000000E-03 0. -1.
         11   -1    0    0    0    0 -0.00000000000E+00 -0.00000000000E+00 -0.45593999997E+02  0.45594000000E+02  0.51100000000E-03 0.  1.
    9900012    2    1    2    0    0 -0.20027928212E+02  0.33455802028E+02 -0.11522015698E+02  0.50528862730E+02  0.30000008755E+02 0.  0.
        -12    1    1    2    0    0  0.20027928212E+02 -0.33455802028E+02  0.11522015698E+02  0.40659137270E+02  0.00000000000E+00 0.  1.
         11    1    3    3    0    0 -0.24210425929E+02  0.23520090274E+02 -0.90481144905E+01  0.34945782954E+02  0.51100000000E-03 0. -1.
        -11    1    3    3    0    0  0.63778738871E+01  0.96738554983E+01  0.81987563324E+00  0.11616064387E+02  0.51100000000E-03 0.  1.
        -12    1    3    3    0    0 -0.21953761699E+01  0.26185625561E+00 -0.32937768408E+01  0.39670153899E+01  0.00000000000E+00 0.  1.
</event>
<event>
 7    1  0.4878192E-011  0.5052886E+02  0.7816164E-02  0.1300439E+00
        -11   -1    0    0    0    0  0.00000000000E+00  0.00000000000E+00  0.45593999997E+02  0.45594000000E+02  0.51100000000E-03 0.  1.
         11   -1    0    0    0    0 -0.00000000000E+00 -0.00000000000E+00 -0.45593999997E+02  0.45594000000E+02  0.51100000000E-03 0. -1.
    9900012    2    1    2    0    0  0.39083032973E+02 -0.62743327660E+01 -0.92905894629E+01  0.50528858708E+02  0.29999996529E+02 0.  0.
        -12    1    1    2    0    0 -0.39083032973E+02  0.62743327660E+01  0.92905894629E+01  0.40659141292E+02  0.00000000000E+00 0.  1.
         11    1    3    3    0    0  0.35039720150E+02 -0.15851225893E+02 -0.80864356959E+01  0.39299284892E+02  0.51100000000E-03 0. -1.
        -11    1    3    3    0    0  0.87280015931E+00  0.47660545249E+01  0.11916315068E+01  0.49896935539E+01  0.51100000000E-03 0.  1.
         12    1    3    3    0    0  0.31705126637E+01  0.48108386022E+01 -0.23957852739E+01  0.62398802621E+01  0.00000000000E+00 0. -1.
</event>
<event>
 7    1  0.4878192E-011  0.5052890E+02  0.7816164E-02  0.1300439E+00
        -11   -1    0    0    0    0  0.00000000000E+00  0.00000000000E+00  0.45593999997E+02  0.45594000000E+02  0.51100000000E-03 0.  1.
         11   -1    0    0    0    0 -0.00000000000E+00 -0.00000000000E+00 -0.45593999997E+02  0.45594000000E+02  0.51100000000E-03 0. -1.
    9900012    2    1    2    0    0 -0.12016729193E+02  0.36740412969E+02 -0.12605670644E+02  0.50528896985E+02  0.30000112874E+02 0.  0.
        -12    1    1    2    0    0  0.12016729193E+02 -0.36740412969E+02  0.12605670644E+02  0.40659103015E+02  0.00000000000E+00 0.  1.
         11    1    3    3    0    0  0.20259822105E+01  0.18939273758E+02  0.81196679387E+00  0.19064626530E+02  0.51100000000E-03 0. -1.
        -11    1    3    3    0    0 -0.14795808081E+02  0.12184210238E+02 -0.16250339491E+02  0.25128558449E+02  0.51100000000E-03 0.  1.
        -12    1    3    3    0    0  0.75309667803E+00  0.56169289725E+01  0.28327020528E+01  0.63357120049E+01  0.00000000000E+00 0.  1.
</event>
<event>
 7    1  0.4878192E-011  0.5052885E+02  0.7816164E-02  0.1300439E+00
        -11   -1    0    0    0    0  0.00000000000E+00  0.00000000000E+00  0.45593999997E+02  0.45594000000E+02  0.51100000000E-03 0. -1.
         11   -1    0    0    0    0 -0.00000000000E+00 -0.00000000000E+00 -0.45593999997E+02  0.45594000000E+02  0.51100000000E-03 0.  1.
    9900012    2    1    2    0    0  0.17962283789E+02  0.35205252563E+02  0.95452947436E+01  0.50528854674E+02  0.29999984266E+02 0.  0.
        -12    1    1    2    0    0 -0.17962283789E+02 -0.35205252563E+02 -0.95452947436E+01  0.40659145326E+02  0.00000000000E+00 0.  1.
         11    1    3    3    0    0  0.98087804129E+01  0.30172079701E+02 -0.54171372254E+01  0.32185585946E+02  0.51100000000E-03 0. -1.
        -11    1    3    3    0    0  0.31021813007E+01  0.92107147625E+00  0.88019283144E+01  0.93779445403E+01  0.51100000000E-03 0.  1.
         12    1    3    3    0    0  0.50513220751E+01  0.41121013852E+01  0.61605036546E+01  0.89653241875E+01  0.00000000000E+00 0. -1.
</event>
<event>
 7    1  0.4878192E-011  0.5052886E+02  0.7816164E-02  0.1300439E+00
        -11   -1    0    0    0    0  0.00000000000E+00  0.00000000000E+00  0.45593999997E+02  0.45594000000E+02  0.51100000000E-03 0. -1.
         11   -1    0    0    0    0 -0.00000000000E+00 -0.00000000000E+00 -0.45593999997E+02  0.45594000000E+02  0.51100000000E-03 0.  1.
    9900012    2    1    2    0    0  0.22980680848E+02  0.20009053678E+02  0.26920106565E+02  0.50528855164E+02  0.29999985757E+02 0.  0.
        -12    1    1    2    0    0 -0.22980680848E+02 -0.20009053678E+02 -0.26920106565E+02  0.40659144836E+02  0.00000000000E+00 0.  1.
         11    1    3    3    0    0 -0.83208698405E+00 -0.30011455376E+01  0.15973448964E+01  0.35001077506E+01  0.51100000000E-03 0. -1.
        -11    1    3    3    0    0  0.20902345164E+02  0.25875818031E+02  0.16127215702E+02  0.36966918707E+02  0.51100000000E-03 0.  1.
        -12    1    3    3    0    0  0.29104226685E+01 -0.28656188156E+01  0.91955459666E+01  0.10061828707E+02  0.00000000000E+00 0.  1.
</event>
<event>
 7    1  0.4878192E-011  0.5052887E+02  0.7816164E-02  0.1300439E+00
        -11   -1    0    0    0    0  0.00000000000E+00  0.00000000000E+00  0.45593999997E+02  0.45594000000E+02  0.51100000000E-03 0.  1.
         11   -1    0    0    0    0 -0.00000000000E+00 -0.00000000000E+00 -0.45593999997E+02  0.45594000000E+02  0.51100000000E-03 0. -1.
    9900012    2    1    2    0    0 -0.27623768823E+02 -0.27392476085E+02 -0.11821372888E+02  0.50528865639E+02  0.30000017596E+02 0.  0.
        -12    1    1    2    0    0  0.27623768823E+02  0.27392476085E+02  0.11821372888E+02  0.40659134361E+02  0.00000000000E+00 0.  1.
         11    1    3    3    0    0 -0.10442537140E+02 -0.16389587379E+01 -0.67219833884E+01  0.12526684661E+02  0.51100000000E-03 0.  1.
        -11    1    3    3    0    0 -0.19242925837E+02 -0.28398792727E+02 -0.46967567994E+01  0.34624285521E+02  0.51100000000E-03 0. -1.
        -12    1    3    3    0    0  0.20616941552E+01  0.26452753798E+01 -0.40263270066E+00  0.33778954567E+01  0.00000000000E+00 0.  1.
</event>
<event>
 7    1  0.4878192E-011  0.5052884E+02  0.7816164E-02  0.1300439E+00
        -11   -1    0    0    0    0  0.00000000000E+00  0.00000000000E+00  0.45593999997E+02  0.45594000000E+02  0.51100000000E-03 0. -1.
         11   -1    0    0    0    0 -0.00000000000E+00 -0.00000000000E+00 -0.45593999997E+02  0.45594000000E+02  0.51100000000E-03 0.  1.
    9900012    2    1    2    0    0 -0.21298629753E+02  0.31440113824E+02  0.14527720215E+02  0.50528843082E+02  0.29999949033E+02 0.  0.
        -12    1    1    2    0    0  0.21298629753E+02 -0.31440113824E+02 -0.14527720215E+02  0.40659156918E+02  0.00000000000E+00 0.  1.
         11    1    3    3    0    0 -0.86713569114E+00 -0.93695424668E+00  0.59702636564E+01  0.61052318511E+01  0.51100000000E-03 0. -1.
        -11    1    3    3    0    0 -0.88830725783E+01  0.29875197857E+02  0.94626821744E+01  0.32572669212E+02  0.51100000000E-03 0.  1.
         12    1    3    3    0    0 -0.11548421484E+02  0.25018702135E+01 -0.90522561559E+00  0.11850942019E+02  0.00000000000E+00 0. -1.
</event>
<event>
 7    1  0.4878192E-011  0.5052884E+02  0.7816164E-02  0.1300439E+00
        -11   -1    0    0    0    0  0.00000000000E+00  0.00000000000E+00  0.45593999997E+02  0.45594000000E+02  0.51100000000E-03 0.  1.
         11   -1    0    0    0    0 -0.00000000000E+00 -0.00000000000E+00 -0.45593999997E+02  0.45594000000E+02  0.51100000000E-03 0. -1.
    9900012    2    1    2    0    0 -0.65800984214E+01  0.34378939765E+02 -0.20687142842E+02  0.50528842685E+02  0.29999947824E+02 0.  0.
        -12    1    1    2    0    0  0.65800984214E+01 -0.34378939765E+02  0.20687142842E+02  0.40659157315E+02  0.00000000000E+00 0.  1.
         11    1    3    3    0    0 -0.36750323325E+01  0.23286159934E+02  0.12334573267E+01  0.23606620350E+02  0.51100000000E-03 0. -1.
        -11    1    3    3    0    0 -0.20363007602E+01  0.32100235450E+00 -0.12243843876E+02  0.12416169958E+02  0.51100000000E-03 0.  1.
        -12    1    3    3    0    0 -0.86876532875E+00  0.10771777477E+02 -0.96767562925E+01  0.14506052377E+02  0.00000000000E+00 0.  1.
</event>
<event>
 7    1  0.4878192E-011  0.5052886E+02  0.7816164E-02  0.1300439E+00
        -11   -1    0    0    0    0  0.00000000000E+00  0.00000000000E+00  0.45593999997E+02  0.45594000000E+02  0.51100000000E-03 0.  1.
         11   -1    0    0    0    0 -0.00000000000E+00 -0.00000000000E+00 -0.45593999997E+02  0.45594000000E+02  0.51100000000E-03 0. -1.
    9900012    2    1    2    0    0 -0.49011188386E+01  0.37521125579E+02 -0.14876481840E+02  0.50528861513E+02  0.30000005054E+02 0.  0.
        -12    1    1    2    0    0  0.49011188386E+01 -0.37521125579E+02  0.14876481840E+02  0.40659138487E+02  0.00000000000E+00 0.  1.
         11    1    3    3    0    0  0.52102464183E+01  0.34439299294E+02 -0.11089959747E+02  0.36554058750E+02  0.51100000000E-03 0. -1.
        -11    1    3    3    0    0 -0.17660434131E+01 -0.68569126397E+00  0.23002131991E+01  0.29799434339E+01  0.51100000000E-03 0.  1.
         12    1    3    3    0    0 -0.83453218438E+01  0.37675175490E+01 -0.60867352914E+01  0.10994859329E+02  0.00000000000E+00 0. -1.
</event>
<event>
 7    1  0.4878192E-011  0.5052886E+02  0.7816164E-02  0.1300439E+00
        -11   -1    0    0    0    0  0.00000000000E+00  0.00000000000E+00  0.45593999997E+02  0.45594000000E+02  0.51100000000E-03 0.  1.
         11   -1    0    0    0    0 -0.00000000000E+00 -0.00000000000E+00 -0.45593999997E+02  0.45594000000E+02  0.51100000000E-03 0. -1.
    9900012    2    1    2    0    0  0.34643574377E+02 -0.12193966416E+02  0.17444078534E+02  0.50528856644E+02  0.29999990255E+02 0.  0.
        -12    1    1    2    0    0 -0.34643574377E+02  0.12193966416E+02 -0.17444078534E+02  0.40659143356E+02  0.00000000000E+00 0.  1.
         11    1    3    3    0    0  0.18640292802E+02 -0.97142930240E+01 -0.28092288423E+01  0.21206597361E+02  0.51100000000E-03 0. -1.
        -11    1    3    3    0    0 -0.15491658936E+01  0.18624898710E+01  0.54132083564E+01  0.59305656102E+01  0.51100000000E-03 0.  1.
        -12    1    3    3    0    0  0.17552447468E+02 -0.43421632631E+01  0.14840099020E+02  0.23391693672E+02  0.00000000000E+00 0.  1.
</event>
<event>
 7    1  0.4878192E-011  0.5052883E+02  0.7816164E-02  0.1300439E+00
        -11   -1    0    0    0    0  0.00000000000E+00  0.00000000000E+00  0.45593999997E+02  0.45594000000E+02  0.51100000000E-03 0.  1.
         11   -1    0    0    0    0 -0.00000000000E+00 -0.00000000000E+00 -0.45593999997E+02  0.45594000000E+02  0.51100000000E-03 0. -1.
    9900012    2    1    2    0    0 -0.25594490503E+02 -0.25374405093E+02 -0.18820987008E+02  0.50528832155E+02  0.29999915818E+02 0.  0.
        -12    1    1    2    0    0  0.25594490503E+02  0.25374405093E+02  0.18820987008E+02  0.40659167845E+02  0.00000000000E+00 0.  1.
         11    1    3    3    0    0 -0.10578256738E+02 -0.96122428050E+01  0.28332546736E+01  0.14571275155E+02  0.51100000000E-03 0. -1.
        -11    1    3    3    0    0 -0.75521574568E+01  0.28217427800E+01 -0.97819767309E+01  0.12676134411E+02  0.51100000000E-03 0.  1.
        -12    1    3    3    0    0 -0.74640763081E+01 -0.18583905068E+02 -0.11872264951E+02  0.23281422589E+02  0.00000000000E+00 0.  1.
</event>
<event>
 7    1  0.4878192E-011  0.5052888E+02  0.7816164E-02  0.1300439E+00
        -11   -1    0    0    0    0  0.00000000000E+00  0.00000000000E+00  0.45593999997E+02  0.45594000000E+02  0.51100000000E-03 0.  1.
         11   -1    0    0    0    0 -0.00000000000E+00 -0.00000000000E+00 -0.45593999997E+02  0.45594000000E+02  0.51100000000E-03 0. -1.
    9900012    2    1    2    0    0 -0.31677903516E+01  0.39702778360E+02  0.81742369707E+01  0.50528884721E+02  0.30000075598E+02 0.  0.
        -12    1    1    2    0    0  0.31677903516E+01 -0.39702778360E+02 -0.81742369707E+01  0.40659115279E+02  0.00000000000E+00 0.  1.
         11    1    3    3    0    0 -0.66112065901E+00  0.21333107950E+02 -0.16958957611E+01  0.21410619748E+02  0.51100000000E-03 0. -1.
        -11    1    3    3    0    0  0.33816696485E+00  0.50242637375E+01  0.13986700916E+02  0.14865577209E+02  0.51100000000E-03 0.  1.
        -12    1    3    3    0    0 -0.28448366575E+01  0.13345406673E+02 -0.41165681837E+01  0.14252687763E+02  0.00000000000E+00 0.  1.
</event>
<event>
 7    1  0.4878192E-011  0.5052886E+02  0.7816164E-02  0.1300439E+00
        -11   -1    0    0    0    0  0.00000000000E+00  0.00000000000E+00  0.45593999997E+02  0.45594000000E+02  0.51100000000E-03 0. -1.
         11   -1    0    0    0    0 -0.00000000000E+00 -0.00000000000E+00 -0.45593999997E+02  0.45594000000E+02  0.51100000000E-03 0.  1.
    9900012    2    1    2    0    0 -0.26357670447E+02 -0.30140568118E+02 -0.70700369099E+01  0.50528855152E+02  0.29999985721E+02 0.  0.
        -12    1    1    2    0    0  0.26357670447E+02  0.30140568118E+02  0.70700369099E+01  0.40659144848E+02  0.00000000000E+00 0.  1.
         11    1    3    3    0    0 -0.74343659000E+01 -0.14533266512E+02 -0.13660074786E+02  0.21285752870E+02  0.51100000000E-03 0. -1.
        -11    1    3    3    0    0 -0.11398138770E+00 -0.80385686398E+01  0.33561834579E+01  0.87118049334E+01  0.51100000000E-03 0.  1.
         12    1    3    3    0    0 -0.18809323159E+02 -0.75687329665E+01  0.32338544181E+01  0.20531297349E+02  0.00000000000E+00 0. -1.
</event>
<event>
 7    1  0.4878192E-011  0.5052885E+02  0.7816164E-02  0.1300439E+00
        -11   -1    0    0    0    0  0.00000000000E+00  0.00000000000E+00  0.45593999997E+02  0.45594000000E+02  0.51100000000E-03 0.  1.
         11   -1    0    0    0    0 -0.00000000000E+00 -0.00000000000E+00 -0.45593999997E+02  0.45594000000E+02  0.51100000000E-03 0. -1.
    9900012    2    1    2    0    0 -0.45294546506E+01 -0.39886154247E+02 -0.64610641722E+01  0.50528848382E+02  0.29999965142E+02 0.  0.
        -12    1    1    2    0    0  0.45294546506E+01  0.39886154247E+02  0.64610641722E+01  0.40659151618E+02  0.00000000000E+00 0.  1.
         11    1    3    3    0    0  0.34645398998E+01 -0.29996643257E+02 -0.70759496844E+00  0.30204342971E+02  0.51100000000E-03 0. -1.
        -11    1    3    3    0    0  0.19594998142E+01 -0.24372066798E+00  0.32454558351E+01  0.37989502661E+01  0.51100000000E-03 0.  1.
         12    1    3    3    0    0 -0.99534943646E+01 -0.96457903222E+01 -0.89989250389E+01  0.16525555145E+02  0.00000000000E+00 0. -1.
</event>
<event>
 7    1  0.4878192E-011  0.5052886E+02  0.7816164E-02  0.1300439E+00
        -11   -1    0    0    0    0  0.00000000000E+00  0.00000000000E+00  0.45593999997E+02  0.45594000000E+02  0.51100000000E-03 0.  1.
         11   -1    0    0    0    0 -0.00000000000E+00 -0.00000000000E+00 -0.45593999997E+02  0.45594000000E+02  0.51100000000E-03 0. -1.
    9900012    2    1    2    0    0 -0.55339560555E+01  0.38728678810E+02 -0.11073874046E+02  0.50528856891E+02  0.29999991007E+02 0.  0.
        -12    1    1    2    0    0  0.55339560555E+01 -0.38728678810E+02  0.11073874046E+02  0.40659143109E+02  0.00000000000E+00 0.  1.
         11    1    3    3    0    0 -0.34727265238E+01  0.29631771303E+02 -0.73455258749E+01  0.30725534181E+02  0.51100000000E-03 0. -1.
        -11    1    3    3    0    0 -0.71104385829E+00 -0.75738465385E+00 -0.86456437843E+01  0.87078339206E+01  0.51100000000E-03 0.  1.
        -12    1    3    3    0    0 -0.13501856734E+01  0.98542921605E+01  0.49172956133E+01  0.11095488790E+02  0.00000000000E+00 0.  1.
</event>
<event>
 7    1  0.4878192E-011  0.5052886E+02  0.7816164E-02  0.1300439E+00
        -11   -1    0    0    0    0  0.00000000000E+00  0.00000000000E+00  0.45593999997E+02  0.45594000000E+02  0.51100000000E-03 0.  1.
         11   -1    0    0    0    0 -0.00000000000E+00 -0.00000000000E+00 -0.45593999997E+02  0.45594000000E+02  0.51100000000E-03 0. -1.
    9900012    2    1    2    0    0  0.30669770678E+02 -0.22508268224E+02 -0.14349512681E+02  0.50528862206E+02  0.30000007163E+02 0.  0.
        -12    1    1    2    0    0 -0.30669770678E+02  0.22508268224E+02  0.14349512681E+02  0.40659137794E+02  0.00000000000E+00 0.  1.
         11    1    3    3    0    0  0.80255002990E+01 -0.88507146885E+01 -0.46732359428E+01  0.12828988268E+02  0.51100000000E-03 0. -1.
        -11    1    3    3    0    0  0.93713753984E+01  0.69929508271E+01 -0.13141012800E+01  0.11766516076E+02  0.51100000000E-03 0.  1.
        -12    1    3    3    0    0  0.13272894981E+02 -0.20650504363E+02 -0.83621754586E+01  0.25933357862E+02  0.00000000000E+00 0.  1.
</event>
<event>
 7    1  0.4878192E-011  0.5052885E+02  0.7816164E-02  0.1300439E+00
        -11   -1    0    0    0    0  0.00000000000E+00  0.00000000000E+00  0.45593999997E+02  0.45594000000E+02  0.51100000000E-03 0. -1.
         11   -1    0    0    0    0 -0.00000000000E+00 -0.00000000000E+00 -0.45593999997E+02  0.45594000000E+02  0.51100000000E-03 0.  1.
    9900012    2    1    2    0    0  0.14856161357E+02 -0.23716477393E+02  0.29495581634E+02  0.50528853844E+02  0.29999981745E+02 0.  0.
        -12    1    1    2    0    0 -0.14856161357E+02  0.23716477393E+02 -0.29495581634E+02  0.40659146156E+02  0.00000000000E+00 0.  1.
         11    1    3    3    0    0  0.18775619792E+02 -0.18152134986E+02  0.29077343872E+02  0.39083447008E+02  0.51100000000E-03 0. -1.
        -11    1    3    3    0    0  0.81247931699E+00  0.13413178438E+01 -0.21751873492E+01  0.26815474010E+01  0.51100000000E-03 0.  1.
         12    1    3    3    0    0 -0.47319377520E+01 -0.69056602515E+01  0.25934251112E+01  0.87638594355E+01  0.00000000000E+00 0. -1.
</event>
<event>
 7    1  0.4878192E-011  0.5052886E+02  0.7816164E-02  0.1300439E+00
        -11   -1    0    0    0    0  0.00000000000E+00  0.00000000000E+00  0.45593999997E+02  0.45594000000E+02  0.51100000000E-03 0.  1.
         11   -1    0    0    0    0 -0.00000000000E+00 -0.00000000000E+00 -0.45593999997E+02  0.45594000000E+02  0.51100000000E-03 0. -1.
    9900012    2    1    2    0    0  0.25294487189E+02 -0.16166137278E+02 -0.27422810422E+02  0.50528860707E+02  0.30000002604E+02 0.  0.
        -12    1    1    2    0    0 -0.25294487189E+02  0.16166137278E+02  0.27422810422E+02  0.40659139293E+02  0.00000000000E+00 0.  1.
         11    1    3    3    0    0  0.23223936967E+02 -0.36624524929E+01 -0.21203432274E+02  0.31659917040E+02  0.51100000000E-03 0. -1.
        -11    1    3    3    0    0 -0.15500382509E+01 -0.12287634472E+02 -0.88275558853E+00  0.12416434158E+02  0.51100000000E-03 0.  1.
        -12    1    3    3    0    0  0.36205884731E+01 -0.21605031294E+00 -0.53366225593E+01  0.64525095095E+01  0.00000000000E+00 0.  1.
</event>
<event>
 7    1  0.4878192E-011  0.5052886E+02  0.7816164E-02  0.1300439E+00
        -11   -1    0    0    0    0  0.00000000000E+00  0.00000000000E+00  0.45593999997E+02  0.45594000000E+02  0.51100000000E-03 0. -1.
         11   -1    0    0    0    0 -0.00000000000E+00 -0.00000000000E+00 -0.45593999997E+02  0.45594000000E+02  0.51100000000E-03 0.  1.
    9900012    2    1    2    0    0  0.33655476886E+02  0.22246002307E+02  0.50586403860E+01  0.50528860983E+02  0.30000003444E+02 0.  0.
        -12    1    1    2    0    0 -0.33655476886E+02 -0.22246002307E+02 -0.50586403860E+01  0.40659139017E+02  0.00000000000E+00 0.  1.
         11    1    3    3    0    0  0.12299283185E+01  0.14439293438E+02  0.24367819965E+01  0.14695027234E+02  0.51100000000E-03 0. -1.
        -11    1    3    3    0    0  0.26261899829E+02  0.97114732896E+01 -0.17277076945E+01  0.28053254183E+02  0.51100000000E-03 0.  1.
         12    1    3    3    0    0  0.61636487381E+01 -0.19047644207E+01  0.43495660840E+01  0.77805795661E+01  0.00000000000E+00 0. -1.
</event>
<event>
 7    1  0.4878192E-011  0.5052886E+02  0.7816164E-02  0.1300439E+00
        -11   -1    0    0    0    0  0.00000000000E+00  0.00000000000E+00  0.45593999997E+02  0.45594000000E+02  0.51100000000E-03 0.  1.
         11   -1    0    0    0    0 -0.00000000000E+00 -0.00000000000E+00 -0.45593999997E+02  0.45594000000E+02  0.51100000000E-03 0. -1.
    9900012    2    1    2    0    0  0.16785063410E+01 -0.21639967101E+02 -0.34381098915E+02  0.50528861761E+02  0.30000005810E+02 0.  0.
        -12    1    1    2    0    0 -0.16785063410E+01  0.21639967101E+02  0.34381098915E+02  0.40659138239E+02  0.00000000000E+00 0.  1.
         11    1    3    3    0    0 -0.20411924338E+01 -0.12924834316E+02 -0.10210262003E+02  0.16597206364E+02  0.51100000000E-03 0. -1.
        -11    1    3    3    0    0  0.10981013601E+02 -0.21568434492E+01 -0.20733579654E+02  0.23560898941E+02  0.51100000000E-03 0.  1.
        -12    1    3    3    0    0 -0.72613148262E+01 -0.65582893357E+01 -0.34372572578E+01  0.10370756456E+02  0.00000000000E+00 0.  1.
</event>
<event>
 7    1  0.4878192E-011  0.5052885E+02  0.7816164E-02  0.1300439E+00
        -11   -1    0    0    0    0  0.00000000000E+00  0.00000000000E+00  0.45593999997E+02  0.45594000000E+02  0.51100000000E-03 0. -1.
         11   -1    0    0    0    0 -0.00000000000E+00 -0.00000000000E+00 -0.45593999997E+02  0.45594000000E+02  0.51100000000E-03 0.  1.
    9900012    2    1    2    0    0 -0.36960943662E+02 -0.16817775922E+02 -0.20537173402E+01  0.50528847300E+02  0.29999961854E+02 0.  0.
        -12    1    1    2    0    0  0.36960943662E+02  0.16817775922E+02  0.20537173402E+01  0.40659152700E+02  0.00000000000E+00 0.  1.
         11    1    3    3    0    0 -0.15361030261E+02  0.18488158720E+01 -0.12147689072E+02  0.19670935943E+02  0.51100000000E-03 0.  1.
        -11    1    3    3    0    0 -0.16425881901E+02 -0.14804940870E+02  0.10308812987E+02  0.24398104349E+02  0.51100000000E-03 0. -1.
        -12    1    3    3    0    0 -0.51740314992E+01 -0.38616509240E+01 -0.21484125501E+00  0.64598070079E+01  0.00000000000E+00 0.  1.
</event>
<event>
 7    1  0.4878192E-011  0.5052887E+02  0.7816164E-02  0.1300439E+00
        -11   -1    0    0    0    0  0.00000000000E+00  0.00000000000E+00  0.45593999997E+02  0.45594000000E+02  0.51100000000E-03 0. -1.
         11   -1    0    0    0    0 -0.00000000000E+00 -0.00000000000E+00 -0.45593999997E+02  0.45594000000E+02  0.51100000000E-03 0.  1.
    9900012    2    1    2    0    0  0.93332395878E+01 -0.28399007818E+02 -0.27559972905E+02  0.50528866798E+02  0.30000021118E+02 0.  0.
        -12    1    1    2    0    0 -0.93332395878E+01  0.28399007818E+02  0.27559972905E+02  0.40659133202E+02  0.00000000000E+00 0.  1.
         11    1    3    3    0    0 -0.56919746757E+01 -0.31708213589E+01 -0.10424892762E+02  0.12293537862E+02  0.51100000000E-03 0.  1.
        -11    1    3    3    0    0  0.15266599054E+02 -0.17402131835E+02 -0.48264003870E+01  0.23647354610E+02  0.51100000000E-03 0. -1.
        -12    1    3    3    0    0 -0.24138479088E+00 -0.78260546241E+01 -0.12308679756E+02  0.14587974326E+02  0.00000000000E+00 0.  1.
</event>
<event>
 7    1  0.5082569E-011  0.5052886E+02  0.7816164E-02  0.1300439E+00
        -11   -1    0    0    0    0  0.00000000000E+00  0.00000000000E+00  0.45593999997E+02  0.45594000000E+02  0.51100000000E-03 0. -1.
         11   -1    0    0    0    0 -0.00000000000E+00 -0.00000000000E+00 -0.45593999997E+02  0.45594000000E+02  0.51100000000E-03 0.  1.
    9900012    2    1    2    0    0 -0.17818762393E+02 -0.13833387691E+02  0.33827425961E+02  0.50528860125E+02  0.30000000837E+02 0.  0.
        -12    1    1    2    0    0  0.17818762393E+02  0.13833387691E+02 -0.33827425961E+02  0.40659139875E+02  0.00000000000E+00 0.  1.
         11    1    3    3    0    0 -0.12413220407E+02 -0.48080644826E+01  0.21886996487E+02  0.25617301584E+02  0.51100000000E-03 0. -1.
        -11    1    3    3    0    0 -0.72162560185E+01 -0.13224410509E+02  0.37402546883E+01  0.15522528455E+02  0.51100000000E-03 0.  1.
        -12    1    3    3    0    0  0.18107140328E+01  0.41990873002E+01  0.82001747850E+01  0.93890300866E+01  0.00000000000E+00 0.  1.
</event>
<event>
 7    1  0.4878192E-011  0.5052886E+02  0.7816164E-02  0.1300439E+00
        -11   -1    0    0    0    0  0.00000000000E+00  0.00000000000E+00  0.45593999997E+02  0.45594000000E+02  0.51100000000E-03 0.  1.
         11   -1    0    0    0    0 -0.00000000000E+00 -0.00000000000E+00 -0.45593999997E+02  0.45594000000E+02  0.51100000000E-03 0. -1.
    9900012    2    1    2    0    0  0.30111664890E+02 -0.16361601421E+02 -0.21880385964E+02  0.50528860149E+02  0.30000000907E+02 0.  0.
        -12    1    1    2    0    0 -0.30111664890E+02  0.16361601421E+02  0.21880385964E+02  0.40659139851E+02  0.00000000000E+00 0.  1.
         11    1    3    3    0    0  0.19662067830E+02 -0.66742613799E+01 -0.19075002616E+02  0.28195716011E+02  0.51100000000E-03 0. -1.
        -11    1    3    3    0    0  0.11520942007E+02 -0.10414553046E+02  0.34801674122E+01  0.15915608231E+02  0.51100000000E-03 0.  1.
        -12    1    3    3    0    0 -0.10713449467E+01  0.72721300521E+00 -0.62855507604E+01  0.64175359065E+01  0.00000000000E+00 0.  1.
</event>
<event>
 7    1  0.4878192E-011  0.5052884E+02  0.7816164E-02  0.1300439E+00
        -11   -1    0    0    0    0  0.00000000000E+00  0.00000000000E+00  0.45593999997E+02  0.45594000000E+02  0.51100000000E-03 0.  1.
         11   -1    0    0    0    0 -0.00000000000E+00 -0.00000000000E+00 -0.45593999997E+02  0.45594000000E+02  0.51100000000E-03 0. -1.
    9900012    2    1    2    0    0 -0.38561839088E+02 -0.34322113213E+01 -0.12424630137E+02  0.50528844298E+02  0.29999952727E+02 0.  0.
        -12    1    1    2    0    0  0.38561839088E+02  0.34322113213E+01  0.12424630137E+02  0.40659155702E+02  0.00000000000E+00 0.  1.
         11    1    3    3    0    0 -0.93157262944E+01  0.56073975582E+01  0.37866247381E+01  0.11513652372E+02  0.51100000000E-03 0. -1.
        -11    1    3    3    0    0 -0.16611470961E+02 -0.12429059894E+02 -0.15531408206E+02  0.25916155935E+02  0.51100000000E-03 0.  1.
        -12    1    3    3    0    0 -0.12634641832E+02  0.33894510140E+01 -0.67984666903E+00  0.13099035991E+02  0.00000000000E+00 0.  1.
</event>
<event>
 7    1  0.4878192E-011  0.5052886E+02  0.7816164E-02  0.1300439E+00
        -11   -1    0    0    0    0  0.00000000000E+00  0.00000000000E+00  0.45593999997E+02  0.45594000000E+02  0.51100000000E-03 0.  1.
         11   -1    0    0    0    0 -0.00000000000E+00 -0.00000000000E+00 -0.45593999997E+02  0.45594000000E+02  0.51100000000E-03 0. -1.
    9900012    2    1    2    0    0 -0.24903953719E+00 -0.21705729201E+02 -0.34379719546E+02  0.50528858139E+02  0.29999994798E+02 0.  0.
        -12    1    1    2    0    0  0.24903953719E+00  0.21705729201E+02  0.34379719546E+02  0.40659141861E+02  0.00000000000E+00 0.  1.
         11    1    3    3    0    0 -0.60003450811E+01 -0.34678990478E+01  0.28443115844E+01  0.74913666008E+01  0.51100000000E-03 0.  1.
        -11    1    3    3    0    0  0.83169458978E+01 -0.15742712665E+02 -0.28454447871E+02  0.33565759265E+02  0.51100000000E-03 0. -1.
         12    1    3    3    0    0 -0.25656403539E+01 -0.24951174884E+01 -0.87695832590E+01  0.94717322726E+01  0.00000000000E+00 0. -1.
</event>
<event>
 7    1  0.4878192E-011  0.5052884E+02  0.7816164E-02  0.1300439E+00
        -11   -1    0    0    0    0  0.00000000000E+00  0.00000000000E+00  0.45593999997E+02  0.45594000000E+02  0.51100000000E-03 0. -1.
         11   -1    0    0    0    0 -0.00000000000E+00 -0.00000000000E+00 -0.45593999997E+02  0.45594000000E+02  0.51100000000E-03 0.  1.
    9900012    2    1    2    0    0  0.38455705529E+02  0.69234362335E+01  0.11242404720E+02  0.50528844563E+02  0.29999953533E+02 0.  0.
        -12    1    1    2    0    0 -0.38455705529E+02 -0.69234362335E+01 -0.11242404720E+02  0.40659155437E+02  0.00000000000E+00 0.  1.
         11    1    3    3    0    0  0.18932378979E+02 -0.46811285565E+01 -0.32313071817E+01  0.19768391051E+02  0.51100000000E-03 0.  1.
        -11    1    3    3    0    0  0.22028973260E+01  0.29461066995E+01  0.10319845096E+02  0.10955889027E+02  0.51100000000E-03 0. -1.
         12    1    3    3    0    0  0.17320429224E+02  0.86584580905E+01  0.41538668056E+01  0.19804564485E+02  0.00000000000E+00 0. -1.
</event>
<event>
 7    1  0.4878192E-011  0.5052884E+02  0.7816164E-02  0.1300439E+00
        -11   -1    0    0    0    0  0.00000000000E+00  0.00000000000E+00  0.45593999997E+02  0.45594000000E+02  0.51100000000E-03 0. -1.
         11   -1    0    0    0    0 -0.00000000000E+00 -0.00000000000E+00 -0.45593999997E+02  0.45594000000E+02  0.51100000000E-03 0.  1.
    9900012    2    1    2    0    0 -0.71323420442E+01  0.31226693524E+02  0.25043770090E+02  0.50528842215E+02  0.29999946396E+02 0.  0.
        -12    1    1    2    0    0  0.71323420442E+01 -0.31226693524E+02 -0.25043770090E+02  0.40659157785E+02  0.00000000000E+00 0.  1.
         11    1    3    3    0    0 -0.57866758386E+01 -0.13574777114E+01  0.14205898718E+02  0.15399218215E+02  0.51100000000E-03 0. -1.
        -11    1    3    3    0    0  0.21969696749E+01  0.14740495002E+02  0.24746542837E+01  0.15107375111E+02  0.51100000000E-03 0.  1.
         12    1    3    3    0    0 -0.35426358805E+01  0.17843676233E+02  0.83632170889E+01  0.20022248889E+02  0.00000000000E+00 0. -1.
</event>
<event>
 7    1  0.4878192E-011  0.5052885E+02  0.7816164E-02  0.1300439E+00
        -11   -1    0    0    0    0  0.00000000000E+00  0.00000000000E+00  0.45593999997E+02  0.45594000000E+02  0.51100000000E-03 0.  1.
         11   -1    0    0    0    0 -0.00000000000E+00 -0.00000000000E+00 -0.45593999997E+02  0.45594000000E+02  0.51100000000E-03 0. -1.
    9900012    2    1    2    0    0 -0.20715244059E+01  0.21364121129E+02 -0.34531868750E+02  0.50528845504E+02  0.29999956393E+02 0.  0.
        -12    1    1    2    0    0  0.20715244059E+01 -0.21364121129E+02  0.34531868750E+02  0.40659154496E+02  0.00000000000E+00 0.  1.
         11    1    3    3    0    0  0.84718299816E+01  0.15913254850E+02 -0.10672736689E+02  0.20950200282E+02  0.51100000000E-03 0. -1.
        -11    1    3    3    0    0 -0.79255814473E+01  0.16057994400E+01 -0.37055120455E+01  0.88951814428E+01  0.51100000000E-03 0.  1.
         12    1    3    3    0    0 -0.26177729401E+01  0.38450668389E+01 -0.20153620016E+02  0.20683463779E+02  0.00000000000E+00 0. -1.
</event>
<event>
 7    1  0.4878192E-011  0.5052885E+02  0.7816164E-02  0.1300439E+00
        -11   -1    0    0    0    0  0.00000000000E+00  0.00000000000E+00  0.45593999997E+02  0.45594000000E+02  0.51100000000E-03 0.  1.
         11   -1    0    0    0    0 -0.00000000000E+00 -0.00000000000E+00 -0.45593999997E+02  0.45594000000E+02  0.51100000000E-03 0. -1.
    9900012    2    1    2    0    0 -0.36445577219E+02 -0.16113463383E+02 -0.80772776188E+01  0.50528853246E+02  0.29999979927E+02 0.  0.
        -12    1    1    2    0    0  0.36445577219E+02  0.16113463383E+02  0.80772776188E+01  0.40659146754E+02  0.00000000000E+00 0.  1.
         11    1    3    3    0    0 -0.72029592923E+01 -0.25545268522E+01 -0.44667393592E+01  0.88521178691E+01  0.51100000000E-03 0. -1.
        -11    1    3    3    0    0 -0.17982835430E+02 -0.16761815514E+02  0.73308941634E+01  0.25653125325E+02  0.51100000000E-03 0.  1.
        -12    1    3    3    0    0 -0.11259782497E+02  0.32028789828E+01 -0.10941432423E+02  0.16023610053E+02  0.00000000000E+00 0.  1.
</event>
<event>
 7    1  0.4878192E-011  0.5052889E+02  0.7816164E-02  0.1300439E+00
        -11   -1    0    0    0    0  0.00000000000E+00  0.00000000000E+00  0.45593999997E+02  0.45594000000E+02  0.51100000000E-03 0.  1.
         11   -1    0    0    0    0 -0.00000000000E+00 -0.00000000000E+00 -0.45593999997E+02  0.45594000000E+02  0.51100000000E-03 0. -1.
    9900012    2    1    2    0    0 -0.89630942830E+01  0.12042074046E+02 -0.37786435748E+02  0.50528888684E+02  0.30000087644E+02 0.  0.
        -12    1    1    2    0    0  0.89630942830E+01 -0.12042074046E+02  0.37786435748E+02  0.40659111316E+02  0.00000000000E+00 0.  1.
         11    1    3    3    0    0 -0.27926605263E+01  0.82572532232E-01 -0.63722766483E+01  0.69578503132E+01  0.51100000000E-03 0. -1.
        -11    1    3    3    0    0  0.91624619389E+01  0.29404624106E+01 -0.20642339430E+02  0.22775056650E+02  0.51100000000E-03 0.  1.
        -12    1    3    3    0    0 -0.15332895696E+02  0.90190391037E+01 -0.10771819669E+02  0.20795981721E+02  0.00000000000E+00 0.  1.
</event>
<event>
 7    1  0.4878192E-011  0.5052887E+02  0.7816164E-02  0.1300439E+00
        -11   -1    0    0    0    0  0.00000000000E+00  0.00000000000E+00  0.45593999997E+02  0.45594000000E+02  0.51100000000E-03 0. -1.
         11   -1    0    0    0    0 -0.00000000000E+00 -0.00000000000E+00 -0.45593999997E+02  0.45594000000E+02  0.51100000000E-03 0.  1.
    9900012    2    1    2    0    0  0.90548144644E+01 -0.30445412406E+02  0.25382126659E+02  0.50528866275E+02  0.30000019528E+02 0.  0.
        -12    1    1    2    0    0 -0.90548144644E+01  0.30445412406E+02 -0.25382126659E+02  0.40659133725E+02  0.00000000000E+00 0.  1.
         11    1    3    3    0    0  0.12824387964E+02 -0.25987291399E+02  0.21377542893E+02  0.36011159122E+02  0.51100000000E-03 0. -1.
        -11    1    3    3    0    0 -0.62293096920E+01 -0.11269452308E+01  0.69766615886E+01  0.94206216342E+01  0.51100000000E-03 0.  1.
        -12    1    3    3    0    0  0.24597361925E+01 -0.33311757769E+01 -0.29720778234E+01  0.50970855184E+01  0.00000000000E+00 0.  1.
</event>
<event>
 7    1  0.4878192E-011  0.5052886E+02  0.7816164E-02  0.1300439E+00
        -11   -1    0    0    0    0  0.00000000000E+00  0.00000000000E+00  0.45593999997E+02  0.45594000000E+02  0.51100000000E-03 0.  1.
         11   -1    0    0    0    0 -0.00000000000E+00 -0.00000000000E+00 -0.45593999997E+02  0.45594000000E+02  0.51100000000E-03 0. -1.
    9900012    2    1    2    0    0 -0.17677870951E+02 -0.24483307282E+02 -0.27225468254E+02  0.50528861071E+02  0.30000003710E+02 0.  0.
        -12    1    1    2    0    0  0.17677870951E+02  0.24483307282E+02  0.27225468254E+02  0.40659138929E+02  0.00000000000E+00 0.  1.
         11    1    3    3    0    0 -0.74186992665E+00 -0.26319097712E+00 -0.36288044645E+01  0.37132011232E+01  0.51100000000E-03 0. -1.
        -11    1    3    3    0    0 -0.13303758912E+02  0.18029787302E+01 -0.39093576197E+01  0.13982982899E+02  0.51100000000E-03 0.  1.
        -12    1    3    3    0    0 -0.36322421123E+01 -0.26023095035E+02 -0.19687306170E+02  0.32832677049E+02  0.00000000000E+00 0.  1.
</event>
<event>
 7    1  0.4878192E-011  0.5052885E+02  0.7816164E-02  0.1300439E+00
        -11   -1    0    0    0    0  0.00000000000E+00  0.00000000000E+00  0.45593999997E+02  0.45594000000E+02  0.51100000000E-03 0. -1.
         11   -1    0    0    0    0 -0.00000000000E+00 -0.00000000000E+00 -0.45593999997E+02  0.45594000000E+02  0.51100000000E-03 0.  1.
    9900012    2    1    2    0    0 -0.81792845506E+01  0.30953058316E+02  0.25063404471E+02  0.50528846559E+02  0.29999959599E+02 0.  0.
        -12    1    1    2    0    0  0.81792845506E+01 -0.30953058316E+02 -0.25063404471E+02  0.40659153441E+02  0.00000000000E+00 0.  1.
         11    1    3    3    0    0  0.38493406332E+01 -0.15571035811E+01  0.71498791965E+01  0.82681780132E+01  0.51100000000E-03 0. -1.
        -11    1    3    3    0    0 -0.10677752959E+02  0.29376124729E+02  0.21002651917E+02  0.37657436187E+02  0.51100000000E-03 0.  1.
        -12    1    3    3    0    0 -0.13508722245E+01  0.31340371679E+01 -0.30891266419E+01  0.46032323585E+01  0.00000000000E+00 0.  1.
</event>
<event>
 7    1  0.4878192E-011  0.5052886E+02  0.7816164E-02  0.1300439E+00
        -11   -1    0    0    0    0  0.00000000000E+00  0.00000000000E+00  0.45593999997E+02  0.45594000000E+02  0.51100000000E-03 0. -1.
         11   -1    0    0    0    0 -0.00000000000E+00 -0.00000000000E+00 -0.45593999997E+02  0.45594000000E+02  0.51100000000E-03 0.  1.
    9900012    2    1    2    0    0  0.35779062761E+02  0.19133912331E+02 -0.26301650459E+01  0.50528859560E+02  0.29999999120E+02 0.  0.
        -12    1    1    2    0    0 -0.35779062761E+02 -0.19133912331E+02  0.26301650459E+01  0.40659140440E+02  0.00000000000E+00 0.  1.
         11    1    3    3    0    0  0.13866750620E+02  0.21144820489E+02 -0.38481539526E+01  0.25577304302E+02  0.51100000000E-03 0. -1.
        -11    1    3    3    0    0  0.22229265117E+02 -0.22439643326E+01 -0.13219654330E+01  0.22381313554E+02  0.51100000000E-03 0.  1.
         12    1    3    3    0    0 -0.31695297563E+00  0.23305617490E+00  0.25399543397E+01  0.25702417040E+01  0.00000000000E+00 0. -1.
</event>
<event>
 7    1  0.4878192E-011  0.5052889E+02  0.7816164E-02  0.1300439E+00
        -11   -1    0    0    0    0  0.00000000000E+00  0.00000000000E+00  0.45593999997E+02  0.45594000000E+02  0.51100000000E-03 0.  1.
         11   -1    0    0    0    0 -0.00000000000E+00 -0.00000000000E+00 -0.45593999997E+02  0.45594000000E+02  0.51100000000E-03 0. -1.
    9900012    2    1    2    0    0  0.73379119784E-01  0.20128557916E+02 -0.35327034401E+02  0.50528885550E+02  0.30000078118E+02 0.  0.
        -12    1    1    2    0    0 -0.73379119784E-01 -0.20128557916E+02  0.35327034401E+02  0.40659114450E+02  0.00000000000E+00 0.  1.
         11    1    3    3    0    0 -0.53993904056E+00 -0.55056541130E+01 -0.98087333231E+00  0.56183515496E+01  0.51100000000E-03 0. -1.
        -11    1    3    3    0    0 -0.63568154166E+01  0.13876675629E+02 -0.18510345763E+02  0.23991751276E+02  0.51100000000E-03 0.  1.
         12    1    3    3    0    0  0.69701335770E+01  0.11757536400E+02 -0.15835815306E+02  0.20918782725E+02  0.00000000000E+00 0. -1.
</event>
<event>
 7    1  0.4878192E-011  0.5052886E+02  0.7816164E-02  0.1300439E+00
        -11   -1    0    0    0    0  0.00000000000E+00  0.00000000000E+00  0.45593999997E+02  0.45594000000E+02  0.51100000000E-03 0.  1.
         11   -1    0    0    0    0 -0.00000000000E+00 -0.00000000000E+00 -0.45593999997E+02  0.45594000000E+02  0.51100000000E-03 0. -1.
    9900012    2    1    2    0    0 -0.32764711695E+02  0.20320340623E+02  0.12912116514E+02  0.50528864146E+02  0.30000013059E+02 0.  0.
        -12    1    1    2    0    0  0.32764711695E+02 -0.20320340623E+02 -0.12912116514E+02  0.40659135854E+02  0.00000000000E+00 0.  1.
         11    1    3    3    0    0 -0.96871182416E+01  0.75067605205E+01 -0.73437230065E+01  0.14287126415E+02  0.51100000000E-03 0. -1.
        -11    1    3    3    0    0 -0.13837395297E+02  0.15074583244E+02  0.12598749209E+02  0.24030086360E+02  0.51100000000E-03 0.  1.
         12    1    3    3    0    0 -0.92401981564E+01 -0.22610031416E+01  0.76570903114E+01  0.12211651371E+02  0.00000000000E+00 0. -1.
</event>
<event>
 7    1  0.4878192E-011  0.5052886E+02  0.7816164E-02  0.1300439E+00
        -11   -1    0    0    0    0  0.00000000000E+00  0.00000000000E+00  0.45593999997E+02  0.45594000000E+02  0.51100000000E-03 0.  1.
         11   -1    0    0    0    0 -0.00000000000E+00 -0.00000000000E+00 -0.45593999997E+02  0.45594000000E+02  0.51100000000E-03 0. -1.
    9900012    2    1    2    0    0 -0.26746051842E+02 -0.30426561174E+02 -0.34696618982E+01  0.50528862433E+02  0.30000007853E+02 0.  0.
        -12    1    1    2    0    0  0.26746051842E+02  0.30426561174E+02  0.34696618982E+01  0.40659137567E+02  0.00000000000E+00 0.  1.
         11    1    3    3    0    0  0.41913841816E+01 -0.11240341945E+02 -0.27985086638E+01  0.12318467413E+02  0.51100000000E-03 0. -1.
        -11    1    3    3    0    0 -0.26909197576E+02 -0.20573338158E+02  0.14203157619E+00  0.33873106299E+02  0.51100000000E-03 0.  1.
         12    1    3    3    0    0 -0.40282384478E+01  0.13871189296E+01 -0.81318481054E+00  0.43372887214E+01  0.00000000000E+00 0. -1.
</event>
<event>
 7    1  0.4878192E-011  0.5052885E+02  0.7816164E-02  0.1300439E+00
        -11   -1    0    0    0    0  0.00000000000E+00  0.00000000000E+00  0.45593999997E+02  0.45594000000E+02  0.51100000000E-03 0.  1.
         11   -1    0    0    0    0 -0.00000000000E+00 -0.00000000000E+00 -0.45593999997E+02  0.45594000000E+02  0.51100000000E-03 0. -1.
    9900012    2    1    2    0    0 -0.15319517244E+02  0.24499992063E+02 -0.28604712800E+02  0.50528845876E+02  0.29999957526E+02 0.  0.
        -12    1    1    2    0    0  0.15319517244E+02 -0.24499992063E+02  0.28604712800E+02  0.40659154124E+02  0.00000000000E+00 0.  1.
         11    1    3    3    0    0 -0.11496335363E+02  0.20276575980E+01 -0.17265246139E+02  0.20841445406E+02  0.51100000000E-03 0. -1.
        -11    1    3    3    0    0 -0.47516271553E+01  0.24624092494E+02 -0.10094646138E+02  0.27033789462E+02  0.51100000000E-03 0.  1.
        -12    1    3    3    0    0  0.92844527469E+00 -0.21517580294E+01 -0.12448205234E+01  0.26536110078E+01  0.00000000000E+00 0.  1.
</event>
<event>
 7    1  0.4878192E-011  0.5052886E+02  0.7816164E-02  0.1300439E+00
        -11   -1    0    0    0    0  0.00000000000E+00  0.00000000000E+00  0.45593999997E+02  0.45594000000E+02  0.51100000000E-03 0. -1.
         11   -1    0    0    0    0 -0.00000000000E+00 -0.00000000000E+00 -0.45593999997E+02  0.45594000000E+02  0.51100000000E-03 0.  1.
    9900012    2    1    2    0    0  0.29621172334E+02 -0.27654346120E+02 -0.33149306166E+01  0.50528862346E+02  0.30000007587E+02 0.  0.
        -12    1    1    2    0    0 -0.29621172334E+02  0.27654346120E+02  0.33149306166E+01  0.40659137654E+02  0.00000000000E+00 0.  1.
         11    1    3    3    0    0  0.19376618222E+02 -0.23311952358E+01 -0.48942105654E+01  0.20120663565E+02  0.51100000000E-03 0.  1.
        -11    1    3    3    0    0 -0.11907235224E+01 -0.13928792992E+02  0.26546064575E+01  0.14229407311E+02  0.51100000000E-03 0. -1.
        -12    1    3    3    0    0  0.11435277634E+02 -0.11394357893E+02 -0.10753265087E+01  0.16178791470E+02  0.00000000000E+00 0.  1.
</event>
<event>
 7    1  0.4878192E-011  0.5052886E+02  0.7816164E-02  0.1300439E+00
        -11   -1    0    0    0    0  0.00000000000E+00  0.00000000000E+00  0.45593999997E+02  0.45594000000E+02  0.51100000000E-03 0. -1.
         11   -1    0    0    0    0 -0.00000000000E+00 -0.00000000000E+00 -0.45593999997E+02  0.45594000000E+02  0.51100000000E-03 0.  1.
    9900012    2    1    2    0    0  0.32678674826E+02 -0.11863899745E+02  0.21083587692E+02  0.50528861107E+02  0.30000003822E+02 0.  0.
        -12    1    1    2    0    0 -0.32678674826E+02  0.11863899745E+02 -0.21083587692E+02  0.40659138893E+02  0.00000000000E+00 0.  1.
         11    1    3    3    0    0  0.72562259377E+01 -0.46798602504E+01  0.43378572579E+01  0.96628625507E+01  0.51100000000E-03 0. -1.
        -11    1    3    3    0    0  0.24362016468E+01 -0.47134075065E+00 -0.68269567951E+01  0.72639231763E+01  0.51100000000E-03 0.  1.
        -12    1    3    3    0    0  0.22986247241E+02 -0.67126987441E+01  0.23572687229E+02  0.33602075380E+02  0.00000000000E+00 0.  1.
</event>
<event>
 7    1  0.4878192E-011  0.5052889E+02  0.7816164E-02  0.1300439E+00
        -11   -1    0    0    0    0  0.00000000000E+00  0.00000000000E+00  0.45593999997E+02  0.45594000000E+02  0.51100000000E-03 0.  1.
         11   -1    0    0    0    0 -0.00000000000E+00 -0.00000000000E+00 -0.45593999997E+02  0.45594000000E+02  0.51100000000E-03 0. -1.
    9900012    2    1    2    0    0  0.31359960600E+01 -0.21779899620E+02 -0.34190128514E+02  0.50528888026E+02  0.30000085643E+02 0.  0.
        -12    1    1    2    0    0 -0.31359960600E+01  0.21779899620E+02  0.34190128514E+02  0.40659111974E+02  0.00000000000E+00 0.  1.
         11    1    3    3    0    0 -0.34026777969E+01 -0.15582006759E+02 -0.21432870208E+02  0.26716007869E+02  0.51100000000E-03 0. -1.
        -11    1    3    3    0    0  0.12811299946E+02 -0.35229051940E+01 -0.85590775522E+01  0.15805001617E+02  0.51100000000E-03 0.  1.
        -12    1    3    3    0    0 -0.62726260889E+01 -0.26749876674E+01 -0.41981807534E+01  0.80078785399E+01  0.00000000000E+00 0.  1.
</event>
<event>
 7    1  0.4878192E-011  0.5052886E+02  0.7816164E-02  0.1300439E+00
        -11   -1    0    0    0    0  0.00000000000E+00  0.00000000000E+00  0.45593999997E+02  0.45594000000E+02  0.51100000000E-03 0. -1.
         11   -1    0    0    0    0 -0.00000000000E+00 -0.00000000000E+00 -0.45593999997E+02  0.45594000000E+02  0.51100000000E-03 0.  1.
    9900012    2    1    2    0    0 -0.31532349168E+02 -0.23755521405E+02  0.97237567166E+01  0.50528864668E+02  0.30000014645E+02 0.  0.
        -12    1    1    2    0    0  0.31532349168E+02  0.23755521405E+02 -0.97237567166E+01  0.40659135332E+02  0.00000000000E+00 0.  1.
         11    1    3    3    0    0 -0.10888454610E+02 -0.19335523242E+02  0.13354728198E+02  0.25899221384E+02  0.51100000000E-03 0. -1.
        -11    1    3    3    0    0 -0.94723704012E+01  0.19247006316E+01  0.30671923500E+01  0.10140904433E+02  0.51100000000E-03 0.  1.
         12    1    3    3    0    0 -0.11171524157E+02 -0.63446987949E+01 -0.66981638310E+01  0.14488738851E+02  0.00000000000E+00 0. -1.
</event>
<event>
 7    1  0.4878192E-011  0.5052887E+02  0.7816164E-02  0.1300439E+00
        -11   -1    0    0    0    0  0.00000000000E+00  0.00000000000E+00  0.45593999997E+02  0.45594000000E+02  0.51100000000E-03 0.  1.
         11   -1    0    0    0    0 -0.00000000000E+00 -0.00000000000E+00 -0.45593999997E+02  0.45594000000E+02  0.51100000000E-03 0. -1.
    9900012    2    1    2    0    0 -0.28060906067E+02  0.22189936830E+02 -0.19322448054E+02  0.50528871326E+02  0.30000034881E+02 0.  0.
        -12    1    1    2    0    0  0.28060906067E+02 -0.22189936830E+02  0.19322448054E+02  0.40659128674E+02  0.00000000000E+00 0.  1.
         11    1    3    3    0    0 -0.77090875772E+01  0.15188620404E+02  0.43997760745E+01  0.17592107628E+02  0.51100000000E-03 0.  1.
        -11    1    3    3    0    0 -0.12911184225E+02  0.74098187618E+01 -0.12359185197E+02  0.19348218294E+02  0.51100000000E-03 0. -1.
         12    1    3    3    0    0 -0.74406342645E+01 -0.40850233580E+00 -0.11363038931E+02  0.13588545403E+02  0.00000000000E+00 0. -1.
</event>
<event>
 7    1  0.4878192E-011  0.5052887E+02  0.7816164E-02  0.1300439E+00
        -11   -1    0    0    0    0  0.00000000000E+00  0.00000000000E+00  0.45593999997E+02  0.45594000000E+02  0.51100000000E-03 0.  1.
         11   -1    0    0    0    0 -0.00000000000E+00 -0.00000000000E+00 -0.45593999997E+02  0.45594000000E+02  0.51100000000E-03 0. -1.
    9900012    2    1    2    0    0  0.22797269328E+02  0.20557918675E+02 -0.26661239791E+02  0.50528865526E+02  0.30000017252E+02 0.  0.
        -12    1    1    2    0    0 -0.22797269328E+02 -0.20557918675E+02  0.26661239791E+02  0.40659134474E+02  0.00000000000E+00 0.  1.
         11    1    3    3    0    0  0.14791834685E+02  0.19098040544E+02 -0.11763873176E+02  0.26868610651E+02  0.51100000000E-03 0. -1.
        -11    1    3    3    0    0  0.83969833280E+01 -0.47791585690E+01 -0.14463705289E+02  0.17393920104E+02  0.51100000000E-03 0.  1.
        -12    1    3    3    0    0 -0.39154868502E+00  0.62390366993E+01 -0.43366132555E+00  0.62663347703E+01  0.00000000000E+00 0.  1.
</event>
<event>
 7    1  0.4878192E-011  0.5052886E+02  0.7816164E-02  0.1300439E+00
        -11   -1    0    0    0    0  0.00000000000E+00  0.00000000000E+00  0.45593999997E+02  0.45594000000E+02  0.51100000000E-03 0. -1.
         11   -1    0    0    0    0 -0.00000000000E+00 -0.00000000000E+00 -0.45593999997E+02  0.45594000000E+02  0.51100000000E-03 0.  1.
    9900012    2    1    2    0    0 -0.18033785643E+02 -0.35826992764E+02 -0.66614704375E+01  0.50528855598E+02  0.29999987074E+02 0.  0.
        -12    1    1    2    0    0  0.18033785643E+02  0.35826992764E+02  0.66614704375E+01  0.40659144402E+02  0.00000000000E+00 0.  1.
         11    1    3    3    0    0 -0.89170049677E+01 -0.34220337248E+02 -0.95080497565E+01  0.36618949594E+02  0.51100000000E-03 0. -1.
        -11    1    3    3    0    0 -0.77191951830E+01  0.25594949320E+00 -0.24674902476E+01  0.81080202762E+01  0.51100000000E-03 0.  1.
         12    1    3    3    0    0 -0.13975854923E+01 -0.18626050093E+01  0.53140695666E+01  0.58018857268E+01  0.00000000000E+00 0. -1.
</event>
<event>
 7    1  0.4878192E-011  0.5052887E+02  0.7816164E-02  0.1300439E+00
        -11   -1    0    0    0    0  0.00000000000E+00  0.00000000000E+00  0.45593999997E+02  0.45594000000E+02  0.51100000000E-03 0.  1.
         11   -1    0    0    0    0 -0.00000000000E+00 -0.00000000000E+00 -0.45593999997E+02  0.45594000000E+02  0.51100000000E-03 0. -1.
    9900012    2    1    2    0    0  0.10740130021E+02 -0.29334322637E+02 -0.26025220661E+02  0.50528868333E+02  0.30000025786E+02 0.  0.
        -12    1    1    2    0    0 -0.10740130021E+02  0.29334322637E+02  0.26025220661E+02  0.40659131667E+02  0.00000000000E+00 0.  1.
         11    1    3    3    0    0 -0.28075725154E+01 -0.61868565616E+01  0.46632927430E+01  0.82405070846E+01  0.51100000000E-03 0.  1.
        -11    1    3    3    0    0  0.11062084630E+02 -0.19383762847E+02 -0.17533963980E+02  0.28382034310E+02  0.51100000000E-03 0. -1.
        -12    1    3    3    0    0  0.24856179059E+01 -0.37637032279E+01 -0.13154549424E+02  0.13906326938E+02  0.00000000000E+00 0.  1.
</event>
<event>
 7    1  0.4878192E-011  0.5052885E+02  0.7816164E-02  0.1300439E+00
        -11   -1    0    0    0    0  0.00000000000E+00  0.00000000000E+00  0.45593999997E+02  0.45594000000E+02  0.51100000000E-03 0. -1.
         11   -1    0    0    0    0 -0.00000000000E+00 -0.00000000000E+00 -0.45593999997E+02  0.45594000000E+02  0.51100000000E-03 0.  1.
    9900012    2    1    2    0    0  0.36493751103E+02 -0.17890368754E+02 -0.11434878731E+01  0.50528846932E+02  0.29999960733E+02 0.  0.
        -12    1    1    2    0    0 -0.36493751103E+02  0.17890368754E+02  0.11434878731E+01  0.40659153068E+02  0.00000000000E+00 0.  1.
         11    1    3    3    0    0  0.46981172230E+00  0.32937302272E+01  0.14736030979E+01  0.36388031295E+01  0.51100000000E-03 0. -1.
        -11    1    3    3    0    0  0.23960917944E+02 -0.23543163556E+02 -0.60408105536E+01  0.34130595239E+02  0.51100000000E-03 0.  1.
        -12    1    3    3    0    0  0.12063021437E+02  0.23590645752E+01  0.34237195827E+01  0.12759448563E+02  0.00000000000E+00 0.  1.
</event>
<event>
 7    1  0.1196399E-010  0.5052886E+02  0.7816164E-02  0.1300439E+00
        -11   -1    0    0    0    0  0.00000000000E+00  0.00000000000E+00  0.45593999997E+02  0.45594000000E+02  0.51100000000E-03 0. -1.
         11   -1    0    0    0    0 -0.00000000000E+00 -0.00000000000E+00 -0.45593999997E+02  0.45594000000E+02  0.51100000000E-03 0.  1.
    9900012    2    1    2    0    0 -0.26589562234E+02  0.81412926878E+01  0.29662771973E+02  0.50528861943E+02  0.30000006362E+02 0.  0.
        -12    1    1    2    0    0  0.26589562234E+02 -0.81412926878E+01 -0.29662771973E+02  0.40659138057E+02  0.00000000000E+00 0.  1.
         11    1    3    3    0    0 -0.25330887543E+02 -0.19599955967E+01  0.18316121136E+02  0.31320532247E+02  0.51100000000E-03 0. -1.
        -11    1    3    3    0    0 -0.31778713250E+01  0.10566620412E+02  0.42207488885E+01  0.11813850115E+02  0.51100000000E-03 0.  1.
        -12    1    3    3    0    0  0.19191966342E+01 -0.46533212795E+00  0.71259019478E+01  0.73944795813E+01  0.00000000000E+00 0.  1.
</event>
<event>
 7    1  0.4878192E-011  0.5052881E+02  0.7816164E-02  0.1300439E+00
        -11   -1    0    0    0    0  0.00000000000E+00  0.00000000000E+00  0.45593999997E+02  0.45594000000E+02  0.51100000000E-03 0.  1.
         11   -1    0    0    0    0 -0.00000000000E+00 -0.00000000000E+00 -0.45593999997E+02  0.45594000000E+02  0.51100000000E-03 0. -1.
    9900012    2    1    2    0    0  0.29719353318E+02 -0.25288912125E+02  0.11419316466E+02  0.50528808829E+02  0.29999844916E+02 0.  0.
        -12    1    1    2    0    0 -0.29719353318E+02  0.25288912125E+02 -0.11419316466E+02  0.40659191171E+02  0.00000000000E+00 0.  1.
         11    1    3    3    0    0  0.72130224035E+00 -0.45072055040E+01 -0.58123291749E+01  0.73904227941E+01  0.51100000000E-03 0. -1.
        -11    1    3    3    0    0  0.16730161179E+02 -0.61767601068E+01  0.61950011632E+00  0.17844731412E+02  0.51100000000E-03 0.  1.
        -12    1    3    3    0    0  0.12267889899E+02 -0.14604946514E+02  0.16612145525E+02  0.25293654623E+02  0.00000000000E+00 0.  1.
</event>
<event>
 7    1  0.4878192E-011  0.5052887E+02  0.7816164E-02  0.1300439E+00
        -11   -1    0    0    0    0  0.00000000000E+00  0.00000000000E+00  0.45593999997E+02  0.45594000000E+02  0.51100000000E-03 0.  1.
         11   -1    0    0    0    0 -0.00000000000E+00 -0.00000000000E+00 -0.45593999997E+02  0.45594000000E+02  0.51100000000E-03 0. -1.
    9900012    2    1    2    0    0 -0.36212220707E+02 -0.35064351830E+01 -0.18153373708E+02  0.50528868268E+02  0.30000025587E+02 0.  0.
        -12    1    1    2    0    0  0.36212220707E+02  0.35064351830E+01  0.18153373708E+02  0.40659131732E+02  0.00000000000E+00 0.  1.
         11    1    3    3    0    0 -0.16955153534E+02  0.10009256173E+01 -0.15005802542E+02  0.22663918321E+02  0.51100000000E-03 0. -1.
        -11    1    3    3    0    0 -0.16371892490E+02 -0.10913090038E+02  0.10096373551E+01  0.19701618353E+02  0.51100000000E-03 0.  1.
        -12    1    3    3    0    0 -0.28851746830E+01  0.64057292381E+01 -0.41572085206E+01  0.81633315936E+01  0.00000000000E+00 0.  1.
</event>
<event>
 7    1  0.4878192E-011  0.5052887E+02  0.7816164E-02  0.1300439E+00
        -11   -1    0    0    0    0  0.00000000000E+00  0.00000000000E+00  0.45593999997E+02  0.45594000000E+02  0.51100000000E-03 0.  1.
         11   -1    0    0    0    0 -0.00000000000E+00 -0.00000000000E+00 -0.45593999997E+02  0.45594000000E+02  0.51100000000E-03 0. -1.
    9900012    2    1    2    0    0  0.18092724124E+02 -0.35954089264E+02  0.57551398936E+01  0.50528870199E+02  0.30000031456E+02 0.  0.
        -12    1    1    2    0    0 -0.18092724124E+02  0.35954089264E+02 -0.57551398936E+01  0.40659129801E+02  0.00000000000E+00 0.  1.
         11    1    3    3    0    0 -0.10018121739E+01 -0.15157422812E+02  0.63384213896E+01  0.16459850544E+02  0.51100000000E-03 0. -1.
        -11    1    3    3    0    0  0.14189327357E+02 -0.66860156320E+01 -0.77547850278E+01  0.17497900073E+02  0.51100000000E-03 0.  1.
        -12    1    3    3    0    0  0.49052089416E+01 -0.14110650819E+02  0.71715035318E+01  0.16571119582E+02  0.00000000000E+00 0.  1.
</event>
<event>
 7    1  0.4878192E-011  0.5052882E+02  0.7816164E-02  0.1300439E+00
        -11   -1    0    0    0    0  0.00000000000E+00  0.00000000000E+00  0.45593999997E+02  0.45594000000E+02  0.51100000000E-03 0.  1.
         11   -1    0    0    0    0 -0.00000000000E+00 -0.00000000000E+00 -0.45593999997E+02  0.45594000000E+02  0.51100000000E-03 0. -1.
    9900012    2    1    2    0    0 -0.20043084423E+02  0.33692903027E+02  0.10781092147E+02  0.50528820280E+02  0.29999879723E+02 0.  0.
        -12    1    1    2    0    0  0.20043084423E+02 -0.33692903027E+02 -0.10781092147E+02  0.40659179720E+02  0.00000000000E+00 0.  1.
         11    1    3    3    0    0 -0.11434387581E+02  0.25753872362E+02  0.14504972040E+02  0.31692292046E+02  0.51100000000E-03 0. -1.
        -11    1    3    3    0    0  0.18853429513E+01 -0.23784460426E+01  0.12781243726E+01  0.32931938593E+01  0.51100000000E-03 0.  1.
        -12    1    3    3    0    0 -0.10494039793E+02  0.10317476708E+02 -0.50020042657E+01  0.15543334374E+02  0.00000000000E+00 0.  1.
</event>
<event>
 7    1  0.4878192E-011  0.5052886E+02  0.7816164E-02  0.1300439E+00
        -11   -1    0    0    0    0  0.00000000000E+00  0.00000000000E+00  0.45593999997E+02  0.45594000000E+02  0.51100000000E-03 0.  1.
         11   -1    0    0    0    0 -0.00000000000E+00 -0.00000000000E+00 -0.45593999997E+02  0.45594000000E+02  0.51100000000E-03 0. -1.
    9900012    2    1    2    0    0  0.13373913615E+02  0.37240033648E+02 -0.93532764956E+01  0.50528862618E+02  0.30000008412E+02 0.  0.
        -12    1    1    2    0    0 -0.13373913615E+02 -0.37240033648E+02  0.93532764956E+01  0.40659137382E+02  0.00000000000E+00 0.  1.
         11    1    3    3    0    0  0.53089374968E+01  0.19535542396E+02 -0.14877363355E+02  0.25122861595E+02  0.51100000000E-03 0. -1.
        -11    1    3    3    0    0 -0.13565115835E+01  0.17073071718E+01  0.64589064824E+01  0.68170737612E+01  0.51100000000E-03 0.  1.
        -12    1    3    3    0    0  0.94214877022E+01  0.15997184080E+02 -0.93481962299E+00  0.18588927261E+02  0.00000000000E+00 0.  1.
</event>
<event>
 7    1  0.4878192E-011  0.5052886E+02  0.7816164E-02  0.1300439E+00
        -11   -1    0    0    0    0  0.00000000000E+00  0.00000000000E+00  0.45593999997E+02  0.45594000000E+02  0.51100000000E-03 0.  1.
         11   -1    0    0    0    0 -0.00000000000E+00 -0.00000000000E+00 -0.45593999997E+02  0.45594000000E+02  0.51100000000E-03 0. -1.
    9900012    2    1    2    0    0  0.14258126356E+02  0.17259695641E+02 -0.33940742891E+02  0.50528864633E+02  0.30000014538E+02 0.  0.
        -12    1    1    2    0    0 -0.14258126356E+02 -0.17259695641E+02  0.33940742891E+02  0.40659135367E+02  0.00000000000E+00 0.  1.
         11    1    3    3    0    0  0.22634587755E+01 -0.17309272407E+01 -0.55526520018E+01  0.62410976002E+01  0.51100000000E-03 0.  1.
        -11    1    3    3    0    0  0.16135386719E+02  0.14207919251E+02 -0.79977177732E+01  0.22938595507E+02  0.51100000000E-03 0. -1.
        -12    1    3    3    0    0 -0.41407191384E+01  0.47827036311E+01 -0.20390373116E+02  0.21349171525E+02  0.00000000000E+00 0.  1.
</event>
<event>
 7    1  0.4878192E-011  0.5052886E+02  0.7816164E-02  0.1300439E+00
        -11   -1    0    0    0    0  0.00000000000E+00  0.00000000000E+00  0.45593999997E+02  0.45594000000E+02  0.51100000000E-03 0. -1.
         11   -1    0    0    0    0 -0.00000000000E+00 -0.00000000000E+00 -0.45593999997E+02  0.45594000000E+02  0.51100000000E-03 0.  1.
    9900012    2    1    2    0    0 -0.30475084133E+02 -0.24327060791E+02  0.11516465775E+02  0.50528860516E+02  0.30000002025E+02 0.  0.
        -12    1    1    2    0    0  0.30475084133E+02  0.24327060791E+02 -0.11516465775E+02  0.40659139484E+02  0.00000000000E+00 0.  1.
         11    1    3    3    0    0 -0.30963007908E+02 -0.16900249893E+02  0.13393258385E+01  0.35300426330E+02  0.51100000000E-03 0. -1.
        -11    1    3    3    0    0  0.33687869590E+01 -0.72339105564E+01  0.53621254017E+01  0.96140822026E+01  0.51100000000E-03 0.  1.
         12    1    3    3    0    0 -0.28808631843E+01 -0.19290034190E+00  0.48150145343E+01  0.56143519834E+01  0.00000000000E+00 0. -1.
</event>
<event>
 7    1  0.4878192E-011  0.5052886E+02  0.7816164E-02  0.1300439E+00
        -11   -1    0    0    0    0  0.00000000000E+00  0.00000000000E+00  0.45593999997E+02  0.45594000000E+02  0.51100000000E-03 0.  1.
         11   -1    0    0    0    0 -0.00000000000E+00 -0.00000000000E+00 -0.45593999997E+02  0.45594000000E+02  0.51100000000E-03 0. -1.
    9900012    2    1    2    0    0  0.35944912902E+01 -0.33935871600E+02 -0.22104346428E+02  0.50528857364E+02  0.29999992443E+02 0.  0.
        -12    1    1    2    0    0 -0.35944912902E+01  0.33935871600E+02  0.22104346428E+02  0.40659142636E+02  0.00000000000E+00 0.  1.
         11    1    3    3    0    0 -0.77792081544E+01 -0.11003643121E+02 -0.20630085885E+02  0.24641361272E+02  0.51100000000E-03 0. -1.
        -11    1    3    3    0    0  0.34664089625E+01 -0.10661136797E+02  0.44301792858E-01  0.11210610680E+02  0.51100000000E-03 0.  1.
         12    1    3    3    0    0  0.79072904821E+01 -0.12271091682E+02 -0.15185623356E+01  0.14676885412E+02  0.00000000000E+00 0. -1.
</event>
<event>
 7    1  0.4878192E-011  0.5052886E+02  0.7816164E-02  0.1300439E+00
        -11   -1    0    0    0    0  0.00000000000E+00  0.00000000000E+00  0.45593999997E+02  0.45594000000E+02  0.51100000000E-03 0.  1.
         11   -1    0    0    0    0 -0.00000000000E+00 -0.00000000000E+00 -0.45593999997E+02  0.45594000000E+02  0.51100000000E-03 0. -1.
    9900012    2    1    2    0    0 -0.17982336846E+02  0.18479792353E+02 -0.31437211762E+02  0.50528862685E+02  0.30000008617E+02 0.  0.
        -12    1    1    2    0    0  0.17982336846E+02 -0.18479792353E+02  0.31437211762E+02  0.40659137315E+02  0.00000000000E+00 0.  1.
         11    1    3    3    0    0  0.61377689470E+01  0.71197190865E+01 -0.14006622704E+02  0.16868553209E+02  0.51100000000E-03 0. -1.
        -11    1    3    3    0    0 -0.13170195762E+02  0.10334690511E+02 -0.59626139501E+01  0.17771118416E+02  0.51100000000E-03 0.  1.
         12    1    3    3    0    0 -0.10949910031E+02  0.10253827552E+01 -0.11467975108E+02  0.15889191060E+02  0.00000000000E+00 0. -1.
</event>
<event>
 7    1  0.4878192E-011  0.5052885E+02  0.7816164E-02  0.1300439E+00
        -11   -1    0    0    0    0  0.00000000000E+00  0.00000000000E+00  0.45593999997E+02  0.45594000000E+02  0.51100000000E-03 0. -1.
         11   -1    0    0    0    0 -0.00000000000E+00 -0.00000000000E+00 -0.45593999997E+02  0.45594000000E+02  0.51100000000E-03 0.  1.
    9900012    2    1    2    0    0  0.97358891599E+01 -0.25084345304E+02  0.30482039568E+02  0.50528847854E+02  0.29999963536E+02 0.  0.
        -12    1    1    2    0    0 -0.97358891599E+01  0.25084345304E+02 -0.30482039568E+02  0.40659152146E+02  0.00000000000E+00 0.  1.
         11    1    3    3    0    0 -0.23294703833E+01 -0.62461214321E+01  0.31970281590E+01  0.73933385234E+01  0.51100000000E-03 0. -1.
        -11    1    3    3    0    0  0.15942724485E+02 -0.20004702271E+02  0.29059678054E+02  0.38714641491E+02  0.51100000000E-03 0.  1.
        -12    1    3    3    0    0 -0.38773649415E+01  0.11664783994E+01 -0.17746666452E+01  0.44208678387E+01  0.00000000000E+00 0.  1.
</event>
<event>
 7    1  0.4911788E-011  0.5052886E+02  0.7816164E-02  0.1300439E+00
        -11   -1    0    0    0    0  0.00000000000E+00  0.00000000000E+00  0.45593999997E+02  0.45594000000E+02  0.51100000000E-03 0. -1.
         11   -1    0    0    0    0 -0.00000000000E+00 -0.00000000000E+00 -0.45593999997E+02  0.45594000000E+02  0.51100000000E-03 0.  1.
    9900012    2    1    2    0    0 -0.37565392368E+02  0.66668364512E+00  0.15542293906E+02  0.50528855018E+02  0.29999985311E+02 0.  0.
        -12    1    1    2    0    0  0.37565392368E+02 -0.66668364512E+00 -0.15542293906E+02  0.40659144982E+02  0.00000000000E+00 0.  1.
         11    1    3    3    0    0 -0.14115497128E+02  0.11196094090E+02  0.34920625018E+01  0.18351955831E+02  0.51100000000E-03 0. -1.
        -11    1    3    3    0    0 -0.16808424403E+02 -0.11046834707E+02  0.21279659005E+01  0.20225823274E+02  0.51100000000E-03 0.  1.
         12    1    3    3    0    0 -0.66414708365E+01  0.51742426223E+00  0.99222655039E+01  0.11951075913E+02  0.00000000000E+00 0. -1.
</event>
<event>
 7    1  0.4878192E-011  0.5052886E+02  0.7816164E-02  0.1300439E+00
        -11   -1    0    0    0    0  0.00000000000E+00  0.00000000000E+00  0.45593999997E+02  0.45594000000E+02  0.51100000000E-03 0.  1.
         11   -1    0    0    0    0 -0.00000000000E+00 -0.00000000000E+00 -0.45593999997E+02  0.45594000000E+02  0.51100000000E-03 0. -1.
    9900012    2    1    2    0    0  0.23230391486E+02 -0.26486351850E+02 -0.20297486136E+02  0.50528857530E+02  0.29999992949E+02 0.  0.
        -12    1    1    2    0    0 -0.23230391486E+02  0.26486351850E+02  0.20297486136E+02  0.40659142470E+02  0.00000000000E+00 0.  1.
         11    1    3    3    0    0  0.14445801398E+02 -0.16923165960E+02 -0.14083638408E+02  0.26332937459E+02  0.51100000000E-03 0. -1.
        -11    1    3    3    0    0 -0.43982496994E+00  0.29394198665E+01 -0.80210126132E+01  0.85539627517E+01  0.51100000000E-03 0.  1.
         12    1    3    3    0    0  0.92244150581E+01 -0.12502605757E+02  0.18071648856E+01  0.15641957320E+02  0.00000000000E+00 0. -1.
</event>
<event>
 7    1  0.4878192E-011  0.5052886E+02  0.7816164E-02  0.1300439E+00
        -11   -1    0    0    0    0  0.00000000000E+00  0.00000000000E+00  0.45593999997E+02  0.45594000000E+02  0.51100000000E-03 0.  1.
         11   -1    0    0    0    0 -0.00000000000E+00 -0.00000000000E+00 -0.45593999997E+02  0.45594000000E+02  0.51100000000E-03 0. -1.
    9900012    2    1    2    0    0 -0.19444653634E+01  0.39785497664E+02 -0.81547064339E+01  0.50528855802E+02  0.29999987695E+02 0.  0.
        -12    1    1    2    0    0  0.19444653634E+01 -0.39785497664E+02  0.81547064339E+01  0.40659144198E+02  0.00000000000E+00 0.  1.
         11    1    3    3    0    0 -0.63775104380E+01  0.23830491538E+02 -0.63556278240E+01  0.25474673140E+02  0.51100000000E-03 0. -1.
        -11    1    3    3    0    0  0.76981161883E+01  0.14243508886E+02  0.53157693411E+01  0.17041007664E+02  0.51100000000E-03 0.  1.
         12    1    3    3    0    0 -0.32650711137E+01  0.17114972400E+01 -0.71148479511E+01  0.80131749979E+01  0.00000000000E+00 0. -1.
</event>
<event>
 7    1  0.4878192E-011  0.5052886E+02  0.7816164E-02  0.1300439E+00
        -11   -1    0    0    0    0  0.00000000000E+00  0.00000000000E+00  0.45593999997E+02  0.45594000000E+02  0.51100000000E-03 0.  1.
         11   -1    0    0    0    0 -0.00000000000E+00 -0.00000000000E+00 -0.45593999997E+02  0.45594000000E+02  0.51100000000E-03 0. -1.
    9900012    2    1    2    0    0 -0.27702374564E+02  0.12619508028E+02 -0.26953517669E+02  0.50528860141E+02  0.30000000883E+02 0.  0.
        -12    1    1    2    0    0  0.27702374564E+02 -0.12619508028E+02  0.26953517669E+02  0.40659139859E+02  0.00000000000E+00 0.  1.
         11    1    3    3    0    0 -0.13505322300E+02 -0.52943080681E+01 -0.14642522087E+02  0.20611328964E+02  0.51100000000E-03 0. -1.
        -11    1    3    3    0    0 -0.13180133300E+02  0.11934054683E+02 -0.19172265766E+01  0.17883325557E+02  0.51100000000E-03 0.  1.
        -12    1    3    3    0    0 -0.10169189644E+01  0.59797614129E+01 -0.10393769006E+02  0.12034205619E+02  0.00000000000E+00 0.  1.
</event>
<event>
 7    1  0.4878192E-011  0.5052886E+02  0.7816164E-02  0.1300439E+00
        -11   -1    0    0    0    0  0.00000000000E+00  0.00000000000E+00  0.45593999997E+02  0.45594000000E+02  0.51100000000E-03 0. -1.
         11   -1    0    0    0    0 -0.00000000000E+00 -0.00000000000E+00 -0.45593999997E+02  0.45594000000E+02  0.51100000000E-03 0.  1.
    9900012    2    1    2    0    0 -0.36668100284E+02 -0.11983961367E+02 -0.12845254732E+02  0.50528862311E+02  0.30000007479E+02 0.  0.
        -12    1    1    2    0    0  0.36668100284E+02  0.11983961367E+02  0.12845254732E+02  0.40659137689E+02  0.00000000000E+00 0.  1.
         11    1    3    3    0    0 -0.55110814845E+01 -0.30806959850E+01  0.12179887856E+01  0.64301013852E+01  0.51100000000E-03 0. -1.
        -11    1    3    3    0    0 -0.10432917587E+02  0.27334884568E+01 -0.17018432174E+02  0.20148070936E+02  0.51100000000E-03 0.  1.
        -12    1    3    3    0    0 -0.20724101213E+02 -0.11636753839E+02  0.29551886558E+01  0.23950689989E+02  0.00000000000E+00 0.  1.
</event>
<event>
 7    1  0.4878192E-011  0.5052890E+02  0.7816164E-02  0.1300439E+00
        -11   -1    0    0    0    0  0.00000000000E+00  0.00000000000E+00  0.45593999997E+02  0.45594000000E+02  0.51100000000E-03 0.  1.
         11   -1    0    0    0    0 -0.00000000000E+00 -0.00000000000E+00 -0.45593999997E+02  0.45594000000E+02  0.51100000000E-03 0. -1.
    9900012    2    1    2    0    0 -0.20978598993E+02 -0.77067011087E+01 -0.33965679758E+02  0.50528901890E+02  0.30000127786E+02 0.  0.
        -12    1    1    2    0    0  0.20978598993E+02  0.77067011087E+01  0.33965679758E+02  0.40659098110E+02  0.00000000000E+00 0.  1.
         11    1    3    3    0    0 -0.20009975440E+02 -0.15957961080E+02 -0.17864665300E+02  0.31212207636E+02  0.51100000000E-03 0. -1.
        -11    1    3    3    0    0 -0.22215117167E+01  0.53094353599E+01 -0.45658976968E+01  0.73466073931E+01  0.51100000000E-03 0.  1.
         12    1    3    3    0    0  0.12528881640E+01  0.29418246111E+01 -0.11535116760E+02  0.11970086861E+02  0.00000000000E+00 0. -1.
</event>
<event>
 7    1  0.4878192E-011  0.5052887E+02  0.7816164E-02  0.1300439E+00
        -11   -1    0    0    0    0  0.00000000000E+00  0.00000000000E+00  0.45593999997E+02  0.45594000000E+02  0.51100000000E-03 0.  1.
         11   -1    0    0    0    0 -0.00000000000E+00 -0.00000000000E+00 -0.45593999997E+02  0.45594000000E+02  0.51100000000E-03 0. -1.
    9900012    2    1    2    0    0 -0.11649824753E+02  0.58812129382E+01 -0.38507894227E+02  0.50528868182E+02  0.30000025327E+02 0.  0.
        -12    1    1    2    0    0  0.11649824753E+02 -0.58812129382E+01  0.38507894227E+02  0.40659131818E+02  0.00000000000E+00 0.  1.
         11    1    3    3    0    0 -0.18285153583E+02  0.56266889458E+01 -0.21467765709E+02  0.28755372278E+02  0.51100000000E-03 0. -1.
        -11    1    3    3    0    0  0.83935339845E+01 -0.29113799630E+00 -0.53912929907E+01  0.99800909041E+01  0.51100000000E-03 0.  1.
        -12    1    3    3    0    0 -0.17582051550E+01  0.54566198868E+00 -0.11648835527E+02  0.11793405001E+02  0.00000000000E+00 0.  1.
</event>
<event>
 7    1  0.4878192E-011  0.5052886E+02  0.7816164E-02  0.1300439E+00
        -11   -1    0    0    0    0  0.00000000000E+00  0.00000000000E+00  0.45593999997E+02  0.45594000000E+02  0.51100000000E-03 0.  1.
         11   -1    0    0    0    0 -0.00000000000E+00 -0.00000000000E+00 -0.45593999997E+02  0.45594000000E+02  0.51100000000E-03 0. -1.
    9900012    2    1    2    0    0 -0.18568427240E+02 -0.29309468716E+02 -0.21197508689E+02  0.50528858086E+02  0.29999994638E+02 0.  0.
        -12    1    1    2    0    0  0.18568427240E+02  0.29309468716E+02  0.21197508689E+02  0.40659141914E+02  0.00000000000E+00 0.  1.
         11    1    3    3    0    0 -0.10233591016E+02  0.13750849968E+01 -0.30101176072E-01  0.10325606528E+02  0.51100000000E-03 0. -1.
        -11    1    3    3    0    0 -0.56312298456E+01 -0.15083550274E+02 -0.34951781781E+01  0.16475451715E+02  0.51100000000E-03 0.  1.
         12    1    3    3    0    0 -0.27036063780E+01 -0.15601003439E+02 -0.17672229334E+02  0.23727799843E+02  0.00000000000E+00 0. -1.
</event>
<event>
 7    1  0.4878192E-011  0.5052887E+02  0.7816164E-02  0.1300439E+00
        -11   -1    0    0    0    0  0.00000000000E+00  0.00000000000E+00  0.45593999997E+02  0.45594000000E+02  0.51100000000E-03 0.  1.
         11   -1    0    0    0    0 -0.00000000000E+00 -0.00000000000E+00 -0.45593999997E+02  0.45594000000E+02  0.51100000000E-03 0. -1.
    9900012    2    1    2    0    0 -0.36317693431E+02  0.10925175812E+02 -0.14657105242E+02  0.50528867487E+02  0.30000023212E+02 0.  0.
        -12    1    1    2    0    0  0.36317693431E+02 -0.10925175812E+02  0.14657105242E+02  0.40659132513E+02  0.00000000000E+00 0.  1.
         11    1    3    3    0    0 -0.58040535158E+01 -0.43315240462E+01  0.42215716381E+01  0.83827683455E+01  0.51100000000E-03 0.  1.
        -11    1    3    3    0    0 -0.27024222329E+02  0.66132441391E+01 -0.10914811865E+02  0.29886062117E+02  0.51100000000E-03 0. -1.
         12    1    3    3    0    0 -0.34894175858E+01  0.86434557190E+01 -0.79638650157E+01  0.12260037025E+02  0.00000000000E+00 0. -1.
</event>
<event>
 7    1  0.4878192E-011  0.5052886E+02  0.7816164E-02  0.1300439E+00
        -11   -1    0    0    0    0  0.00000000000E+00  0.00000000000E+00  0.45593999997E+02  0.45594000000E+02  0.51100000000E-03 0.  1.
         11   -1    0    0    0    0 -0.00000000000E+00 -0.00000000000E+00 -0.45593999997E+02  0.45594000000E+02  0.51100000000E-03 0. -1.
    9900012    2    1    2    0    0  0.22057790800E+02  0.17688895167E+02 -0.29218533887E+02  0.50528857489E+02  0.29999992825E+02 0.  0.
        -12    1    1    2    0    0 -0.22057790800E+02 -0.17688895167E+02  0.29218533887E+02  0.40659142511E+02  0.00000000000E+00 0.  1.
         11    1    3    3    0    0 -0.14320200599E+01  0.85760604240E+01 -0.20990335197E+02  0.22719895814E+02  0.51100000000E-03 0. -1.
        -11    1    3    3    0    0  0.20591334753E+02  0.97841774109E+01 -0.93346026025E+01  0.24634690997E+02  0.51100000000E-03 0.  1.
        -12    1    3    3    0    0  0.28984761065E+01 -0.67134266782E+00  0.11064039132E+01  0.31742706779E+01  0.00000000000E+00 0.  1.
</event>
<event>
 7    1  0.4878192E-011  0.5052886E+02  0.7816164E-02  0.1300439E+00
        -11   -1    0    0    0    0  0.00000000000E+00  0.00000000000E+00  0.45593999997E+02  0.45594000000E+02  0.51100000000E-03 0. -1.
         11   -1    0    0    0    0 -0.00000000000E+00 -0.00000000000E+00 -0.45593999997E+02  0.45594000000E+02  0.51100000000E-03 0.  1.
    9900012    2    1    2    0    0 -0.26507575651E+02 -0.23294184206E+02  0.20196407685E+02  0.50528862429E+02  0.30000007838E+02 0.  0.
        -12    1    1    2    0    0  0.26507575651E+02  0.23294184206E+02 -0.20196407685E+02  0.40659137571E+02  0.00000000000E+00 0.  1.
         11    1    3    3    0    0  0.21871248632E+01 -0.11869698664E+02  0.10978489468E+02  0.16315651774E+02  0.51100000000E-03 0. -1.
        -11    1    3    3    0    0 -0.29164213532E+02 -0.12360847091E+02  0.95997693725E+01  0.33098300017E+02  0.51100000000E-03 0.  1.
        -12    1    3    3    0    0  0.46951301810E+00  0.93636154954E+00 -0.38185115557E+00  0.11149106380E+01  0.00000000000E+00 0.  1.
</event>
<event>
 7    1  0.4878192E-011  0.5052888E+02  0.7816164E-02  0.1300439E+00
        -11   -1    0    0    0    0  0.00000000000E+00  0.00000000000E+00  0.45593999997E+02  0.45594000000E+02  0.51100000000E-03 0. -1.
         11   -1    0    0    0    0 -0.00000000000E+00 -0.00000000000E+00 -0.45593999997E+02  0.45594000000E+02  0.51100000000E-03 0.  1.
    9900012    2    1    2    0    0 -0.11350733528E+02  0.17282836472E+02  0.35008971657E+02  0.50528884360E+02  0.30000074499E+02 0.  0.
        -12    1    1    2    0    0  0.11350733528E+02 -0.17282836472E+02 -0.35008971657E+02  0.40659115640E+02  0.00000000000E+00 0.  1.
         11    1    3    3    0    0  0.44280115731E+01  0.15835147696E+02  0.25030464480E+02  0.29948010642E+02  0.51100000000E-03 0. -1.
        -11    1    3    3    0    0 -0.13917129144E+02 -0.19730224485E+01  0.71700460068E+01  0.15779380888E+02  0.51100000000E-03 0.  1.
        -12    1    3    3    0    0 -0.18616159572E+01  0.34207112242E+01  0.28084611707E+01  0.48014928302E+01  0.00000000000E+00 0.  1.
</event>
<event>
 7    1  0.4878192E-011  0.5052884E+02  0.7816164E-02  0.1300439E+00
        -11   -1    0    0    0    0  0.00000000000E+00  0.00000000000E+00  0.45593999997E+02  0.45594000000E+02  0.51100000000E-03 0.  1.
         11   -1    0    0    0    0 -0.00000000000E+00 -0.00000000000E+00 -0.45593999997E+02  0.45594000000E+02  0.51100000000E-03 0. -1.
    9900012    2    1    2    0    0  0.46641405601E+01 -0.38326379033E+02  0.12747604066E+02  0.50528844249E+02  0.29999952578E+02 0.  0.
        -12    1    1    2    0    0 -0.46641405601E+01  0.38326379033E+02 -0.12747604066E+02  0.40659155751E+02  0.00000000000E+00 0.  1.
         11    1    3    3    0    0  0.75672922300E+01 -0.59637038783E+01 -0.37790410183E+01  0.10349436068E+02  0.51100000000E-03 0. -1.
        -11    1    3    3    0    0 -0.79495841908E+01 -0.72215505523E+01  0.28228555323E+01  0.11104737494E+02  0.51100000000E-03 0.  1.
         12    1    3    3    0    0  0.50464325209E+01 -0.25141124603E+02  0.13703789552E+02  0.29074670687E+02  0.00000000000E+00 0. -1.
</event>
<event>
 7    1  0.4878192E-011  0.5052886E+02  0.7816164E-02  0.1300439E+00
        -11   -1    0    0    0    0  0.00000000000E+00  0.00000000000E+00  0.45593999997E+02  0.45594000000E+02  0.51100000000E-03 0.  1.
         11   -1    0    0    0    0 -0.00000000000E+00 -0.00000000000E+00 -0.45593999997E+02  0.45594000000E+02  0.51100000000E-03 0. -1.
    9900012    2    1    2    0    0 -0.17637109811E+02 -0.32410266268E+02 -0.17078427961E+02  0.50528859531E+02  0.29999999032E+02 0.  0.
        -12    1    1    2    0    0  0.17637109811E+02  0.32410266268E+02  0.17078427961E+02  0.40659140469E+02  0.00000000000E+00 0.  1.
         11    1    3    3    0    0  0.25590984936E+01 -0.15744443511E+02 -0.60701697540E+01  0.17067028086E+02  0.51100000000E-03 0. -1.
        -11    1    3    3    0    0 -0.73323160530E+01  0.18141408842E+01  0.15051301781E+01  0.77019077483E+01  0.51100000000E-03 0.  1.
        -12    1    3    3    0    0 -0.12863892251E+02 -0.18479963641E+02 -0.12513388385E+02  0.25759923697E+02  0.00000000000E+00 0.  1.
</event>
<event>
 7    1  0.4878192E-011  0.5052886E+02  0.7816164E-02  0.1300439E+00
        -11   -1    0    0    0    0  0.00000000000E+00  0.00000000000E+00  0.45593999997E+02  0.45594000000E+02  0.51100000000E-03 0. -1.
         11   -1    0    0    0    0 -0.00000000000E+00 -0.00000000000E+00 -0.45593999997E+02  0.45594000000E+02  0.51100000000E-03 0.  1.
    9900012    2    1    2    0    0 -0.37942712651E+02  0.13780295357E+02 -0.48600044708E+01  0.50528860475E+02  0.30000001899E+02 0.  0.
        -12    1    1    2    0    0  0.37942712651E+02 -0.13780295357E+02  0.48600044708E+01  0.40659139525E+02  0.00000000000E+00 0.  1.
         11    1    3    3    0    0 -0.26574408037E+02  0.14260837191E+02  0.91593341500E+01  0.31519264621E+02  0.51100000000E-03 0. -1.
        -11    1    3    3    0    0 -0.56252374750E+01 -0.29801687316E+01 -0.53567995437E+01  0.83198560042E+01  0.51100000000E-03 0.  1.
         12    1    3    3    0    0 -0.57430671396E+01  0.24996268979E+01 -0.86625390771E+01  0.10689739850E+02  0.00000000000E+00 0. -1.
</event>
<event>
 7    1  0.4878192E-011  0.5052888E+02  0.7816164E-02  0.1300439E+00
        -11   -1    0    0    0    0  0.00000000000E+00  0.00000000000E+00  0.45593999997E+02  0.45594000000E+02  0.51100000000E-03 0. -1.
         11   -1    0    0    0    0 -0.00000000000E+00 -0.00000000000E+00 -0.45593999997E+02  0.45594000000E+02  0.51100000000E-03 0.  1.
    9900012    2    1    2    0    0  0.11783515947E+02  0.33711276680E+02  0.19438691729E+02  0.50528878519E+02  0.30000056746E+02 0.  0.
        -12    1    1    2    0    0 -0.11783515947E+02 -0.33711276680E+02 -0.19438691729E+02  0.40659121481E+02  0.00000000000E+00 0.  1.
         11    1    3    3    0    0  0.37825809143E+01 -0.35890204168E+01 -0.96086104917E+00  0.53020977115E+01  0.51100000000E-03 0.  1.
        -11    1    3    3    0    0 -0.24889742943E+01  0.18588331815E+02  0.75207954814E+01  0.20206024786E+02  0.51100000000E-03 0. -1.
         12    1    3    3    0    0  0.10489909327E+02  0.18711965281E+02  0.12878757297E+02  0.25020756022E+02  0.00000000000E+00 0. -1.
</event>
<event>
 7    1  0.4878192E-011  0.5052886E+02  0.7816164E-02  0.1300439E+00
        -11   -1    0    0    0    0  0.00000000000E+00  0.00000000000E+00  0.45593999997E+02  0.45594000000E+02  0.51100000000E-03 0.  1.
         11   -1    0    0    0    0 -0.00000000000E+00 -0.00000000000E+00 -0.45593999997E+02  0.45594000000E+02  0.51100000000E-03 0. -1.
    9900012    2    1    2    0    0  0.29624372081E+02 -0.56463897688E+01 -0.27270513935E+02  0.50528855040E+02  0.29999985379E+02 0.  0.
        -12    1    1    2    0    0 -0.29624372081E+02  0.56463897688E+01  0.27270513935E+02  0.40659144960E+02  0.00000000000E+00 0.  1.
         11    1    3    3    0    0  0.22786014453E+02  0.67647780273E+01 -0.20402009995E+02  0.31324218881E+02  0.51100000000E-03 0. -1.
        -11    1    3    3    0    0  0.69957089602E+01 -0.65784897670E+01  0.72273198718E+00  0.96300993378E+01  0.51100000000E-03 0.  1.
         12    1    3    3    0    0 -0.15735133247E+00 -0.58326780291E+01 -0.75912359275E+01  0.95745368212E+01  0.00000000000E+00 0. -1.
</event>
<event>
 7    1  0.4878192E-011  0.5052886E+02  0.7816164E-02  0.1300439E+00
        -11   -1    0    0    0    0  0.00000000000E+00  0.00000000000E+00  0.45593999997E+02  0.45594000000E+02  0.51100000000E-03 0. -1.
         11   -1    0    0    0    0 -0.00000000000E+00 -0.00000000000E+00 -0.45593999997E+02  0.45594000000E+02  0.51100000000E-03 0.  1.
    9900012    2    1    2    0    0 -0.97259566520E+01  0.27378387257E+02  0.28442845524E+02  0.50528858555E+02  0.29999996062E+02 0.  0.
        -12    1    1    2    0    0  0.97259566520E+01 -0.27378387257E+02 -0.28442845524E+02  0.40659141445E+02  0.00000000000E+00 0.  1.
         11    1    3    3    0    0 -0.77476286633E+01 -0.60758388649E+00  0.15974533395E+02  0.17764589090E+02  0.51100000000E-03 0. -1.
        -11    1    3    3    0    0  0.27789645439E+01  0.95043923068E+01 -0.11879083370E+00  0.99030413804E+01  0.51100000000E-03 0.  1.
        -12    1    3    3    0    0 -0.47572925327E+01  0.18481578836E+02  0.12587102963E+02  0.22861228084E+02  0.00000000000E+00 0.  1.
</event>
<event>
 7    1  0.4878192E-011  0.5052886E+02  0.7816164E-02  0.1300439E+00
        -11   -1    0    0    0    0  0.00000000000E+00  0.00000000000E+00  0.45593999997E+02  0.45594000000E+02  0.51100000000E-03 0.  1.
         11   -1    0    0    0    0 -0.00000000000E+00 -0.00000000000E+00 -0.45593999997E+02  0.45594000000E+02  0.51100000000E-03 0. -1.
    9900012    2    1    2    0    0  0.47140763038E+01 -0.27250458600E+02 -0.29805293979E+02  0.50528861317E+02  0.30000004459E+02 0.  0.
        -12    1    1    2    0    0 -0.47140763038E+01  0.27250458600E+02  0.29805293979E+02  0.40659138683E+02  0.00000000000E+00 0.  1.
         11    1    3    3    0    0  0.50963151528E+01 -0.97853045757E+01 -0.13679922245E+02  0.17574552247E+02  0.51100000000E-03 0. -1.
        -11    1    3    3    0    0 -0.60690824935E+01  0.19857133656E+01  0.94804858656E+00  0.64556654395E+01  0.51100000000E-03 0.  1.
        -12    1    3    3    0    0  0.56868436445E+01 -0.19450867389E+02 -0.17073420320E+02  0.26498643631E+02  0.00000000000E+00 0.  1.
</event>
<event>
 7    1  0.4878192E-011  0.5052889E+02  0.7816164E-02  0.1300439E+00
        -11   -1    0    0    0    0  0.00000000000E+00  0.00000000000E+00  0.45593999997E+02  0.45594000000E+02  0.51100000000E-03 0. -1.
         11   -1    0    0    0    0 -0.00000000000E+00 -0.00000000000E+00 -0.45593999997E+02  0.45594000000E+02  0.51100000000E-03 0.  1.
    9900012    2    1    2    0    0  0.10100619606E+02  0.31056952290E+02  0.24219960697E+02  0.50528889113E+02  0.30000088947E+02 0.  0.
        -12    1    1    2    0    0 -0.10100619606E+02 -0.31056952290E+02 -0.24219960697E+02  0.40659110887E+02  0.00000000000E+00 0.  1.
         11    1    3    3    0    0  0.12185034239E+02  0.99083063029E+01  0.87505143859E+01  0.17978350744E+02  0.51100000000E-03 0. -1.
        -11    1    3    3    0    0 -0.62805470157E+01  0.22203283694E+02  0.89997902265E+01  0.24767464585E+02  0.51100000000E-03 0.  1.
        -12    1    3    3    0    0  0.41961323827E+01 -0.10546377063E+01  0.64696560846E+01  0.77830737834E+01  0.00000000000E+00 0.  1.
</event>
<event>
 7    1  0.4878192E-011  0.5052886E+02  0.7816164E-02  0.1300439E+00
        -11   -1    0    0    0    0  0.00000000000E+00  0.00000000000E+00  0.45593999997E+02  0.45594000000E+02  0.51100000000E-03 0.  1.
         11   -1    0    0    0    0 -0.00000000000E+00 -0.00000000000E+00 -0.45593999997E+02  0.45594000000E+02  0.51100000000E-03 0. -1.
    9900012    2    1    2    0    0 -0.17790153628E+01 -0.19316545607E+02 -0.35733340452E+02  0.50528862654E+02  0.30000008524E+02 0.  0.
        -12    1    1    2    0    0  0.17790153628E+01  0.19316545607E+02  0.35733340452E+02  0.40659137346E+02  0.00000000000E+00 0.  1.
         11    1    3    3    0    0  0.32438603849E+01 -0.22351397691E+02 -0.32483457131E+02  0.39563652465E+02  0.51100000000E-03 0. -1.
        -11    1    3    3    0    0 -0.59693443354E+01 -0.61520751221E+00 -0.21161335391E-01  0.60009999284E+01  0.51100000000E-03 0.  1.
        -12    1    3    3    0    0  0.94646858772E+00  0.36500595969E+01 -0.32287219857E+01  0.49642102604E+01  0.00000000000E+00 0.  1.
</event>
<event>
 7    1  0.4878192E-011  0.5052885E+02  0.7816164E-02  0.1300439E+00
        -11   -1    0    0    0    0  0.00000000000E+00  0.00000000000E+00  0.45593999997E+02  0.45594000000E+02  0.51100000000E-03 0.  1.
         11   -1    0    0    0    0 -0.00000000000E+00 -0.00000000000E+00 -0.45593999997E+02  0.45594000000E+02  0.51100000000E-03 0. -1.
    9900012    2    1    2    0    0 -0.10366256481E+02 -0.35362979114E+02  0.17180418605E+02  0.50528851599E+02  0.29999974919E+02 0.  0.
        -12    1    1    2    0    0  0.10366256481E+02  0.35362979114E+02 -0.17180418605E+02  0.40659148401E+02  0.00000000000E+00 0.  1.
         11    1    3    3    0    0 -0.13909426161E+02 -0.27742872635E+02  0.14247069647E+02  0.34148471590E+02  0.51100000000E-03 0. -1.
        -11    1    3    3    0    0  0.65080672048E+01  0.21314256664E+00  0.44252766955E+01  0.78729564072E+01  0.51100000000E-03 0.  1.
        -12    1    3    3    0    0 -0.29648975248E+01 -0.78332490463E+01 -0.14919277377E+01  0.85074236011E+01  0.00000000000E+00 0.  1.
</event>
<event>
 7    1  0.4878192E-011  0.5052886E+02  0.7816164E-02  0.1300439E+00
        -11   -1    0    0    0    0  0.00000000000E+00  0.00000000000E+00  0.45593999997E+02  0.45594000000E+02  0.51100000000E-03 0.  1.
         11   -1    0    0    0    0 -0.00000000000E+00 -0.00000000000E+00 -0.45593999997E+02  0.45594000000E+02  0.51100000000E-03 0. -1.
    9900012    2    1    2    0    0 -0.53852785698E+01  0.24039847694E+02 -0.32345788285E+02  0.50528861763E+02  0.30000005813E+02 0.  0.
        -12    1    1    2    0    0  0.53852785698E+01 -0.24039847694E+02  0.32345788285E+02  0.40659138237E+02  0.00000000000E+00 0.  1.
         11    1    3    3    0    0 -0.15993833838E+02  0.19643439107E+02 -0.24917110162E+02  0.35532095349E+02  0.51100000000E-03 0. -1.
        -11    1    3    3    0    0  0.88643285367E+01  0.81493327414E+00 -0.61244957916E+01  0.10805086099E+02  0.51100000000E-03 0.  1.
         12    1    3    3    0    0  0.17442267312E+01  0.35814753128E+01 -0.13041823312E+01  0.41916803145E+01  0.00000000000E+00 0. -1.
</event>
<event>
 7    1  0.4878192E-011  0.5052886E+02  0.7816164E-02  0.1300439E+00
        -11   -1    0    0    0    0  0.00000000000E+00  0.00000000000E+00  0.45593999997E+02  0.45594000000E+02  0.51100000000E-03 0.  1.
         11   -1    0    0    0    0 -0.00000000000E+00 -0.00000000000E+00 -0.45593999997E+02  0.45594000000E+02  0.51100000000E-03 0. -1.
    9900012    2    1    2    0    0  0.10563425563E+02  0.58300499439E+01 -0.38827701906E+02  0.50528857396E+02  0.29999992541E+02 0.  0.
        -12    1    1    2    0    0 -0.10563425563E+02 -0.58300499439E+01  0.38827701906E+02  0.40659142604E+02  0.00000000000E+00 0.  1.
         11    1    3    3    0    0  0.18511319985E+02  0.34787384906E+01 -0.18692302468E+02  0.26536253709E+02  0.51100000000E-03 0. -1.
        -11    1    3    3    0    0 -0.78952102788E+01  0.27226281916E+01 -0.21241691160E+02  0.22824471368E+02  0.51100000000E-03 0.  1.
        -12    1    3    3    0    0 -0.52684143362E-01 -0.37131673831E+00  0.11062917227E+01  0.11681323190E+01  0.00000000000E+00 0.  1.
</event>
<event>
 7    1  0.4878192E-011  0.5052885E+02  0.7816164E-02  0.1300439E+00
        -11   -1    0    0    0    0  0.00000000000E+00  0.00000000000E+00  0.45593999997E+02  0.45594000000E+02  0.51100000000E-03 0.  1.
         11   -1    0    0    0    0 -0.00000000000E+00 -0.00000000000E+00 -0.45593999997E+02  0.45594000000E+02  0.51100000000E-03 0. -1.
    9900012    2    1    2    0    0 -0.18104880009E+01  0.11130602640E+02 -0.39064025502E+02  0.50528852562E+02  0.29999977848E+02 0.  0.
        -12    1    1    2    0    0  0.18104880009E+01 -0.11130602640E+02  0.39064025502E+02  0.40659147438E+02  0.00000000000E+00 0.  1.
         11    1    3    3    0    0 -0.62247218945E+01  0.29047605805E+01 -0.32612680469E+01  0.76039901518E+01  0.51100000000E-03 0. -1.
        -11    1    3    3    0    0  0.10204278720E+00  0.58888860873E+01 -0.37326950126E+02  0.37788762854E+02  0.51100000000E-03 0.  1.
        -12    1    3    3    0    0  0.43121911064E+01  0.23369559721E+01  0.15241926704E+01  0.51360995561E+01  0.00000000000E+00 0.  1.
</event>
<event>
 7    1  0.4878192E-011  0.5052886E+02  0.7816164E-02  0.1300439E+00
        -11   -1    0    0    0    0  0.00000000000E+00  0.00000000000E+00  0.45593999997E+02  0.45594000000E+02  0.51100000000E-03 0. -1.
         11   -1    0    0    0    0 -0.00000000000E+00 -0.00000000000E+00 -0.45593999997E+02  0.45594000000E+02  0.51100000000E-03 0.  1.
    9900012    2    1    2    0    0  0.31361060473E+02  0.14745411255E+02  0.21265516714E+02  0.50528862427E+02  0.30000007833E+02 0.  0.
        -12    1    1    2    0    0 -0.31361060473E+02 -0.14745411255E+02 -0.21265516714E+02  0.40659137573E+02  0.00000000000E+00 0.  1.
         11    1    3    3    0    0  0.31842470013E+02  0.16838976195E+02  0.24004548174E+02  0.43286399124E+02  0.51100000000E-03 0. -1.
        -11    1    3    3    0    0  0.94339802621E+00 -0.34331198057E+01 -0.36378139881E+01  0.50901868639E+01  0.51100000000E-03 0.  1.
        -12    1    3    3    0    0 -0.14248075659E+01  0.13395548658E+01  0.89878252849E+00  0.21522764395E+01  0.00000000000E+00 0.  1.
</event>
<event>
 7    1  0.4878192E-011  0.5052889E+02  0.7816164E-02  0.1300439E+00
        -11   -1    0    0    0    0  0.00000000000E+00  0.00000000000E+00  0.45593999997E+02  0.45594000000E+02  0.51100000000E-03 0.  1.
         11   -1    0    0    0    0 -0.00000000000E+00 -0.00000000000E+00 -0.45593999997E+02  0.45594000000E+02  0.51100000000E-03 0. -1.
    9900012    2    1    2    0    0  0.20452365973E+02  0.34543442056E+02 -0.64509652264E+01  0.50528885212E+02  0.30000077091E+02 0.  0.
        -12    1    1    2    0    0 -0.20452365973E+02 -0.34543442056E+02  0.64509652264E+01  0.40659114788E+02  0.00000000000E+00 0.  1.
         11    1    3    3    0    0  0.12326984855E+02  0.23725278388E+02 -0.10456030193E+02  0.28708395251E+02  0.51100000000E-03 0. -1.
        -11    1    3    3    0    0  0.86345238464E+01 -0.10624458178E+01 -0.13054812457E+01  0.87970492049E+01  0.51100000000E-03 0.  1.
        -12    1    3    3    0    0 -0.50914272805E+00  0.11880609485E+02  0.53105462123E+01  0.13023440756E+02  0.00000000000E+00 0.  1.
</event>
<event>
 7    1  0.4878192E-011  0.5052885E+02  0.7816164E-02  0.1300439E+00
        -11   -1    0    0    0    0  0.00000000000E+00  0.00000000000E+00  0.45593999997E+02  0.45594000000E+02  0.51100000000E-03 0. -1.
         11   -1    0    0    0    0 -0.00000000000E+00 -0.00000000000E+00 -0.45593999997E+02  0.45594000000E+02  0.51100000000E-03 0.  1.
    9900012    2    1    2    0    0 -0.26930938693E+01  0.21644193114E+02  0.34313878911E+02  0.50528854214E+02  0.29999982868E+02 0.  0.
        -12    1    1    2    0    0  0.26930938693E+01 -0.21644193114E+02 -0.34313878911E+02  0.40659145786E+02  0.00000000000E+00 0.  1.
         11    1    3    3    0    0  0.28895801880E+01  0.14867027899E+01  0.12217974071E+02  0.12642739003E+02  0.51100000000E-03 0. -1.
        -11    1    3    3    0    0 -0.10022412523E+02  0.15044160924E+00  0.96233234055E+01  0.13895313566E+02  0.51100000000E-03 0.  1.
        -12    1    3    3    0    0  0.44397384658E+01  0.20007048715E+02  0.12472581435E+02  0.23990801645E+02  0.00000000000E+00 0.  1.
</event>
<event>
 7    1  0.4878192E-011  0.5052886E+02  0.7816164E-02  0.1300439E+00
        -11   -1    0    0    0    0  0.00000000000E+00  0.00000000000E+00  0.45593999997E+02  0.45594000000E+02  0.51100000000E-03 0. -1.
         11   -1    0    0    0    0 -0.00000000000E+00 -0.00000000000E+00 -0.45593999997E+02  0.45594000000E+02  0.51100000000E-03 0.  1.
    9900012    2    1    2    0    0 -0.35301501950E+02 -0.14385840659E+01  0.20122124199E+02  0.50528862696E+02  0.30000008652E+02 0.  0.
        -12    1    1    2    0    0  0.35301501950E+02  0.14385840659E+01 -0.20122124199E+02  0.40659137304E+02  0.00000000000E+00 0.  1.
         11    1    3    3    0    0 -0.91222680900E+01 -0.10626406202E+02  0.11698862663E+02  0.18248278596E+02  0.51100000000E-03 0.  1.
        -11    1    3    3    0    0 -0.20717123087E+02  0.12510473642E+02  0.90907122442E+01  0.25852508372E+02  0.51100000000E-03 0. -1.
        -12    1    3    3    0    0 -0.54621107724E+01 -0.33226515057E+01 -0.66745070800E+00  0.64280757281E+01  0.00000000000E+00 0.  1.
</event>
<event>
 7    1  0.4878192E-011  0.5052886E+02  0.7816164E-02  0.1300439E+00
        -11   -1    0    0    0    0  0.00000000000E+00  0.00000000000E+00  0.45593999997E+02  0.45594000000E+02  0.51100000000E-03 0.  1.
         11   -1    0    0    0    0 -0.00000000000E+00 -0.00000000000E+00 -0.45593999997E+02  0.45594000000E+02  0.51100000000E-03 0. -1.
    9900012    2    1    2    0    0 -0.27239075489E+02  0.40558569621E+01 -0.29912348826E+02  0.50528858082E+02  0.29999994627E+02 0.  0.
        -12    1    1    2    0    0  0.27239075489E+02 -0.40558569621E+01  0.29912348826E+02  0.40659141918E+02  0.00000000000E+00 0.  1.
         11    1    3    3    0    0 -0.22987926107E+02  0.41253928346E+01 -0.26440599072E+02  0.35278447985E+02  0.51100000000E-03 0. -1.
        -11    1    3    3    0    0 -0.44739906939E+01  0.60397531700E+01  0.11271595047E+01  0.76003749838E+01  0.51100000000E-03 0.  1.
         12    1    3    3    0    0  0.22284131230E+00 -0.61092890425E+01 -0.45989092595E+01  0.76500351131E+01  0.00000000000E+00 0. -1.
</event>
<event>
 7    1  0.4878192E-011  0.5052886E+02  0.7816164E-02  0.1300439E+00
        -11   -1    0    0    0    0  0.00000000000E+00  0.00000000000E+00  0.45593999997E+02  0.45594000000E+02  0.51100000000E-03 0.  1.
         11   -1    0    0    0    0 -0.00000000000E+00 -0.00000000000E+00 -0.45593999997E+02  0.45594000000E+02  0.51100000000E-03 0. -1.
    9900012    2    1    2    0    0  0.29635598414E+02  0.24190347243E+02 -0.13774040547E+02  0.50528858517E+02  0.29999995949E+02 0.  0.
        -12    1    1    2    0    0 -0.29635598414E+02 -0.24190347243E+02  0.13774040547E+02  0.40659141483E+02  0.00000000000E+00 0.  1.
         11    1    3    3    0    0  0.21119195880E+02  0.15669191367E+02 -0.14115175436E+02  0.29845974110E+02  0.51100000000E-03 0. -1.
        -11    1    3    3    0    0 -0.10804449743E+01 -0.32801680240E+01  0.37465791835E+01  0.50954606708E+01  0.51100000000E-03 0.  1.
        -12    1    3    3    0    0  0.95968475086E+01  0.11801323900E+02 -0.34054442945E+01  0.15587423737E+02  0.00000000000E+00 0.  1.
</event>
<event>
 7    1  0.4878192E-011  0.5052885E+02  0.7816164E-02  0.1300439E+00
        -11   -1    0    0    0    0  0.00000000000E+00  0.00000000000E+00  0.45593999997E+02  0.45594000000E+02  0.51100000000E-03 0. -1.
         11   -1    0    0    0    0 -0.00000000000E+00 -0.00000000000E+00 -0.45593999997E+02  0.45594000000E+02  0.51100000000E-03 0.  1.
    9900012    2    1    2    0    0  0.26341769342E+02 -0.12003375764E+02  0.28551643335E+02  0.50528853686E+02  0.29999981265E+02 0.  0.
        -12    1    1    2    0    0 -0.26341769342E+02  0.12003375764E+02 -0.28551643335E+02  0.40659146314E+02  0.00000000000E+00 0.  1.
         11    1    3    3    0    0  0.89920597344E+01 -0.19542674090E+01  0.22831616764E+02  0.24616234962E+02  0.51100000000E-03 0. -1.
        -11    1    3    3    0    0  0.17319070069E+02 -0.36814798543E+01  0.55700553688E+00  0.17714788663E+02  0.51100000000E-03 0.  1.
        -12    1    3    3    0    0  0.30639538969E-01 -0.63676285009E+01  0.51630210341E+01  0.81978300608E+01  0.00000000000E+00 0.  1.
</event>
<event>
 7    1  0.4878192E-011  0.5052886E+02  0.7816164E-02  0.1300439E+00
        -11   -1    0    0    0    0  0.00000000000E+00  0.00000000000E+00  0.45593999997E+02  0.45594000000E+02  0.51100000000E-03 0. -1.
         11   -1    0    0    0    0 -0.00000000000E+00 -0.00000000000E+00 -0.45593999997E+02  0.45594000000E+02  0.51100000000E-03 0.  1.
    9900012    2    1    2    0    0 -0.13168891763E+01 -0.33696181767E+02 -0.22715604483E+02  0.50528861423E+02  0.30000004783E+02 0.  0.
        -12    1    1    2    0    0  0.13168891763E+01  0.33696181767E+02  0.22715604483E+02  0.40659138577E+02  0.00000000000E+00 0.  1.
         11    1    3    3    0    0 -0.91778485784E+01 -0.32307041298E+02 -0.12065111065E+02  0.35686758430E+02  0.51100000000E-03 0. -1.
        -11    1    3    3    0    0  0.26150968027E+01 -0.10242732607E+00  0.29772571859E+00  0.26339824428E+01  0.51100000000E-03 0.  1.
         12    1    3    3    0    0  0.52458625994E+01 -0.12867131425E+01 -0.10948219136E+02  0.12208120550E+02  0.00000000000E+00 0. -1.
</event>
<event>
 7    1  0.4878192E-011  0.5052887E+02  0.7816164E-02  0.1300439E+00
        -11   -1    0    0    0    0  0.00000000000E+00  0.00000000000E+00  0.45593999997E+02  0.45594000000E+02  0.51100000000E-03 0.  1.
         11   -1    0    0    0    0 -0.00000000000E+00 -0.00000000000E+00 -0.45593999997E+02  0.45594000000E+02  0.51100000000E-03 0. -1.
    9900012    2    1    2    0    0 -0.18773501824E+02  0.35920201798E+02 -0.32341385107E+01  0.50528869170E+02  0.30000028329E+02 0.  0.
        -12    1    1    2    0    0  0.18773501824E+02 -0.35920201798E+02  0.32341385107E+01  0.40659130830E+02  0.00000000000E+00 0.  1.
         11    1    3    3    0    0 -0.14843079706E+02  0.10842500564E+02  0.75893801777E+01  0.19886566455E+02  0.51100000000E-03 0. -1.
        -11    1    3    3    0    0 -0.44701956949E+00  0.25716326717E+01 -0.71016366465E+01  0.75661327251E+01  0.51100000000E-03 0.  1.
         12    1    3    3    0    0 -0.34834025487E+01  0.22506068562E+02 -0.37218820419E+01  0.23076169990E+02  0.00000000000E+00 0. -1.
</event>
<event>
 7    1  0.4878192E-011  0.5052887E+02  0.7816164E-02  0.1300439E+00
        -11   -1    0    0    0    0  0.00000000000E+00  0.00000000000E+00  0.45593999997E+02  0.45594000000E+02  0.51100000000E-03 0.  1.
         11   -1    0    0    0    0 -0.00000000000E+00 -0.00000000000E+00 -0.45593999997E+02  0.45594000000E+02  0.51100000000E-03 0. -1.
    9900012    2    1    2    0    0 -0.11874168871E+02  0.23989543241E+02 -0.30605078830E+02  0.50528869150E+02  0.30000028269E+02 0.  0.
        -12    1    1    2    0    0  0.11874168871E+02 -0.23989543241E+02  0.30605078830E+02  0.40659130850E+02  0.00000000000E+00 0.  1.
         11    1    3    3    0    0 -0.12437222629E+02  0.17159295212E+01 -0.15133203077E+02  0.19663233622E+02  0.51100000000E-03 0. -1.
        -11    1    3    3    0    0 -0.22927172518E+01  0.66964608987E+01  0.19298396351E+01  0.73364447959E+01  0.51100000000E-03 0.  1.
         12    1    3    3    0    0  0.28557710098E+01  0.15577152821E+02 -0.17401715388E+02  0.23529190732E+02  0.00000000000E+00 0. -1.
</event>
<event>
 7    1  0.4878192E-011  0.5052887E+02  0.7816164E-02  0.1300439E+00
        -11   -1    0    0    0    0  0.00000000000E+00  0.00000000000E+00  0.45593999997E+02  0.45594000000E+02  0.51100000000E-03 0. -1.
         11   -1    0    0    0    0 -0.00000000000E+00 -0.00000000000E+00 -0.45593999997E+02  0.45594000000E+02  0.51100000000E-03 0.  1.
    9900012    2    1    2    0    0 -0.29169513206E+02  0.95235918224E+01  0.26675942690E+02  0.50528865475E+02  0.30000017099E+02 0.  0.
        -12    1    1    2    0    0  0.29169513206E+02 -0.95235918224E+01 -0.26675942690E+02  0.40659134525E+02  0.00000000000E+00 0.  1.
         11    1    3    3    0    0 -0.21562571681E+02  0.76699781651E+01  0.12315564935E+02  0.25989347866E+02  0.51100000000E-03 0. -1.
        -11    1    3    3    0    0  0.14178156684E+00  0.77929724379E+01  0.80712006944E+00  0.78359405624E+01  0.51100000000E-03 0.  1.
         12    1    3    3    0    0 -0.77487230916E+01 -0.59393587807E+01  0.13553257686E+02  0.16703577047E+02  0.00000000000E+00 0. -1.
</event>
<event>
 7    1  0.4878192E-011  0.5052886E+02  0.7816164E-02  0.1300439E+00
        -11   -1    0    0    0    0  0.00000000000E+00  0.00000000000E+00  0.45593999997E+02  0.45594000000E+02  0.51100000000E-03 0.  1.
         11   -1    0    0    0    0 -0.00000000000E+00 -0.00000000000E+00 -0.45593999997E+02  0.45594000000E+02  0.51100000000E-03 0. -1.
    9900012    2    1    2    0    0  0.29633208801E+02 -0.27838571646E+02 -0.22976941170E+00  0.50528856758E+02  0.29999990602E+02 0.  0.
        -12    1    1    2    0    0 -0.29633208801E+02  0.27838571646E+02  0.22976941170E+00  0.40659143242E+02  0.00000000000E+00 0.  1.
         11    1    3    3    0    0  0.14879096349E+02 -0.21397373938E+02  0.90400607137E+01  0.27585463881E+02  0.51100000000E-03 0. -1.
        -11    1    3    3    0    0  0.90789707662E+01  0.22553729777E+01 -0.52892888177E+00  0.93698550397E+01  0.51100000000E-03 0.  1.
         12    1    3    3    0    0  0.56751416865E+01 -0.86965706865E+01 -0.87409012437E+01  0.13573537837E+02  0.00000000000E+00 0. -1.
</event>
<event>
 7    1  0.4878192E-011  0.5052884E+02  0.7816164E-02  0.1300439E+00
        -11   -1    0    0    0    0  0.00000000000E+00  0.00000000000E+00  0.45593999997E+02  0.45594000000E+02  0.51100000000E-03 0.  1.
         11   -1    0    0    0    0 -0.00000000000E+00 -0.00000000000E+00 -0.45593999997E+02  0.45594000000E+02  0.51100000000E-03 0. -1.
    9900012    2    1    2    0    0 -0.45814349581E+00 -0.10854755007E+02 -0.39180755905E+02  0.50528840700E+02  0.29999941791E+02 0.  0.
        -12    1    1    2    0    0  0.45814349581E+00  0.10854755007E+02  0.39180755905E+02  0.40659159300E+02  0.00000000000E+00 0.  1.
         11    1    3    3    0    0  0.57569936741E+01 -0.61680278835E+01 -0.58221352890E+01  0.10251087929E+02  0.51100000000E-03 0. -1.
        -11    1    3    3    0    0 -0.10841506941E+02 -0.84683093745E+01 -0.12525965843E+02  0.18605116419E+02  0.51100000000E-03 0.  1.
        -12    1    3    3    0    0  0.46263697706E+01  0.37815822513E+01 -0.20832654773E+02  0.21672636352E+02  0.00000000000E+00 0.  1.
</event>
<event>
 7    1  0.4878192E-011  0.5052885E+02  0.7816164E-02  0.1300439E+00
        -11   -1    0    0    0    0  0.00000000000E+00  0.00000000000E+00  0.45593999997E+02  0.45594000000E+02  0.51100000000E-03 0.  1.
         11   -1    0    0    0    0 -0.00000000000E+00 -0.00000000000E+00 -0.45593999997E+02  0.45594000000E+02  0.51100000000E-03 0. -1.
    9900012    2    1    2    0    0 -0.14155456292E+02 -0.10707287567E+02 -0.36580639472E+02  0.50528854238E+02  0.29999982942E+02 0.  0.
        -12    1    1    2    0    0  0.14155456292E+02  0.10707287567E+02  0.36580639472E+02  0.40659145762E+02  0.00000000000E+00 0.  1.
         11    1    3    3    0    0 -0.25290557962E+01  0.30757849769E+01 -0.10276194035E+02  0.11020741379E+02  0.51100000000E-03 0. -1.
        -11    1    3    3    0    0  0.54963610036E+01 -0.10770542004E+02 -0.10668724490E+02  0.16125639269E+02  0.51100000000E-03 0.  1.
        -12    1    3    3    0    0 -0.17122761499E+02 -0.30125305403E+01 -0.15635720947E+02  0.23382473590E+02  0.00000000000E+00 0.  1.
</event>
<event>
 7    1  0.4878192E-011  0.5052886E+02  0.7816164E-02  0.1300439E+00
        -11   -1    0    0    0    0  0.00000000000E+00  0.00000000000E+00  0.45593999997E+02  0.45594000000E+02  0.51100000000E-03 0.  1.
         11   -1    0    0    0    0 -0.00000000000E+00 -0.00000000000E+00 -0.45593999997E+02  0.45594000000E+02  0.51100000000E-03 0. -1.
    9900012    2    1    2    0    0 -0.74640398722E+00  0.24496511391E+02 -0.32442708297E+02  0.50528861902E+02  0.30000006236E+02 0.  0.
        -12    1    1    2    0    0  0.74640398722E+00 -0.24496511391E+02  0.32442708297E+02  0.40659138098E+02  0.00000000000E+00 0.  1.
         11    1    3    3    0    0 -0.13601649445E+02  0.10266283301E+02 -0.14466799174E+02  0.22353740605E+02  0.51100000000E-03 0.  1.
        -11    1    3    3    0    0  0.93581837216E+01  0.80343937246E+01 -0.16986402394E+02  0.20992021142E+02  0.51100000000E-03 0. -1.
        -12    1    3    3    0    0  0.34970617357E+01  0.61958343649E+01 -0.98950672935E+00  0.71831001544E+01  0.00000000000E+00 0.  1.
</event>
<event>
 7    1  0.5638185E-011  0.5052888E+02  0.7816164E-02  0.1300439E+00
        -11   -1    0    0    0    0  0.00000000000E+00  0.00000000000E+00  0.45593999997E+02  0.45594000000E+02  0.51100000000E-03 0. -1.
         11   -1    0    0    0    0 -0.00000000000E+00 -0.00000000000E+00 -0.45593999997E+02  0.45594000000E+02  0.51100000000E-03 0.  1.
    9900012    2    1    2    0    0 -0.12899860393E+02 -0.60380802333E+01  0.38082794141E+02  0.50528880228E+02  0.30000061940E+02 0.  0.
        -12    1    1    2    0    0  0.12899860393E+02  0.60380802333E+01 -0.38082794141E+02  0.40659119772E+02  0.00000000000E+00 0.  1.
         11    1    3    3    0    0  0.22532491075E+00 -0.23810710056E+01  0.25017916983E+02  0.25131980441E+02  0.51100000000E-03 0. -1.
        -11    1    3    3    0    0 -0.96974385827E+01  0.60762689393E+01  0.63889106388E+01  0.13106469345E+02  0.51100000000E-03 0.  1.
        -12    1    3    3    0    0 -0.34277467211E+01 -0.97332781671E+01  0.66759665191E+01  0.12290430441E+02  0.00000000000E+00 0.  1.
</event>
<event>
 7    1  0.4878192E-011  0.5052887E+02  0.7816164E-02  0.1300439E+00
        -11   -1    0    0    0    0  0.00000000000E+00  0.00000000000E+00  0.45593999997E+02  0.45594000000E+02  0.51100000000E-03 0.  1.
         11   -1    0    0    0    0 -0.00000000000E+00 -0.00000000000E+00 -0.45593999997E+02  0.45594000000E+02  0.51100000000E-03 0. -1.
    9900012    2    1    2    0    0 -0.21778796777E+02  0.10698301605E+02 -0.32625073474E+02  0.50528867380E+02  0.30000022887E+02 0.  0.
        -12    1    1    2    0    0  0.21778796777E+02 -0.10698301605E+02  0.32625073474E+02  0.40659132620E+02  0.00000000000E+00 0.  1.
         11    1    3    3    0    0 -0.23073598697E+01  0.11215934658E+02 -0.22840869913E+02  0.25550468459E+02  0.51100000000E-03 0. -1.
        -11    1    3    3    0    0 -0.15401119047E+02 -0.33450455364E+01 -0.21921543530E+01  0.15911924413E+02  0.51100000000E-03 0.  1.
        -12    1    3    3    0    0 -0.40703178598E+01  0.28274124829E+01 -0.75920492083E+01  0.90664745082E+01  0.00000000000E+00 0.  1.
</event>
<event>
 7    1  0.4878192E-011  0.5052882E+02  0.7816164E-02  0.1300439E+00
        -11   -1    0    0    0    0  0.00000000000E+00  0.00000000000E+00  0.45593999997E+02  0.45594000000E+02  0.51100000000E-03 0.  1.
         11   -1    0    0    0    0 -0.00000000000E+00 -0.00000000000E+00 -0.45593999997E+02  0.45594000000E+02  0.51100000000E-03 0. -1.
    9900012    2    1    2    0    0  0.85919969370E+01  0.33124280033E+02 -0.21957432279E+02  0.50528816887E+02  0.29999869411E+02 0.  0.
        -12    1    1    2    0    0 -0.85919969370E+01 -0.33124280033E+02  0.21957432279E+02  0.40659183113E+02  0.00000000000E+00 0.  1.
         11    1    3    3    0    0 -0.99982383278E+00  0.13716774618E+01 -0.17769317002E+01  0.24573630754E+01  0.51100000000E-03 0. -1.
        -11    1    3    3    0    0  0.48281990044E+01  0.16374159232E+02 -0.25871277601E+02  0.30995928784E+02  0.51100000000E-03 0.  1.
        -12    1    3    3    0    0  0.47636217654E+01  0.15378443340E+02  0.56907770224E+01  0.17075525028E+02  0.00000000000E+00 0.  1.
</event>
<event>
 7    1  0.4878192E-011  0.5052886E+02  0.7816164E-02  0.1300439E+00
        -11   -1    0    0    0    0  0.00000000000E+00  0.00000000000E+00  0.45593999997E+02  0.45594000000E+02  0.51100000000E-03 0. -1.
         11   -1    0    0    0    0 -0.00000000000E+00 -0.00000000000E+00 -0.45593999997E+02  0.45594000000E+02  0.51100000000E-03 0.  1.
    9900012    2    1    2    0    0 -0.36686973371E+02  0.14218540572E+02  0.10250124989E+02  0.50528856214E+02  0.29999988947E+02 0.  0.
        -12    1    1    2    0    0  0.36686973371E+02 -0.14218540572E+02 -0.10250124989E+02  0.40659143786E+02  0.00000000000E+00 0.  1.
         11    1    3    3    0    0 -0.28682214697E+02  0.14789461188E+02  0.15649518980E+02  0.35865095103E+02  0.51100000000E-03 0. -1.
        -11    1    3    3    0    0  0.26444237311E+01  0.61982580087E-01  0.12921773420E+00  0.26483043998E+01  0.51100000000E-03 0.  1.
         12    1    3    3    0    0 -0.10649182405E+02 -0.63290319576E+00 -0.55286117255E+01  0.12015456711E+02  0.00000000000E+00 0. -1.
</event>
<event>
 7    1  0.4878192E-011  0.5052885E+02  0.7816164E-02  0.1300439E+00
        -11   -1    0    0    0    0  0.00000000000E+00  0.00000000000E+00  0.45593999997E+02  0.45594000000E+02  0.51100000000E-03 0.  1.
         11   -1    0    0    0    0 -0.00000000000E+00 -0.00000000000E+00 -0.45593999997E+02  0.45594000000E+02  0.51100000000E-03 0. -1.
    9900012    2    1    2    0    0 -0.19779098503E+02  0.32154602300E+02 -0.15100830916E+02  0.50528852432E+02  0.29999977451E+02 0.  0.
        -12    1    1    2    0    0  0.19779098503E+02 -0.32154602300E+02  0.15100830916E+02  0.40659147568E+02  0.00000000000E+00 0.  1.
         11    1    3    3    0    0  0.46694876751E+01 -0.40754648784E+00 -0.67130614365E+01  0.81875150931E+01  0.51100000000E-03 0. -1.
        -11    1    3    3    0    0 -0.10229616297E+02  0.14039479465E+02  0.44216995227E+00  0.17376637988E+02  0.51100000000E-03 0.  1.
         12    1    3    3    0    0 -0.14218969881E+02  0.18522669322E+02 -0.88299394316E+01  0.24964699351E+02  0.00000000000E+00 0. -1.
</event>
<event>
 7    1  0.4878192E-011  0.5052886E+02  0.7816164E-02  0.1300439E+00
        -11   -1    0    0    0    0  0.00000000000E+00  0.00000000000E+00  0.45593999997E+02  0.45594000000E+02  0.51100000000E-03 0.  1.
         11   -1    0    0    0    0 -0.00000000000E+00 -0.00000000000E+00 -0.45593999997E+02  0.45594000000E+02  0.51100000000E-03 0. -1.
    9900012    2    1    2    0    0 -0.25139389113E+02 -0.31625915592E+02 -0.45801963493E+01  0.50528860553E+02  0.30000002136E+02 0.  0.
        -12    1    1    2    0    0  0.25139389113E+02  0.31625915592E+02  0.45801963493E+01  0.40659139447E+02  0.00000000000E+00 0.  1.
         11    1    3    3    0    0 -0.24154429148E+02 -0.20861020739E+02 -0.14688562180E+02  0.35133637627E+02  0.51100000000E-03 0. -1.
        -11    1    3    3    0    0  0.87459936845E+00 -0.34777567443E+01  0.13033365073E+01  0.38155474496E+01  0.51100000000E-03 0.  1.
         12    1    3    3    0    0 -0.18595593328E+01 -0.72871381091E+01  0.88050293237E+01  0.11579675476E+02  0.00000000000E+00 0. -1.
</event>
<event>
 7    1  0.4878192E-011  0.5052888E+02  0.7816164E-02  0.1300439E+00
        -11   -1    0    0    0    0  0.00000000000E+00  0.00000000000E+00  0.45593999997E+02  0.45594000000E+02  0.51100000000E-03 0. -1.
         11   -1    0    0    0    0 -0.00000000000E+00 -0.00000000000E+00 -0.45593999997E+02  0.45594000000E+02  0.51100000000E-03 0.  1.
    9900012    2    1    2    0    0  0.91840295920E+01 -0.47269374523E+01  0.39325233864E+02  0.50528876108E+02  0.30000049418E+02 0.  0.
        -12    1    1    2    0    0 -0.91840295920E+01  0.47269374523E+01 -0.39325233864E+02  0.40659123892E+02  0.00000000000E+00 0.  1.
         11    1    3    3    0    0 -0.52821622829E+01 -0.33161746501E+01  0.30391276296E+02  0.31024634210E+02  0.51100000000E-03 0. -1.
        -11    1    3    3    0    0  0.72967446287E+01  0.36779694415E+01  0.22953320103E+01  0.84875491567E+01  0.51100000000E-03 0.  1.
        -12    1    3    3    0    0  0.71694472461E+01 -0.50887322437E+01  0.66386255575E+01  0.11016692741E+02  0.00000000000E+00 0.  1.
</event>
<event>
 7    1  0.4878192E-011  0.5052886E+02  0.7816164E-02  0.1300439E+00
        -11   -1    0    0    0    0  0.00000000000E+00  0.00000000000E+00  0.45593999997E+02  0.45594000000E+02  0.51100000000E-03 0. -1.
         11   -1    0    0    0    0 -0.00000000000E+00 -0.00000000000E+00 -0.45593999997E+02  0.45594000000E+02  0.51100000000E-03 0.  1.
    9900012    2    1    2    0    0 -0.29964924396E+02 -0.14168202401E+02  0.23548487066E+02  0.50528857161E+02  0.29999991826E+02 0.  0.
        -12    1    1    2    0    0  0.29964924396E+02  0.14168202401E+02 -0.23548487066E+02  0.40659142839E+02  0.00000000000E+00 0.  1.
         11    1    3    3    0    0 -0.64006433905E+00  0.48821370066E+01  0.10980156384E+02  0.12033651922E+02  0.51100000000E-03 0.  1.
        -11    1    3    3    0    0 -0.14187560198E+02 -0.99172401001E+01  0.94188082689E+00  0.17335675797E+02  0.51100000000E-03 0. -1.
         12    1    3    3    0    0 -0.15137299859E+02 -0.91330993074E+01  0.11626449855E+02  0.21159529442E+02  0.00000000000E+00 0. -1.
</event>
<event>
 7    1  0.4878192E-011  0.5052890E+02  0.7816164E-02  0.1300439E+00
        -11   -1    0    0    0    0  0.00000000000E+00  0.00000000000E+00  0.45593999997E+02  0.45594000000E+02  0.51100000000E-03 0.  1.
         11   -1    0    0    0    0 -0.00000000000E+00 -0.00000000000E+00 -0.45593999997E+02  0.45594000000E+02  0.51100000000E-03 0. -1.
    9900012    2    1    2    0    0  0.25480584757E+02 -0.22628006930E+02 -0.22178275815E+02  0.50528895050E+02  0.30000106995E+02 0.  0.
        -12    1    1    2    0    0 -0.25480584757E+02  0.22628006930E+02  0.22178275815E+02  0.40659104950E+02  0.00000000000E+00 0.  1.
         11    1    3    3    0    0  0.12499719919E+01 -0.15735891353E+02 -0.16699017182E+02  0.22979074867E+02  0.51100000000E-03 0. -1.
        -11    1    3    3    0    0  0.45127813978E+00 -0.25612868503E+01  0.50551228836E+00  0.26494122411E+01  0.51100000000E-03 0.  1.
         12    1    3    3    0    0  0.23779334625E+02 -0.43308287266E+01 -0.59847709218E+01  0.24900407942E+02  0.00000000000E+00 0. -1.
</event>
<event>
 7    1  0.4878192E-011  0.5052886E+02  0.7816164E-02  0.1300439E+00
        -11   -1    0    0    0    0  0.00000000000E+00  0.00000000000E+00  0.45593999997E+02  0.45594000000E+02  0.51100000000E-03 0. -1.
         11   -1    0    0    0    0 -0.00000000000E+00 -0.00000000000E+00 -0.45593999997E+02  0.45594000000E+02  0.51100000000E-03 0.  1.
    9900012    2    1    2    0    0 -0.39090901253E+02  0.31913134996E+01  0.10718338280E+02  0.50528858123E+02  0.29999994752E+02 0.  0.
        -12    1    1    2    0    0  0.39090901253E+02 -0.31913134996E+01 -0.10718338280E+02  0.40659141877E+02  0.00000000000E+00 0.  1.
         11    1    3    3    0    0 -0.11981719590E+02  0.92220161982E+01  0.26754312828E+01  0.15354644897E+02  0.51100000000E-03 0. -1.
        -11    1    3    3    0    0  0.18739746349E+01 -0.48464884067E+01  0.18298187686E+01  0.55089443449E+01  0.51100000000E-03 0.  1.
        -12    1    3    3    0    0 -0.28983156298E+02 -0.11842142919E+01  0.62130882290E+01  0.29665268882E+02  0.00000000000E+00 0.  1.
</event>
<event>
 7    1  0.4878192E-011  0.5052885E+02  0.7816164E-02  0.1300439E+00
        -11   -1    0    0    0    0  0.00000000000E+00  0.00000000000E+00  0.45593999997E+02  0.45594000000E+02  0.51100000000E-03 0. -1.
         11   -1    0    0    0    0 -0.00000000000E+00 -0.00000000000E+00 -0.45593999997E+02  0.45594000000E+02  0.51100000000E-03 0.  1.
    9900012    2    1    2    0    0 -0.47313881978E+00  0.35529432613E+02 -0.19763651751E+02  0.50528851304E+02  0.29999974023E+02 0.  0.
        -12    1    1    2    0    0  0.47313881978E+00 -0.35529432613E+02  0.19763651751E+02  0.40659148696E+02  0.00000000000E+00 0.  1.
         11    1    3    3    0    0  0.86200576691E+01  0.86310894064E+01 -0.15470436163E+02  0.19701154634E+02  0.51100000000E-03 0. -1.
        -11    1    3    3    0    0 -0.44484606606E+00 -0.96898796370E+00 -0.10038405461E+01  0.14644185875E+01  0.51100000000E-03 0.  1.
         12    1    3    3    0    0 -0.86483504228E+01  0.27867331170E+02 -0.32893750417E+01  0.29363278083E+02  0.00000000000E+00 0. -1.
</event>
<event>
 7    1  0.4878192E-011  0.5052887E+02  0.7816164E-02  0.1300439E+00
        -11   -1    0    0    0    0  0.00000000000E+00  0.00000000000E+00  0.45593999997E+02  0.45594000000E+02  0.51100000000E-03 0. -1.
         11   -1    0    0    0    0 -0.00000000000E+00 -0.00000000000E+00 -0.45593999997E+02  0.45594000000E+02  0.51100000000E-03 0.  1.
    9900012    2    1    2    0    0 -0.33094783782E+02 -0.19160819060E+02 -0.13811710243E+02  0.50528867687E+02  0.30000023821E+02 0.  0.
        -12    1    1    2    0    0  0.33094783782E+02  0.19160819060E+02  0.13811710243E+02  0.40659132313E+02  0.00000000000E+00 0.  1.
         11    1    3    3    0    0 -0.69066361382E+01 -0.18417583158E+02 -0.59121957469E+01  0.20539305026E+02  0.51100000000E-03 0. -1.
        -11    1    3    3    0    0 -0.41187062069E+01  0.21933100327E+01  0.26352445601E+01  0.53589984018E+01  0.51100000000E-03 0.  1.
         12    1    3    3    0    0 -0.22069441437E+02 -0.29365459347E+01 -0.10534759056E+02  0.24630564259E+02  0.00000000000E+00 0. -1.
</event>
<event>
 7    1  0.4878192E-011  0.5052886E+02  0.7816164E-02  0.1300439E+00
        -11   -1    0    0    0    0  0.00000000000E+00  0.00000000000E+00  0.45593999997E+02  0.45594000000E+02  0.51100000000E-03 0. -1.
         11   -1    0    0    0    0 -0.00000000000E+00 -0.00000000000E+00 -0.45593999997E+02  0.45594000000E+02  0.51100000000E-03 0.  1.
    9900012    2    1    2    0    0  0.32565574859E+02 -0.18460695328E+02  0.15869845352E+02  0.50528856755E+02  0.29999990593E+02 0.  0.
        -12    1    1    2    0    0 -0.32565574859E+02  0.18460695328E+02 -0.15869845352E+02  0.40659143245E+02  0.00000000000E+00 0.  1.
         11    1    3    3    0    0  0.21769858962E+02 -0.24737493981E+02  0.68679004629E+01  0.33660636130E+02  0.51100000000E-03 0. -1.
        -11    1    3    3    0    0  0.26479173211E+01  0.52369349722E+01  0.50994770282E+01  0.77744208958E+01  0.51100000000E-03 0.  1.
         12    1    3    3    0    0  0.81477985759E+01  0.10398636804E+01  0.39024678607E+01  0.90937997290E+01  0.00000000000E+00 0. -1.
</event>
<event>
 7    1  0.4878192E-011  0.5052885E+02  0.7816164E-02  0.1300439E+00
        -11   -1    0    0    0    0  0.00000000000E+00  0.00000000000E+00  0.45593999997E+02  0.45594000000E+02  0.51100000000E-03 0.  1.
         11   -1    0    0    0    0 -0.00000000000E+00 -0.00000000000E+00 -0.45593999997E+02  0.45594000000E+02  0.51100000000E-03 0. -1.
    9900012    2    1    2    0    0 -0.39339932910E+02  0.52100362654E+01  0.88538852853E+01  0.50528854856E+02  0.29999984819E+02 0.  0.
        -12    1    1    2    0    0  0.39339932910E+02 -0.52100362654E+01 -0.88538852853E+01  0.40659145144E+02  0.00000000000E+00 0.  1.
         11    1    3    3    0    0 -0.12578559928E+02  0.55777488671E+01  0.66737593859E+01  0.15292825667E+02  0.51100000000E-03 0. -1.
        -11    1    3    3    0    0 -0.14843246457E+02  0.30906428980E+01 -0.97465947360E+01  0.18024154574E+02  0.51100000000E-03 0.  1.
        -12    1    3    3    0    0 -0.11918126524E+02 -0.34583554996E+01  0.11926720635E+02  0.17211874614E+02  0.00000000000E+00 0.  1.
</event>
<event>
 7    1  0.4878192E-011  0.5052887E+02  0.7816164E-02  0.1300439E+00
        -11   -1    0    0    0    0  0.00000000000E+00  0.00000000000E+00  0.45593999997E+02  0.45594000000E+02  0.51100000000E-03 0.  1.
         11   -1    0    0    0    0 -0.00000000000E+00 -0.00000000000E+00 -0.45593999997E+02  0.45594000000E+02  0.51100000000E-03 0. -1.
    9900012    2    1    2    0    0  0.34401972865E+02 -0.66680851085E+01 -0.20620523430E+02  0.50528867170E+02  0.30000022249E+02 0.  0.
        -12    1    1    2    0    0 -0.34401972865E+02  0.66680851085E+01  0.20620523430E+02  0.40659132830E+02  0.00000000000E+00 0.  1.
         11    1    3    3    0    0  0.49074719315E+01 -0.13628196607E+02 -0.11366413860E+02  0.18412126108E+02  0.51100000000E-03 0.  1.
        -11    1    3    3    0    0  0.25406498382E+01 -0.63608476630E-01 -0.22531906662E+01  0.33964416789E+01  0.51100000000E-03 0. -1.
         12    1    3    3    0    0  0.26953851095E+02  0.70237199751E+01 -0.70009189033E+01  0.28720299383E+02  0.00000000000E+00 0. -1.
</event>
<event>
 7    1  0.4878192E-011  0.5052886E+02  0.7816164E-02  0.1300439E+00
        -11   -1    0    0    0    0  0.00000000000E+00  0.00000000000E+00  0.45593999997E+02  0.45594000000E+02  0.51100000000E-03 0.  1.
         11   -1    0    0    0    0 -0.00000000000E+00 -0.00000000000E+00 -0.45593999997E+02  0.45594000000E+02  0.51100000000E-03 0. -1.
    9900012    2    1    2    0    0 -0.18951223016E+02 -0.87048822398E+01 -0.34903322556E+02  0.50528858912E+02  0.29999997147E+02 0.  0.
        -12    1    1    2    0    0  0.18951223016E+02  0.87048822398E+01  0.34903322556E+02  0.40659141088E+02  0.00000000000E+00 0.  1.
         11    1    3    3    0    0 -0.19823590800E+02 -0.16241327394E+02 -0.16689931320E+02  0.30582826479E+02  0.51100000000E-03 0.  1.
        -11    1    3    3    0    0  0.16816627029E+01  0.51348917630E+01 -0.10218590717E+02  0.11559182469E+02  0.51100000000E-03 0. -1.
        -12    1    3    3    0    0 -0.80929491818E+00  0.24015533912E+01 -0.79948005192E+01  0.83868499627E+01  0.00000000000E+00 0.  1.
</event>
<event>
 7    1  0.4878192E-011  0.5052886E+02  0.7816164E-02  0.1300439E+00
        -11   -1    0    0    0    0  0.00000000000E+00  0.00000000000E+00  0.45593999997E+02  0.45594000000E+02  0.51100000000E-03 0.  1.
         11   -1    0    0    0    0 -0.00000000000E+00 -0.00000000000E+00 -0.45593999997E+02  0.45594000000E+02  0.51100000000E-03 0. -1.
    9900012    2    1    2    0    0  0.20862626955E+02 -0.34464008939E+02 -0.54907352451E+01  0.50528864629E+02  0.30000014526E+02 0.  0.
        -12    1    1    2    0    0 -0.20862626955E+02  0.34464008939E+02  0.54907352451E+01  0.40659135371E+02  0.00000000000E+00 0.  1.
         11    1    3    3    0    0  0.31976036532E+01 -0.88664872390E+01 -0.79815972320E+00  0.94591925812E+01  0.51100000000E-03 0. -1.
        -11    1    3    3    0    0 -0.64555513745E+01 -0.33377493305E+01 -0.38779860276E+01  0.82373229895E+01  0.51100000000E-03 0.  1.
        -12    1    3    3    0    0  0.24120574676E+02 -0.22259772369E+02 -0.81458949439E+00  0.32832349058E+02  0.00000000000E+00 0.  1.
</event>
<event>
 7    1  0.4878192E-011  0.5052888E+02  0.7816164E-02  0.1300439E+00
        -11   -1    0    0    0    0  0.00000000000E+00  0.00000000000E+00  0.45593999997E+02  0.45594000000E+02  0.51100000000E-03 0. -1.
         11   -1    0    0    0    0 -0.00000000000E+00 -0.00000000000E+00 -0.45593999997E+02  0.45594000000E+02  0.51100000000E-03 0.  1.
    9900012    2    1    2    0    0  0.72323729751E+01 -0.40005279646E+02  0.65902816339E+00  0.50528881262E+02  0.30000065085E+02 0.  0.
        -12    1    1    2    0    0 -0.72323729751E+01  0.40005279646E+02 -0.65902816339E+00  0.40659118738E+02  0.00000000000E+00 0.  1.
         11    1    3    3    0    0  0.10662117267E+02 -0.18912498761E+02  0.39196214497E+01  0.22061885382E+02  0.51100000000E-03 0. -1.
        -11    1    3    3    0    0 -0.18239305113E+01  0.30612349302E+01 -0.22987979061E+01  0.42405605622E+01  0.51100000000E-03 0.  1.
        -12    1    3    3    0    0 -0.16058137807E+01 -0.24154015815E+02 -0.96179538029E+00  0.24226435318E+02  0.00000000000E+00 0.  1.
</event>
<event>
 7    1  0.4878192E-011  0.5052887E+02  0.7816164E-02  0.1300439E+00
        -11   -1    0    0    0    0  0.00000000000E+00  0.00000000000E+00  0.45593999997E+02  0.45594000000E+02  0.51100000000E-03 0. -1.
         11   -1    0    0    0    0 -0.00000000000E+00 -0.00000000000E+00 -0.45593999997E+02  0.45594000000E+02  0.51100000000E-03 0.  1.
    9900012    2    1    2    0    0  0.33033951399E+02  0.13265581419E+02  0.19645533847E+02  0.50528873158E+02  0.30000040452E+02 0.  0.
        -12    1    1    2    0    0 -0.33033951399E+02 -0.13265581419E+02 -0.19645533847E+02  0.40659126842E+02  0.00000000000E+00 0.  1.
         11    1    3    3    0    0  0.14945623468E+02  0.59722216976E+01  0.68336469129E+00  0.16109192420E+02  0.51100000000E-03 0. -1.
        -11    1    3    3    0    0  0.74650365237E+00 -0.35481236456E+01  0.12433058737E+02  0.12950961313E+02  0.51100000000E-03 0.  1.
        -12    1    3    3    0    0  0.17341824279E+02  0.10841483367E+02  0.65291104178E+01  0.21468719425E+02  0.00000000000E+00 0.  1.
</event>
<event>
 7    1  0.4878192E-011  0.5052886E+02  0.7816164E-02  0.1300439E+00
        -11   -1    0    0    0    0  0.00000000000E+00  0.00000000000E+00  0.45593999997E+02  0.45594000000E+02  0.51100000000E-03 0.  1.
         11   -1    0    0    0    0 -0.00000000000E+00 -0.00000000000E+00 -0.45593999997E+02  0.45594000000E+02  0.51100000000E-03 0. -1.
    9900012    2    1    2    0    0 -0.14588420421E+02 -0.28184943924E+01 -0.37847058190E+02  0.50528859150E+02  0.29999997873E+02 0.  0.
        -12    1    1    2    0    0  0.14588420421E+02  0.28184943924E+01  0.37847058190E+02  0.40659140850E+02  0.00000000000E+00 0.  1.
         11    1    3    3    0    0 -0.14223307784E+02  0.14866314759E+01 -0.29446451872E+02  0.32735394996E+02  0.51100000000E-03 0. -1.
        -11    1    3    3    0    0  0.31709499876E+00  0.52627716279E+01 -0.37322452111E+00  0.52855095544E+01  0.51100000000E-03 0.  1.
         12    1    3    3    0    0 -0.68220763630E+00 -0.95678974961E+01 -0.80273817969E+01  0.12507954600E+02  0.00000000000E+00 0. -1.
</event>
<event>
 7    1  0.4878192E-011  0.5052886E+02  0.7816164E-02  0.1300439E+00
        -11   -1    0    0    0    0  0.00000000000E+00  0.00000000000E+00  0.45593999997E+02  0.45594000000E+02  0.51100000000E-03 0. -1.
         11   -1    0    0    0    0 -0.00000000000E+00 -0.00000000000E+00 -0.45593999997E+02  0.45594000000E+02  0.51100000000E-03 0.  1.
    9900012    2    1    2    0    0 -0.13373876113E+02  0.10526714620E+02  0.36925506451E+02  0.50528864377E+02  0.30000013759E+02 0.  0.
        -12    1    1    2    0    0  0.13373876113E+02 -0.10526714620E+02 -0.36925506451E+02  0.40659135623E+02  0.00000000000E+00 0.  1.
         11    1    3    3    0    0 -0.61732104849E+01  0.12026575539E+02  0.21274812908E+02  0.25206441864E+02  0.51100000000E-03 0. -1.
        -11    1    3    3    0    0 -0.54047341988E+01 -0.97602912454E+01  0.11029466486E+02  0.15688325857E+02  0.51100000000E-03 0.  1.
        -12    1    3    3    0    0 -0.17959314289E+01  0.82604303261E+01  0.46212270570E+01  0.96340966563E+01  0.00000000000E+00 0.  1.
</event>
<event>
 7    1  0.4878192E-011  0.5052886E+02  0.7816164E-02  0.1300439E+00
        -11   -1    0    0    0    0  0.00000000000E+00  0.00000000000E+00  0.45593999997E+02  0.45594000000E+02  0.51100000000E-03 0.  1.
         11   -1    0    0    0    0 -0.00000000000E+00 -0.00000000000E+00 -0.45593999997E+02  0.45594000000E+02  0.51100000000E-03 0. -1.
    9900012    2    1    2    0    0  0.31707440307E+02 -0.19518076288E+01 -0.25377041784E+02  0.50528861131E+02  0.30000003894E+02 0.  0.
        -12    1    1    2    0    0 -0.31707440307E+02  0.19518076288E+01  0.25377041784E+02  0.40659138869E+02  0.00000000000E+00 0.  1.
         11    1    3    3    0    0  0.82322927927E+01  0.11409731918E+02 -0.15080275477E+02  0.20624435405E+02  0.51100000000E-03 0. -1.
        -11    1    3    3    0    0  0.19313014074E+02 -0.13347150699E+02 -0.10542831102E+02  0.25735000141E+02  0.51100000000E-03 0.  1.
        -12    1    3    3    0    0  0.41621334411E+01 -0.14388848218E-01  0.24606479494E+00  0.41694255844E+01  0.00000000000E+00 0.  1.
</event>
<event>
 7    1  0.4878192E-011  0.5052886E+02  0.7816164E-02  0.1300439E+00
        -11   -1    0    0    0    0  0.00000000000E+00  0.00000000000E+00  0.45593999997E+02  0.45594000000E+02  0.51100000000E-03 0.  1.
         11   -1    0    0    0    0 -0.00000000000E+00 -0.00000000000E+00 -0.45593999997E+02  0.45594000000E+02  0.51100000000E-03 0. -1.
    9900012    2    1    2    0    0  0.35900894421E+02 -0.11758711328E+02 -0.15034110477E+02  0.50528856008E+02  0.29999988321E+02 0.  0.
        -12    1    1    2    0    0 -0.35900894421E+02  0.11758711328E+02  0.15034110477E+02  0.40659143992E+02  0.00000000000E+00 0.  1.
         11    1    3    3    0    0  0.76290065932E+01  0.54671606859E+01 -0.63181998109E+01  0.11314205084E+02  0.51100000000E-03 0. -1.
        -11    1    3    3    0    0  0.28322084974E+02 -0.86066914007E+01 -0.63129122873E+01  0.30266623465E+02  0.51100000000E-03 0.  1.
        -12    1    3    3    0    0 -0.50197146047E-01 -0.86191806136E+01 -0.24029983790E+01  0.89480274594E+01  0.00000000000E+00 0.  1.
</event>
<event>
 7    1  0.4878192E-011  0.5052886E+02  0.7816164E-02  0.1300439E+00
        -11   -1    0    0    0    0  0.00000000000E+00  0.00000000000E+00  0.45593999997E+02  0.45594000000E+02  0.51100000000E-03 0.  1.
         11   -1    0    0    0    0 -0.00000000000E+00 -0.00000000000E+00 -0.45593999997E+02  0.45594000000E+02  0.51100000000E-03 0. -1.
    9900012    2    1    2    0    0 -0.30765310701E+02  0.15208468040E+02 -0.21802844521E+02  0.50528857463E+02  0.29999992744E+02 0.  0.
        -12    1    1    2    0    0  0.30765310701E+02 -0.15208468040E+02  0.21802844521E+02  0.40659142537E+02  0.00000000000E+00 0.  1.
         11    1    3    3    0    0 -0.25568672667E+02  0.53082042568E+01 -0.10283078670E+02  0.28065561843E+02  0.51100000000E-03 0. -1.
        -11    1    3    3    0    0  0.28341399116E+01 -0.16693039568E+01  0.11848114104E+01  0.34960982650E+01  0.51100000000E-03 0.  1.
        -12    1    3    3    0    0 -0.80307779460E+01  0.11569567740E+02 -0.12704577261E+02  0.18967197354E+02  0.00000000000E+00 0.  1.
</event>
<event>
 7    1  0.4878192E-011  0.5052885E+02  0.7816164E-02  0.1300439E+00
        -11   -1    0    0    0    0  0.00000000000E+00  0.00000000000E+00  0.45593999997E+02  0.45594000000E+02  0.51100000000E-03 0.  1.
         11   -1    0    0    0    0 -0.00000000000E+00 -0.00000000000E+00 -0.45593999997E+02  0.45594000000E+02  0.51100000000E-03 0. -1.
    9900012    2    1    2    0    0 -0.21415715573E+02 -0.15731060907E+02 -0.30774459463E+02  0.50528849665E+02  0.29999969041E+02 0.  0.
        -12    1    1    2    0    0  0.21415715573E+02  0.15731060907E+02  0.30774459463E+02  0.40659150335E+02  0.00000000000E+00 0.  1.
         11    1    3    3    0    0 -0.16466248372E+02  0.10765464170E+01 -0.23882461351E+02  0.29028748648E+02  0.51100000000E-03 0. -1.
        -11    1    3    3    0    0 -0.27069070893E+01 -0.14138825487E+02 -0.72229251118E+00  0.14413723977E+02  0.51100000000E-03 0.  1.
         12    1    3    3    0    0 -0.22425601118E+01 -0.26687818362E+01 -0.61697056013E+01  0.70863770398E+01  0.00000000000E+00 0. -1.
</event>
<event>
 7    1  0.4878192E-011  0.5052887E+02  0.7816164E-02  0.1300439E+00
        -11   -1    0    0    0    0  0.00000000000E+00  0.00000000000E+00  0.45593999997E+02  0.45594000000E+02  0.51100000000E-03 0. -1.
         11   -1    0    0    0    0 -0.00000000000E+00 -0.00000000000E+00 -0.45593999997E+02  0.45594000000E+02  0.51100000000E-03 0.  1.
    9900012    2    1    2    0    0  0.69552580966E+01  0.30356192378E+02  0.26139831633E+02  0.50528870291E+02  0.30000031737E+02 0.  0.
        -12    1    1    2    0    0 -0.69552580966E+01 -0.30356192378E+02 -0.26139831633E+02  0.40659129709E+02  0.00000000000E+00 0.  1.
         11    1    3    3    0    0  0.12387188099E+02  0.11670456019E+02  0.10953770506E+02  0.20239245570E+02  0.51100000000E-03 0. -1.
        -11    1    3    3    0    0 -0.11327627248E+02  0.13986185323E+02  0.74253750790E+01  0.19469584338E+02  0.51100000000E-03 0.  1.
        -12    1    3    3    0    0  0.58956972460E+01  0.46995510361E+01  0.77606860485E+01  0.10820040384E+02  0.00000000000E+00 0.  1.
</event>
<event>
 7    1  0.4878192E-011  0.5052883E+02  0.7816164E-02  0.1300439E+00
        -11   -1    0    0    0    0  0.00000000000E+00  0.00000000000E+00  0.45593999997E+02  0.45594000000E+02  0.51100000000E-03 0.  1.
         11   -1    0    0    0    0 -0.00000000000E+00 -0.00000000000E+00 -0.45593999997E+02  0.45594000000E+02  0.51100000000E-03 0. -1.
    9900012    2    1    2    0    0  0.39697075442E+02  0.41550604243E+01 -0.77489286565E+01  0.50528828573E+02  0.29999904931E+02 0.  0.
        -12    1    1    2    0    0 -0.39697075442E+02 -0.41550604243E+01  0.77489286565E+01  0.40659171427E+02  0.00000000000E+00 0.  1.
         11    1    3    3    0    0  0.24627936933E+02 -0.53047630286E+01 -0.16204942000E+01  0.25244836900E+02  0.51100000000E-03 0. -1.
        -11    1    3    3    0    0  0.54374569952E+01  0.11394763069E+02 -0.84460442984E+01  0.15190201727E+02  0.51100000000E-03 0.  1.
        -12    1    3    3    0    0  0.96316815135E+01 -0.19349396159E+01  0.23176098420E+01  0.10093789946E+02  0.00000000000E+00 0.  1.
</event>
<event>
 7    1  0.4878192E-011  0.5052888E+02  0.7816164E-02  0.1300439E+00
        -11   -1    0    0    0    0  0.00000000000E+00  0.00000000000E+00  0.45593999997E+02  0.45594000000E+02  0.51100000000E-03 0.  1.
         11   -1    0    0    0    0 -0.00000000000E+00 -0.00000000000E+00 -0.45593999997E+02  0.45594000000E+02  0.51100000000E-03 0. -1.
    9900012    2    1    2    0    0  0.28947815958E+02  0.86309434998E+00 -0.28538449352E+02  0.50528879596E+02  0.30000060021E+02 0.  0.
        -12    1    1    2    0    0 -0.28947815958E+02 -0.86309434998E+00  0.28538449352E+02  0.40659120404E+02  0.00000000000E+00 0.  1.
         11    1    3    3    0    0  0.34074794654E+01 -0.42399041771E+00  0.55211020732E+01  0.65017884113E+01  0.51100000000E-03 0. -1.
        -11    1    3    3    0    0  0.92369095610E+01  0.58224340297E+01 -0.14749031797E+02  0.18350890319E+02  0.51100000000E-03 0.  1.
         12    1    3    3    0    0  0.16303426931E+02 -0.45353492620E+01 -0.19310519628E+02  0.25676200866E+02  0.00000000000E+00 0. -1.
</event>
<event>
 7    1  0.4878192E-011  0.5052886E+02  0.7816164E-02  0.1300439E+00
        -11   -1    0    0    0    0  0.00000000000E+00  0.00000000000E+00  0.45593999997E+02  0.45594000000E+02  0.51100000000E-03 0. -1.
         11   -1    0    0    0    0 -0.00000000000E+00 -0.00000000000E+00 -0.45593999997E+02  0.45594000000E+02  0.51100000000E-03 0.  1.
    9900012    2    1    2    0    0 -0.40537778481E+01 -0.40405001865E+02 -0.20417334234E+01  0.50528856306E+02  0.29999989227E+02 0.  0.
        -12    1    1    2    0    0  0.40537778481E+01  0.40405001865E+02  0.20417334234E+01  0.40659143694E+02  0.00000000000E+00 0.  1.
         11    1    3    3    0    0 -0.14541824596E+02 -0.22915466355E+02 -0.90926367207E+01  0.28622706085E+02  0.51100000000E-03 0. -1.
        -11    1    3    3    0    0  0.70922077883E+01 -0.88777635492E+01  0.50538818352E+01  0.12436069267E+02  0.51100000000E-03 0.  1.
         12    1    3    3    0    0  0.33958389592E+01 -0.86117719616E+01  0.19970214620E+01  0.94700809540E+01  0.00000000000E+00 0. -1.
</event>
<event>
 7    1  0.4878192E-011  0.5052886E+02  0.7816164E-02  0.1300439E+00
        -11   -1    0    0    0    0  0.00000000000E+00  0.00000000000E+00  0.45593999997E+02  0.45594000000E+02  0.51100000000E-03 0.  1.
         11   -1    0    0    0    0 -0.00000000000E+00 -0.00000000000E+00 -0.45593999997E+02  0.45594000000E+02  0.51100000000E-03 0. -1.
    9900012    2    1    2    0    0  0.11639995132E+02 -0.15656795131E+02 -0.35672694631E+02  0.50528857575E+02  0.29999993086E+02 0.  0.
        -12    1    1    2    0    0 -0.11639995132E+02  0.15656795131E+02  0.35672694631E+02  0.40659142425E+02  0.00000000000E+00 0.  1.
         11    1    3    3    0    0  0.96912355664E+01  0.76042864298E+00 -0.11788348745E+02  0.15279511279E+02  0.51100000000E-03 0. -1.
        -11    1    3    3    0    0 -0.69568006175E+01 -0.15427066158E+02 -0.14667665676E+02  0.22394907049E+02  0.51100000000E-03 0.  1.
        -12    1    3    3    0    0  0.89055601829E+01 -0.99015761633E+00 -0.92166802100E+01  0.12854439248E+02  0.00000000000E+00 0.  1.
</event>
<event>
 7    1  0.4878192E-011  0.5052886E+02  0.7816164E-02  0.1300439E+00
        -11   -1    0    0    0    0  0.00000000000E+00  0.00000000000E+00  0.45593999997E+02  0.45594000000E+02  0.51100000000E-03 0.  1.
         11   -1    0    0    0    0 -0.00000000000E+00 -0.00000000000E+00 -0.45593999997E+02  0.45594000000E+02  0.51100000000E-03 0. -1.
    9900012    2    1    2    0    0 -0.10049629703E+02 -0.29072579223E+02 -0.26588645009E+02  0.50528856339E+02  0.29999989329E+02 0.  0.
        -12    1    1    2    0    0  0.10049629703E+02  0.29072579223E+02  0.26588645009E+02  0.40659143661E+02  0.00000000000E+00 0.  1.
         11    1    3    3    0    0 -0.14367651969E+02 -0.10039789168E+02 -0.10194055664E+02  0.20276724607E+02  0.51100000000E-03 0. -1.
        -11    1    3    3    0    0  0.45651026808E+01 -0.19075755157E+02 -0.19192949354E+02  0.27442556413E+02  0.51100000000E-03 0.  1.
        -12    1    3    3    0    0 -0.24708041443E+00  0.42965103088E-01  0.27983600094E+01  0.28095753191E+01  0.00000000000E+00 0.  1.
</event>
<event>
 7    1  0.4878192E-011  0.5052885E+02  0.7816164E-02  0.1300439E+00
        -11   -1    0    0    0    0  0.00000000000E+00  0.00000000000E+00  0.45593999997E+02  0.45594000000E+02  0.51100000000E-03 0.  1.
         11   -1    0    0    0    0 -0.00000000000E+00 -0.00000000000E+00 -0.45593999997E+02  0.45594000000E+02  0.51100000000E-03 0. -1.
    9900012    2    1    2    0    0 -0.14939133606E+02 -0.68679623520E+01 -0.37186291254E+02  0.50528845102E+02  0.29999955172E+02 0.  0.
        -12    1    1    2    0    0  0.14939133606E+02  0.68679623520E+01  0.37186291254E+02  0.40659154898E+02  0.00000000000E+00 0.  1.
         11    1    3    3    0    0 -0.16349236323E+02  0.30967225325E+01 -0.20664745864E+02  0.26531470760E+02  0.51100000000E-03 0. -1.
        -11    1    3    3    0    0  0.33263757944E+01 -0.12507634590E+02 -0.16289030625E+02  0.20804764308E+02  0.51100000000E-03 0.  1.
         12    1    3    3    0    0 -0.19162730775E+01  0.25429497058E+01 -0.23251476543E+00  0.31926100341E+01  0.00000000000E+00 0. -1.
</event>
<event>
 7    1  0.4878192E-011  0.5052886E+02  0.7816164E-02  0.1300439E+00
        -11   -1    0    0    0    0  0.00000000000E+00  0.00000000000E+00  0.45593999997E+02  0.45594000000E+02  0.51100000000E-03 0.  1.
         11   -1    0    0    0    0 -0.00000000000E+00 -0.00000000000E+00 -0.45593999997E+02  0.45594000000E+02  0.51100000000E-03 0. -1.
    9900012    2    1    2    0    0 -0.24180226907E+02 -0.11725723475E+02 -0.30512124333E+02  0.50528859630E+02  0.29999999332E+02 0.  0.
        -12    1    1    2    0    0  0.24180226907E+02  0.11725723475E+02  0.30512124333E+02  0.40659140370E+02  0.00000000000E+00 0.  1.
         11    1    3    3    0    0 -0.26496548162E+02 -0.36015132277E+01 -0.15600462879E+02  0.30958236454E+02  0.51100000000E-03 0.  1.
        -11    1    3    3    0    0  0.13641539757E+01 -0.17524013574E+01 -0.12493267234E+02  0.12689111593E+02  0.51100000000E-03 0. -1.
        -12    1    3    3    0    0  0.95216727972E+00 -0.63718088903E+01 -0.24183942204E+01  0.68815115831E+01  0.00000000000E+00 0.  1.
</event>
<event>
 7    1  0.4878192E-011  0.5052886E+02  0.7816164E-02  0.1300439E+00
        -11   -1    0    0    0    0  0.00000000000E+00  0.00000000000E+00  0.45593999997E+02  0.45594000000E+02  0.51100000000E-03 0. -1.
         11   -1    0    0    0    0 -0.00000000000E+00 -0.00000000000E+00 -0.45593999997E+02  0.45594000000E+02  0.51100000000E-03 0.  1.
    9900012    2    1    2    0    0 -0.50812195600E+01 -0.67652260564E+01  0.39769061667E+02  0.50528863982E+02  0.30000012561E+02 0.  0.
        -12    1    1    2    0    0  0.50812195600E+01  0.67652260564E+01 -0.39769061667E+02  0.40659136018E+02  0.00000000000E+00 0.  1.
         11    1    3    3    0    0 -0.53112634359E+01 -0.12826181163E+02  0.40798041015E+02  0.43095250242E+02  0.51100000000E-03 0. -1.
        -11    1    3    3    0    0  0.34737543117E+00  0.39578173524E+01 -0.26499585757E+01  0.47756956142E+01  0.51100000000E-03 0.  1.
         12    1    3    3    0    0 -0.11733155531E+00  0.21031377541E+01  0.16209792279E+01  0.26579181259E+01  0.00000000000E+00 0. -1.
</event>
<event>
 7    1  0.4878192E-011  0.5052885E+02  0.7816164E-02  0.1300439E+00
        -11   -1    0    0    0    0  0.00000000000E+00  0.00000000000E+00  0.45593999997E+02  0.45594000000E+02  0.51100000000E-03 0. -1.
         11   -1    0    0    0    0 -0.00000000000E+00 -0.00000000000E+00 -0.45593999997E+02  0.45594000000E+02  0.51100000000E-03 0.  1.
    9900012    2    1    2    0    0  0.39159056607E+02 -0.10900651030E+02 -0.95409488734E+00  0.50528853375E+02  0.29999980320E+02 0.  0.
        -12    1    1    2    0    0 -0.39159056607E+02  0.10900651030E+02  0.95409488734E+00  0.40659146625E+02  0.00000000000E+00 0.  1.
         11    1    3    3    0    0  0.11197875382E+02 -0.12446718805E+02  0.57728317794E+01  0.17709850623E+02  0.51100000000E-03 0. -1.
        -11    1    3    3    0    0  0.34312326201E+01  0.57057030295E+01  0.10752142240E+01  0.67442190239E+01  0.51100000000E-03 0.  1.
         12    1    3    3    0    0  0.24529948605E+02 -0.41596352545E+01 -0.78021408908E+01  0.26074783729E+02  0.00000000000E+00 0. -1.
</event>
<event>
 7    1  0.4878192E-011  0.5052885E+02  0.7816164E-02  0.1300439E+00
        -11   -1    0    0    0    0  0.00000000000E+00  0.00000000000E+00  0.45593999997E+02  0.45594000000E+02  0.51100000000E-03 0.  1.
         11   -1    0    0    0    0 -0.00000000000E+00 -0.00000000000E+00 -0.45593999997E+02  0.45594000000E+02  0.51100000000E-03 0. -1.
    9900012    2    1    2    0    0 -0.27768724165E+02 -0.11223032201E+02 -0.27497413260E+02  0.50528853065E+02  0.29999979376E+02 0.  0.
        -12    1    1    2    0    0  0.27768724165E+02  0.11223032201E+02  0.27497413260E+02  0.40659146935E+02  0.00000000000E+00 0.  1.
         11    1    3    3    0    0 -0.29740628342E+02 -0.16354085665E+02 -0.21714793060E+02  0.40292596467E+02  0.51100000000E-03 0. -1.
        -11    1    3    3    0    0  0.18969011158E+00  0.55591705351E+01 -0.17905193052E+01  0.58434851775E+01  0.51100000000E-03 0.  1.
         12    1    3    3    0    0  0.17822140657E+01 -0.42811707121E+00 -0.39921008939E+01  0.43927714202E+01  0.00000000000E+00 0. -1.
</event>
<event>
 7    1  0.4878192E-011  0.5052886E+02  0.7816164E-02  0.1300439E+00
        -11   -1    0    0    0    0  0.00000000000E+00  0.00000000000E+00  0.45593999997E+02  0.45594000000E+02  0.51100000000E-03 0.  1.
         11   -1    0    0    0    0 -0.00000000000E+00 -0.00000000000E+00 -0.45593999997E+02  0.45594000000E+02  0.51100000000E-03 0. -1.
    9900012    2    1    2    0    0 -0.36078265267E+02  0.18351014793E+02 -0.38424998221E+01  0.50528858672E+02  0.29999996421E+02 0.  0.
        -12    1    1    2    0    0  0.36078265267E+02 -0.18351014793E+02  0.38424998221E+01  0.40659141328E+02  0.00000000000E+00 0.  1.
         11    1    3    3    0    0 -0.38230852960E+02  0.17202730717E+02  0.22628844566E+01  0.41983957752E+02  0.51100000000E-03 0. -1.
        -11    1    3    3    0    0 -0.15583416240E+00 -0.20356746722E+01 -0.22339665405E+01  0.30263612511E+01  0.51100000000E-03 0.  1.
         12    1    3    3    0    0  0.23084218558E+01  0.31839587484E+01 -0.38714177383E+01  0.55185396691E+01  0.00000000000E+00 0. -1.
</event>
<event>
 7    1  0.4878192E-011  0.5052887E+02  0.7816164E-02  0.1300439E+00
        -11   -1    0    0    0    0  0.00000000000E+00  0.00000000000E+00  0.45593999997E+02  0.45594000000E+02  0.51100000000E-03 0. -1.
         11   -1    0    0    0    0 -0.00000000000E+00 -0.00000000000E+00 -0.45593999997E+02  0.45594000000E+02  0.51100000000E-03 0.  1.
    9900012    2    1    2    0    0  0.14887417470E+02  0.36162396913E+02  0.11127034558E+02  0.50528867601E+02  0.30000023560E+02 0.  0.
        -12    1    1    2    0    0 -0.14887417470E+02 -0.36162396913E+02 -0.11127034558E+02  0.40659132399E+02  0.00000000000E+00 0.  1.
         11    1    3    3    0    0 -0.51471970574E+01  0.29634388603E-01  0.33396013735E+01  0.61357520598E+01  0.51100000000E-03 0. -1.
        -11    1    3    3    0    0  0.16752533105E+02  0.36723868837E+02  0.73775530413E+01  0.41033135353E+02  0.51100000000E-03 0.  1.
        -12    1    3    3    0    0  0.32820814217E+01 -0.59110631239E+00  0.40988014298E+00  0.33599801879E+01  0.00000000000E+00 0.  1.
</event>
<event>
 7    1  0.4878192E-011  0.5052885E+02  0.7816164E-02  0.1300439E+00
        -11   -1    0    0    0    0  0.00000000000E+00  0.00000000000E+00  0.45593999997E+02  0.45594000000E+02  0.51100000000E-03 0. -1.
         11   -1    0    0    0    0 -0.00000000000E+00 -0.00000000000E+00 -0.45593999997E+02  0.45594000000E+02  0.51100000000E-03 0.  1.
    9900012    2    1    2    0    0  0.25995300993E+02 -0.27250489127E+02  0.15323885906E+02  0.50528852067E+02  0.29999976344E+02 0.  0.
        -12    1    1    2    0    0 -0.25995300993E+02  0.27250489127E+02 -0.15323885906E+02  0.40659147933E+02  0.00000000000E+00 0.  1.
         11    1    3    3    0    0  0.27039010542E+01 -0.31799762726E+01  0.10201034132E+02  0.11021997443E+02  0.51100000000E-03 0. -1.
        -11    1    3    3    0    0  0.68802788055E+01 -0.25436129674E+01 -0.67314518991E+01  0.99559353302E+01  0.51100000000E-03 0.  1.
        -12    1    3    3    0    0  0.16411121133E+02 -0.21526899887E+02  0.11854303673E+02  0.29550919294E+02  0.00000000000E+00 0.  1.
</event>
<event>
 7    1  0.4878192E-011  0.5052886E+02  0.7816164E-02  0.1300439E+00
        -11   -1    0    0    0    0  0.00000000000E+00  0.00000000000E+00  0.45593999997E+02  0.45594000000E+02  0.51100000000E-03 0. -1.
         11   -1    0    0    0    0 -0.00000000000E+00 -0.00000000000E+00 -0.45593999997E+02  0.45594000000E+02  0.51100000000E-03 0.  1.
    9900012    2    1    2    0    0  0.21691825893E+02 -0.15677870421E+02  0.30607756330E+02  0.50528859833E+02  0.29999999949E+02 0.  0.
        -12    1    1    2    0    0 -0.21691825893E+02  0.15677870421E+02 -0.30607756330E+02  0.40659140167E+02  0.00000000000E+00 0.  1.
         11    1    3    3    0    0  0.20297282225E+02 -0.14004093392E+02  0.36266991646E+02  0.43856458826E+02  0.51100000000E-03 0. -1.
        -11    1    3    3    0    0  0.10072691174E+01  0.54461932296E+00 -0.28536631739E+01  0.30748325244E+01  0.51100000000E-03 0.  1.
         12    1    3    3    0    0  0.38727455096E+00 -0.22183963517E+01 -0.28055721413E+01  0.35975684832E+01  0.00000000000E+00 0. -1.
</event>
<event>
 7    1  0.4878192E-011  0.5052883E+02  0.7816164E-02  0.1300439E+00
        -11   -1    0    0    0    0  0.00000000000E+00  0.00000000000E+00  0.45593999997E+02  0.45594000000E+02  0.51100000000E-03 0.  1.
         11   -1    0    0    0    0 -0.00000000000E+00 -0.00000000000E+00 -0.45593999997E+02  0.45594000000E+02  0.51100000000E-03 0. -1.
    9900012    2    1    2    0    0 -0.15800418547E+01  0.13641588021E+02 -0.38269816964E+02  0.50528827032E+02  0.29999900247E+02 0.  0.
        -12    1    1    2    0    0  0.15800418547E+01 -0.13641588021E+02  0.38269816964E+02  0.40659172968E+02  0.00000000000E+00 0.  1.
         11    1    3    3    0    0  0.66661804294E+01 -0.30584003236E+01 -0.17255208005E+01  0.75345335855E+01  0.51100000000E-03 0. -1.
        -11    1    3    3    0    0 -0.62455439892E+01  0.13195857431E+02 -0.14473633099E+02  0.20557809426E+02  0.51100000000E-03 0.  1.
         12    1    3    3    0    0 -0.20006782950E+01  0.35041309137E+01 -0.22070663065E+02  0.22436484021E+02  0.00000000000E+00 0. -1.
</event>
<event>
 7    1  0.4878192E-011  0.5052886E+02  0.7816164E-02  0.1300439E+00
        -11   -1    0    0    0    0  0.00000000000E+00  0.00000000000E+00  0.45593999997E+02  0.45594000000E+02  0.51100000000E-03 0.  1.
         11   -1    0    0    0    0 -0.00000000000E+00 -0.00000000000E+00 -0.45593999997E+02  0.45594000000E+02  0.51100000000E-03 0. -1.
    9900012    2    1    2    0    0 -0.43190847518E+01 -0.40396550691E+02  0.16217960317E+01  0.50528855602E+02  0.29999987086E+02 0.  0.
        -12    1    1    2    0    0  0.43190847518E+01  0.40396550691E+02 -0.16217960317E+01  0.40659144398E+02  0.00000000000E+00 0.  1.
         11    1    3    3    0    0  0.31532036746E+01 -0.25878404591E+01 -0.55981995460E+01  0.69267200082E+01  0.51100000000E-03 0. -1.
        -11    1    3    3    0    0 -0.32290482390E+01 -0.19939729222E+02  0.13382003232E+02  0.24230096259E+02  0.51100000000E-03 0.  1.
        -12    1    3    3    0    0 -0.42432401874E+01 -0.17868981010E+02 -0.61620076541E+01  0.19372039334E+02  0.00000000000E+00 0.  1.
</event>
<event>
 7    1  0.4878192E-011  0.5052887E+02  0.7816164E-02  0.1300439E+00
        -11   -1    0    0    0    0  0.00000000000E+00  0.00000000000E+00  0.45593999997E+02  0.45594000000E+02  0.51100000000E-03 0.  1.
         11   -1    0    0    0    0 -0.00000000000E+00 -0.00000000000E+00 -0.45593999997E+02  0.45594000000E+02  0.51100000000E-03 0. -1.
    9900012    2    1    2    0    0  0.36288426584E+02  0.17106468364E+02  0.66093779879E+01  0.50528867678E+02  0.30000023794E+02 0.  0.
        -12    1    1    2    0    0 -0.36288426584E+02 -0.17106468364E+02 -0.66093779879E+01  0.40659132322E+02  0.00000000000E+00 0.  1.
         11    1    3    3    0    0  0.31275632509E+02  0.16688569541E+02 -0.24774086011E+01  0.35536053465E+02  0.51100000000E-03 0.  1.
        -11    1    3    3    0    0  0.13493520058E+01 -0.48552744114E+01  0.19780578317E+01  0.54136081768E+01  0.51100000000E-03 0. -1.
        -12    1    3    3    0    0  0.36634420685E+01  0.52731732339E+01  0.71087287573E+01  0.95792060365E+01  0.00000000000E+00 0.  1.
</event>
<event>
 7    1  0.4878192E-011  0.5052887E+02  0.7816164E-02  0.1300439E+00
        -11   -1    0    0    0    0  0.00000000000E+00  0.00000000000E+00  0.45593999997E+02  0.45594000000E+02  0.51100000000E-03 0. -1.
         11   -1    0    0    0    0 -0.00000000000E+00 -0.00000000000E+00 -0.45593999997E+02  0.45594000000E+02  0.51100000000E-03 0.  1.
    9900012    2    1    2    0    0 -0.10604409201E+02  0.33651773851E+02  0.20205681828E+02  0.50528868726E+02  0.30000026980E+02 0.  0.
        -12    1    1    2    0    0  0.10604409201E+02 -0.33651773851E+02 -0.20205681828E+02  0.40659131274E+02  0.00000000000E+00 0.  1.
         11    1    3    3    0    0 -0.11333873529E+02  0.19551105104E+02  0.17525576631E+02  0.28598046026E+02  0.51100000000E-03 0. -1.
        -11    1    3    3    0    0  0.60171564772E+01  0.14251564498E+02 -0.97591953963E+00  0.15500505861E+02  0.51100000000E-03 0.  1.
        -12    1    3    3    0    0 -0.52876921489E+01 -0.15089575139E+00  0.36560247361E+01  0.64303168398E+01  0.00000000000E+00 0.  1.
</event>
<event>
 7    1  0.4878192E-011  0.5052886E+02  0.7816164E-02  0.1300439E+00
        -11   -1    0    0    0    0  0.00000000000E+00  0.00000000000E+00  0.45593999997E+02  0.45594000000E+02  0.51100000000E-03 0.  1.
         11   -1    0    0    0    0 -0.00000000000E+00 -0.00000000000E+00 -0.45593999997E+02  0.45594000000E+02  0.51100000000E-03 0. -1.
    9900012    2    1    2    0    0  0.19136108735E+02  0.35062766383E+02  0.75879785872E+01  0.50528860031E+02  0.30000000551E+02 0.  0.
        -12    1    1    2    0    0 -0.19136108735E+02 -0.35062766383E+02 -0.75879785872E+01  0.40659139969E+02  0.00000000000E+00 0.  1.
         11    1    3    3    0    0  0.18839018630E+02  0.26904907964E+02  0.94441456324E+01  0.34175643117E+02  0.51100000000E-03 0. -1.
        -11    1    3    3    0    0 -0.20448055171E+01  0.10771381208E+02 -0.46089136384E+01  0.11893105898E+02  0.51100000000E-03 0.  1.
        -12    1    3    3    0    0  0.23418956224E+01 -0.26135227882E+01  0.27527465932E+01  0.44601110162E+01  0.00000000000E+00 0.  1.
</event>
<event>
 7    1  0.4878192E-011  0.5052882E+02  0.7816164E-02  0.1300439E+00
        -11   -1    0    0    0    0  0.00000000000E+00  0.00000000000E+00  0.45593999997E+02  0.45594000000E+02  0.51100000000E-03 0. -1.
         11   -1    0    0    0    0 -0.00000000000E+00 -0.00000000000E+00 -0.45593999997E+02  0.45594000000E+02  0.51100000000E-03 0.  1.
    9900012    2    1    2    0    0 -0.39492672943E+02  0.41093757402E+01  0.87527685332E+01  0.50528817247E+02  0.29999870502E+02 0.  0.
        -12    1    1    2    0    0  0.39492672943E+02 -0.41093757402E+01 -0.87527685332E+01  0.40659182753E+02  0.00000000000E+00 0.  1.
         11    1    3    3    0    0 -0.77299983029E+01 -0.46916748276E+01  0.23169176008E+01  0.93344948380E+01  0.51100000000E-03 0. -1.
        -11    1    3    3    0    0 -0.33092088307E+02  0.13177369274E+02  0.35719159407E+01  0.35797876379E+02  0.51100000000E-03 0.  1.
        -12    1    3    3    0    0  0.13294136663E+01 -0.43763187062E+01  0.28639349916E+01  0.53964460297E+01  0.00000000000E+00 0.  1.
</event>
<event>
 7    1  0.4878192E-011  0.5052887E+02  0.7816164E-02  0.1300439E+00
        -11   -1    0    0    0    0  0.00000000000E+00  0.00000000000E+00  0.45593999997E+02  0.45594000000E+02  0.51100000000E-03 0.  1.
         11   -1    0    0    0    0 -0.00000000000E+00 -0.00000000000E+00 -0.45593999997E+02  0.45594000000E+02  0.51100000000E-03 0. -1.
    9900012    2    1    2    0    0  0.61132649954E+01 -0.35699533363E+02 -0.18475278690E+02  0.50528872933E+02  0.30000039766E+02 0.  0.
        -12    1    1    2    0    0 -0.61132649954E+01  0.35699533363E+02  0.18475278690E+02  0.40659127067E+02  0.00000000000E+00 0.  1.
         11    1    3    3    0    0  0.72530461833E+01 -0.38642938236E+02 -0.19751679140E+02  0.44000138449E+02  0.51100000000E-03 0. -1.
        -11    1    3    3    0    0  0.13618332665E+01  0.23778685722E+01 -0.11744082969E+01  0.29812889664E+01  0.51100000000E-03 0.  1.
         12    1    3    3    0    0 -0.25016144544E+01  0.56553630077E+00  0.24508087466E+01  0.35474455173E+01  0.00000000000E+00 0. -1.
</event>
<event>
 7    1  0.4878192E-011  0.5052886E+02  0.7816164E-02  0.1300439E+00
        -11   -1    0    0    0    0  0.00000000000E+00  0.00000000000E+00  0.45593999997E+02  0.45594000000E+02  0.51100000000E-03 0.  1.
         11   -1    0    0    0    0 -0.00000000000E+00 -0.00000000000E+00 -0.45593999997E+02  0.45594000000E+02  0.51100000000E-03 0. -1.
    9900012    2    1    2    0    0 -0.39266108391E+02 -0.97608165840E+01  0.40081131112E+01  0.50528858601E+02  0.29999996204E+02 0.  0.
        -12    1    1    2    0    0  0.39266108391E+02  0.97608165840E+01 -0.40081131112E+01  0.40659141399E+02  0.00000000000E+00 0.  1.
         11    1    3    3    0    0 -0.23980054344E+02 -0.42056204305E+01  0.94092786318E+01  0.26101049292E+02  0.51100000000E-03 0. -1.
        -11    1    3    3    0    0 -0.10185981905E+02 -0.10159116376E+02 -0.86936128974E+01  0.16808949354E+02  0.51100000000E-03 0.  1.
        -12    1    3    3    0    0 -0.51000721427E+01  0.46039202228E+01  0.32924473768E+01  0.76188599546E+01  0.00000000000E+00 0.  1.
</event>
<event>
 7    1  0.4878192E-011  0.5052885E+02  0.7816164E-02  0.1300439E+00
        -11   -1    0    0    0    0  0.00000000000E+00  0.00000000000E+00  0.45593999997E+02  0.45594000000E+02  0.51100000000E-03 0. -1.
         11   -1    0    0    0    0 -0.00000000000E+00 -0.00000000000E+00 -0.45593999997E+02  0.45594000000E+02  0.51100000000E-03 0.  1.
    9900012    2    1    2    0    0  0.11210543539E+02 -0.38970443943E+02 -0.29655749831E+01  0.50528850691E+02  0.29999972161E+02 0.  0.
        -12    1    1    2    0    0 -0.11210543539E+02  0.38970443943E+02  0.29655749831E+01  0.40659149309E+02  0.00000000000E+00 0.  1.
         11    1    3    3    0    0  0.82155205746E+01 -0.59660141252E+01 -0.42233501430E+01  0.10996580812E+02  0.51100000000E-03 0. -1.
        -11    1    3    3    0    0 -0.11995449799E+01 -0.11058789688E+02  0.10552940247E+02  0.15332980325E+02  0.51100000000E-03 0.  1.
        -12    1    3    3    0    0  0.41945679441E+01 -0.21945640130E+02 -0.92951650875E+01  0.24199289555E+02  0.00000000000E+00 0.  1.
</event>
<event>
 7    1  0.4878192E-011  0.5052886E+02  0.7816164E-02  0.1300439E+00
        -11   -1    0    0    0    0  0.00000000000E+00  0.00000000000E+00  0.45593999997E+02  0.45594000000E+02  0.51100000000E-03 0.  1.
         11   -1    0    0    0    0 -0.00000000000E+00 -0.00000000000E+00 -0.45593999997E+02  0.45594000000E+02  0.51100000000E-03 0. -1.
    9900012    2    1    2    0    0  0.24938828088E+02 -0.26182968217E+02  0.18592280772E+02  0.50528857419E+02  0.29999992612E+02 0.  0.
        -12    1    1    2    0    0 -0.24938828088E+02  0.26182968217E+02 -0.18592280772E+02  0.40659142581E+02  0.00000000000E+00 0.  1.
         11    1    3    3    0    0  0.14529570491E+02 -0.21907010731E+02  0.22689730153E+02  0.34725342223E+02  0.51100000000E-03 0. -1.
        -11    1    3    3    0    0  0.60763248953E+01 -0.37023579194E+01 -0.74447809414E+01  0.10298249459E+02  0.51100000000E-03 0.  1.
         12    1    3    3    0    0  0.43329327015E+01 -0.57359956730E+00  0.33473315605E+01  0.55052657370E+01  0.00000000000E+00 0. -1.
</event>
<event>
 7    1  0.4878192E-011  0.5052889E+02  0.7816164E-02  0.1300439E+00
        -11   -1    0    0    0    0  0.00000000000E+00  0.00000000000E+00  0.45593999997E+02  0.45594000000E+02  0.51100000000E-03 0.  1.
         11   -1    0    0    0    0 -0.00000000000E+00 -0.00000000000E+00 -0.45593999997E+02  0.45594000000E+02  0.51100000000E-03 0. -1.
    9900012    2    1    2    0    0  0.22623022990E+02 -0.31601454335E+02  0.11946138996E+02  0.50528888817E+02  0.30000088047E+02 0.  0.
        -12    1    1    2    0    0 -0.22623022990E+02  0.31601454335E+02 -0.11946138996E+02  0.40659111183E+02  0.00000000000E+00 0.  1.
         11    1    3    3    0    0  0.11959118773E+02 -0.76792561509E+01  0.12937889723E+01  0.14271138252E+02  0.51100000000E-03 0. -1.
        -11    1    3    3    0    0 -0.32292504289E+01 -0.19945909621E+02  0.63489214650E+01  0.21179616923E+02  0.51100000000E-03 0.  1.
        -12    1    3    3    0    0  0.13893154646E+02 -0.39762885629E+01  0.43034285583E+01  0.15078133642E+02  0.00000000000E+00 0.  1.
</event>
<event>
 7    1  0.4878192E-011  0.5052886E+02  0.7816164E-02  0.1300439E+00
        -11   -1    0    0    0    0  0.00000000000E+00  0.00000000000E+00  0.45593999997E+02  0.45594000000E+02  0.51100000000E-03 0.  1.
         11   -1    0    0    0    0 -0.00000000000E+00 -0.00000000000E+00 -0.45593999997E+02  0.45594000000E+02  0.51100000000E-03 0. -1.
    9900012    2    1    2    0    0 -0.20394937141E+01 -0.22890530860E+02 -0.33541458890E+02  0.50528863239E+02  0.30000010301E+02 0.  0.
        -12    1    1    2    0    0  0.20394937141E+01  0.22890530860E+02  0.33541458890E+02  0.40659136761E+02  0.00000000000E+00 0.  1.
         11    1    3    3    0    0 -0.11850662121E+01 -0.17051936020E+02 -0.22101388260E+02  0.27940011940E+02  0.51100000000E-03 0. -1.
        -11    1    3    3    0    0 -0.12898166750E+01  0.62457368708E+01 -0.70017213774E+00  0.64158473640E+01  0.51100000000E-03 0.  1.
        -12    1    3    3    0    0  0.43538917305E+00 -0.12084331711E+02 -0.10739898493E+02  0.16173003935E+02  0.00000000000E+00 0.  1.
</event>
<event>
 7    1  0.4878192E-011  0.5052881E+02  0.7816164E-02  0.1300439E+00
        -11   -1    0    0    0    0  0.00000000000E+00  0.00000000000E+00  0.45593999997E+02  0.45594000000E+02  0.51100000000E-03 0.  1.
         11   -1    0    0    0    0 -0.00000000000E+00 -0.00000000000E+00 -0.45593999997E+02  0.45594000000E+02  0.51100000000E-03 0. -1.
    9900012    2    1    2    0    0 -0.34456999706E+02 -0.16521370664E+02 -0.13889896938E+02  0.50528809719E+02  0.29999847622E+02 0.  0.
        -12    1    1    2    0    0  0.34456999706E+02  0.16521370664E+02  0.13889896938E+02  0.40659190281E+02  0.00000000000E+00 0.  1.
         11    1    3    3    0    0 -0.23098229702E+02 -0.81183931347E+01  0.58926111211E+01  0.25182521489E+02  0.51100000000E-03 0. -1.
        -11    1    3    3    0    0 -0.16462567421E+01 -0.52720903352E+01 -0.55164761059E+01  0.78061902777E+01  0.51100000000E-03 0.  1.
         12    1    3    3    0    0 -0.97125132616E+01 -0.31308871938E+01 -0.14266031954E+02  0.17540097952E+02  0.00000000000E+00 0. -1.
</event>
<event>
 7    1  0.4878192E-011  0.5052886E+02  0.7816164E-02  0.1300439E+00
        -11   -1    0    0    0    0  0.00000000000E+00  0.00000000000E+00  0.45593999997E+02  0.45594000000E+02  0.51100000000E-03 0. -1.
         11   -1    0    0    0    0 -0.00000000000E+00 -0.00000000000E+00 -0.45593999997E+02  0.45594000000E+02  0.51100000000E-03 0.  1.
    9900012    2    1    2    0    0  0.33289148614E+02  0.23074615793E+02  0.35440149250E+01  0.50528863865E+02  0.30000012203E+02 0.  0.
        -12    1    1    2    0    0 -0.33289148614E+02 -0.23074615793E+02 -0.35440149250E+01  0.40659136135E+02  0.00000000000E+00 0.  1.
         11    1    3    3    0    0  0.31585051250E+02  0.19422221484E+02  0.21053704526E+01  0.37138534366E+02  0.51100000000E-03 0. -1.
        -11    1    3    3    0    0 -0.41452097009E+01  0.53899094002E+01  0.24050503493E+01  0.72123612118E+01  0.51100000000E-03 0.  1.
        -12    1    3    3    0    0  0.58493070651E+01 -0.17375150912E+01 -0.96640587695E+00  0.61779682868E+01  0.00000000000E+00 0.  1.
</event>
<event>
 7    1  0.4878192E-011  0.5052886E+02  0.7816164E-02  0.1300439E+00
        -11   -1    0    0    0    0  0.00000000000E+00  0.00000000000E+00  0.45593999997E+02  0.45594000000E+02  0.51100000000E-03 0. -1.
         11   -1    0    0    0    0 -0.00000000000E+00 -0.00000000000E+00 -0.45593999997E+02  0.45594000000E+02  0.51100000000E-03 0.  1.
    9900012    2    1    2    0    0  0.35338221789E+02 -0.72561301163E+01  0.18754307214E+02  0.50528863480E+02  0.30000011033E+02 0.  0.
        -12    1    1    2    0    0 -0.35338221789E+02  0.72561301163E+01 -0.18754307214E+02  0.40659136520E+02  0.00000000000E+00 0.  1.
         11    1    3    3    0    0  0.30440800088E+02 -0.61869266964E+01  0.29896674355E+00  0.31064606118E+02  0.51100000000E-03 0. -1.
        -11    1    3    3    0    0  0.15238685303E+01 -0.12881273100E+01  0.12121953808E+02  0.12285080856E+02  0.51100000000E-03 0.  1.
         12    1    3    3    0    0  0.33735531715E+01  0.21892389009E+00  0.63333866629E+01  0.71791765051E+01  0.00000000000E+00 0. -1.
</event>
<event>
 7    1  0.4878192E-011  0.5052886E+02  0.7816164E-02  0.1300439E+00
        -11   -1    0    0    0    0  0.00000000000E+00  0.00000000000E+00  0.45593999997E+02  0.45594000000E+02  0.51100000000E-03 0.  1.
         11   -1    0    0    0    0 -0.00000000000E+00 -0.00000000000E+00 -0.45593999997E+02  0.45594000000E+02  0.51100000000E-03 0. -1.
    9900012    2    1    2    0    0  0.18477529932E+02  0.35245162380E+02 -0.83381863780E+01  0.50528856678E+02  0.29999990360E+02 0.  0.
        -12    1    1    2    0    0 -0.18477529932E+02 -0.35245162380E+02  0.83381863780E+01  0.40659143322E+02  0.00000000000E+00 0.  1.
         11    1    3    3    0    0  0.97381328027E+01  0.23298930130E+02 -0.12668784515E+02  0.28251893336E+02  0.51100000000E-03 0. -1.
        -11    1    3    3    0    0  0.12018943920E+02  0.32773912132E+01  0.36599379942E+01  0.12984277127E+02  0.51100000000E-03 0.  1.
        -12    1    3    3    0    0 -0.32795467915E+01  0.86688410366E+01  0.67066014299E+00  0.92926862157E+01  0.00000000000E+00 0.  1.
</event>
<event>
 7    1  0.4878192E-011  0.5052886E+02  0.7816164E-02  0.1300439E+00
        -11   -1    0    0    0    0  0.00000000000E+00  0.00000000000E+00  0.45593999997E+02  0.45594000000E+02  0.51100000000E-03 0. -1.
         11   -1    0    0    0    0 -0.00000000000E+00 -0.00000000000E+00 -0.45593999997E+02  0.45594000000E+02  0.51100000000E-03 0.  1.
    9900012    2    1    2    0    0  0.13707755647E+02  0.17732912867E+02  0.33923545982E+02  0.50528859138E+02  0.29999997836E+02 0.  0.
        -12    1    1    2    0    0 -0.13707755647E+02 -0.17732912867E+02 -0.33923545982E+02  0.40659140862E+02  0.00000000000E+00 0.  1.
         11    1    3    3    0    0  0.14489705790E+01  0.17443644883E+01  0.51870688111E+01  0.56610958585E+01  0.51100000000E-03 0. -1.
        -11    1    3    3    0    0 -0.75875926293E+01  0.79265023086E+01  0.17559087627E+02  0.20705616612E+02  0.51100000000E-03 0.  1.
        -12    1    3    3    0    0  0.19846377697E+02  0.80620460703E+01  0.11177389544E+02  0.24162146667E+02  0.00000000000E+00 0.  1.
</event>
<event>
 7    1  0.4878192E-011  0.5052885E+02  0.7816164E-02  0.1300439E+00
        -11   -1    0    0    0    0  0.00000000000E+00  0.00000000000E+00  0.45593999997E+02  0.45594000000E+02  0.51100000000E-03 0.  1.
         11   -1    0    0    0    0 -0.00000000000E+00 -0.00000000000E+00 -0.45593999997E+02  0.45594000000E+02  0.51100000000E-03 0. -1.
    9900012    2    1    2    0    0  0.36112552372E+02 -0.55403631639E+01 -0.17842494028E+02  0.50528847821E+02  0.29999963437E+02 0.  0.
        -12    1    1    2    0    0 -0.36112552372E+02  0.55403631639E+01  0.17842494028E+02  0.40659152179E+02  0.00000000000E+00 0.  1.
         11    1    3    3    0    0  0.27328336165E+02 -0.10721196596E+02 -0.14024202942E+02  0.32533986574E+02  0.51100000000E-03 0. -1.
        -11    1    3    3    0    0  0.39161211569E+00 -0.13547816209E+01  0.43566472645E+01  0.45792105147E+01  0.51100000000E-03 0.  1.
        -12    1    3    3    0    0  0.83926040910E+01  0.65356150526E+01 -0.81749383498E+01  0.13415650732E+02  0.00000000000E+00 0.  1.
</event>
<event>
 7    1  0.4878192E-011  0.5052889E+02  0.7816164E-02  0.1300439E+00
        -11   -1    0    0    0    0  0.00000000000E+00  0.00000000000E+00  0.45593999997E+02  0.45594000000E+02  0.51100000000E-03 0.  1.
         11   -1    0    0    0    0 -0.00000000000E+00 -0.00000000000E+00 -0.45593999997E+02  0.45594000000E+02  0.51100000000E-03 0. -1.
    9900012    2    1    2    0    0 -0.18311463226E+02  0.31676980023E+02 -0.17731960072E+02  0.50528890851E+02  0.30000094229E+02 0.  0.
        -12    1    1    2    0    0  0.18311463226E+02 -0.31676980023E+02  0.17731960072E+02  0.40659109149E+02  0.00000000000E+00 0.  1.
         11    1    3    3    0    0 -0.10962735952E+02  0.33805590547E+02 -0.14915717336E+02  0.38541901298E+02  0.51100000000E-03 0. -1.
        -11    1    3    3    0    0 -0.30068485941E+00 -0.40596832553E+01  0.21265348833E+00  0.40763539205E+01  0.51100000000E-03 0.  1.
         12    1    3    3    0    0 -0.70480424139E+01  0.19310727313E+01 -0.30288962241E+01  0.79106356317E+01  0.00000000000E+00 0. -1.
</event>
<event>
 7    1  0.4878192E-011  0.5052885E+02  0.7816164E-02  0.1300439E+00
        -11   -1    0    0    0    0  0.00000000000E+00  0.00000000000E+00  0.45593999997E+02  0.45594000000E+02  0.51100000000E-03 0.  1.
         11   -1    0    0    0    0 -0.00000000000E+00 -0.00000000000E+00 -0.45593999997E+02  0.45594000000E+02  0.51100000000E-03 0. -1.
    9900012    2    1    2    0    0  0.11862203427E+02  0.17774943481E+02 -0.34590546585E+02  0.50528850981E+02  0.29999973042E+02 0.  0.
        -12    1    1    2    0    0 -0.11862203427E+02 -0.17774943481E+02  0.34590546585E+02  0.40659149019E+02  0.00000000000E+00 0.  1.
         11    1    3    3    0    0  0.79117079420E+01 -0.18909728820E+01 -0.18035319081E+02  0.19784934561E+02  0.51100000000E-03 0. -1.
        -11    1    3    3    0    0 -0.20637240501E+01  0.19192227975E+02 -0.15178940795E+02  0.24556074921E+02  0.51100000000E-03 0.  1.
        -12    1    3    3    0    0  0.60142195355E+01  0.47368838831E+00 -0.13762867090E+01  0.61878414989E+01  0.00000000000E+00 0.  1.
</event>
<event>
 7    1  0.4878192E-011  0.5052886E+02  0.7816164E-02  0.1300439E+00
        -11   -1    0    0    0    0  0.00000000000E+00  0.00000000000E+00  0.45593999997E+02  0.45594000000E+02  0.51100000000E-03 0.  1.
         11   -1    0    0    0    0 -0.00000000000E+00 -0.00000000000E+00 -0.45593999997E+02  0.45594000000E+02  0.51100000000E-03 0. -1.
    9900012    2    1    2    0    0 -0.10671934984E+02 -0.25238705092E+02 -0.30038031680E+02  0.50528858614E+02  0.29999996243E+02 0.  0.
        -12    1    1    2    0    0  0.10671934984E+02  0.25238705092E+02  0.30038031680E+02  0.40659141386E+02  0.00000000000E+00 0.  1.
         11    1    3    3    0    0 -0.28718950791E+01 -0.13940038350E+02 -0.93717284786E+01  0.17041177937E+02  0.51100000000E-03 0. -1.
        -11    1    3    3    0    0 -0.99061043929E+01  0.41590749711E+01 -0.87737616022E+01  0.13871110329E+02  0.51100000000E-03 0.  1.
        -12    1    3    3    0    0  0.21060644883E+01 -0.15457741714E+02 -0.11892541599E+02  0.19616570348E+02  0.00000000000E+00 0.  1.
</event>
<event>
 7    1  0.4878192E-011  0.5052888E+02  0.7816164E-02  0.1300439E+00
        -11   -1    0    0    0    0  0.00000000000E+00  0.00000000000E+00  0.45593999997E+02  0.45594000000E+02  0.51100000000E-03 0.  1.
         11   -1    0    0    0    0 -0.00000000000E+00 -0.00000000000E+00 -0.45593999997E+02  0.45594000000E+02  0.51100000000E-03 0. -1.
    9900012    2    1    2    0    0  0.18024529616E+02 -0.10618304261E+02 -0.34864475378E+02  0.50528884212E+02  0.30000074050E+02 0.  0.
        -12    1    1    2    0    0 -0.18024529616E+02  0.10618304261E+02  0.34864475378E+02  0.40659115788E+02  0.00000000000E+00 0.  1.
         11    1    3    3    0    0  0.87309518713E+01  0.50208035664E+01 -0.21891678923E+02  0.24097377354E+02  0.51100000000E-03 0. -1.
        -11    1    3    3    0    0 -0.23378051828E+01 -0.80930052107E+01 -0.82328325021E+01  0.11778862325E+02  0.51100000000E-03 0.  1.
         12    1    3    3    0    0  0.11631382928E+02 -0.75461026167E+01 -0.47399639538E+01  0.14652644532E+02  0.00000000000E+00 0. -1.
</event>
<event>
 7    1  0.4878192E-011  0.5052887E+02  0.7816164E-02  0.1300439E+00
        -11   -1    0    0    0    0  0.00000000000E+00  0.00000000000E+00  0.45593999997E+02  0.45594000000E+02  0.51100000000E-03 0. -1.
         11   -1    0    0    0    0 -0.00000000000E+00 -0.00000000000E+00 -0.45593999997E+02  0.45594000000E+02  0.51100000000E-03 0.  1.
    9900012    2    1    2    0    0  0.17627507267E+02  0.86142136731E+01  0.35612238307E+02  0.50528865640E+02  0.30000017598E+02 0.  0.
        -12    1    1    2    0    0 -0.17627507267E+02 -0.86142136731E+01 -0.35612238307E+02  0.40659134360E+02  0.00000000000E+00 0.  1.
         11    1    3    3    0    0  0.52431059592E+01  0.16317349677E+02  0.89508067476E+01  0.19335537290E+02  0.51100000000E-03 0.  1.
        -11    1    3    3    0    0  0.75003064120E+01 -0.50797928803E+01  0.22518772477E+02  0.24272494847E+02  0.51100000000E-03 0. -1.
        -12    1    3    3    0    0  0.48840948959E+01 -0.26233431238E+01  0.41426590833E+01  0.69208335031E+01  0.00000000000E+00 0.  1.
</event>
<event>
 7    1  0.4878192E-011  0.5052884E+02  0.7816164E-02  0.1300439E+00
        -11   -1    0    0    0    0  0.00000000000E+00  0.00000000000E+00  0.45593999997E+02  0.45594000000E+02  0.51100000000E-03 0. -1.
         11   -1    0    0    0    0 -0.00000000000E+00 -0.00000000000E+00 -0.45593999997E+02  0.45594000000E+02  0.51100000000E-03 0.  1.
    9900012    2    1    2    0    0  0.32912286083E+02  0.21433094461E+02 -0.10515282319E+02  0.50528840200E+02  0.29999940272E+02 0.  0.
        -12    1    1    2    0    0 -0.32912286083E+02 -0.21433094461E+02  0.10515282319E+02  0.40659159800E+02  0.00000000000E+00 0.  1.
         11    1    3    3    0    0  0.87998542531E+01  0.49686917394E+01  0.54684459479E+01  0.11490397461E+02  0.51100000000E-03 0. -1.
        -11    1    3    3    0    0  0.12533538085E+02  0.65910996605E+01 -0.18827042011E+02  0.23558219008E+02  0.51100000000E-03 0.  1.
        -12    1    3    3    0    0  0.11578893745E+02  0.98733030613E+01  0.28433137446E+01  0.15480223730E+02  0.00000000000E+00 0.  1.
</event>
<event>
 7    1  0.4878192E-011  0.5052887E+02  0.7816164E-02  0.1300439E+00
        -11   -1    0    0    0    0  0.00000000000E+00  0.00000000000E+00  0.45593999997E+02  0.45594000000E+02  0.51100000000E-03 0.  1.
         11   -1    0    0    0    0 -0.00000000000E+00 -0.00000000000E+00 -0.45593999997E+02  0.45594000000E+02  0.51100000000E-03 0. -1.
    9900012    2    1    2    0    0  0.19111677975E+02  0.35772302645E+02 -0.28725096007E+01  0.50528865935E+02  0.30000018496E+02 0.  0.
        -12    1    1    2    0    0 -0.19111677975E+02 -0.35772302645E+02  0.28725096007E+01  0.40659134065E+02  0.00000000000E+00 0.  1.
         11    1    3    3    0    0  0.14145839563E+02  0.14344743667E+02 -0.69864276940E+01  0.21323382002E+02  0.51100000000E-03 0. -1.
        -11    1    3    3    0    0  0.89948678230E+00  0.22414887828E+02  0.76763248397E+01  0.23709960695E+02  0.51100000000E-03 0.  1.
         12    1    3    3    0    0  0.40663516291E+01 -0.98732885106E+00 -0.35624067465E+01  0.54955232380E+01  0.00000000000E+00 0. -1.
</event>
<event>
 7    1  0.4878192E-011  0.5052886E+02  0.7816164E-02  0.1300439E+00
        -11   -1    0    0    0    0  0.00000000000E+00  0.00000000000E+00  0.45593999997E+02  0.45594000000E+02  0.51100000000E-03 0. -1.
         11   -1    0    0    0    0 -0.00000000000E+00 -0.00000000000E+00 -0.45593999997E+02  0.45594000000E+02  0.51100000000E-03 0.  1.
    9900012    2    1    2    0    0  0.32164208331E+02  0.19518044490E+02  0.15416721904E+02  0.50528859914E+02  0.30000000196E+02 0.  0.
        -12    1    1    2    0    0 -0.32164208331E+02 -0.19518044490E+02 -0.15416721904E+02  0.40659140086E+02  0.00000000000E+00 0.  1.
         11    1    3    3    0    0  0.50407773489E+01  0.33269819896E+01  0.62752105693E+01  0.87095644776E+01  0.51100000000E-03 0. -1.
        -11    1    3    3    0    0  0.31091333053E+02  0.11999055228E+02  0.31105138315E+01  0.33471235621E+02  0.51100000000E-03 0.  1.
        -12    1    3    3    0    0 -0.39679020716E+01  0.41920072721E+01  0.60309975027E+01  0.83480598163E+01  0.00000000000E+00 0.  1.
</event>
<event>
 7    1  0.4878192E-011  0.5052887E+02  0.7816164E-02  0.1300439E+00
        -11   -1    0    0    0    0  0.00000000000E+00  0.00000000000E+00  0.45593999997E+02  0.45594000000E+02  0.51100000000E-03 0.  1.
         11   -1    0    0    0    0 -0.00000000000E+00 -0.00000000000E+00 -0.45593999997E+02  0.45594000000E+02  0.51100000000E-03 0. -1.
    9900012    2    1    2    0    0 -0.25048939339E+02  0.57269843576E+01 -0.31510589066E+02  0.50528868983E+02  0.30000027760E+02 0.  0.
        -12    1    1    2    0    0  0.25048939339E+02 -0.57269843576E+01  0.31510589066E+02  0.40659131017E+02  0.00000000000E+00 0.  1.
         11    1    3    3    0    0 -0.25214275444E+01  0.12987967662E+02 -0.45008310587E+01  0.13975062838E+02  0.51100000000E-03 0. -1.
        -11    1    3    3    0    0 -0.11610034649E+02 -0.33393559413E+01 -0.18781997966E+02  0.22331763265E+02  0.51100000000E-03 0.  1.
         12    1    3    3    0    0 -0.10917477145E+02 -0.39216273629E+01 -0.82277600407E+01  0.14222042879E+02  0.00000000000E+00 0. -1.
</event>
<event>
 7    1  0.4878192E-011  0.5052885E+02  0.7816164E-02  0.1300439E+00
        -11   -1    0    0    0    0  0.00000000000E+00  0.00000000000E+00  0.45593999997E+02  0.45594000000E+02  0.51100000000E-03 0.  1.
         11   -1    0    0    0    0 -0.00000000000E+00 -0.00000000000E+00 -0.45593999997E+02  0.45594000000E+02  0.51100000000E-03 0. -1.
    9900012    2    1    2    0    0  0.31099695439E+02  0.24970907166E+02  0.79012201063E+01  0.50528849243E+02  0.29999967759E+02 0.  0.
        -12    1    1    2    0    0 -0.31099695439E+02 -0.24970907166E+02 -0.79012201063E+01  0.40659150757E+02  0.00000000000E+00 0.  1.
         11    1    3    3    0    0  0.25926164508E+02  0.14401815576E+02 -0.43920765928E+01  0.29981137988E+02  0.51100000000E-03 0. -1.
        -11    1    3    3    0    0 -0.36301125028E+01  0.44288505226E+01  0.45118239099E+01  0.72903353139E+01  0.51100000000E-03 0.  1.
         12    1    3    3    0    0  0.88036434339E+01  0.61402410677E+01  0.77814727891E+01  0.13257375941E+02  0.00000000000E+00 0. -1.
</event>
<event>
 7    1  0.6423291E-011  0.5052886E+02  0.7816164E-02  0.1300439E+00
        -11   -1    0    0    0    0  0.00000000000E+00  0.00000000000E+00  0.45593999997E+02  0.45594000000E+02  0.51100000000E-03 0. -1.
         11   -1    0    0    0    0 -0.00000000000E+00 -0.00000000000E+00 -0.45593999997E+02  0.45594000000E+02  0.51100000000E-03 0.  1.
    9900012    2    1    2    0    0  0.26760621097E+02 -0.11998664730E+02  0.28161437812E+02  0.50528863555E+02  0.30000011262E+02 0.  0.
        -12    1    1    2    0    0 -0.26760621097E+02  0.11998664730E+02 -0.28161437812E+02  0.40659136445E+02  0.00000000000E+00 0.  1.
         11    1    3    3    0    0  0.21131523043E+02 -0.13227305896E+02  0.26382912858E+02  0.36298222801E+02  0.51100000000E-03 0. -1.
        -11    1    3    3    0    0  0.82476329612E+01  0.63191258926E+00 -0.29587470011E+01  0.87850410962E+01  0.51100000000E-03 0.  1.
        -12    1    3    3    0    0 -0.26185349075E+01  0.59672857655E+00  0.47372719555E+01  0.54455996581E+01  0.00000000000E+00 0.  1.
</event>
<event>
 7    1  0.4878192E-011  0.5052885E+02  0.7816164E-02  0.1300439E+00
        -11   -1    0    0    0    0  0.00000000000E+00  0.00000000000E+00  0.45593999997E+02  0.45594000000E+02  0.51100000000E-03 0.  1.
         11   -1    0    0    0    0 -0.00000000000E+00 -0.00000000000E+00 -0.45593999997E+02  0.45594000000E+02  0.51100000000E-03 0. -1.
    9900012    2    1    2    0    0  0.11074729815E+02 -0.64501751621E+01 -0.38586419551E+02  0.50528853749E+02  0.29999981456E+02 0.  0.
        -12    1    1    2    0    0 -0.11074729815E+02  0.64501751621E+01  0.38586419551E+02  0.40659146251E+02  0.00000000000E+00 0.  1.
         11    1    3    3    0    0  0.12159124502E+02 -0.81099454907E+01 -0.14294480872E+02  0.20443769422E+02  0.51100000000E-03 0. -1.
        -11    1    3    3    0    0  0.19612388557E+01  0.26064036783E+01 -0.26177566949E+02  0.26380007763E+02  0.51100000000E-03 0.  1.
        -12    1    3    3    0    0 -0.30456335420E+01 -0.94663334977E+00  0.18856282703E+01  0.37050765640E+01  0.00000000000E+00 0.  1.
</event>
<event>
 7    1  0.4878192E-011  0.5052885E+02  0.7816164E-02  0.1300439E+00
        -11   -1    0    0    0    0  0.00000000000E+00  0.00000000000E+00  0.45593999997E+02  0.45594000000E+02  0.51100000000E-03 0. -1.
         11   -1    0    0    0    0 -0.00000000000E+00 -0.00000000000E+00 -0.45593999997E+02  0.45594000000E+02  0.51100000000E-03 0.  1.
    9900012    2    1    2    0    0  0.14177593000E+02  0.34532504019E+02  0.16114239425E+02  0.50528847410E+02  0.29999962189E+02 0.  0.
        -12    1    1    2    0    0 -0.14177593000E+02 -0.34532504019E+02 -0.16114239425E+02  0.40659152590E+02  0.00000000000E+00 0.  1.
         11    1    3    3    0    0  0.71818455435E+00  0.49026708548E+01 -0.18021608566E+01  0.52725472571E+01  0.51100000000E-03 0.  1.
        -11    1    3    3    0    0  0.15582426474E+01  0.21280416536E+02  0.21491997087E+02  0.30285147963E+02  0.51100000000E-03 0. -1.
        -12    1    3    3    0    0  0.11901165798E+02  0.83494166277E+01 -0.35755968059E+01  0.14971152190E+02  0.00000000000E+00 0.  1.
</event>
<event>
 7    1  0.4878192E-011  0.5052885E+02  0.7816164E-02  0.1300439E+00
        -11   -1    0    0    0    0  0.00000000000E+00  0.00000000000E+00  0.45593999997E+02  0.45594000000E+02  0.51100000000E-03 0. -1.
         11   -1    0    0    0    0 -0.00000000000E+00 -0.00000000000E+00 -0.45593999997E+02  0.45594000000E+02  0.51100000000E-03 0.  1.
    9900012    2    1    2    0    0 -0.39950198662E+02 -0.74218634393E+01  0.14365464784E+01  0.50528854708E+02  0.29999984372E+02 0.  0.
        -12    1    1    2    0    0  0.39950198662E+02  0.74218634393E+01 -0.14365464784E+01  0.40659145292E+02  0.00000000000E+00 0.  1.
         11    1    3    3    0    0 -0.13419296340E+02  0.90658752924E+01 -0.29589551890E+01  0.16462776957E+02  0.51100000000E-03 0. -1.
        -11    1    3    3    0    0 -0.56629765702E+01 -0.79592294799E+01 -0.31975256138E+01  0.10278268719E+02  0.51100000000E-03 0.  1.
         12    1    3    3    0    0 -0.20867925752E+02 -0.85285092517E+01  0.75930272812E+01  0.23787809032E+02  0.00000000000E+00 0. -1.
</event>
<event>
 7    1  0.4878192E-011  0.5052886E+02  0.7816164E-02  0.1300439E+00
        -11   -1    0    0    0    0  0.00000000000E+00  0.00000000000E+00  0.45593999997E+02  0.45594000000E+02  0.51100000000E-03 0.  1.
         11   -1    0    0    0    0 -0.00000000000E+00 -0.00000000000E+00 -0.45593999997E+02  0.45594000000E+02  0.51100000000E-03 0. -1.
    9900012    2    1    2    0    0 -0.21062476131E+02 -0.11152732950E+01 -0.34760520408E+02  0.50528861860E+02  0.30000006110E+02 0.  0.
        -12    1    1    2    0    0  0.21062476131E+02  0.11152732950E+01  0.34760520408E+02  0.40659138140E+02  0.00000000000E+00 0.  1.
         11    1    3    3    0    0  0.11756782562E+01  0.56744842269E+01 -0.16008864771E+02  0.17025443962E+02  0.51100000000E-03 0. -1.
        -11    1    3    3    0    0 -0.97103513065E+01 -0.97408070085E+01 -0.14409439543E+02  0.19919994776E+02  0.51100000000E-03 0.  1.
        -12    1    3    3    0    0 -0.12527803080E+02  0.29510494865E+01 -0.43422160935E+01  0.13583423121E+02  0.00000000000E+00 0.  1.
</event>
<event>
 7    1  0.4878192E-011  0.5052886E+02  0.7816164E-02  0.1300439E+00
        -11   -1    0    0    0    0  0.00000000000E+00  0.00000000000E+00  0.45593999997E+02  0.45594000000E+02  0.51100000000E-03 0. -1.
         11   -1    0    0    0    0 -0.00000000000E+00 -0.00000000000E+00 -0.45593999997E+02  0.45594000000E+02  0.51100000000E-03 0.  1.
    9900012    2    1    2    0    0  0.34447743456E+02 -0.71317573926E+01  0.20387665034E+02  0.50528857384E+02  0.29999992505E+02 0.  0.
        -12    1    1    2    0    0 -0.34447743456E+02  0.71317573926E+01 -0.20387665034E+02  0.40659142616E+02  0.00000000000E+00 0.  1.
         11    1    3    3    0    0  0.28456775408E+02 -0.71384732198E+01  0.15386843792E+02  0.33128550054E+02  0.51100000000E-03 0. -1.
        -11    1    3    3    0    0 -0.77595274268E+00 -0.27730184038E+01 -0.45408676781E+01  0.53769148457E+01  0.51100000000E-03 0.  1.
         12    1    3    3    0    0  0.67669207906E+01  0.27797342310E+01  0.95416889205E+01  0.12023392485E+02  0.00000000000E+00 0. -1.
</event>
<event>
 7    1  0.4878192E-011  0.5052886E+02  0.7816164E-02  0.1300439E+00
        -11   -1    0    0    0    0  0.00000000000E+00  0.00000000000E+00  0.45593999997E+02  0.45594000000E+02  0.51100000000E-03 0.  1.
         11   -1    0    0    0    0 -0.00000000000E+00 -0.00000000000E+00 -0.45593999997E+02  0.45594000000E+02  0.51100000000E-03 0. -1.
    9900012    2    1    2    0    0  0.15705152821E+02 -0.37346596491E+02  0.34272205601E+01  0.50528856682E+02  0.29999990372E+02 0.  0.
        -12    1    1    2    0    0 -0.15705152821E+02  0.37346596491E+02 -0.34272205601E+01  0.40659143318E+02  0.00000000000E+00 0.  1.
         11    1    3    3    0    0  0.60497678851E+01 -0.33018713363E+02  0.42219587129E+01  0.33832825174E+02  0.51100000000E-03 0. -1.
        -11    1    3    3    0    0  0.62141829654E+01  0.34688743369E+01  0.25227210571E+01  0.75507139321E+01  0.51100000000E-03 0.  1.
        -12    1    3    3    0    0  0.34412019703E+01 -0.77967574642E+01 -0.33174592100E+01  0.91453175760E+01  0.00000000000E+00 0.  1.
</event>
<event>
 7    1  0.4878192E-011  0.5052884E+02  0.7816164E-02  0.1300439E+00
        -11   -1    0    0    0    0  0.00000000000E+00  0.00000000000E+00  0.45593999997E+02  0.45594000000E+02  0.51100000000E-03 0. -1.
         11   -1    0    0    0    0 -0.00000000000E+00 -0.00000000000E+00 -0.45593999997E+02  0.45594000000E+02  0.51100000000E-03 0.  1.
    9900012    2    1    2    0    0  0.32603241101E+02 -0.23748357381E+02  0.51197154381E+01  0.50528839965E+02  0.29999939557E+02 0.  0.
        -12    1    1    2    0    0 -0.32603241101E+02  0.23748357381E+02 -0.51197154381E+01  0.40659160035E+02  0.00000000000E+00 0.  1.
         11    1    3    3    0    0  0.47955275108E+01 -0.12664557095E+02  0.12910537530E+02  0.18710159542E+02  0.51100000000E-03 0. -1.
        -11    1    3    3    0    0  0.11669708938E+02 -0.55823260477E+01 -0.70959512571E+01  0.14754558459E+02  0.51100000000E-03 0.  1.
        -12    1    3    3    0    0  0.16138004652E+02 -0.55014742391E+01 -0.69487083429E+00  0.17064121965E+02  0.00000000000E+00 0.  1.
</event>
<event>
 7    1  0.4878192E-011  0.5052882E+02  0.7816164E-02  0.1300439E+00
        -11   -1    0    0    0    0  0.00000000000E+00  0.00000000000E+00  0.45593999997E+02  0.45594000000E+02  0.51100000000E-03 0.  1.
         11   -1    0    0    0    0 -0.00000000000E+00 -0.00000000000E+00 -0.45593999997E+02  0.45594000000E+02  0.51100000000E-03 0. -1.
    9900012    2    1    2    0    0 -0.17323553532E+02  0.23852437094E+02 -0.28002227792E+02  0.50528818705E+02  0.29999874934E+02 0.  0.
        -12    1    1    2    0    0  0.17323553532E+02 -0.23852437094E+02  0.28002227792E+02  0.40659181295E+02  0.00000000000E+00 0.  1.
         11    1    3    3    0    0 -0.69735628032E+01  0.29109357065E+02 -0.22458427890E+02  0.37421467509E+02  0.51100000000E-03 0. -1.
        -11    1    3    3    0    0 -0.41281167346E+01 -0.29853427290E+01 -0.13592966736E+01  0.52726944433E+01  0.51100000000E-03 0.  1.
         12    1    3    3    0    0 -0.62218739943E+01 -0.22715772422E+01 -0.41845032278E+01  0.78346567526E+01  0.00000000000E+00 0. -1.
</event>
<event>
 7    1  0.4878192E-011  0.5052885E+02  0.7816164E-02  0.1300439E+00
        -11   -1    0    0    0    0  0.00000000000E+00  0.00000000000E+00  0.45593999997E+02  0.45594000000E+02  0.51100000000E-03 0.  1.
         11   -1    0    0    0    0 -0.00000000000E+00 -0.00000000000E+00 -0.45593999997E+02  0.45594000000E+02  0.51100000000E-03 0. -1.
    9900012    2    1    2    0    0  0.69746027992E+01  0.13553006285E+02 -0.37693996035E+02  0.50528850960E+02  0.29999972979E+02 0.  0.
        -12    1    1    2    0    0 -0.69746027992E+01 -0.13553006285E+02  0.37693996035E+02  0.40659149040E+02  0.00000000000E+00 0.  1.
         11    1    3    3    0    0  0.12972582004E+02  0.11614111190E+02 -0.21172007989E+02  0.27412212335E+02  0.51100000000E-03 0. -1.
        -11    1    3    3    0    0 -0.67559918616E+01 -0.34820370646E+01 -0.15880337757E+02  0.17605485955E+02  0.51100000000E-03 0.  1.
        -12    1    3    3    0    0  0.75801265679E+00  0.54209321592E+01 -0.64165028907E+00  0.55111526703E+01  0.00000000000E+00 0.  1.
</event>
<event>
 7    1  0.4878192E-011  0.5052889E+02  0.7816164E-02  0.1300439E+00
        -11   -1    0    0    0    0  0.00000000000E+00  0.00000000000E+00  0.45593999997E+02  0.45594000000E+02  0.51100000000E-03 0.  1.
         11   -1    0    0    0    0 -0.00000000000E+00 -0.00000000000E+00 -0.45593999997E+02  0.45594000000E+02  0.51100000000E-03 0. -1.
    9900012    2    1    2    0    0 -0.30749069130E+02  0.18856321768E+02 -0.18764261303E+02  0.50528885091E+02  0.30000076722E+02 0.  0.
        -12    1    1    2    0    0  0.30749069130E+02 -0.18856321768E+02  0.18764261303E+02  0.40659114909E+02  0.00000000000E+00 0.  1.
         11    1    3    3    0    0 -0.44985016387E+01  0.40681076155E+01  0.68764215089E+01  0.91690342782E+01  0.51100000000E-03 0. -1.
        -11    1    3    3    0    0 -0.28285655845E+01  0.44629155326E+01 -0.10143583258E+02  0.11437249665E+02  0.51100000000E-03 0.  1.
         12    1    3    3    0    0 -0.23422001907E+02  0.10325298620E+02 -0.15497099553E+02  0.29922601148E+02  0.00000000000E+00 0. -1.
</event>
<event>
 7    1  0.4878192E-011  0.5052886E+02  0.7816164E-02  0.1300439E+00
        -11   -1    0    0    0    0  0.00000000000E+00  0.00000000000E+00  0.45593999997E+02  0.45594000000E+02  0.51100000000E-03 0. -1.
         11   -1    0    0    0    0 -0.00000000000E+00 -0.00000000000E+00 -0.45593999997E+02  0.45594000000E+02  0.51100000000E-03 0.  1.
    9900012    2    1    2    0    0 -0.15986744340E+02 -0.36091835591E+02  0.97451995294E+01  0.50528861977E+02  0.30000006465E+02 0.  0.
        -12    1    1    2    0    0  0.15986744340E+02  0.36091835591E+02 -0.97451995294E+01  0.40659138023E+02  0.00000000000E+00 0.  1.
         11    1    3    3    0    0 -0.66973992703E+01 -0.92211351497E-01 -0.49508635033E+01  0.83291481923E+01  0.51100000000E-03 0. -1.
        -11    1    3    3    0    0 -0.18001057424E+01 -0.29731298236E+02  0.10748247070E+02  0.31665680015E+02  0.51100000000E-03 0.  1.
         12    1    3    3    0    0 -0.74892393271E+01 -0.62683260031E+01  0.39478159627E+01  0.10534033769E+02  0.00000000000E+00 0. -1.
</event>
<event>
 7    1  0.4878192E-011  0.5052887E+02  0.7816164E-02  0.1300439E+00
        -11   -1    0    0    0    0  0.00000000000E+00  0.00000000000E+00  0.45593999997E+02  0.45594000000E+02  0.51100000000E-03 0. -1.
         11   -1    0    0    0    0 -0.00000000000E+00 -0.00000000000E+00 -0.45593999997E+02  0.45594000000E+02  0.51100000000E-03 0.  1.
    9900012    2    1    2    0    0  0.13372671577E+02  0.15776806206E+02  0.35006125567E+02  0.50528870812E+02  0.30000033319E+02 0.  0.
        -12    1    1    2    0    0 -0.13372671577E+02 -0.15776806206E+02 -0.35006125567E+02  0.40659129188E+02  0.00000000000E+00 0.  1.
         11    1    3    3    0    0  0.93998019260E+01  0.92113722470E+01  0.25087784803E+02  0.28330241818E+02  0.51100000000E-03 0. -1.
        -11    1    3    3    0    0 -0.51134259098E+01 -0.30635847100E+01  0.56294132893E+00  0.59874517961E+01  0.51100000000E-03 0.  1.
         12    1    3    3    0    0  0.90862955602E+01  0.96290186686E+01  0.93553994354E+01  0.16211177197E+02  0.00000000000E+00 0. -1.
</event>
<event>
 7    1  0.4878192E-011  0.5052887E+02  0.7816164E-02  0.1300439E+00
        -11   -1    0    0    0    0  0.00000000000E+00  0.00000000000E+00  0.45593999997E+02  0.45594000000E+02  0.51100000000E-03 0.  1.
         11   -1    0    0    0    0 -0.00000000000E+00 -0.00000000000E+00 -0.45593999997E+02  0.45594000000E+02  0.51100000000E-03 0. -1.
    9900012    2    1    2    0    0 -0.12247573840E+02 -0.15037514400E+01 -0.38741461956E+02  0.50528865628E+02  0.30000017563E+02 0.  0.
        -12    1    1    2    0    0  0.12247573840E+02  0.15037514400E+01  0.38741461956E+02  0.40659134372E+02  0.00000000000E+00 0.  1.
         11    1    3    3    0    0 -0.41533147806E+01  0.50497862412E+01 -0.54508607167E+01  0.85124759948E+01  0.51100000000E-03 0. -1.
        -11    1    3    3    0    0  0.43308931486E+00 -0.13348720121E+02 -0.24908505762E+02  0.28263219116E+02  0.51100000000E-03 0.  1.
        -12    1    3    3    0    0 -0.85273483747E+01  0.67951824396E+01 -0.83820954774E+01  0.13753170518E+02  0.00000000000E+00 0.  1.
</event>
<event>
 7    1  0.4878192E-011  0.5052886E+02  0.7816164E-02  0.1300439E+00
        -11   -1    0    0    0    0  0.00000000000E+00  0.00000000000E+00  0.45593999997E+02  0.45594000000E+02  0.51100000000E-03 0.  1.
         11   -1    0    0    0    0 -0.00000000000E+00 -0.00000000000E+00 -0.45593999997E+02  0.45594000000E+02  0.51100000000E-03 0. -1.
    9900012    2    1    2    0    0  0.30894255085E+02 -0.12495300086E+02  0.23293303893E+02  0.50528861695E+02  0.30000005607E+02 0.  0.
        -12    1    1    2    0    0 -0.30894255085E+02  0.12495300086E+02 -0.23293303893E+02  0.40659138305E+02  0.00000000000E+00 0.  1.
         11    1    3    3    0    0  0.32497011813E+02 -0.10716429649E+02  0.16112931263E+02  0.37822271156E+02  0.51100000000E-03 0. -1.
        -11    1    3    3    0    0 -0.32712224791E+01 -0.53441468510E+01  0.29417272212E+01  0.69220344826E+01  0.51100000000E-03 0.  1.
         12    1    3    3    0    0  0.16684657505E+01  0.35652764140E+01  0.42386454085E+01  0.57845560562E+01  0.00000000000E+00 0. -1.
</event>
<event>
 7    1  0.4878192E-011  0.5052888E+02  0.7816164E-02  0.1300439E+00
        -11   -1    0    0    0    0  0.00000000000E+00  0.00000000000E+00  0.45593999997E+02  0.45594000000E+02  0.51100000000E-03 0. -1.
         11   -1    0    0    0    0 -0.00000000000E+00 -0.00000000000E+00 -0.45593999997E+02  0.45594000000E+02  0.51100000000E-03 0.  1.
    9900012    2    1    2    0    0  0.43375432898E+01  0.97866227490E+01  0.39224632483E+02  0.50528879743E+02  0.30000060466E+02 0.  0.
        -12    1    1    2    0    0 -0.43375432898E+01 -0.97866227490E+01 -0.39224632483E+02  0.40659120257E+02  0.00000000000E+00 0.  1.
         11    1    3    3    0    0  0.11026563202E+01  0.57269712935E+01  0.13278048827E+02  0.14502435384E+02  0.51100000000E-03 0. -1.
        -11    1    3    3    0    0 -0.77756882114E+01 -0.30728617688E+01  0.18092866905E+01  0.85543746235E+01  0.51100000000E-03 0.  1.
        -12    1    3    3    0    0  0.11010575181E+02  0.71325132243E+01  0.24137296966E+02  0.27472069735E+02  0.00000000000E+00 0.  1.
</event>
<event>
 7    1  0.4878192E-011  0.5052890E+02  0.7816164E-02  0.1300439E+00
        -11   -1    0    0    0    0  0.00000000000E+00  0.00000000000E+00  0.45593999997E+02  0.45594000000E+02  0.51100000000E-03 0.  1.
         11   -1    0    0    0    0 -0.00000000000E+00 -0.00000000000E+00 -0.45593999997E+02  0.45594000000E+02  0.51100000000E-03 0. -1.
    9900012    2    1    2    0    0  0.40359672235E+02 -0.35450935251E+01  0.34192875381E+01  0.50528900671E+02  0.30000124078E+02 0.  0.
        -12    1    1    2    0    0 -0.40359672235E+02  0.35450935251E+01 -0.34192875381E+01  0.40659099329E+02  0.00000000000E+00 0.  1.
         11    1    3    3    0    0  0.64991480936E+01 -0.46221520792E+01  0.79694158250E+01  0.11274520151E+02  0.51100000000E-03 0. -1.
        -11    1    3    3    0    0  0.13330790673E+02 -0.65808880905E+01 -0.82963901031E+01  0.17024927519E+02  0.51100000000E-03 0.  1.
        -12    1    3    3    0    0  0.20529733468E+02  0.76579466446E+01  0.37462618163E+01  0.22229453000E+02  0.00000000000E+00 0.  1.
</event>
<event>
 7    1  0.4878192E-011  0.5052886E+02  0.7816164E-02  0.1300439E+00
        -11   -1    0    0    0    0  0.00000000000E+00  0.00000000000E+00  0.45593999997E+02  0.45594000000E+02  0.51100000000E-03 0.  1.
         11   -1    0    0    0    0 -0.00000000000E+00 -0.00000000000E+00 -0.45593999997E+02  0.45594000000E+02  0.51100000000E-03 0. -1.
    9900012    2    1    2    0    0 -0.39822786613E+01  0.44081703600E+01 -0.40222821828E+02  0.50528857054E+02  0.29999991502E+02 0.  0.
        -12    1    1    2    0    0  0.39822786613E+01 -0.44081703600E+01  0.40222821828E+02  0.40659142946E+02  0.00000000000E+00 0.  1.
         11    1    3    3    0    0  0.76482579489E+01  0.60757146543E+01 -0.31303787411E+02  0.32792335457E+02  0.51100000000E-03 0. -1.
        -11    1    3    3    0    0 -0.97936001391E+01  0.25305469445E+01 -0.36500677832E+01  0.10753662939E+02  0.51100000000E-03 0.  1.
         12    1    3    3    0    0 -0.18369364711E+01 -0.41980912388E+01 -0.52689666344E+01  0.69828586583E+01  0.00000000000E+00 0. -1.
</event>
<event>
 7    1  0.4878192E-011  0.5052886E+02  0.7816164E-02  0.1300439E+00
        -11   -1    0    0    0    0  0.00000000000E+00  0.00000000000E+00  0.45593999997E+02  0.45594000000E+02  0.51100000000E-03 0.  1.
         11   -1    0    0    0    0 -0.00000000000E+00 -0.00000000000E+00 -0.45593999997E+02  0.45594000000E+02  0.51100000000E-03 0. -1.
    9900012    2    1    2    0    0 -0.18395510052E+02 -0.51896528990E+01 -0.35886461337E+02  0.50528863332E+02  0.30000010584E+02 0.  0.
        -12    1    1    2    0    0  0.18395510052E+02  0.51896528990E+01  0.35886461337E+02  0.40659136668E+02  0.00000000000E+00 0.  1.
         11    1    3    3    0    0 -0.35619606494E+01 -0.88269871641E+01 -0.17965913266E+02  0.20331682316E+02  0.51100000000E-03 0. -1.
        -11    1    3    3    0    0 -0.16425820312E+02  0.60016899250E+01 -0.68767241210E+01  0.18791412660E+02  0.51100000000E-03 0.  1.
        -12    1    3    3    0    0  0.15922709091E+01 -0.23643556600E+01 -0.11043823950E+02  0.11405768355E+02  0.00000000000E+00 0.  1.
</event>
<event>
 7    1  0.4878192E-011  0.5052886E+02  0.7816164E-02  0.1300439E+00
        -11   -1    0    0    0    0  0.00000000000E+00  0.00000000000E+00  0.45593999997E+02  0.45594000000E+02  0.51100000000E-03 0. -1.
         11   -1    0    0    0    0 -0.00000000000E+00 -0.00000000000E+00 -0.45593999997E+02  0.45594000000E+02  0.51100000000E-03 0.  1.
    9900012    2    1    2    0    0  0.11492611232E+02 -0.38972351317E+02  0.14970842428E+01  0.50528861527E+02  0.30000005097E+02 0.  0.
        -12    1    1    2    0    0 -0.11492611232E+02  0.38972351317E+02 -0.14970842428E+01  0.40659138473E+02  0.00000000000E+00 0.  1.
         11    1    3    3    0    0  0.16189362510E+02 -0.29136840897E+02  0.54879448981E+01  0.33781185524E+02  0.51100000000E-03 0. -1.
        -11    1    3    3    0    0 -0.13293782180E+01 -0.10546990264E+02 -0.65253649059E+01  0.12473437277E+02  0.51100000000E-03 0.  1.
         12    1    3    3    0    0 -0.33673730598E+01  0.71147984369E+00  0.25345042506E+01  0.42742387261E+01  0.00000000000E+00 0. -1.
</event>
<event>
 7    1  0.4878192E-011  0.5052889E+02  0.7816164E-02  0.1300439E+00
        -11   -1    0    0    0    0  0.00000000000E+00  0.00000000000E+00  0.45593999997E+02  0.45594000000E+02  0.51100000000E-03 0. -1.
         11   -1    0    0    0    0 -0.00000000000E+00 -0.00000000000E+00 -0.45593999997E+02  0.45594000000E+02  0.51100000000E-03 0.  1.
    9900012    2    1    2    0    0 -0.38193389622E+02 -0.93270778027E+01  0.10365041770E+02  0.50528886852E+02  0.30000082074E+02 0.  0.
        -12    1    1    2    0    0  0.38193389622E+02  0.93270778027E+01 -0.10365041770E+02  0.40659113148E+02  0.00000000000E+00 0.  1.
         11    1    3    3    0    0 -0.31177465117E+02 -0.66378334693E+01  0.83133795897E+01  0.32942486924E+02  0.51100000000E-03 0. -1.
        -11    1    3    3    0    0 -0.39025840830E+01  0.24432879751E+01 -0.59875728950E+01  0.75532011815E+01  0.51100000000E-03 0.  1.
        -12    1    3    3    0    0 -0.31133404218E+01 -0.51325323086E+01  0.80392350752E+01  0.10033198746E+02  0.00000000000E+00 0.  1.
</event>
<event>
 7    1  0.4878192E-011  0.5052886E+02  0.7816164E-02  0.1300439E+00
        -11   -1    0    0    0    0  0.00000000000E+00  0.00000000000E+00  0.45593999997E+02  0.45594000000E+02  0.51100000000E-03 0.  1.
         11   -1    0    0    0    0 -0.00000000000E+00 -0.00000000000E+00 -0.45593999997E+02  0.45594000000E+02  0.51100000000E-03 0. -1.
    9900012    2    1    2    0    0  0.40293729659E+02  0.39121841490E+01 -0.37783401326E+01  0.50528859714E+02  0.29999999586E+02 0.  0.
        -12    1    1    2    0    0 -0.40293729659E+02 -0.39121841490E+01  0.37783401326E+01  0.40659140286E+02  0.00000000000E+00 0.  1.
         11    1    3    3    0    0 -0.22334938822E+01  0.32438999823E+01 -0.52865209316E+01  0.65923202166E+01  0.51100000000E-03 0. -1.
        -11    1    3    3    0    0  0.88715434992E+01 -0.43416258175E+01  0.75361982859E-02  0.98769456743E+01  0.51100000000E-03 0.  1.
         12    1    3    3    0    0  0.33655680042E+02  0.50099099842E+01  0.15006446007E+01  0.34059593823E+02  0.00000000000E+00 0. -1.
</event>
<event>
 7    1  0.4878192E-011  0.5052886E+02  0.7816164E-02  0.1300439E+00
        -11   -1    0    0    0    0  0.00000000000E+00  0.00000000000E+00  0.45593999997E+02  0.45594000000E+02  0.51100000000E-03 0.  1.
         11   -1    0    0    0    0 -0.00000000000E+00 -0.00000000000E+00 -0.45593999997E+02  0.45594000000E+02  0.51100000000E-03 0. -1.
    9900012    2    1    2    0    0 -0.35484659792E+02 -0.10131558518E+02 -0.17069154257E+02  0.50528860982E+02  0.30000003442E+02 0.  0.
        -12    1    1    2    0    0  0.35484659792E+02  0.10131558518E+02  0.17069154257E+02  0.40659139018E+02  0.00000000000E+00 0.  1.
         11    1    3    3    0    0 -0.23806957348E+02  0.42107885969E+01 -0.72357896273E+01  0.25236057746E+02  0.51100000000E-03 0. -1.
        -11    1    3    3    0    0 -0.91156955325E+01 -0.17147014780E+02 -0.90006323820E+01  0.21403910962E+02  0.51100000000E-03 0.  1.
         12    1    3    3    0    0 -0.25620069122E+01  0.28046676650E+01 -0.83273224778E+00  0.38888922749E+01  0.00000000000E+00 0. -1.
</event>
<event>
 7    1  0.4878192E-011  0.5052885E+02  0.7816164E-02  0.1300439E+00
        -11   -1    0    0    0    0  0.00000000000E+00  0.00000000000E+00  0.45593999997E+02  0.45594000000E+02  0.51100000000E-03 0. -1.
         11   -1    0    0    0    0 -0.00000000000E+00 -0.00000000000E+00 -0.45593999997E+02  0.45594000000E+02  0.51100000000E-03 0.  1.
    9900012    2    1    2    0    0  0.29525063143E+02  0.22000558859E+02  0.17245649109E+02  0.50528851499E+02  0.29999974615E+02 0.  0.
        -12    1    1    2    0    0 -0.29525063143E+02 -0.22000558859E+02 -0.17245649109E+02  0.40659148501E+02  0.00000000000E+00 0.  1.
         11    1    3    3    0    0  0.26651827473E+02  0.27468357599E+02  0.15869217676E+02  0.41432627804E+02  0.51100000000E-03 0. -1.
        -11    1    3    3    0    0  0.12212559922E+01 -0.43649715582E+01  0.38337664565E+01  0.59365148367E+01  0.51100000000E-03 0.  1.
         12    1    3    3    0    0  0.16519796770E+01 -0.11028271822E+01 -0.24573350234E+01  0.31597088575E+01  0.00000000000E+00 0. -1.
</event>
<event>
 7    1  0.4878192E-011  0.5052886E+02  0.7816164E-02  0.1300439E+00
        -11   -1    0    0    0    0  0.00000000000E+00  0.00000000000E+00  0.45593999997E+02  0.45594000000E+02  0.51100000000E-03 0. -1.
         11   -1    0    0    0    0 -0.00000000000E+00 -0.00000000000E+00 -0.45593999997E+02  0.45594000000E+02  0.51100000000E-03 0.  1.
    9900012    2    1    2    0    0 -0.17252576299E+02  0.36624533000E+02 -0.37627211355E+01  0.50528857403E+02  0.29999992561E+02 0.  0.
        -12    1    1    2    0    0  0.17252576299E+02 -0.36624533000E+02  0.37627211355E+01  0.40659142597E+02  0.00000000000E+00 0.  1.
         11    1    3    3    0    0 -0.12292209831E+02  0.21671223889E+01 -0.21136159271E+01  0.12659471337E+02  0.51100000000E-03 0.  1.
        -11    1    3    3    0    0 -0.14279031374E+01  0.34056797624E+02 -0.36255800821E+00  0.34088646502E+02  0.51100000000E-03 0. -1.
         12    1    3    3    0    0 -0.35324633308E+01  0.40061298674E+00 -0.12865472002E+01  0.37807395635E+01  0.00000000000E+00 0. -1.
</event>
<event>
 7    1  0.4878192E-011  0.5052892E+02  0.7816164E-02  0.1300439E+00
        -11   -1    0    0    0    0  0.00000000000E+00  0.00000000000E+00  0.45593999997E+02  0.45594000000E+02  0.51100000000E-03 0.  1.
         11   -1    0    0    0    0 -0.00000000000E+00 -0.00000000000E+00 -0.45593999997E+02  0.45594000000E+02  0.51100000000E-03 0. -1.
    9900012    2    1    2    0    0 -0.30676924316E+01  0.33807136030E+02 -0.22379170927E+02  0.50528923833E+02  0.30000194481E+02 0.  0.
        -12    1    1    2    0    0  0.30676924316E+01 -0.33807136030E+02  0.22379170927E+02  0.40659076167E+02  0.00000000000E+00 0.  1.
         11    1    3    3    0    0 -0.51190596541E+01  0.29979139467E+02 -0.13505485571E+02  0.33276894622E+02  0.51100000000E-03 0. -1.
        -11    1    3    3    0    0 -0.48422347364E+01 -0.99430331643E+00  0.10960065189E+00  0.49444806494E+01  0.51100000000E-03 0.  1.
         12    1    3    3    0    0  0.68936019589E+01  0.48222998794E+01 -0.89832860072E+01  0.12307548561E+02  0.00000000000E+00 0. -1.
</event>
<event>
 7    1  0.4878192E-011  0.5052885E+02  0.7816164E-02  0.1300439E+00
        -11   -1    0    0    0    0  0.00000000000E+00  0.00000000000E+00  0.45593999997E+02  0.45594000000E+02  0.51100000000E-03 0. -1.
         11   -1    0    0    0    0 -0.00000000000E+00 -0.00000000000E+00 -0.45593999997E+02  0.45594000000E+02  0.51100000000E-03 0.  1.
    9900012    2    1    2    0    0 -0.29445410233E+01 -0.38995927322E+02  0.11127150189E+02  0.50528854155E+02  0.29999982689E+02 0.  0.
        -12    1    1    2    0    0  0.29445410233E+01  0.38995927322E+02 -0.11127150189E+02  0.40659145845E+02  0.00000000000E+00 0.  1.
         11    1    3    3    0    0 -0.10744645913E+02 -0.11859233089E+02  0.84169995028E+01  0.18081335851E+02  0.51100000000E-03 0. -1.
        -11    1    3    3    0    0  0.86416253161E+01 -0.16854732146E+02 -0.49748449159E+01  0.19583379842E+02  0.51100000000E-03 0.  1.
        -12    1    3    3    0    0 -0.84152042596E+00 -0.10281962086E+02  0.76849956019E+01  0.12864138462E+02  0.00000000000E+00 0.  1.
</event>
<event>
 7    1  0.4878192E-011  0.5052886E+02  0.7816164E-02  0.1300439E+00
        -11   -1    0    0    0    0  0.00000000000E+00  0.00000000000E+00  0.45593999997E+02  0.45594000000E+02  0.51100000000E-03 0.  1.
         11   -1    0    0    0    0 -0.00000000000E+00 -0.00000000000E+00 -0.45593999997E+02  0.45594000000E+02  0.51100000000E-03 0. -1.
    9900012    2    1    2    0    0  0.23843838785E+02 -0.18306915977E+02 -0.27376882046E+02  0.50528862144E+02  0.30000006974E+02 0.  0.
        -12    1    1    2    0    0 -0.23843838785E+02  0.18306915977E+02  0.27376882046E+02  0.40659137856E+02  0.00000000000E+00 0.  1.
         11    1    3    3    0    0  0.14001463285E+02 -0.81333612424E+01 -0.25285680614E+02  0.30025958496E+02  0.51100000000E-03 0. -1.
        -11    1    3    3    0    0  0.64593613818E+01 -0.10355223368E+02  0.45679330751E+01  0.13031500808E+02  0.51100000000E-03 0.  1.
        -12    1    3    3    0    0  0.33830141186E+01  0.18166863391E+00 -0.66591345074E+01  0.74714028406E+01  0.00000000000E+00 0.  1.
</event>
<event>
 7    1  0.4878192E-011  0.5052886E+02  0.7816164E-02  0.1300439E+00
        -11   -1    0    0    0    0  0.00000000000E+00  0.00000000000E+00  0.45593999997E+02  0.45594000000E+02  0.51100000000E-03 0.  1.
         11   -1    0    0    0    0 -0.00000000000E+00 -0.00000000000E+00 -0.45593999997E+02  0.45594000000E+02  0.51100000000E-03 0. -1.
    9900012    2    1    2    0    0  0.25460876914E+02  0.30702693716E+01 -0.31551271812E+02  0.50528861295E+02  0.30000004393E+02 0.  0.
        -12    1    1    2    0    0 -0.25460876914E+02 -0.30702693716E+01  0.31551271812E+02  0.40659138705E+02  0.00000000000E+00 0.  1.
         11    1    3    3    0    0 -0.20763383507E+01  0.68454257879E+00  0.71244687001E+00  0.22994260789E+01  0.51100000000E-03 0.  1.
        -11    1    3    3    0    0  0.23837558524E+02  0.65500565079E+01 -0.34315792702E+02  0.42293097140E+02  0.51100000000E-03 0. -1.
        -12    1    3    3    0    0  0.36996567410E+01 -0.41643297151E+01  0.20520740202E+01  0.59363380768E+01  0.00000000000E+00 0.  1.
</event>
<event>
 7    1  0.4878192E-011  0.5052885E+02  0.7816164E-02  0.1300439E+00
        -11   -1    0    0    0    0  0.00000000000E+00  0.00000000000E+00  0.45593999997E+02  0.45594000000E+02  0.51100000000E-03 0.  1.
         11   -1    0    0    0    0 -0.00000000000E+00 -0.00000000000E+00 -0.45593999997E+02  0.45594000000E+02  0.51100000000E-03 0. -1.
    9900012    2    1    2    0    0 -0.27735927371E+02  0.35786054335E+01 -0.29514031551E+02  0.50528854136E+02  0.29999982633E+02 0.  0.
        -12    1    1    2    0    0  0.27735927371E+02 -0.35786054335E+01  0.29514031551E+02  0.40659145864E+02  0.00000000000E+00 0.  1.
         11    1    3    3    0    0 -0.87241235001E+01  0.93989381936E+01 -0.29486619169E+01  0.13158456497E+02  0.51100000000E-03 0. -1.
        -11    1    3    3    0    0 -0.24703063573E+01 -0.66875732610E+01 -0.14352293833E+01  0.72722715340E+01  0.51100000000E-03 0.  1.
         12    1    3    3    0    0 -0.16541497514E+02  0.86724050095E+00 -0.25130140250E+02  0.30098126106E+02  0.00000000000E+00 0. -1.
</event>
<event>
 7    1  0.4878192E-011  0.5052884E+02  0.7816164E-02  0.1300439E+00
        -11   -1    0    0    0    0  0.00000000000E+00  0.00000000000E+00  0.45593999997E+02  0.45594000000E+02  0.51100000000E-03 0.  1.
         11   -1    0    0    0    0 -0.00000000000E+00 -0.00000000000E+00 -0.45593999997E+02  0.45594000000E+02  0.51100000000E-03 0. -1.
    9900012    2    1    2    0    0 -0.37354224511E+02  0.73940865768E+01 -0.14253300135E+02  0.50528841501E+02  0.29999944227E+02 0.  0.
        -12    1    1    2    0    0  0.37354224511E+02 -0.73940865768E+01  0.14253300135E+02  0.40659158499E+02  0.00000000000E+00 0.  1.
         11    1    3    3    0    0 -0.10761077545E+01  0.97509834933E+01 -0.11685443298E+01  0.98795335466E+01  0.51100000000E-03 0. -1.
        -11    1    3    3    0    0 -0.20748067198E+02 -0.52348583986E+01 -0.12631468349E+02  0.24848340544E+02  0.51100000000E-03 0.  1.
         12    1    3    3    0    0 -0.15530049558E+02  0.28779614822E+01 -0.45328745620E+00  0.15800967410E+02  0.00000000000E+00 0. -1.
</event>
<event>
 7    1  0.4878192E-011  0.5052883E+02  0.7816164E-02  0.1300439E+00
        -11   -1    0    0    0    0  0.00000000000E+00  0.00000000000E+00  0.45593999997E+02  0.45594000000E+02  0.51100000000E-03 0. -1.
         11   -1    0    0    0    0 -0.00000000000E+00 -0.00000000000E+00 -0.45593999997E+02  0.45594000000E+02  0.51100000000E-03 0.  1.
    9900012    2    1    2    0    0  0.10651809744E+02 -0.31824779965E+02 -0.22954097615E+02  0.50528827997E+02  0.29999903181E+02 0.  0.
        -12    1    1    2    0    0 -0.10651809744E+02  0.31824779965E+02  0.22954097615E+02  0.40659172003E+02  0.00000000000E+00 0.  1.
         11    1    3    3    0    0  0.44613601522E+01 -0.63815951567E+01  0.21568810062E+00  0.77894167156E+01  0.51100000000E-03 0. -1.
        -11    1    3    3    0    0  0.10458441326E+02 -0.12250954399E+02 -0.23937713467E+02  0.28852712263E+02  0.51100000000E-03 0.  1.
        -12    1    3    3    0    0 -0.42679917340E+01 -0.13192230409E+02  0.76792775149E+00  0.13886699019E+02  0.00000000000E+00 0.  1.
</event>
<event>
 7    1  0.4878192E-011  0.5052887E+02  0.7816164E-02  0.1300439E+00
        -11   -1    0    0    0    0  0.00000000000E+00  0.00000000000E+00  0.45593999997E+02  0.45594000000E+02  0.51100000000E-03 0. -1.
         11   -1    0    0    0    0 -0.00000000000E+00 -0.00000000000E+00 -0.45593999997E+02  0.45594000000E+02  0.51100000000E-03 0.  1.
    9900012    2    1    2    0    0  0.34279442471E+02 -0.14952504020E+02  0.15953272626E+02  0.50528874824E+02  0.30000045516E+02 0.  0.
        -12    1    1    2    0    0 -0.34279442471E+02  0.14952504020E+02 -0.15953272626E+02  0.40659125176E+02  0.00000000000E+00 0.  1.
         11    1    3    3    0    0  0.29989404905E+02 -0.16537127135E+02  0.94384354030E+01  0.35523584329E+02  0.51100000000E-03 0. -1.
        -11    1    3    3    0    0  0.64716044535E+01  0.32709780774E+01  0.88151743841E+01  0.11414388353E+02  0.51100000000E-03 0.  1.
         12    1    3    3    0    0 -0.21815668878E+01 -0.16863549620E+01 -0.23003371612E+01  0.35909021428E+01  0.00000000000E+00 0. -1.
</event>
<event>
 7    1  0.4878192E-011  0.5052886E+02  0.7816164E-02  0.1300439E+00
        -11   -1    0    0    0    0  0.00000000000E+00  0.00000000000E+00  0.45593999997E+02  0.45594000000E+02  0.51100000000E-03 0. -1.
         11   -1    0    0    0    0 -0.00000000000E+00 -0.00000000000E+00 -0.45593999997E+02  0.45594000000E+02  0.51100000000E-03 0.  1.
    9900012    2    1    2    0    0 -0.58641293610E+01  0.12310041212E+02  0.38304574834E+02  0.50528861039E+02  0.30000003614E+02 0.  0.
        -12    1    1    2    0    0  0.58641293610E+01 -0.12310041212E+02 -0.38304574834E+02  0.40659138961E+02  0.00000000000E+00 0.  1.
         11    1    3    3    0    0  0.19042708034E+01  0.91217220379E+01  0.11365652272E+02  0.14697282472E+02  0.51100000000E-03 0. -1.
        -11    1    3    3    0    0 -0.13798464138E+02  0.13445190611E+01  0.83081224871E+01  0.16162618711E+02  0.51100000000E-03 0.  1.
        -12    1    3    3    0    0  0.60300639736E+01  0.18438001134E+01  0.18630800075E+02  0.19668959856E+02  0.00000000000E+00 0.  1.
</event>
<event>
 7    1  0.4878192E-011  0.5052888E+02  0.7816164E-02  0.1300439E+00
        -11   -1    0    0    0    0  0.00000000000E+00  0.00000000000E+00  0.45593999997E+02  0.45594000000E+02  0.51100000000E-03 0. -1.
         11   -1    0    0    0    0 -0.00000000000E+00 -0.00000000000E+00 -0.45593999997E+02  0.45594000000E+02  0.51100000000E-03 0.  1.
    9900012    2    1    2    0    0  0.70795468907E+01 -0.29548148600E+01  0.39928853962E+02  0.50528876869E+02  0.30000051731E+02 0.  0.
        -12    1    1    2    0    0 -0.70795468907E+01  0.29548148600E+01 -0.39928853962E+02  0.40659123131E+02  0.00000000000E+00 0.  1.
         11    1    3    3    0    0  0.87145123754E+01 -0.52378810481E+01  0.19921792275E+02  0.22366401845E+02  0.51100000000E-03 0. -1.
        -11    1    3    3    0    0 -0.58210710935E+01  0.70573013878E+01  0.24179706974E+01  0.94623968479E+01  0.51100000000E-03 0.  1.
        -12    1    3    3    0    0  0.41861056087E+01 -0.47742351996E+01  0.17589090990E+02  0.18700078176E+02  0.00000000000E+00 0.  1.
</event>
<event>
 7    1  0.4878192E-011  0.5052886E+02  0.7816164E-02  0.1300439E+00
        -11   -1    0    0    0    0  0.00000000000E+00  0.00000000000E+00  0.45593999997E+02  0.45594000000E+02  0.51100000000E-03 0.  1.
         11   -1    0    0    0    0 -0.00000000000E+00 -0.00000000000E+00 -0.45593999997E+02  0.45594000000E+02  0.51100000000E-03 0. -1.
    9900012    2    1    2    0    0  0.10855656762E+01  0.24362363114E+02 -0.32534025728E+02  0.50528855648E+02  0.29999987228E+02 0.  0.
        -12    1    1    2    0    0 -0.10855656762E+01 -0.24362363114E+02  0.32534025728E+02  0.40659144352E+02  0.00000000000E+00 0.  1.
         11    1    3    3    0    0 -0.58021608365E+01  0.15600966614E+02 -0.34816486411E+02  0.38590710746E+02  0.51100000000E-03 0. -1.
        -11    1    3    3    0    0  0.40852859043E+01  0.36111379134E+01  0.26518318678E+01  0.60631749492E+01  0.51100000000E-03 0.  1.
         12    1    3    3    0    0  0.28024406085E+01  0.51502585865E+01 -0.36937118538E+00  0.58749699526E+01  0.00000000000E+00 0. -1.
</event>
<event>
 7    1  0.4878192E-011  0.5052886E+02  0.7816164E-02  0.1300439E+00
        -11   -1    0    0    0    0  0.00000000000E+00  0.00000000000E+00  0.45593999997E+02  0.45594000000E+02  0.51100000000E-03 0. -1.
         11   -1    0    0    0    0 -0.00000000000E+00 -0.00000000000E+00 -0.45593999997E+02  0.45594000000E+02  0.51100000000E-03 0.  1.
    9900012    2    1    2    0    0  0.42044327874E+01 -0.36434507561E+02  0.17550346812E+02  0.50528864870E+02  0.30000015259E+02 0.  0.
        -12    1    1    2    0    0 -0.42044327874E+01  0.36434507561E+02 -0.17550346812E+02  0.40659135130E+02  0.00000000000E+00 0.  1.
         11    1    3    3    0    0  0.10365171488E+02 -0.55423199970E+01  0.57585098730E+01  0.13088717552E+02  0.51100000000E-03 0. -1.
        -11    1    3    3    0    0 -0.11676528161E+02 -0.23736774251E+02  0.79444913524E+01  0.27620476188E+02  0.51100000000E-03 0.  1.
        -12    1    3    3    0    0  0.55157894598E+01 -0.71554133126E+01  0.38473455868E+01  0.98196711301E+01  0.00000000000E+00 0.  1.
</event>
<event>
 7    1  0.4878192E-011  0.5052886E+02  0.7816164E-02  0.1300439E+00
        -11   -1    0    0    0    0  0.00000000000E+00  0.00000000000E+00  0.45593999997E+02  0.45594000000E+02  0.51100000000E-03 0.  1.
         11   -1    0    0    0    0 -0.00000000000E+00 -0.00000000000E+00 -0.45593999997E+02  0.45594000000E+02  0.51100000000E-03 0. -1.
    9900012    2    1    2    0    0 -0.31022406856E+02  0.44802007167E+01  0.25897954803E+02  0.50528856028E+02  0.29999988382E+02 0.  0.
        -12    1    1    2    0    0  0.31022406856E+02 -0.44802007167E+01 -0.25897954803E+02  0.40659143972E+02  0.00000000000E+00 0.  1.
         11    1    3    3    0    0 -0.87249146842E+01  0.25850706129E+01  0.23985765637E+02  0.25653921333E+02  0.51100000000E-03 0. -1.
        -11    1    3    3    0    0 -0.13518159178E+02 -0.40837135821E+01  0.19321316375E+01  0.14253086582E+02  0.51100000000E-03 0.  1.
         12    1    3    3    0    0 -0.87793329936E+01  0.59788436858E+01 -0.19942471160E-01  0.10621848113E+02  0.00000000000E+00 0. -1.
</event>
<event>
 7    1  0.4878192E-011  0.5052884E+02  0.7816164E-02  0.1300439E+00
        -11   -1    0    0    0    0  0.00000000000E+00  0.00000000000E+00  0.45593999997E+02  0.45594000000E+02  0.51100000000E-03 0. -1.
         11   -1    0    0    0    0 -0.00000000000E+00 -0.00000000000E+00 -0.45593999997E+02  0.45594000000E+02  0.51100000000E-03 0.  1.
    9900012    2    1    2    0    0  0.13930835604E+02  0.36604486454E+02  0.10918364019E+02  0.50528840121E+02  0.29999940032E+02 0.  0.
        -12    1    1    2    0    0 -0.13930835604E+02 -0.36604486454E+02 -0.10918364019E+02  0.40659159879E+02  0.00000000000E+00 0.  1.
         11    1    3    3    0    0  0.13766959855E+02  0.11955838206E+02 -0.53201930742E+01  0.18994096595E+02  0.51100000000E-03 0. -1.
        -11    1    3    3    0    0  0.14728217321E+01  0.50873026883E+01  0.93664249819E+01  0.10760100822E+02  0.51100000000E-03 0.  1.
         12    1    3    3    0    0 -0.13089459835E+01  0.19561345560E+02  0.68721321111E+01  0.20774642704E+02  0.00000000000E+00 0. -1.
</event>
<event>
 7    1  0.4878192E-011  0.5052887E+02  0.7816164E-02  0.1300439E+00
        -11   -1    0    0    0    0  0.00000000000E+00  0.00000000000E+00  0.45593999997E+02  0.45594000000E+02  0.51100000000E-03 0.  1.
         11   -1    0    0    0    0 -0.00000000000E+00 -0.00000000000E+00 -0.45593999997E+02  0.45594000000E+02  0.51100000000E-03 0. -1.
    9900012    2    1    2    0    0 -0.12286664048E+02  0.34291977976E+02 -0.18062746080E+02  0.50528872330E+02  0.30000037935E+02 0.  0.
        -12    1    1    2    0    0  0.12286664048E+02 -0.34291977976E+02  0.18062746080E+02  0.40659127670E+02  0.00000000000E+00 0.  1.
         11    1    3    3    0    0 -0.83854934022E+01 -0.15021020980E+01  0.64286406105E+00  0.85431893794E+01  0.51100000000E-03 0. -1.
        -11    1    3    3    0    0 -0.32124796481E+01  0.20411918719E+01 -0.23429485406E+01  0.44694404429E+01  0.51100000000E-03 0.  1.
         12    1    3    3    0    0 -0.68869099804E+00  0.33752888202E+02 -0.16362661600E+02  0.37516242508E+02  0.00000000000E+00 0. -1.
</event>
<event>
 7    1  0.4878192E-011  0.5052885E+02  0.7816164E-02  0.1300439E+00
        -11   -1    0    0    0    0  0.00000000000E+00  0.00000000000E+00  0.45593999997E+02  0.45594000000E+02  0.51100000000E-03 0.  1.
         11   -1    0    0    0    0 -0.00000000000E+00 -0.00000000000E+00 -0.45593999997E+02  0.45594000000E+02  0.51100000000E-03 0. -1.
    9900012    2    1    2    0    0 -0.37876771429E+02 -0.10142436326E+02 -0.10753947996E+02  0.50528853108E+02  0.29999979506E+02 0.  0.
        -12    1    1    2    0    0  0.37876771429E+02  0.10142436326E+02  0.10753947996E+02  0.40659146892E+02  0.00000000000E+00 0.  1.
         11    1    3    3    0    0 -0.11316174504E+02  0.30094471627E+01 -0.92267902085E+01  0.14907925256E+02  0.51100000000E-03 0. -1.
        -11    1    3    3    0    0 -0.18136413768E+02 -0.16537291294E+02 -0.63336901254E+01  0.25348119034E+02  0.51100000000E-03 0.  1.
        -12    1    3    3    0    0 -0.84241831575E+01  0.33854078053E+01  0.48065323384E+01  0.10272808817E+02  0.00000000000E+00 0.  1.
</event>
<event>
 7    1  0.4878192E-011  0.5052886E+02  0.7816164E-02  0.1300439E+00
        -11   -1    0    0    0    0  0.00000000000E+00  0.00000000000E+00  0.45593999997E+02  0.45594000000E+02  0.51100000000E-03 0. -1.
         11   -1    0    0    0    0 -0.00000000000E+00 -0.00000000000E+00 -0.45593999997E+02  0.45594000000E+02  0.51100000000E-03 0.  1.
    9900012    2    1    2    0    0 -0.35900204677E+02  0.32176249131E+01  0.18814567818E+02  0.50528858739E+02  0.29999996623E+02 0.  0.
        -12    1    1    2    0    0  0.35900204677E+02 -0.32176249131E+01 -0.18814567818E+02  0.40659141261E+02  0.00000000000E+00 0.  1.
         11    1    3    3    0    0 -0.27882084602E+02  0.32809248041E+01 -0.81618615843E+00  0.28086318190E+02  0.51100000000E-03 0. -1.
        -11    1    3    3    0    0  0.10070041127E+00 -0.23147207526E+01  0.29155690091E+01  0.37240590280E+01  0.51100000000E-03 0.  1.
         12    1    3    3    0    0 -0.81188204857E+01  0.22514208616E+01  0.16715184967E+02  0.18718481521E+02  0.00000000000E+00 0. -1.
</event>
<event>
 7    1  0.4878192E-011  0.5052887E+02  0.7816164E-02  0.1300439E+00
        -11   -1    0    0    0    0  0.00000000000E+00  0.00000000000E+00  0.45593999997E+02  0.45594000000E+02  0.51100000000E-03 0. -1.
         11   -1    0    0    0    0 -0.00000000000E+00 -0.00000000000E+00 -0.45593999997E+02  0.45594000000E+02  0.51100000000E-03 0.  1.
    9900012    2    1    2    0    0 -0.19043001725E+02 -0.32155033965E+02  0.16018206171E+02  0.50528867534E+02  0.30000023355E+02 0.  0.
        -12    1    1    2    0    0  0.19043001725E+02  0.32155033965E+02 -0.16018206171E+02  0.40659132466E+02  0.00000000000E+00 0.  1.
         11    1    3    3    0    0 -0.12725542337E+02 -0.30711075506E+02  0.45321977589E+01  0.33550713901E+02  0.51100000000E-03 0. -1.
        -11    1    3    3    0    0 -0.57618655871E+01 -0.30839587609E+00  0.36083635954E+00  0.57813844535E+01  0.51100000000E-03 0.  1.
         12    1    3    3    0    0 -0.55559380095E+00 -0.11355625831E+01  0.11125172052E+02  0.11196769179E+02  0.00000000000E+00 0. -1.
</event>
<event>
 7    1  0.4878192E-011  0.5052885E+02  0.7816164E-02  0.1300439E+00
        -11   -1    0    0    0    0  0.00000000000E+00  0.00000000000E+00  0.45593999997E+02  0.45594000000E+02  0.51100000000E-03 0.  1.
         11   -1    0    0    0    0 -0.00000000000E+00 -0.00000000000E+00 -0.45593999997E+02  0.45594000000E+02  0.51100000000E-03 0. -1.
    9900012    2    1    2    0    0  0.24204717660E+02  0.91032019746E+01  0.31375621387E+02  0.50528852682E+02  0.29999978213E+02 0.  0.
        -12    1    1    2    0    0 -0.24204717660E+02 -0.91032019746E+01 -0.31375621387E+02  0.40659147318E+02  0.00000000000E+00 0.  1.
         11    1    3    3    0    0  0.10061762581E+02  0.15452655730E+02  0.10831019923E+02  0.21385383517E+02  0.51100000000E-03 0. -1.
        -11    1    3    3    0    0  0.16102911787E+02 -0.71524240269E+01  0.14766371630E+02  0.22989272908E+02  0.51100000000E-03 0.  1.
        -12    1    3    3    0    0 -0.19599567081E+01  0.80297027178E+00  0.57782298342E+01  0.61541962572E+01  0.00000000000E+00 0.  1.
</event>
<event>
 7    1  0.4878192E-011  0.5052886E+02  0.7816164E-02  0.1300439E+00
        -11   -1    0    0    0    0  0.00000000000E+00  0.00000000000E+00  0.45593999997E+02  0.45594000000E+02  0.51100000000E-03 0.  1.
         11   -1    0    0    0    0 -0.00000000000E+00 -0.00000000000E+00 -0.45593999997E+02  0.45594000000E+02  0.51100000000E-03 0. -1.
    9900012    2    1    2    0    0 -0.42703817934E+01  0.89714712034E+01 -0.39426412638E+02  0.50528862408E+02  0.30000007776E+02 0.  0.
        -12    1    1    2    0    0  0.42703817934E+01 -0.89714712034E+01  0.39426412638E+02  0.40659137592E+02  0.00000000000E+00 0.  1.
         11    1    3    3    0    0  0.27557803973E+01  0.16073993145E+01 -0.25181330329E+02  0.25382621132E+02  0.51100000000E-03 0. -1.
        -11    1    3    3    0    0  0.38382102592E+01  0.63217409553E+01 -0.25191658452E+00  0.73999816842E+01  0.51100000000E-03 0.  1.
        -12    1    3    3    0    0 -0.10864372450E+02  0.10423309336E+01 -0.13993165724E+02  0.17746259592E+02  0.00000000000E+00 0.  1.
</event>
<event>
 7    1  0.4878192E-011  0.5052883E+02  0.7816164E-02  0.1300439E+00
        -11   -1    0    0    0    0  0.00000000000E+00  0.00000000000E+00  0.45593999997E+02  0.45594000000E+02  0.51100000000E-03 0.  1.
         11   -1    0    0    0    0 -0.00000000000E+00 -0.00000000000E+00 -0.45593999997E+02  0.45594000000E+02  0.51100000000E-03 0. -1.
    9900012    2    1    2    0    0 -0.16355070797E+01  0.15440847808E+02 -0.37577565237E+02  0.50528830388E+02  0.29999910446E+02 0.  0.
        -12    1    1    2    0    0  0.16355070797E+01 -0.15440847808E+02  0.37577565237E+02  0.40659169612E+02  0.00000000000E+00 0.  1.
         11    1    3    3    0    0  0.35567039708E+01 -0.37923648805E+01 -0.24923491401E+02  0.25460019607E+02  0.51100000000E-03 0. -1.
        -11    1    3    3    0    0 -0.61005300970E+01  0.12832191299E+02 -0.50299859930E+01  0.15072569799E+02  0.51100000000E-03 0.  1.
        -12    1    3    3    0    0  0.90831904644E+00  0.64010213901E+01 -0.76240878424E+01  0.99962409813E+01  0.00000000000E+00 0.  1.
</event>
<event>
 7    1  0.4878192E-011  0.5052886E+02  0.7816164E-02  0.1300439E+00
        -11   -1    0    0    0    0  0.00000000000E+00  0.00000000000E+00  0.45593999997E+02  0.45594000000E+02  0.51100000000E-03 0.  1.
         11   -1    0    0    0    0 -0.00000000000E+00 -0.00000000000E+00 -0.45593999997E+02  0.45594000000E+02  0.51100000000E-03 0. -1.
    9900012    2    1    2    0    0  0.21380522502E+02 -0.10242044559E+02 -0.33032397985E+02  0.50528861595E+02  0.30000005303E+02 0.  0.
        -12    1    1    2    0    0 -0.21380522502E+02  0.10242044559E+02  0.33032397985E+02  0.40659138405E+02  0.00000000000E+00 0.  1.
         11    1    3    3    0    0  0.17046185572E+01 -0.19789367366E+01  0.25785593560E+01  0.36702702416E+01  0.51100000000E-03 0. -1.
        -11    1    3    3    0    0  0.10832896908E+02  0.54747831960E+01 -0.23741323709E+02  0.26664121177E+02  0.51100000000E-03 0.  1.
        -12    1    3    3    0    0  0.88430070365E+01 -0.13737891019E+02 -0.11869633633E+02  0.20194470176E+02  0.00000000000E+00 0.  1.
</event>
<event>
 7    1  0.4878192E-011  0.5052885E+02  0.7816164E-02  0.1300439E+00
        -11   -1    0    0    0    0  0.00000000000E+00  0.00000000000E+00  0.45593999997E+02  0.45594000000E+02  0.51100000000E-03 0. -1.
         11   -1    0    0    0    0 -0.00000000000E+00 -0.00000000000E+00 -0.45593999997E+02  0.45594000000E+02  0.51100000000E-03 0.  1.
    9900012    2    1    2    0    0  0.15335718247E+02 -0.23820889882E+02  0.29164140601E+02  0.50528854093E+02  0.29999982501E+02 0.  0.
        -12    1    1    2    0    0 -0.15335718247E+02  0.23820889882E+02 -0.29164140601E+02  0.40659145907E+02  0.00000000000E+00 0.  1.
         11    1    3    3    0    0  0.51331125963E+01 -0.86441974517E+01  0.24344347803E+02  0.26338531939E+02  0.51100000000E-03 0. -1.
        -11    1    3    3    0    0  0.95136854164E+01 -0.22670618557E+01 -0.13371661079E+01  0.98710583587E+01  0.51100000000E-03 0.  1.
         12    1    3    3    0    0  0.68892023437E+00 -0.12909630575E+02  0.61569589056E+01  0.14319263795E+02  0.00000000000E+00 0. -1.
</event>
<event>
 7    1  0.4878192E-011  0.5052883E+02  0.7816164E-02  0.1300439E+00
        -11   -1    0    0    0    0  0.00000000000E+00  0.00000000000E+00  0.45593999997E+02  0.45594000000E+02  0.51100000000E-03 0.  1.
         11   -1    0    0    0    0 -0.00000000000E+00 -0.00000000000E+00 -0.45593999997E+02  0.45594000000E+02  0.51100000000E-03 0. -1.
    9900012    2    1    2    0    0  0.69496013329E+01  0.29080398544E+02 -0.27553606148E+02  0.50528834367E+02  0.29999922543E+02 0.  0.
        -12    1    1    2    0    0 -0.69496013329E+01 -0.29080398544E+02  0.27553606148E+02  0.40659165633E+02  0.00000000000E+00 0.  1.
         11    1    3    3    0    0  0.10241386754E+02  0.18897487323E+02 -0.14087992595E+02  0.25699660802E+02  0.51100000000E-03 0. -1.
        -11    1    3    3    0    0 -0.82555849446E+01  0.13031004741E+01 -0.53281403896E+00  0.83747623658E+01  0.51100000000E-03 0.  1.
        -12    1    3    3    0    0  0.49637995236E+01  0.88798107477E+01 -0.12932799515E+02  0.16454411199E+02  0.00000000000E+00 0.  1.
</event>
<event>
 7    1  0.4878192E-011  0.5052886E+02  0.7816164E-02  0.1300439E+00
        -11   -1    0    0    0    0  0.00000000000E+00  0.00000000000E+00  0.45593999997E+02  0.45594000000E+02  0.51100000000E-03 0.  1.
         11   -1    0    0    0    0 -0.00000000000E+00 -0.00000000000E+00 -0.45593999997E+02  0.45594000000E+02  0.51100000000E-03 0. -1.
    9900012    2    1    2    0    0 -0.36599598904E+02  0.14334878849E+02  0.10399347142E+02  0.50528858192E+02  0.29999994960E+02 0.  0.
        -12    1    1    2    0    0  0.36599598904E+02 -0.14334878849E+02 -0.10399347142E+02  0.40659141808E+02  0.00000000000E+00 0.  1.
         11    1    3    3    0    0 -0.17382628169E+02  0.17704406693E+02  0.53831447490E+01  0.25388580623E+02  0.51100000000E-03 0.  1.
        -11    1    3    3    0    0 -0.17528895554E+02 -0.72012173723E+01  0.46517663251E+00  0.18956162601E+02  0.51100000000E-03 0. -1.
        -12    1    3    3    0    0 -0.16880751811E+01  0.38316895286E+01  0.45510257606E+01  0.61841149677E+01  0.00000000000E+00 0.  1.
</event>
<event>
 7    1  0.4878192E-011  0.5052886E+02  0.7816164E-02  0.1300439E+00
        -11   -1    0    0    0    0  0.00000000000E+00  0.00000000000E+00  0.45593999997E+02  0.45594000000E+02  0.51100000000E-03 0. -1.
         11   -1    0    0    0    0 -0.00000000000E+00 -0.00000000000E+00 -0.45593999997E+02  0.45594000000E+02  0.51100000000E-03 0.  1.
    9900012    2    1    2    0    0 -0.49862987161E+01  0.39912913741E+02 -0.59381457869E+01  0.50528862852E+02  0.30000009125E+02 0.  0.
        -12    1    1    2    0    0  0.49862987161E+01 -0.39912913741E+02  0.59381457869E+01  0.40659137148E+02  0.00000000000E+00 0.  1.
         11    1    3    3    0    0  0.30496131002E+01 -0.33478112376E+01  0.81592857909E+00  0.46014910465E+01  0.51100000000E-03 0. -1.
        -11    1    3    3    0    0 -0.90530583697E+01  0.18015782644E+02 -0.29478407361E+01  0.20376850968E+02  0.51100000000E-03 0.  1.
         12    1    3    3    0    0  0.10171465534E+01  0.25244942335E+02 -0.38062336299E+01  0.25550520837E+02  0.00000000000E+00 0. -1.
</event>
<event>
 7    1  0.4878192E-011  0.5052886E+02  0.7816164E-02  0.1300439E+00
        -11   -1    0    0    0    0  0.00000000000E+00  0.00000000000E+00  0.45593999997E+02  0.45594000000E+02  0.51100000000E-03 0.  1.
         11   -1    0    0    0    0 -0.00000000000E+00 -0.00000000000E+00 -0.45593999997E+02  0.45594000000E+02  0.51100000000E-03 0. -1.
    9900012    2    1    2    0    0 -0.10671735589E+02 -0.34799596064E+02 -0.18118173621E+02  0.50528855370E+02  0.29999986382E+02 0.  0.
        -12    1    1    2    0    0  0.10671735589E+02  0.34799596064E+02  0.18118173621E+02  0.40659144630E+02  0.00000000000E+00 0.  1.
         11    1    3    3    0    0 -0.69381950954E+01 -0.12362812063E+02 -0.17786609255E+02  0.22745134476E+02  0.51100000000E-03 0. -1.
        -11    1    3    3    0    0 -0.68690028308E+01 -0.18019132214E+02  0.52700129759E+01  0.19991132100E+02  0.51100000000E-03 0.  1.
         12    1    3    3    0    0  0.31354623374E+01 -0.44176517883E+01 -0.56015773414E+01  0.77925887934E+01  0.00000000000E+00 0. -1.
</event>
<event>
 7    1  0.5418281E-011  0.5052886E+02  0.7816164E-02  0.1300439E+00
        -11   -1    0    0    0    0  0.00000000000E+00  0.00000000000E+00  0.45593999997E+02  0.45594000000E+02  0.51100000000E-03 0.  1.
         11   -1    0    0    0    0 -0.00000000000E+00 -0.00000000000E+00 -0.45593999997E+02  0.45594000000E+02  0.51100000000E-03 0. -1.
    9900012    2    1    2    0    0  0.28337125948E+02 -0.28486720436E+02 -0.62193257399E+01  0.50528856368E+02  0.29999989417E+02 0.  0.
        -12    1    1    2    0    0 -0.28337125948E+02  0.28486720436E+02  0.62193257399E+01  0.40659143632E+02  0.00000000000E+00 0.  1.
         11    1    3    3    0    0  0.25217496477E+02 -0.10747677804E+02 -0.43847069114E+01  0.27760770193E+02  0.51100000000E-03 0.  1.
        -11    1    3    3    0    0 -0.15162308923E+01 -0.13014036325E+01  0.42027207645E+01  0.46535437700E+01  0.51100000000E-03 0. -1.
         12    1    3    3    0    0  0.46358603631E+01 -0.16437639000E+02 -0.60373395930E+01  0.18114542405E+02  0.00000000000E+00 0. -1.
</event>
<event>
 7    1  0.4878192E-011  0.5052886E+02  0.7816164E-02  0.1300439E+00
        -11   -1    0    0    0    0  0.00000000000E+00  0.00000000000E+00  0.45593999997E+02  0.45594000000E+02  0.51100000000E-03 0.  1.
         11   -1    0    0    0    0 -0.00000000000E+00 -0.00000000000E+00 -0.45593999997E+02  0.45594000000E+02  0.51100000000E-03 0. -1.
    9900012    2    1    2    0    0  0.28716433172E+01  0.40550250023E+02 -0.77262928118E+00  0.50528855048E+02  0.29999985403E+02 0.  0.
        -12    1    1    2    0    0 -0.28716433172E+01 -0.40550250023E+02  0.77262928118E+00  0.40659144952E+02  0.00000000000E+00 0.  1.
         11    1    3    3    0    0  0.18896575412E+01  0.39544043278E+02 -0.25821814405E+01  0.39673288566E+02  0.51100000000E-03 0. -1.
        -11    1    3    3    0    0 -0.23863537784E+01 -0.31728081412E+01 -0.18289359328E+01  0.43710871375E+01  0.51100000000E-03 0.  1.
        -12    1    3    3    0    0  0.33683395544E+01  0.41790148863E+01  0.36384880921E+01  0.64844793446E+01  0.00000000000E+00 0.  1.
</event>
<event>
 7    1  0.4878192E-011  0.5052886E+02  0.7816164E-02  0.1300439E+00
        -11   -1    0    0    0    0  0.00000000000E+00  0.00000000000E+00  0.45593999997E+02  0.45594000000E+02  0.51100000000E-03 0.  1.
         11   -1    0    0    0    0 -0.00000000000E+00 -0.00000000000E+00 -0.45593999997E+02  0.45594000000E+02  0.51100000000E-03 0. -1.
    9900012    2    1    2    0    0 -0.15804806766E+02 -0.22819002245E+02 -0.29709713197E+02  0.50528857872E+02  0.29999993986E+02 0.  0.
        -12    1    1    2    0    0  0.15804806766E+02  0.22819002245E+02  0.29709713197E+02  0.40659142128E+02  0.00000000000E+00 0.  1.
         11    1    3    3    0    0 -0.67762105429E+01 -0.28535309906E+01  0.32282238197E+01  0.80300123118E+01  0.51100000000E-03 0. -1.
        -11    1    3    3    0    0 -0.78524898253E+01 -0.42983344323E+01 -0.20801615337E+02  0.22646069775E+02  0.51100000000E-03 0.  1.
         12    1    3    3    0    0 -0.11761063978E+01 -0.15667136822E+02 -0.12136321679E+02  0.19852775785E+02  0.00000000000E+00 0. -1.
</event>
<event>
 7    1  0.4878192E-011  0.5052885E+02  0.7816164E-02  0.1300439E+00
        -11   -1    0    0    0    0  0.00000000000E+00  0.00000000000E+00  0.45593999997E+02  0.45594000000E+02  0.51100000000E-03 0.  1.
         11   -1    0    0    0    0 -0.00000000000E+00 -0.00000000000E+00 -0.45593999997E+02  0.45594000000E+02  0.51100000000E-03 0. -1.
    9900012    2    1    2    0    0 -0.20591286526E+02  0.24134483969E+02 -0.25430135976E+02  0.50528853268E+02  0.29999979993E+02 0.  0.
        -12    1    1    2    0    0  0.20591286526E+02 -0.24134483969E+02  0.25430135976E+02  0.40659146732E+02  0.00000000000E+00 0.  1.
         11    1    3    3    0    0 -0.14779235569E+02  0.19917719069E+02 -0.28386597162E+02  0.37695360929E+02  0.51100000000E-03 0. -1.
        -11    1    3    3    0    0 -0.56357452447E+01  0.72196099066E+01  0.34464542563E+01  0.97858284712E+01  0.51100000000E-03 0.  1.
         12    1    3    3    0    0 -0.17630571248E+00 -0.30028450069E+01 -0.48999307025E+00  0.30476638673E+01  0.00000000000E+00 0. -1.
</event>
<event>
 7    1  0.4878192E-011  0.5052886E+02  0.7816164E-02  0.1300439E+00
        -11   -1    0    0    0    0  0.00000000000E+00  0.00000000000E+00  0.45593999997E+02  0.45594000000E+02  0.51100000000E-03 0.  1.
         11   -1    0    0    0    0 -0.00000000000E+00 -0.00000000000E+00 -0.45593999997E+02  0.45594000000E+02  0.51100000000E-03 0. -1.
    9900012    2    1    2    0    0 -0.16255562310E+02  0.37066722666E+02 -0.38704553604E+01  0.50528860069E+02  0.30000000666E+02 0.  0.
        -12    1    1    2    0    0  0.16255562310E+02 -0.37066722666E+02  0.38704553604E+01  0.40659139931E+02  0.00000000000E+00 0.  1.
         11    1    3    3    0    0 -0.59186106700E+01  0.74351891773E+00  0.54675441631E+01  0.80917743469E+01  0.51100000000E-03 0.  1.
        -11    1    3    3    0    0 -0.11533329498E+02  0.35305105772E+02 -0.12266043335E+02  0.39114242959E+02  0.51100000000E-03 0. -1.
         12    1    3    3    0    0  0.11963778587E+01  0.10180979762E+01  0.29280438112E+01  0.33228427633E+01  0.00000000000E+00 0. -1.
</event>
<event>
 7    1  0.4878192E-011  0.5052882E+02  0.7816164E-02  0.1300439E+00
        -11   -1    0    0    0    0  0.00000000000E+00  0.00000000000E+00  0.45593999997E+02  0.45594000000E+02  0.51100000000E-03 0. -1.
         11   -1    0    0    0    0 -0.00000000000E+00 -0.00000000000E+00 -0.45593999997E+02  0.45594000000E+02  0.51100000000E-03 0.  1.
    9900012    2    1    2    0    0  0.16185234637E+02 -0.32495419759E+02 -0.18309968563E+02  0.50528818081E+02  0.29999873037E+02 0.  0.
        -12    1    1    2    0    0 -0.16185234637E+02  0.32495419759E+02  0.18309968563E+02  0.40659181919E+02  0.00000000000E+00 0.  1.
         11    1    3    3    0    0  0.86329091905E+01 -0.18761676364E+02 -0.14019216745E+02  0.24961291222E+02  0.51100000000E-03 0. -1.
        -11    1    3    3    0    0  0.10470792923E+02 -0.38778222815E+01  0.45036511879E+01  0.12039845695E+02  0.51100000000E-03 0.  1.
        -12    1    3    3    0    0 -0.29184674768E+01 -0.98559211138E+01 -0.87944030058E+01  0.13527681163E+02  0.00000000000E+00 0.  1.
</event>
<event>
 7    1  0.4878192E-011  0.5052886E+02  0.7816164E-02  0.1300439E+00
        -11   -1    0    0    0    0  0.00000000000E+00  0.00000000000E+00  0.45593999997E+02  0.45594000000E+02  0.51100000000E-03 0.  1.
         11   -1    0    0    0    0 -0.00000000000E+00 -0.00000000000E+00 -0.45593999997E+02  0.45594000000E+02  0.51100000000E-03 0. -1.
    9900012    2    1    2    0    0  0.34472206572E+02 -0.21202644281E+02 -0.39090204048E+01  0.50528860917E+02  0.30000003243E+02 0.  0.
        -12    1    1    2    0    0 -0.34472206572E+02  0.21202644281E+02  0.39090204048E+01  0.40659139083E+02  0.00000000000E+00 0.  1.
         11    1    3    3    0    0  0.34408994319E+02 -0.20240047156E+02 -0.58115964158E+01  0.40341207866E+02  0.51100000000E-03 0. -1.
        -11    1    3    3    0    0 -0.35082373395E+01  0.13988873412E+01 -0.21043960661E+01  0.43235515595E+01  0.51100000000E-03 0.  1.
        -12    1    3    3    0    0  0.35714495929E+01 -0.23614844660E+01  0.40069720771E+01  0.58641014917E+01  0.00000000000E+00 0.  1.
</event>
<event>
 7    1  0.4878192E-011  0.5052887E+02  0.7816164E-02  0.1300439E+00
        -11   -1    0    0    0    0  0.00000000000E+00  0.00000000000E+00  0.45593999997E+02  0.45594000000E+02  0.51100000000E-03 0.  1.
         11   -1    0    0    0    0 -0.00000000000E+00 -0.00000000000E+00 -0.45593999997E+02  0.45594000000E+02  0.51100000000E-03 0. -1.
    9900012    2    1    2    0    0  0.71159029837E+01  0.37683599334E+02 -0.13508327250E+02  0.50528872622E+02  0.30000038822E+02 0.  0.
        -12    1    1    2    0    0 -0.71159029837E+01 -0.37683599334E+02  0.13508327250E+02  0.40659127378E+02  0.00000000000E+00 0.  1.
         11    1    3    3    0    0 -0.10945137774E+02  0.14637662400E+02 -0.63645138821E+01  0.19353662151E+02  0.51100000000E-03 0. -1.
        -11    1    3    3    0    0  0.13771197297E+02  0.12081166584E+02 -0.23777218895E+01  0.18473062082E+02  0.51100000000E-03 0.  1.
         12    1    3    3    0    0  0.42898434604E+01  0.10964770349E+02 -0.47660914782E+01  0.12702148390E+02  0.00000000000E+00 0. -1.
</event>
<event>
 7    1  0.4878192E-011  0.5052887E+02  0.7816164E-02  0.1300439E+00
        -11   -1    0    0    0    0  0.00000000000E+00  0.00000000000E+00  0.45593999997E+02  0.45594000000E+02  0.51100000000E-03 0.  1.
         11   -1    0    0    0    0 -0.00000000000E+00 -0.00000000000E+00 -0.45593999997E+02  0.45594000000E+02  0.51100000000E-03 0. -1.
    9900012    2    1    2    0    0 -0.40236725061E+02  0.33470487389E+01 -0.47925083316E+01  0.50528869230E+02  0.30000028511E+02 0.  0.
        -12    1    1    2    0    0  0.40236725061E+02 -0.33470487389E+01  0.47925083316E+01  0.40659130770E+02  0.00000000000E+00 0.  1.
         11    1    3    3    0    0 -0.20319044703E+02  0.23906008470E+01  0.11223842230E+02  0.23335663366E+02  0.51100000000E-03 0. -1.
        -11    1    3    3    0    0 -0.10431836418E+02 -0.29062488935E+01 -0.12073146203E+02  0.16218210542E+02  0.51100000000E-03 0.  1.
         12    1    3    3    0    0 -0.94858439397E+01  0.38626967854E+01 -0.39432043585E+01  0.10974995322E+02  0.00000000000E+00 0. -1.
</event>
<event>
 7    1  0.4878192E-011  0.5052886E+02  0.7816164E-02  0.1300439E+00
        -11   -1    0    0    0    0  0.00000000000E+00  0.00000000000E+00  0.45593999997E+02  0.45594000000E+02  0.51100000000E-03 0. -1.
         11   -1    0    0    0    0 -0.00000000000E+00 -0.00000000000E+00 -0.45593999997E+02  0.45594000000E+02  0.51100000000E-03 0.  1.
    9900012    2    1    2    0    0 -0.15150349952E+02  0.19941328340E+02  0.32030859945E+02  0.50528859964E+02  0.30000000348E+02 0.  0.
        -12    1    1    2    0    0  0.15150349952E+02 -0.19941328340E+02 -0.32030859945E+02  0.40659140036E+02  0.00000000000E+00 0.  1.
         11    1    3    3    0    0 -0.20569245807E+02  0.65351492262E+01  0.25626322120E+02  0.33503886851E+02  0.51100000000E-03 0. -1.
        -11    1    3    3    0    0  0.19067776901E+01  0.31908349489E+00  0.19884050681E+01  0.27733320054E+01  0.51100000000E-03 0.  1.
         12    1    3    3    0    0  0.35121181647E+01  0.13087095619E+02  0.44161327562E+01  0.14251641108E+02  0.00000000000E+00 0. -1.
</event>
<event>
 7    1  0.4878192E-011  0.5052886E+02  0.7816164E-02  0.1300439E+00
        -11   -1    0    0    0    0  0.00000000000E+00  0.00000000000E+00  0.45593999997E+02  0.45594000000E+02  0.51100000000E-03 0.  1.
         11   -1    0    0    0    0 -0.00000000000E+00 -0.00000000000E+00 -0.45593999997E+02  0.45594000000E+02  0.51100000000E-03 0. -1.
    9900012    2    1    2    0    0  0.26714924975E+02 -0.13798958685E+02 -0.27369089687E+02  0.50528861452E+02  0.30000004869E+02 0.  0.
        -12    1    1    2    0    0 -0.26714924975E+02  0.13798958685E+02  0.27369089687E+02  0.40659138548E+02  0.00000000000E+00 0.  1.
         11    1    3    3    0    0  0.28377193529E+02 -0.14760242626E+02 -0.25628456100E+02  0.40987164300E+02  0.51100000000E-03 0. -1.
        -11    1    3    3    0    0  0.36201287486E+01 -0.42604488876E+00  0.41808042593E+00  0.36690104807E+01  0.51100000000E-03 0.  1.
         12    1    3    3    0    0 -0.52823973032E+01  0.13873288304E+01 -0.21587140125E+01  0.58726866713E+01  0.00000000000E+00 0. -1.
</event>
<event>
 7    1  0.4878192E-011  0.5052886E+02  0.7816164E-02  0.1300439E+00
        -11   -1    0    0    0    0  0.00000000000E+00  0.00000000000E+00  0.45593999997E+02  0.45594000000E+02  0.51100000000E-03 0.  1.
         11   -1    0    0    0    0 -0.00000000000E+00 -0.00000000000E+00 -0.45593999997E+02  0.45594000000E+02  0.51100000000E-03 0. -1.
    9900012    2    1    2    0    0 -0.25134644095E+02 -0.25702204036E+02 -0.18995044699E+02  0.50528863890E+02  0.30000012280E+02 0.  0.
        -12    1    1    2    0    0  0.25134644095E+02  0.25702204036E+02  0.18995044699E+02  0.40659136110E+02  0.00000000000E+00 0.  1.
         11    1    3    3    0    0  0.46450044177E+01 -0.31902433556E+01 -0.24995819659E+01  0.61645461288E+01  0.51100000000E-03 0. -1.
        -11    1    3    3    0    0 -0.20100192142E+02 -0.90211407574E+01 -0.16534520754E+01  0.22093723288E+02  0.51100000000E-03 0.  1.
         12    1    3    3    0    0 -0.96794563709E+01 -0.13490819923E+02 -0.14842010658E+02  0.22270594473E+02  0.00000000000E+00 0. -1.
</event>
<event>
 7    1  0.4878192E-011  0.5052887E+02  0.7816164E-02  0.1300439E+00
        -11   -1    0    0    0    0  0.00000000000E+00  0.00000000000E+00  0.45593999997E+02  0.45594000000E+02  0.51100000000E-03 0.  1.
         11   -1    0    0    0    0 -0.00000000000E+00 -0.00000000000E+00 -0.45593999997E+02  0.45594000000E+02  0.51100000000E-03 0. -1.
    9900012    2    1    2    0    0 -0.26012430866E+02 -0.26967421368E+02 -0.15788487126E+02  0.50528871867E+02  0.30000036528E+02 0.  0.
        -12    1    1    2    0    0  0.26012430866E+02  0.26967421368E+02  0.15788487126E+02  0.40659128133E+02  0.00000000000E+00 0.  1.
         11    1    3    3    0    0  0.41262989654E+01 -0.10831849670E+02 -0.26455218398E+01  0.11889242890E+02  0.51100000000E-03 0.  1.
        -11    1    3    3    0    0 -0.20575636077E+02 -0.50396168211E+01 -0.10890115638E+02  0.23819092270E+02  0.51100000000E-03 0. -1.
        -12    1    3    3    0    0 -0.95630937544E+01 -0.11095954876E+02 -0.22528496479E+01  0.14820536708E+02  0.00000000000E+00 0.  1.
</event>
<event>
 7    1  0.4878192E-011  0.5052886E+02  0.7816164E-02  0.1300439E+00
        -11   -1    0    0    0    0  0.00000000000E+00  0.00000000000E+00  0.45593999997E+02  0.45594000000E+02  0.51100000000E-03 0.  1.
         11   -1    0    0    0    0 -0.00000000000E+00 -0.00000000000E+00 -0.45593999997E+02  0.45594000000E+02  0.51100000000E-03 0. -1.
    9900012    2    1    2    0    0  0.10461956800E+02  0.39138319177E+02 -0.34503562358E+01  0.50528861713E+02  0.30000005663E+02 0.  0.
        -12    1    1    2    0    0 -0.10461956800E+02 -0.39138319177E+02  0.34503562358E+01  0.40659138287E+02  0.00000000000E+00 0.  1.
         11    1    3    3    0    0  0.26113931912E+01  0.10685033189E+02 -0.28716975525E+01  0.11368199318E+02  0.51100000000E-03 0. -1.
        -11    1    3    3    0    0  0.23683906963E+01 -0.28197348766E+01  0.57095478346E+01  0.67940500440E+01  0.51100000000E-03 0.  1.
        -12    1    3    3    0    0  0.54821729125E+01  0.31273020865E+02 -0.62882065178E+01  0.32366612351E+02  0.00000000000E+00 0.  1.
</event>
<event>
 7    1  0.4878192E-011  0.5052886E+02  0.7816164E-02  0.1300439E+00
        -11   -1    0    0    0    0  0.00000000000E+00  0.00000000000E+00  0.45593999997E+02  0.45594000000E+02  0.51100000000E-03 0.  1.
         11   -1    0    0    0    0 -0.00000000000E+00 -0.00000000000E+00 -0.45593999997E+02  0.45594000000E+02  0.51100000000E-03 0. -1.
    9900012    2    1    2    0    0 -0.18885417876E+02  0.19171529696E+02 -0.30478828543E+02  0.50528861438E+02  0.30000004828E+02 0.  0.
        -12    1    1    2    0    0  0.18885417876E+02 -0.19171529696E+02  0.30478828543E+02  0.40659138562E+02  0.00000000000E+00 0.  1.
         11    1    3    3    0    0 -0.81372159434E+01  0.71660328596E+01 -0.62714454355E+00  0.10860921729E+02  0.51100000000E-03 0. -1.
        -11    1    3    3    0    0 -0.44772093362E+00  0.71259996334E+01 -0.26987153646E+02  0.27915708606E+02  0.51100000000E-03 0.  1.
        -12    1    3    3    0    0 -0.10300480999E+02  0.48794972030E+01 -0.28645303529E+01  0.11752231104E+02  0.00000000000E+00 0.  1.
</event>
<event>
 7    1  0.4878192E-011  0.5052885E+02  0.7816164E-02  0.1300439E+00
        -11   -1    0    0    0    0  0.00000000000E+00  0.00000000000E+00  0.45593999997E+02  0.45594000000E+02  0.51100000000E-03 0. -1.
         11   -1    0    0    0    0 -0.00000000000E+00 -0.00000000000E+00 -0.45593999997E+02  0.45594000000E+02  0.51100000000E-03 0.  1.
    9900012    2    1    2    0    0  0.40610488407E+00  0.35785216959E+02  0.19298171528E+02  0.50528854678E+02  0.29999984279E+02 0.  0.
        -12    1    1    2    0    0 -0.40610488407E+00 -0.35785216959E+02 -0.19298171528E+02  0.40659145322E+02  0.00000000000E+00 0.  1.
         11    1    3    3    0    0  0.85889977831E+01  0.22431395071E+02  0.15311235950E+02  0.28484597844E+02  0.51100000000E-03 0. -1.
        -11    1    3    3    0    0 -0.10798631437E+02  0.76119091185E+01 -0.19808123064E+01  0.13359461778E+02  0.51100000000E-03 0.  1.
        -12    1    3    3    0    0  0.26157385383E+01  0.57419127701E+01  0.59677478843E+01  0.86847950563E+01  0.00000000000E+00 0.  1.
</event>
<event>
 7    1  0.4878192E-011  0.5052886E+02  0.7816164E-02  0.1300439E+00
        -11   -1    0    0    0    0  0.00000000000E+00  0.00000000000E+00  0.45593999997E+02  0.45594000000E+02  0.51100000000E-03 0. -1.
         11   -1    0    0    0    0 -0.00000000000E+00 -0.00000000000E+00 -0.45593999997E+02  0.45594000000E+02  0.51100000000E-03 0.  1.
    9900012    2    1    2    0    0  0.16145891083E+02 -0.11013057726E+02  0.35653723978E+02  0.50528864829E+02  0.30000015136E+02 0.  0.
        -12    1    1    2    0    0 -0.16145891083E+02  0.11013057726E+02 -0.35653723978E+02  0.40659135171E+02  0.00000000000E+00 0.  1.
         11    1    3    3    0    0  0.18068547976E+02 -0.34849103307E+01  0.26002079163E+02  0.31854750777E+02  0.51100000000E-03 0. -1.
        -11    1    3    3    0    0  0.20673175806E+01 -0.10534453857E+02  0.80820760988E+01  0.13437576953E+02  0.51100000000E-03 0.  1.
        -12    1    3    3    0    0 -0.39899744736E+01  0.30063064616E+01  0.15695687157E+01  0.52365370995E+01  0.00000000000E+00 0.  1.
</event>
<event>
 7    1  0.4878192E-011  0.5052886E+02  0.7816164E-02  0.1300439E+00
        -11   -1    0    0    0    0  0.00000000000E+00  0.00000000000E+00  0.45593999997E+02  0.45594000000E+02  0.51100000000E-03 0. -1.
         11   -1    0    0    0    0 -0.00000000000E+00 -0.00000000000E+00 -0.45593999997E+02  0.45594000000E+02  0.51100000000E-03 0.  1.
    9900012    2    1    2    0    0  0.21178677966E+02  0.27364551490E+02  0.21349717326E+02  0.50528861931E+02  0.30000006326E+02 0.  0.
        -12    1    1    2    0    0 -0.21178677966E+02 -0.27364551490E+02 -0.21349717326E+02  0.40659138069E+02  0.00000000000E+00 0.  1.
         11    1    3    3    0    0  0.20705775169E+02  0.20914683729E+02  0.73906903172E+01  0.30344281578E+02  0.51100000000E-03 0. -1.
        -11    1    3    3    0    0 -0.47161494884E+01  0.49334479987E+01  0.20827241158E+01  0.71357350817E+01  0.51100000000E-03 0.  1.
        -12    1    3    3    0    0  0.51890522848E+01  0.15164197617E+01  0.11876302893E+02  0.13048845271E+02  0.00000000000E+00 0.  1.
</event>
<event>
 7    1  0.4878192E-011  0.5052886E+02  0.7816164E-02  0.1300439E+00
        -11   -1    0    0    0    0  0.00000000000E+00  0.00000000000E+00  0.45593999997E+02  0.45594000000E+02  0.51100000000E-03 0.  1.
         11   -1    0    0    0    0 -0.00000000000E+00 -0.00000000000E+00 -0.45593999997E+02  0.45594000000E+02  0.51100000000E-03 0. -1.
    9900012    2    1    2    0    0  0.18904080858E+02 -0.16846672900E+01 -0.35957797298E+02  0.50528861255E+02  0.30000004270E+02 0.  0.
        -12    1    1    2    0    0 -0.18904080858E+02  0.16846672900E+01  0.35957797298E+02  0.40659138745E+02  0.00000000000E+00 0.  1.
         11    1    3    3    0    0  0.65862613566E+01 -0.35233540581E+01 -0.13109039647E+02  0.15087736185E+02  0.51100000000E-03 0. -1.
        -11    1    3    3    0    0 -0.63293363023E+01  0.13891479541E+01 -0.12574790886E+02  0.14146221975E+02  0.51100000000E-03 0.  1.
        -12    1    3    3    0    0  0.18647155804E+02  0.44953881401E+00 -0.10273966765E+02  0.21294903095E+02  0.00000000000E+00 0.  1.
</event>
<event>
 7    1  0.4878192E-011  0.5052887E+02  0.7816164E-02  0.1300439E+00
        -11   -1    0    0    0    0  0.00000000000E+00  0.00000000000E+00  0.45593999997E+02  0.45594000000E+02  0.51100000000E-03 0. -1.
         11   -1    0    0    0    0 -0.00000000000E+00 -0.00000000000E+00 -0.45593999997E+02  0.45594000000E+02  0.51100000000E-03 0.  1.
    9900012    2    1    2    0    0  0.26296138671E+02  0.91001638652E+01  0.29645653734E+02  0.50528872160E+02  0.30000037417E+02 0.  0.
        -12    1    1    2    0    0 -0.26296138671E+02 -0.91001638652E+01 -0.29645653734E+02  0.40659127840E+02  0.00000000000E+00 0.  1.
         11    1    3    3    0    0  0.65091716267E+01 -0.26790221006E+01  0.23442741191E+02  0.24476694823E+02  0.51100000000E-03 0. -1.
        -11    1    3    3    0    0  0.15190459803E+02  0.82844024354E+01  0.91460248665E+01  0.19571181974E+02  0.51100000000E-03 0.  1.
         12    1    3    3    0    0  0.45965072418E+01  0.34947835304E+01 -0.29431123229E+01  0.64809953628E+01  0.00000000000E+00 0. -1.
</event>
<event>
 7    1  0.4878192E-011  0.5052885E+02  0.7816164E-02  0.1300439E+00
        -11   -1    0    0    0    0  0.00000000000E+00  0.00000000000E+00  0.45593999997E+02  0.45594000000E+02  0.51100000000E-03 0. -1.
         11   -1    0    0    0    0 -0.00000000000E+00 -0.00000000000E+00 -0.45593999997E+02  0.45594000000E+02  0.51100000000E-03 0.  1.
    9900012    2    1    2    0    0 -0.34729939402E+02 -0.21002914479E+02  0.24239222531E+01  0.50528849657E+02  0.29999969019E+02 0.  0.
        -12    1    1    2    0    0  0.34729939402E+02  0.21002914479E+02 -0.24239222531E+01  0.40659150343E+02  0.00000000000E+00 0.  1.
         11    1    3    3    0    0 -0.25572911797E+02 -0.69191950042E+01  0.10910268319E+01  0.26514890478E+02  0.51100000000E-03 0. -1.
        -11    1    3    3    0    0  0.24486146681E+01 -0.11280636482E+02  0.30807015735E+01  0.11947350990E+02  0.51100000000E-03 0.  1.
        -12    1    3    3    0    0 -0.11605642274E+02 -0.28030829928E+01 -0.17478061523E+01  0.12066608189E+02  0.00000000000E+00 0.  1.
</event>
<event>
 7    1  0.4878192E-011  0.5052886E+02  0.7816164E-02  0.1300439E+00
        -11   -1    0    0    0    0  0.00000000000E+00  0.00000000000E+00  0.45593999997E+02  0.45594000000E+02  0.51100000000E-03 0. -1.
         11   -1    0    0    0    0 -0.00000000000E+00 -0.00000000000E+00 -0.45593999997E+02  0.45594000000E+02  0.51100000000E-03 0.  1.
    9900012    2    1    2    0    0  0.21961630785E+02 -0.14387305825E+02  0.31046064260E+02  0.50528857096E+02  0.29999991628E+02 0.  0.
        -12    1    1    2    0    0 -0.21961630785E+02  0.14387305825E+02 -0.31046064260E+02  0.40659142904E+02  0.00000000000E+00 0.  1.
         11    1    3    3    0    0  0.41331552116E+01 -0.19098535465E+01  0.27491638848E+02  0.27866121355E+02  0.51100000000E-03 0. -1.
        -11    1    3    3    0    0  0.11147647663E+02 -0.90908550963E+01  0.45951196834E+01  0.15100623165E+02  0.51100000000E-03 0.  1.
         12    1    3    3    0    0  0.66808279106E+01 -0.33865971819E+01 -0.10406942709E+01  0.75621125758E+01  0.00000000000E+00 0. -1.
</event>
<event>
 7    1  0.4878192E-011  0.5052884E+02  0.7816164E-02  0.1300439E+00
        -11   -1    0    0    0    0  0.00000000000E+00  0.00000000000E+00  0.45593999997E+02  0.45594000000E+02  0.51100000000E-03 0.  1.
         11   -1    0    0    0    0 -0.00000000000E+00 -0.00000000000E+00 -0.45593999997E+02  0.45594000000E+02  0.51100000000E-03 0. -1.
    9900012    2    1    2    0    0  0.65794627459E+01  0.39903557135E+02 -0.41933738269E+01  0.50528836382E+02  0.29999928667E+02 0.  0.
        -12    1    1    2    0    0 -0.65794627459E+01 -0.39903557135E+02  0.41933738269E+01  0.40659163618E+02  0.00000000000E+00 0.  1.
         11    1    3    3    0    0  0.13619341126E+02  0.18621513213E+02 -0.76038728614E+01  0.24291276002E+02  0.51100000000E-03 0. -1.
        -11    1    3    3    0    0 -0.70394094502E+01  0.90128252631E+01 -0.37456682304E+01  0.12033882806E+02  0.51100000000E-03 0.  1.
         12    1    3    3    0    0 -0.46892954375E-03  0.12269218659E+02  0.71561672649E+01  0.14203677574E+02  0.00000000000E+00 0. -1.
</event>
<event>
 7    1  0.4878192E-011  0.5052887E+02  0.7816164E-02  0.1300439E+00
        -11   -1    0    0    0    0  0.00000000000E+00  0.00000000000E+00  0.45593999997E+02  0.45594000000E+02  0.51100000000E-03 0. -1.
         11   -1    0    0    0    0 -0.00000000000E+00 -0.00000000000E+00 -0.45593999997E+02  0.45594000000E+02  0.51100000000E-03 0.  1.
    9900012    2    1    2    0    0  0.17483100806E+02  0.21936924305E+02 -0.29432591134E+02  0.50528869628E+02  0.30000029722E+02 0.  0.
        -12    1    1    2    0    0 -0.17483100806E+02 -0.21936924305E+02  0.29432591134E+02  0.40659130372E+02  0.00000000000E+00 0.  1.
         11    1    3    3    0    0 -0.46001844744E+01  0.83753487173E+01 -0.60160987776E+00  0.95744502736E+01  0.51100000000E-03 0. -1.
        -11    1    3    3    0    0  0.59378077318E+01  0.10351707954E+02 -0.16609305679E+02  0.20452003658E+02  0.51100000000E-03 0.  1.
         12    1    3    3    0    0  0.16145477548E+02  0.32098676334E+01 -0.12221675577E+02  0.20502415696E+02  0.00000000000E+00 0. -1.
</event>
<event>
 7    1  0.4878192E-011  0.5052891E+02  0.7816164E-02  0.1300439E+00
        -11   -1    0    0    0    0  0.00000000000E+00  0.00000000000E+00  0.45593999997E+02  0.45594000000E+02  0.51100000000E-03 0. -1.
         11   -1    0    0    0    0 -0.00000000000E+00 -0.00000000000E+00 -0.45593999997E+02  0.45594000000E+02  0.51100000000E-03 0.  1.
    9900012    2    1    2    0    0 -0.11403819083E+02  0.96820501550E+01  0.37807046560E+02  0.50528905636E+02  0.30000139171E+02 0.  0.
        -12    1    1    2    0    0  0.11403819083E+02 -0.96820501550E+01 -0.37807046560E+02  0.40659094364E+02  0.00000000000E+00 0.  1.
         11    1    3    3    0    0 -0.16052285499E+02  0.10647156148E+02  0.21901381218E+02  0.29166904246E+02  0.51100000000E-03 0. -1.
        -11    1    3    3    0    0  0.57599981889E+01 -0.40950674090E+01  0.16534463133E+02  0.17981535740E+02  0.51100000000E-03 0.  1.
        -12    1    3    3    0    0 -0.11115317728E+01  0.31299614163E+01 -0.62879779020E+00  0.33804656500E+01  0.00000000000E+00 0.  1.
</event>
<event>
 7    1  0.4878192E-011  0.5052886E+02  0.7816164E-02  0.1300439E+00
        -11   -1    0    0    0    0  0.00000000000E+00  0.00000000000E+00  0.45593999997E+02  0.45594000000E+02  0.51100000000E-03 0.  1.
         11   -1    0    0    0    0 -0.00000000000E+00 -0.00000000000E+00 -0.45593999997E+02  0.45594000000E+02  0.51100000000E-03 0. -1.
    9900012    2    1    2    0    0  0.31973145465E+00  0.23950257077E+02 -0.32854967940E+02  0.50528856371E+02  0.29999989426E+02 0.  0.
        -12    1    1    2    0    0 -0.31973145465E+00 -0.23950257077E+02  0.32854967940E+02  0.40659143629E+02  0.00000000000E+00 0.  1.
         11    1    3    3    0    0 -0.78035702917E+01  0.19231394133E+02 -0.21597999816E+02  0.29953561155E+02  0.51100000000E-03 0. -1.
        -11    1    3    3    0    0  0.85121442896E+01  0.14604723734E+01  0.21907551903E+00  0.86393040406E+01  0.51100000000E-03 0.  1.
        -12    1    3    3    0    0 -0.38884254329E+00  0.32583905713E+01 -0.11476043643E+02  0.11935991175E+02  0.00000000000E+00 0.  1.
</event>
<event>
 7    1  0.4878192E-011  0.5052886E+02  0.7816164E-02  0.1300439E+00
        -11   -1    0    0    0    0  0.00000000000E+00  0.00000000000E+00  0.45593999997E+02  0.45594000000E+02  0.51100000000E-03 0. -1.
         11   -1    0    0    0    0 -0.00000000000E+00 -0.00000000000E+00 -0.45593999997E+02  0.45594000000E+02  0.51100000000E-03 0.  1.
    9900012    2    1    2    0    0  0.36358012813E+02 -0.22533279584E+01  0.18060534027E+02  0.50528862381E+02  0.30000007692E+02 0.  0.
        -12    1    1    2    0    0 -0.36358012813E+02  0.22533279584E+01 -0.18060534027E+02  0.40659137619E+02  0.00000000000E+00 0.  1.
         11    1    3    3    0    0  0.15623163684E+02 -0.20805355583E+01  0.10371021762E+02  0.18867166304E+02  0.51100000000E-03 0. -1.
        -11    1    3    3    0    0  0.11810084629E+02 -0.46418889473E+01 -0.65437865907E+01  0.14277477899E+02  0.51100000000E-03 0.  1.
        -12    1    3    3    0    0  0.89247645003E+01  0.44690965472E+01  0.14233298855E+02  0.17384218177E+02  0.00000000000E+00 0.  1.
</event>
<event>
 7    1  0.4878192E-011  0.5052886E+02  0.7816164E-02  0.1300439E+00
        -11   -1    0    0    0    0  0.00000000000E+00  0.00000000000E+00  0.45593999997E+02  0.45594000000E+02  0.51100000000E-03 0.  1.
         11   -1    0    0    0    0 -0.00000000000E+00 -0.00000000000E+00 -0.45593999997E+02  0.45594000000E+02  0.51100000000E-03 0. -1.
    9900012    2    1    2    0    0 -0.10220401701E+02 -0.10343481884E+02 -0.37970007088E+02  0.50528859986E+02  0.30000000413E+02 0.  0.
        -12    1    1    2    0    0  0.10220401701E+02  0.10343481884E+02  0.37970007088E+02  0.40659140014E+02  0.00000000000E+00 0.  1.
         11    1    3    3    0    0 -0.13211013270E+02  0.77232349553E+00 -0.21575660754E+02  0.25310797942E+02  0.51100000000E-03 0. -1.
        -11    1    3    3    0    0  0.66933824031E+01 -0.12932657079E+02 -0.14891907735E+02  0.20828439772E+02  0.51100000000E-03 0.  1.
        -12    1    3    3    0    0 -0.37027708337E+01  0.18168516991E+01 -0.15024385993E+01  0.43896222717E+01  0.00000000000E+00 0.  1.
</event>
<event>
 7    1  0.4878192E-011  0.5052885E+02  0.7816164E-02  0.1300439E+00
        -11   -1    0    0    0    0  0.00000000000E+00  0.00000000000E+00  0.45593999997E+02  0.45594000000E+02  0.51100000000E-03 0.  1.
         11   -1    0    0    0    0 -0.00000000000E+00 -0.00000000000E+00 -0.45593999997E+02  0.45594000000E+02  0.51100000000E-03 0. -1.
    9900012    2    1    2    0    0  0.34987168789E+02 -0.10792869384E+02  0.17679879600E+02  0.50528854017E+02  0.29999982271E+02 0.  0.
        -12    1    1    2    0    0 -0.34987168789E+02  0.10792869384E+02 -0.17679879600E+02  0.40659145983E+02  0.00000000000E+00 0.  1.
         11    1    3    3    0    0 -0.10583523134E+01 -0.70941506707E+01  0.48334772010E+01  0.86492534632E+01  0.51100000000E-03 0. -1.
        -11    1    3    3    0    0  0.37164224113E+02 -0.12836895534E+01  0.11720606132E+02  0.38989742512E+02  0.51100000000E-03 0.  1.
        -12    1    3    3    0    0 -0.11187030109E+01 -0.24150291597E+01  0.11257962666E+01  0.28898580420E+01  0.00000000000E+00 0.  1.
</event>
<event>
 7    1  0.4878192E-011  0.5052886E+02  0.7816164E-02  0.1300439E+00
        -11   -1    0    0    0    0  0.00000000000E+00  0.00000000000E+00  0.45593999997E+02  0.45594000000E+02  0.51100000000E-03 0.  1.
         11   -1    0    0    0    0 -0.00000000000E+00 -0.00000000000E+00 -0.45593999997E+02  0.45594000000E+02  0.51100000000E-03 0. -1.
    9900012    2    1    2    0    0  0.37836989351E+02 -0.11989119556E+02 -0.88197984588E+01  0.50528860859E+02  0.30000003066E+02 0.  0.
        -12    1    1    2    0    0 -0.37836989351E+02  0.11989119556E+02  0.88197984588E+01  0.40659139141E+02  0.00000000000E+00 0.  1.
         11    1    3    3    0    0  0.70152160773E+01  0.80643487961E+00 -0.29837590732E+01  0.76659254037E+01  0.51100000000E-03 0. -1.
        -11    1    3    3    0    0  0.30732592848E+02 -0.18068069632E+02 -0.93318018476E+00  0.35662560605E+02  0.51100000000E-03 0.  1.
        -12    1    3    3    0    0  0.89180425242E-01  0.52725151960E+01 -0.49028592008E+01  0.72003748502E+01  0.00000000000E+00 0.  1.
</event>
<event>
 7    1  0.4878192E-011  0.5052886E+02  0.7816164E-02  0.1300439E+00
        -11   -1    0    0    0    0  0.00000000000E+00  0.00000000000E+00  0.45593999997E+02  0.45594000000E+02  0.51100000000E-03 0. -1.
         11   -1    0    0    0    0 -0.00000000000E+00 -0.00000000000E+00 -0.45593999997E+02  0.45594000000E+02  0.51100000000E-03 0.  1.
    9900012    2    1    2    0    0  0.39974585534E+02  0.63209509230E+01  0.39042923871E+01  0.50528863164E+02  0.30000010075E+02 0.  0.
        -12    1    1    2    0    0 -0.39974585534E+02 -0.63209509230E+01 -0.39042923871E+01  0.40659136836E+02  0.00000000000E+00 0.  1.
         11    1    3    3    0    0  0.30008703390E+02 -0.42283348756E+01  0.85422158181E+01  0.31486037323E+02  0.51100000000E-03 0. -1.
        -11    1    3    3    0    0  0.31715542141E+01  0.11186679027E+02 -0.25194572301E+01  0.11897403447E+02  0.51100000000E-03 0.  1.
        -12    1    3    3    0    0  0.67943279293E+01 -0.63739322883E+00 -0.21184662009E+01  0.71454223936E+01  0.00000000000E+00 0.  1.
</event>
<event>
 7    1  0.4878192E-011  0.5052885E+02  0.7816164E-02  0.1300439E+00
        -11   -1    0    0    0    0  0.00000000000E+00  0.00000000000E+00  0.45593999997E+02  0.45594000000E+02  0.51100000000E-03 0.  1.
         11   -1    0    0    0    0 -0.00000000000E+00 -0.00000000000E+00 -0.45593999997E+02  0.45594000000E+02  0.51100000000E-03 0. -1.
    9900012    2    1    2    0    0  0.30614426461E+01  0.40530154026E+02 -0.10489469671E+01  0.50528854581E+02  0.29999983984E+02 0.  0.
        -12    1    1    2    0    0 -0.30614426461E+01 -0.40530154026E+02  0.10489469671E+01  0.40659145419E+02  0.00000000000E+00 0.  1.
         11    1    3    3    0    0 -0.55458557585E+01  0.11232824785E+02  0.85052838235E+01  0.15141754255E+02  0.51100000000E-03 0. -1.
        -11    1    3    3    0    0  0.65831531586E+01  0.13719300960E+02 -0.12140545042E+02  0.19466637063E+02  0.51100000000E-03 0.  1.
         12    1    3    3    0    0  0.20241452459E+01  0.15578028281E+02  0.25863142516E+01  0.15920463263E+02  0.00000000000E+00 0. -1.
</event>
<event>
 7    1  0.4878192E-011  0.5052886E+02  0.7816164E-02  0.1300439E+00
        -11   -1    0    0    0    0  0.00000000000E+00  0.00000000000E+00  0.45593999997E+02  0.45594000000E+02  0.51100000000E-03 0. -1.
         11   -1    0    0    0    0 -0.00000000000E+00 -0.00000000000E+00 -0.45593999997E+02  0.45594000000E+02  0.51100000000E-03 0.  1.
    9900012    2    1    2    0    0  0.32336195033E+02  0.21106476366E+02  0.12729982212E+02  0.50528864484E+02  0.30000014084E+02 0.  0.
        -12    1    1    2    0    0 -0.32336195033E+02 -0.21106476366E+02 -0.12729982212E+02  0.40659135516E+02  0.00000000000E+00 0.  1.
         11    1    3    3    0    0  0.29069084092E+01 -0.24577371113E+01  0.88737880916E+01  0.96558119059E+01  0.51100000000E-03 0. -1.
        -11    1    3    3    0    0  0.27266477419E+02  0.24701665408E+02  0.59330502204E+00  0.36796536194E+02  0.51100000000E-03 0.  1.
        -12    1    3    3    0    0  0.21628092054E+01 -0.11374519314E+01  0.32628890986E+01  0.40765163835E+01  0.00000000000E+00 0.  1.
</event>
<event>
 7    1  0.4878192E-011  0.5052886E+02  0.7816164E-02  0.1300439E+00
        -11   -1    0    0    0    0  0.00000000000E+00  0.00000000000E+00  0.45593999997E+02  0.45594000000E+02  0.51100000000E-03 0.  1.
         11   -1    0    0    0    0 -0.00000000000E+00 -0.00000000000E+00 -0.45593999997E+02  0.45594000000E+02  0.51100000000E-03 0. -1.
    9900012    2    1    2    0    0 -0.15425591947E+02 -0.19623356985E+02 -0.32095807612E+02  0.50528857208E+02  0.29999991970E+02 0.  0.
        -12    1    1    2    0    0  0.15425591947E+02  0.19623356985E+02  0.32095807612E+02  0.40659142792E+02  0.00000000000E+00 0.  1.
         11    1    3    3    0    0  0.49214952918E+01 -0.91901619261E+01 -0.95677388601E+01  0.14149975947E+02  0.51100000000E-03 0. -1.
        -11    1    3    3    0    0 -0.67449327053E+01  0.34006244722E+01 -0.13779622724E+01  0.76783555717E+01  0.51100000000E-03 0.  1.
         12    1    3    3    0    0 -0.13602154534E+02 -0.13833819531E+02 -0.21150106480E+02  0.28700525690E+02  0.00000000000E+00 0. -1.
</event>
<event>
 7    1  0.4878192E-011  0.5052882E+02  0.7816164E-02  0.1300439E+00
        -11   -1    0    0    0    0  0.00000000000E+00  0.00000000000E+00  0.45593999997E+02  0.45594000000E+02  0.51100000000E-03 0. -1.
         11   -1    0    0    0    0 -0.00000000000E+00 -0.00000000000E+00 -0.45593999997E+02  0.45594000000E+02  0.51100000000E-03 0.  1.
    9900012    2    1    2    0    0 -0.44511683694E+01 -0.92435061210E+01  0.39343534958E+02  0.50528818401E+02  0.29999874012E+02 0.  0.
        -12    1    1    2    0    0  0.44511683694E+01  0.92435061210E+01 -0.39343534958E+02  0.40659181599E+02  0.00000000000E+00 0.  1.
         11    1    3    3    0    0  0.45969656958E+01 -0.55267483409E+01  0.31302727026E+02  0.32117561557E+02  0.51100000000E-03 0. -1.
        -11    1    3    3    0    0 -0.91787388122E+01 -0.79382028120E+01  0.46522014014E+01  0.12996433673E+02  0.51100000000E-03 0.  1.
        -12    1    3    3    0    0  0.13060474705E+00  0.42214450319E+01  0.33886065309E+01  0.54148231715E+01  0.00000000000E+00 0.  1.
</event>
<event>
 7    1  0.4878192E-011  0.5052886E+02  0.7816164E-02  0.1300439E+00
        -11   -1    0    0    0    0  0.00000000000E+00  0.00000000000E+00  0.45593999997E+02  0.45594000000E+02  0.51100000000E-03 0.  1.
         11   -1    0    0    0    0 -0.00000000000E+00 -0.00000000000E+00 -0.45593999997E+02  0.45594000000E+02  0.51100000000E-03 0. -1.
    9900012    2    1    2    0    0 -0.24094291640E+01 -0.18349632445E+02 -0.36202918525E+02  0.50528859952E+02  0.30000000309E+02 0.  0.
        -12    1    1    2    0    0  0.24094291640E+01  0.18349632445E+02  0.36202918525E+02  0.40659140048E+02  0.00000000000E+00 0.  1.
         11    1    3    3    0    0 -0.69292875492E+01 -0.12313251495E+02 -0.12677345683E+02  0.18982789104E+02  0.51100000000E-03 0. -1.
        -11    1    3    3    0    0  0.59373032073E+01  0.55484468288E+01 -0.15112068385E+02  0.17158421919E+02  0.51100000000E-03 0.  1.
        -12    1    3    3    0    0 -0.14174448220E+01 -0.11584827778E+02 -0.84135044567E+01  0.14387648929E+02  0.00000000000E+00 0.  1.
</event>
<event>
 7    1  0.4878192E-011  0.5052887E+02  0.7816164E-02  0.1300439E+00
        -11   -1    0    0    0    0  0.00000000000E+00  0.00000000000E+00  0.45593999997E+02  0.45594000000E+02  0.51100000000E-03 0. -1.
         11   -1    0    0    0    0 -0.00000000000E+00 -0.00000000000E+00 -0.45593999997E+02  0.45594000000E+02  0.51100000000E-03 0.  1.
    9900012    2    1    2    0    0  0.34897302702E+01 -0.22616622212E+02  0.33607665973E+02  0.50528867819E+02  0.30000024221E+02 0.  0.
        -12    1    1    2    0    0 -0.34897302702E+01  0.22616622212E+02 -0.33607665973E+02  0.40659132181E+02  0.00000000000E+00 0.  1.
         11    1    3    3    0    0 -0.67734343309E+00 -0.24762720836E+02  0.25850902901E+02  0.35803914847E+02  0.51100000000E-03 0. -1.
        -11    1    3    3    0    0  0.27695494545E+01  0.18980120875E+01  0.10830682179E+02  0.11339159175E+02  0.51100000000E-03 0.  1.
        -12    1    3    3    0    0  0.13975242488E+01  0.24808653727E+00 -0.30739191071E+01  0.33857937966E+01  0.00000000000E+00 0.  1.
</event>
<event>
 7    1  0.4878192E-011  0.5052886E+02  0.7816164E-02  0.1300439E+00
        -11   -1    0    0    0    0  0.00000000000E+00  0.00000000000E+00  0.45593999997E+02  0.45594000000E+02  0.51100000000E-03 0.  1.
         11   -1    0    0    0    0 -0.00000000000E+00 -0.00000000000E+00 -0.45593999997E+02  0.45594000000E+02  0.51100000000E-03 0. -1.
    9900012    2    1    2    0    0  0.15748932030E+02  0.15437455630E+02 -0.34158772747E+02  0.50528860167E+02  0.30000000963E+02 0.  0.
        -12    1    1    2    0    0 -0.15748932030E+02 -0.15437455630E+02  0.34158772747E+02  0.40659139833E+02  0.00000000000E+00 0.  1.
         11    1    3    3    0    0  0.74910368827E+01  0.15892931305E+02 -0.75570983123E+01  0.19126176675E+02  0.51100000000E-03 0. -1.
        -11    1    3    3    0    0  0.12046202164E+02 -0.11772254862E+01 -0.23574352555E+02  0.26499942360E+02  0.51100000000E-03 0.  1.
        -12    1    3    3    0    0 -0.37883070170E+01  0.72174981107E+00 -0.30273218796E+01  0.49027411320E+01  0.00000000000E+00 0.  1.
</event>
<event>
 7    1  0.4878192E-011  0.5052885E+02  0.7816164E-02  0.1300439E+00
        -11   -1    0    0    0    0  0.00000000000E+00  0.00000000000E+00  0.45593999997E+02  0.45594000000E+02  0.51100000000E-03 0. -1.
         11   -1    0    0    0    0 -0.00000000000E+00 -0.00000000000E+00 -0.45593999997E+02  0.45594000000E+02  0.51100000000E-03 0.  1.
    9900012    2    1    2    0    0 -0.18939128041E+02 -0.35692886854E+02 -0.45269980935E+01  0.50528850296E+02  0.29999970959E+02 0.  0.
        -12    1    1    2    0    0  0.18939128041E+02  0.35692886854E+02  0.45269980935E+01  0.40659149704E+02  0.00000000000E+00 0.  1.
         11    1    3    3    0    0 -0.58576104070E+01 -0.72791851253E+01  0.35670972833E+01  0.10001115891E+02  0.51100000000E-03 0. -1.
        -11    1    3    3    0    0  0.72761582939E+01 -0.60426741949E+01 -0.22244454383E+01  0.97162003228E+01  0.51100000000E-03 0.  1.
        -12    1    3    3    0    0 -0.20357675927E+02 -0.22371027534E+02 -0.58696499385E+01  0.30811534082E+02  0.00000000000E+00 0.  1.
</event>
<event>
 7    1  0.4878192E-011  0.5052886E+02  0.7816164E-02  0.1300439E+00
        -11   -1    0    0    0    0  0.00000000000E+00  0.00000000000E+00  0.45593999997E+02  0.45594000000E+02  0.51100000000E-03 0. -1.
         11   -1    0    0    0    0 -0.00000000000E+00 -0.00000000000E+00 -0.45593999997E+02  0.45594000000E+02  0.51100000000E-03 0.  1.
    9900012    2    1    2    0    0 -0.40103509393E+02 -0.32205827106E+01 -0.58738601448E+01  0.50528857711E+02  0.29999993499E+02 0.  0.
        -12    1    1    2    0    0  0.40103509393E+02  0.32205827106E+01  0.58738601448E+01  0.40659142289E+02  0.00000000000E+00 0.  1.
         11    1    3    3    0    0 -0.51356223145E+01  0.21350716359E+01  0.22636150209E+00  0.55663621188E+01  0.51100000000E-03 0. -1.
        -11    1    3    3    0    0  0.42880984366E+01  0.60005830840E+00 -0.27207377792E+01  0.51137337142E+01  0.51100000000E-03 0.  1.
        -12    1    3    3    0    0 -0.39255985515E+02 -0.59557126548E+01 -0.33794838677E+01  0.39848761878E+02  0.00000000000E+00 0.  1.
</event>
<event>
 7    1  0.4878192E-011  0.5052886E+02  0.7816164E-02  0.1300439E+00
        -11   -1    0    0    0    0  0.00000000000E+00  0.00000000000E+00  0.45593999997E+02  0.45594000000E+02  0.51100000000E-03 0. -1.
         11   -1    0    0    0    0 -0.00000000000E+00 -0.00000000000E+00 -0.45593999997E+02  0.45594000000E+02  0.51100000000E-03 0.  1.
    9900012    2    1    2    0    0 -0.25411789278E+00  0.37777763577E+02  0.15031349422E+02  0.50528862500E+02  0.30000008056E+02 0.  0.
        -12    1    1    2    0    0  0.25411789278E+00 -0.37777763577E+02 -0.15031349422E+02  0.40659137500E+02  0.00000000000E+00 0.  1.
         11    1    3    3    0    0 -0.14446472372E+02  0.15756831455E+02  0.98140355291E+01  0.23522193672E+02  0.51100000000E-03 0. -1.
        -11    1    3    3    0    0  0.11496306472E+02  0.14860228630E+02  0.45158353731E+01  0.19323152610E+02  0.51100000000E-03 0.  1.
         12    1    3    3    0    0  0.26960480072E+01  0.71607034921E+01  0.70147851971E+00  0.76835162181E+01  0.00000000000E+00 0. -1.
</event>
<event>
 7    1  0.4878192E-011  0.5052885E+02  0.7816164E-02  0.1300439E+00
        -11   -1    0    0    0    0  0.00000000000E+00  0.00000000000E+00  0.45593999997E+02  0.45594000000E+02  0.51100000000E-03 0.  1.
         11   -1    0    0    0    0 -0.00000000000E+00 -0.00000000000E+00 -0.45593999997E+02  0.45594000000E+02  0.51100000000E-03 0. -1.
    9900012    2    1    2    0    0  0.31151130580E+02  0.34420485686E+01 -0.25902235759E+02  0.50528850328E+02  0.29999971056E+02 0.  0.
        -12    1    1    2    0    0 -0.31151130580E+02 -0.34420485686E+01  0.25902235759E+02  0.40659149672E+02  0.00000000000E+00 0.  1.
         11    1    3    3    0    0  0.19500356118E+02 -0.30039960976E+01 -0.16511479768E+02  0.25727744668E+02  0.51100000000E-03 0. -1.
        -11    1    3    3    0    0  0.14472220146E+01  0.10675427835E+02 -0.84949831791E+01  0.13719473404E+02  0.51100000000E-03 0.  1.
        -12    1    3    3    0    0  0.10203552447E+02 -0.42293831684E+01 -0.89577281208E+00  0.11081632256E+02  0.00000000000E+00 0.  1.
</event>
<event>
 7    1  0.4878192E-011  0.5052886E+02  0.7816164E-02  0.1300439E+00
        -11   -1    0    0    0    0  0.00000000000E+00  0.00000000000E+00  0.45593999997E+02  0.45594000000E+02  0.51100000000E-03 0.  1.
         11   -1    0    0    0    0 -0.00000000000E+00 -0.00000000000E+00 -0.45593999997E+02  0.45594000000E+02  0.51100000000E-03 0. -1.
    9900012    2    1    2    0    0  0.30374150613E+01  0.12850892423E+02 -0.38455097797E+02  0.50528857450E+02  0.29999992704E+02 0.  0.
        -12    1    1    2    0    0 -0.30374150613E+01 -0.12850892423E+02  0.38455097797E+02  0.40659142550E+02  0.00000000000E+00 0.  1.
         11    1    3    3    0    0  0.78322093509E+00  0.16875556812E+01 -0.20423368791E+02  0.20507931935E+02  0.51100000000E-03 0. -1.
        -11    1    3    3    0    0  0.74580824468E+01  0.14481377533E+02 -0.77725452585E+01  0.18048427884E+02  0.51100000000E-03 0.  1.
        -12    1    3    3    0    0 -0.52038883206E+01 -0.33180407910E+01 -0.10259183748E+02  0.11972497631E+02  0.00000000000E+00 0.  1.
</event>
<event>
 7    1  0.4878192E-011  0.5052885E+02  0.7816164E-02  0.1300439E+00
        -11   -1    0    0    0    0  0.00000000000E+00  0.00000000000E+00  0.45593999997E+02  0.45594000000E+02  0.51100000000E-03 0.  1.
         11   -1    0    0    0    0 -0.00000000000E+00 -0.00000000000E+00 -0.45593999997E+02  0.45594000000E+02  0.51100000000E-03 0. -1.
    9900012    2    1    2    0    0  0.69059625780E+01  0.11460274521E+02 -0.38394478484E+02  0.50528853560E+02  0.29999980880E+02 0.  0.
        -12    1    1    2    0    0 -0.69059625780E+01 -0.11460274521E+02  0.38394478484E+02  0.40659146440E+02  0.00000000000E+00 0.  1.
         11    1    3    3    0    0  0.69550041504E+01  0.10829921755E+02 -0.10627490783E+02  0.16691400437E+02  0.51100000000E-03 0. -1.
        -11    1    3    3    0    0 -0.17617181814E+00 -0.86401455985E+01 -0.70941692156E+01  0.11180804515E+02  0.51100000000E-03 0.  1.
        -12    1    3    3    0    0  0.12713024571E+00  0.92704983642E+01 -0.20672818485E+02  0.22656648608E+02  0.00000000000E+00 0.  1.
</event>
<event>
 7    1  0.4878192E-011  0.5052885E+02  0.7816164E-02  0.1300439E+00
        -11   -1    0    0    0    0  0.00000000000E+00  0.00000000000E+00  0.45593999997E+02  0.45594000000E+02  0.51100000000E-03 0. -1.
         11   -1    0    0    0    0 -0.00000000000E+00 -0.00000000000E+00 -0.45593999997E+02  0.45594000000E+02  0.51100000000E-03 0.  1.
    9900012    2    1    2    0    0 -0.31998717526E+01  0.28105816501E+02  0.29205994373E+02  0.50528853332E+02  0.29999980187E+02 0.  0.
        -12    1    1    2    0    0  0.31998717526E+01 -0.28105816501E+02 -0.29205994373E+02  0.40659146668E+02  0.00000000000E+00 0.  1.
         11    1    3    3    0    0 -0.74642984523E+00  0.20762587912E+02  0.15196591926E+02  0.25740602572E+02  0.51100000000E-03 0. -1.
        -11    1    3    3    0    0 -0.65286243078E+01 -0.29651724336E+01  0.11290475647E+02  0.13374977514E+02  0.51100000000E-03 0.  1.
        -12    1    3    3    0    0  0.40751824004E+01  0.10308401023E+02  0.27189268009E+01  0.11413273246E+02  0.00000000000E+00 0.  1.
</event>
<event>
 7    1  0.4878192E-011  0.5052888E+02  0.7816164E-02  0.1300439E+00
        -11   -1    0    0    0    0  0.00000000000E+00  0.00000000000E+00  0.45593999997E+02  0.45594000000E+02  0.51100000000E-03 0.  1.
         11   -1    0    0    0    0 -0.00000000000E+00 -0.00000000000E+00 -0.45593999997E+02  0.45594000000E+02  0.51100000000E-03 0. -1.
    9900012    2    1    2    0    0 -0.36765262561E+02 -0.14544870463E+02 -0.94829275583E+01  0.50528884133E+02  0.30000073812E+02 0.  0.
        -12    1    1    2    0    0  0.36765262561E+02  0.14544870463E+02  0.94829275583E+01  0.40659115867E+02  0.00000000000E+00 0.  1.
         11    1    3    3    0    0 -0.97948145149E+00  0.49136845560E+01  0.33083775638E+01  0.60040854587E+01  0.51100000000E-03 0. -1.
        -11    1    3    3    0    0 -0.32492162535E+02 -0.12327553265E+02 -0.11181620846E+02  0.36506682138E+02  0.51100000000E-03 0.  1.
         12    1    3    3    0    0 -0.32936185747E+01 -0.71310017543E+01 -0.16096842758E+01  0.80181165372E+01  0.00000000000E+00 0. -1.
</event>
<event>
 7    1  0.4878192E-011  0.5052887E+02  0.7816164E-02  0.1300439E+00
        -11   -1    0    0    0    0  0.00000000000E+00  0.00000000000E+00  0.45593999997E+02  0.45594000000E+02  0.51100000000E-03 0.  1.
         11   -1    0    0    0    0 -0.00000000000E+00 -0.00000000000E+00 -0.45593999997E+02  0.45594000000E+02  0.51100000000E-03 0. -1.
    9900012    2    1    2    0    0  0.32419626659E+01  0.23388411365E+02 -0.33100404367E+02  0.50528869692E+02  0.30000029916E+02 0.  0.
        -12    1    1    2    0    0 -0.32419626659E+01 -0.23388411365E+02  0.33100404367E+02  0.40659130308E+02  0.00000000000E+00 0.  1.
         11    1    3    3    0    0  0.13765704651E+01  0.52777434006E+01 -0.18338067140E+02  0.19132021021E+02  0.51100000000E-03 0. -1.
        -11    1    3    3    0    0 -0.80834902082E+01  0.14436771862E+02 -0.58685735631E+01  0.17555721337E+02  0.51100000000E-03 0.  1.
        -12    1    3    3    0    0  0.99488824091E+01  0.36738961033E+01 -0.88937636640E+01  0.13841127334E+02  0.00000000000E+00 0.  1.
</event>
<event>
 7    1  0.4878192E-011  0.5052887E+02  0.7816164E-02  0.1300439E+00
        -11   -1    0    0    0    0  0.00000000000E+00  0.00000000000E+00  0.45593999997E+02  0.45594000000E+02  0.51100000000E-03 0.  1.
         11   -1    0    0    0    0 -0.00000000000E+00 -0.00000000000E+00 -0.45593999997E+02  0.45594000000E+02  0.51100000000E-03 0. -1.
    9900012    2    1    2    0    0  0.55187122080E+01 -0.12848892012E+02 -0.38178720749E+02  0.50528869065E+02  0.30000028011E+02 0.  0.
        -12    1    1    2    0    0 -0.55187122080E+01  0.12848892012E+02  0.38178720749E+02  0.40659130935E+02  0.00000000000E+00 0.  1.
         11    1    3    3    0    0  0.27414822734E+01  0.29984281693E+01 -0.23092275078E+02  0.23446950017E+02  0.51100000000E-03 0. -1.
        -11    1    3    3    0    0  0.81483310926E+01 -0.10890067920E+02 -0.47178681518E+01  0.14396081378E+02  0.51100000000E-03 0.  1.
        -12    1    3    3    0    0 -0.53711011580E+01 -0.49572522613E+01 -0.10368577518E+02  0.12685837670E+02  0.00000000000E+00 0.  1.
</event>
<event>
 7    1  0.4878192E-011  0.5052888E+02  0.7816164E-02  0.1300439E+00
        -11   -1    0    0    0    0  0.00000000000E+00  0.00000000000E+00  0.45593999997E+02  0.45594000000E+02  0.51100000000E-03 0. -1.
         11   -1    0    0    0    0 -0.00000000000E+00 -0.00000000000E+00 -0.45593999997E+02  0.45594000000E+02  0.51100000000E-03 0.  1.
    9900012    2    1    2    0    0 -0.56691217321E+01  0.38837586074E+02  0.10614470273E+02  0.50528880328E+02  0.30000062246E+02 0.  0.
        -12    1    1    2    0    0  0.56691217321E+01 -0.38837586074E+02 -0.10614470273E+02  0.40659119672E+02  0.00000000000E+00 0.  1.
         11    1    3    3    0    0 -0.42647511716E+01  0.10144656167E+02  0.73668019510E+01  0.13242806445E+02  0.51100000000E-03 0. -1.
        -11    1    3    3    0    0  0.28465853801E+01  0.20741262781E+01 -0.74847287574E+01  0.82720138405E+01  0.51100000000E-03 0.  1.
        -12    1    3    3    0    0 -0.42509559406E+01  0.26618803630E+02  0.10732397080E+02  0.29014060043E+02  0.00000000000E+00 0.  1.
</event>
<event>
 7    1  0.4878192E-011  0.5052887E+02  0.7816164E-02  0.1300439E+00
        -11   -1    0    0    0    0  0.00000000000E+00  0.00000000000E+00  0.45593999997E+02  0.45594000000E+02  0.51100000000E-03 0.  1.
         11   -1    0    0    0    0 -0.00000000000E+00 -0.00000000000E+00 -0.45593999997E+02  0.45594000000E+02  0.51100000000E-03 0. -1.
    9900012    2    1    2    0    0 -0.27247086168E+01  0.63641951163E+01 -0.40065422780E+02  0.50528866721E+02  0.30000020884E+02 0.  0.
        -12    1    1    2    0    0  0.27247086168E+01 -0.63641951163E+01  0.40065422780E+02  0.40659133279E+02  0.00000000000E+00 0.  1.
         11    1    3    3    0    0  0.36038483767E+01  0.11199106989E+02 -0.17094522436E+02  0.20751636515E+02  0.51100000000E-03 0. -1.
        -11    1    3    3    0    0 -0.94448691951E+01 -0.17690295168E+01 -0.23485664329E+02  0.25375410318E+02  0.51100000000E-03 0.  1.
         12    1    3    3    0    0  0.31163122016E+01 -0.30658823561E+01  0.51476398634E+00  0.44018198874E+01  0.00000000000E+00 0. -1.
</event>
<event>
 7    1  0.4878192E-011  0.5052884E+02  0.7816164E-02  0.1300439E+00
        -11   -1    0    0    0    0  0.00000000000E+00  0.00000000000E+00  0.45593999997E+02  0.45594000000E+02  0.51100000000E-03 0. -1.
         11   -1    0    0    0    0 -0.00000000000E+00 -0.00000000000E+00 -0.45593999997E+02  0.45594000000E+02  0.51100000000E-03 0.  1.
    9900012    2    1    2    0    0  0.93070527708E+01  0.19337596806E+02  0.34534094028E+02  0.50528837049E+02  0.29999930695E+02 0.  0.
        -12    1    1    2    0    0 -0.93070527708E+01 -0.19337596806E+02 -0.34534094028E+02  0.40659162951E+02  0.00000000000E+00 0.  1.
         11    1    3    3    0    0  0.40321817952E+00  0.16680274894E+02  0.57561670661E+01  0.17650144900E+02  0.51100000000E-03 0. -1.
        -11    1    3    3    0    0  0.35075791344E+01 -0.42750605485E+01  0.18742499062E+02  0.19541251890E+02  0.51100000000E-03 0.  1.
         12    1    3    3    0    0  0.53962554570E+01  0.69323824603E+01  0.10035427900E+02  0.13337440259E+02  0.00000000000E+00 0. -1.
</event>
<event>
 7    1  0.4878192E-011  0.5052886E+02  0.7816164E-02  0.1300439E+00
        -11   -1    0    0    0    0  0.00000000000E+00  0.00000000000E+00  0.45593999997E+02  0.45594000000E+02  0.51100000000E-03 0. -1.
         11   -1    0    0    0    0 -0.00000000000E+00 -0.00000000000E+00 -0.45593999997E+02  0.45594000000E+02  0.51100000000E-03 0.  1.
    9900012    2    1    2    0    0  0.75433579532E+01 -0.37732441865E+02  0.13134915066E+02  0.50528863117E+02  0.30000009930E+02 0.  0.
        -12    1    1    2    0    0 -0.75433579532E+01  0.37732441865E+02 -0.13134915066E+02  0.40659136883E+02  0.00000000000E+00 0.  1.
         11    1    3    3    0    0 -0.35187004728E+01 -0.22198719581E+01  0.78499914653E+01  0.88843373863E+01  0.51100000000E-03 0. -1.
        -11    1    3    3    0    0  0.11853320194E+02 -0.14984345428E+02 -0.32832718754E+01  0.19385862942E+02  0.51100000000E-03 0.  1.
         12    1    3    3    0    0 -0.79126176818E+00 -0.20528224478E+02  0.85681954762E+01  0.22258662789E+02  0.00000000000E+00 0. -1.
</event>
<event>
 7    1  0.4878192E-011  0.5052898E+02  0.7816164E-02  0.1300438E+00
        -11   -1    0    0    0    0  0.00000000000E+00  0.00000000000E+00  0.45593999997E+02  0.45594000000E+02  0.51100000000E-03 0.  1.
         11   -1    0    0    0    0 -0.00000000000E+00 -0.00000000000E+00 -0.45593999997E+02  0.45594000000E+02  0.51100000000E-03 0. -1.
    9900012    2    1    2    0    0 -0.38826930475E+02 -0.73907904234E+01  0.95394826198E+01  0.50528978346E+02  0.30000360179E+02 0.  0.
        -12    1    1    2    0    0  0.38826930475E+02  0.73907904234E+01 -0.95394826198E+01  0.40659021654E+02  0.00000000000E+00 0.  1.
         11    1    3    3    0    0 -0.94925838345E+01 -0.65785224316E+01 -0.54319385669E+01  0.12762917460E+02  0.51100000000E-03 0. -1.
        -11    1    3    3    0    0 -0.11053820815E+02  0.66253978903E+01  0.12363445418E+02  0.17858825120E+02  0.51100000000E-03 0.  1.
         12    1    3    3    0    0 -0.18280525826E+02 -0.74376658821E+01  0.26079757691E+01  0.19907235766E+02  0.00000000000E+00 0. -1.
</event>
<event>
 7    1  0.4878192E-011  0.5052884E+02  0.7816164E-02  0.1300439E+00
        -11   -1    0    0    0    0  0.00000000000E+00  0.00000000000E+00  0.45593999997E+02  0.45594000000E+02  0.51100000000E-03 0. -1.
         11   -1    0    0    0    0 -0.00000000000E+00 -0.00000000000E+00 -0.45593999997E+02  0.45594000000E+02  0.51100000000E-03 0.  1.
    9900012    2    1    2    0    0 -0.13681471492E+02 -0.20126096310E+02  0.32571843150E+02  0.50528838904E+02  0.29999936331E+02 0.  0.
        -12    1    1    2    0    0  0.13681471492E+02  0.20126096310E+02 -0.32571843150E+02  0.40659161096E+02  0.00000000000E+00 0.  1.
         11    1    3    3    0    0  0.52185780303E+01 -0.82251074800E+01  0.83363463302E+01  0.12821100581E+02  0.51100000000E-03 0. -1.
        -11    1    3    3    0    0 -0.20535112005E+02 -0.13814578070E+02  0.24896793083E+02  0.35105322935E+02  0.51100000000E-03 0.  1.
        -12    1    3    3    0    0  0.16350624828E+01  0.19135892400E+01 -0.66129626266E+00  0.26024153875E+01  0.00000000000E+00 0.  1.
</event>
<event>
 7    1  0.4878192E-011  0.5052885E+02  0.7816164E-02  0.1300439E+00
        -11   -1    0    0    0    0  0.00000000000E+00  0.00000000000E+00  0.45593999997E+02  0.45594000000E+02  0.51100000000E-03 0.  1.
         11   -1    0    0    0    0 -0.00000000000E+00 -0.00000000000E+00 -0.45593999997E+02  0.45594000000E+02  0.51100000000E-03 0. -1.
    9900012    2    1    2    0    0  0.24888770396E+02  0.13406367616E+02 -0.29223023617E+02  0.50528847355E+02  0.29999962020E+02 0.  0.
        -12    1    1    2    0    0 -0.24888770396E+02 -0.13406367616E+02  0.29223023617E+02  0.40659152645E+02  0.00000000000E+00 0.  1.
         11    1    3    3    0    0  0.38302746001E+01  0.13446606185E+02 -0.32791046008E+01  0.14360875622E+02  0.51100000000E-03 0. -1.
        -11    1    3    3    0    0  0.28957111229E+01 -0.27696993489E+01  0.42875673940E+00  0.40299143903E+01  0.51100000000E-03 0.  1.
         12    1    3    3    0    0  0.18162784673E+02  0.27294607805E+01 -0.26372675756E+02  0.32138057342E+02  0.00000000000E+00 0. -1.
</event>
<event>
 7    1  0.4878192E-011  0.5052886E+02  0.7816164E-02  0.1300439E+00
        -11   -1    0    0    0    0  0.00000000000E+00  0.00000000000E+00  0.45593999997E+02  0.45594000000E+02  0.51100000000E-03 0.  1.
         11   -1    0    0    0    0 -0.00000000000E+00 -0.00000000000E+00 -0.45593999997E+02  0.45594000000E+02  0.51100000000E-03 0. -1.
    9900012    2    1    2    0    0  0.37298004453E+02 -0.63821647048E+01  0.14875895041E+02  0.50528863071E+02  0.30000009792E+02 0.  0.
        -12    1    1    2    0    0 -0.37298004453E+02  0.63821647048E+01 -0.14875895041E+02  0.40659136929E+02  0.00000000000E+00 0.  1.
         11    1    3    3    0    0  0.29731985199E+02 -0.78414480945E+01 -0.65422206350E+00  0.30755605324E+02  0.51100000000E-03 0. -1.
        -11    1    3    3    0    0  0.12209641981E+01  0.38952035361E+01  0.10651717664E+02  0.11407122933E+02  0.51100000000E-03 0.  1.
        -12    1    3    3    0    0  0.63450550558E+01 -0.24359201464E+01  0.48783994409E+01  0.83661348140E+01  0.00000000000E+00 0.  1.
</event>
<event>
 7    1  0.4878192E-011  0.5052884E+02  0.7816164E-02  0.1300439E+00
        -11   -1    0    0    0    0  0.00000000000E+00  0.00000000000E+00  0.45593999997E+02  0.45594000000E+02  0.51100000000E-03 0.  1.
         11   -1    0    0    0    0 -0.00000000000E+00 -0.00000000000E+00 -0.45593999997E+02  0.45594000000E+02  0.51100000000E-03 0. -1.
    9900012    2    1    2    0    0 -0.12688704508E+02  0.10953326217E+02 -0.37043067157E+02  0.50528838650E+02  0.29999935561E+02 0.  0.
        -12    1    1    2    0    0  0.12688704508E+02 -0.10953326217E+02  0.37043067157E+02  0.40659161350E+02  0.00000000000E+00 0.  1.
         11    1    3    3    0    0 -0.45408637588E+01 -0.22384730967E+01 -0.47951500173E+01  0.69730674334E+01  0.51100000000E-03 0. -1.
        -11    1    3    3    0    0  0.18093976147E+01  0.98344498181E+01 -0.31468331680E+02  0.33018876752E+02  0.51100000000E-03 0.  1.
        -12    1    3    3    0    0 -0.99572383642E+01  0.33573494954E+01 -0.77958545907E+00  0.10536894465E+02  0.00000000000E+00 0.  1.
</event>
<event>
 7    1  0.4878192E-011  0.5052887E+02  0.7816164E-02  0.1300439E+00
        -11   -1    0    0    0    0  0.00000000000E+00  0.00000000000E+00  0.45593999997E+02  0.45594000000E+02  0.51100000000E-03 0.  1.
         11   -1    0    0    0    0 -0.00000000000E+00 -0.00000000000E+00 -0.45593999997E+02  0.45594000000E+02  0.51100000000E-03 0. -1.
    9900012    2    1    2    0    0 -0.23736531005E+01  0.17588315531E+02 -0.36581169600E+02  0.50528867673E+02  0.30000023778E+02 0.  0.
        -12    1    1    2    0    0  0.23736531005E+01 -0.17588315531E+02  0.36581169600E+02  0.40659132327E+02  0.00000000000E+00 0.  1.
         11    1    3    3    0    0  0.31113492597E+01  0.87071253743E+01 -0.33414347238E+02  0.34670060976E+02  0.51100000000E-03 0. -1.
        -11    1    3    3    0    0 -0.11996016522E+01 -0.23636508789E+01  0.13877913245E+01  0.29919650103E+01  0.51100000000E-03 0.  1.
         12    1    3    3    0    0 -0.42854007080E+01  0.11244841036E+02 -0.45546136870E+01  0.12866841686E+02  0.00000000000E+00 0. -1.
</event>
<event>
 7    1  0.4878192E-011  0.5052886E+02  0.7816164E-02  0.1300439E+00
        -11   -1    0    0    0    0  0.00000000000E+00  0.00000000000E+00  0.45593999997E+02  0.45594000000E+02  0.51100000000E-03 0. -1.
         11   -1    0    0    0    0 -0.00000000000E+00 -0.00000000000E+00 -0.45593999997E+02  0.45594000000E+02  0.51100000000E-03 0.  1.
    9900012    2    1    2    0    0  0.28637039984E+02  0.24746367783E+02  0.14856072601E+02  0.50528859938E+02  0.30000000266E+02 0.  0.
        -12    1    1    2    0    0 -0.28637039984E+02 -0.24746367783E+02 -0.14856072601E+02  0.40659140062E+02  0.00000000000E+00 0.  1.
         11    1    3    3    0    0  0.22334258346E+02  0.24266683027E+02  0.17233366313E+02  0.37211287478E+02  0.51100000000E-03 0. -1.
        -11    1    3    3    0    0  0.52916022995E+01  0.32004443473E+01 -0.60398693217E+01  0.86442998907E+01  0.51100000000E-03 0.  1.
         12    1    3    3    0    0  0.10111793388E+01 -0.27207595918E+01  0.36625756097E+01  0.46732725694E+01  0.00000000000E+00 0. -1.
</event>
<event>
 7    1  0.4878192E-011  0.5052886E+02  0.7816164E-02  0.1300439E+00
        -11   -1    0    0    0    0  0.00000000000E+00  0.00000000000E+00  0.45593999997E+02  0.45594000000E+02  0.51100000000E-03 0.  1.
         11   -1    0    0    0    0 -0.00000000000E+00 -0.00000000000E+00 -0.45593999997E+02  0.45594000000E+02  0.51100000000E-03 0. -1.
    9900012    2    1    2    0    0  0.31225814044E+01 -0.27931514805E+02 -0.29381041543E+02  0.50528860363E+02  0.30000001559E+02 0.  0.
        -12    1    1    2    0    0 -0.31225814044E+01  0.27931514805E+02  0.29381041543E+02  0.40659139637E+02  0.00000000000E+00 0.  1.
         11    1    3    3    0    0  0.94616781828E+01 -0.13118342685E+02 -0.20221339569E+02  0.25894339981E+02  0.51100000000E-03 0. -1.
        -11    1    3    3    0    0 -0.10568732047E+02 -0.47919912086E+01 -0.69775078099E+01  0.13540564697E+02  0.51100000000E-03 0.  1.
        -12    1    3    3    0    0  0.42296352683E+01 -0.10021180911E+02 -0.21821941636E+01  0.11093955684E+02  0.00000000000E+00 0.  1.
</event>
<event>
 7    1  0.4878192E-011  0.5052885E+02  0.7816164E-02  0.1300439E+00
        -11   -1    0    0    0    0  0.00000000000E+00  0.00000000000E+00  0.45593999997E+02  0.45594000000E+02  0.51100000000E-03 0.  1.
         11   -1    0    0    0    0 -0.00000000000E+00 -0.00000000000E+00 -0.45593999997E+02  0.45594000000E+02  0.51100000000E-03 0. -1.
    9900012    2    1    2    0    0  0.78119123713E+01 -0.18889955059E+01 -0.39856893146E+02  0.50528853302E+02  0.29999980098E+02 0.  0.
        -12    1    1    2    0    0 -0.78119123713E+01  0.18889955059E+01  0.39856893146E+02  0.40659146698E+02  0.00000000000E+00 0.  1.
         11    1    3    3    0    0  0.35350918152E+01 -0.11900751534E+02 -0.18623746042E+02  0.22382329595E+02  0.51100000000E-03 0.  1.
        -11    1    3    3    0    0  0.31682316638E+01  0.65989604298E+01 -0.23007172504E+02  0.24143611112E+02  0.51100000000E-03 0. -1.
        -12    1    3    3    0    0  0.11085888922E+01  0.34127955980E+01  0.17740253998E+01  0.40029125952E+01  0.00000000000E+00 0.  1.
</event>
<event>
 7    1  0.4878192E-011  0.5052886E+02  0.7816164E-02  0.1300439E+00
        -11   -1    0    0    0    0  0.00000000000E+00  0.00000000000E+00  0.45593999997E+02  0.45594000000E+02  0.51100000000E-03 0. -1.
         11   -1    0    0    0    0 -0.00000000000E+00 -0.00000000000E+00 -0.45593999997E+02  0.45594000000E+02  0.51100000000E-03 0.  1.
    9900012    2    1    2    0    0  0.37431234696E+02  0.15863497019E+02  0.64621472720E+00  0.50528862503E+02  0.30000008063E+02 0.  0.
        -12    1    1    2    0    0 -0.37431234696E+02 -0.15863497019E+02 -0.64621472720E+00  0.40659137497E+02  0.00000000000E+00 0.  1.
         11    1    3    3    0    0  0.28309987414E+02  0.82785693383E+01 -0.58104264709E+01  0.30062454220E+02  0.51100000000E-03 0. -1.
        -11    1    3    3    0    0  0.88935066101E+01  0.55158337543E+01  0.11174497374E+02  0.15309744402E+02  0.51100000000E-03 0.  1.
         12    1    3    3    0    0  0.22774067210E+00  0.20690939261E+01 -0.47178561758E+01  0.51566638812E+01  0.00000000000E+00 0. -1.
</event>
<event>
 7    1  0.4878192E-011  0.5052887E+02  0.7816164E-02  0.1300439E+00
        -11   -1    0    0    0    0  0.00000000000E+00  0.00000000000E+00  0.45593999997E+02  0.45594000000E+02  0.51100000000E-03 0.  1.
         11   -1    0    0    0    0 -0.00000000000E+00 -0.00000000000E+00 -0.45593999997E+02  0.45594000000E+02  0.51100000000E-03 0. -1.
    9900012    2    1    2    0    0 -0.25030033284E+02  0.65223144261E+01 -0.31370711773E+02  0.50528871765E+02  0.30000036218E+02 0.  0.
        -12    1    1    2    0    0  0.25030033284E+02 -0.65223144261E+01  0.31370711773E+02  0.40659128235E+02  0.00000000000E+00 0.  1.
         11    1    3    3    0    0 -0.30932907879E+02  0.49931473081E+01 -0.28495893013E+02  0.42353184399E+02  0.51100000000E-03 0. -1.
        -11    1    3    3    0    0  0.29392767052E+01  0.72713962387E+00 -0.39012895792E+01  0.49384349974E+01  0.51100000000E-03 0.  1.
         12    1    3    3    0    0  0.29635978897E+01  0.80202749415E+00  0.10264708198E+01  0.32372523685E+01  0.00000000000E+00 0. -1.
</event>
<event>
 7    1  0.4878192E-011  0.5052886E+02  0.7816164E-02  0.1300439E+00
        -11   -1    0    0    0    0  0.00000000000E+00  0.00000000000E+00  0.45593999997E+02  0.45594000000E+02  0.51100000000E-03 0.  1.
         11   -1    0    0    0    0 -0.00000000000E+00 -0.00000000000E+00 -0.45593999997E+02  0.45594000000E+02  0.51100000000E-03 0. -1.
    9900012    2    1    2    0    0 -0.16079604431E+02 -0.29519096771E+02 -0.22874323975E+02  0.50528862649E+02  0.30000008507E+02 0.  0.
        -12    1    1    2    0    0  0.16079604431E+02  0.29519096771E+02  0.22874323975E+02  0.40659137351E+02  0.00000000000E+00 0.  1.
         11    1    3    3    0    0 -0.43921385196E+01 -0.13093350908E+02 -0.55629900076E+01  0.14888706353E+02  0.51100000000E-03 0. -1.
        -11    1    3    3    0    0 -0.74303320679E+01 -0.68522801310E+01 -0.21962567221E+02  0.24176805762E+02  0.51100000000E-03 0.  1.
        -12    1    3    3    0    0 -0.42571338430E+01 -0.95734657327E+01  0.46512332540E+01  0.11463350534E+02  0.00000000000E+00 0.  1.
</event>
<event>
 7    1  0.4878192E-011  0.5052886E+02  0.7816164E-02  0.1300439E+00
        -11   -1    0    0    0    0  0.00000000000E+00  0.00000000000E+00  0.45593999997E+02  0.45594000000E+02  0.51100000000E-03 0. -1.
         11   -1    0    0    0    0 -0.00000000000E+00 -0.00000000000E+00 -0.45593999997E+02  0.45594000000E+02  0.51100000000E-03 0.  1.
    9900012    2    1    2    0    0 -0.35652560555E+02 -0.87725253013E+01  0.17467207724E+02  0.50528860560E+02  0.30000002160E+02 0.  0.
        -12    1    1    2    0    0  0.35652560555E+02  0.87725253013E+01 -0.17467207724E+02  0.40659139440E+02  0.00000000000E+00 0.  1.
         11    1    3    3    0    0 -0.30115239959E+02 -0.42356845897E+00  0.19648854732E+02  0.35960875693E+02  0.51100000000E-03 0. -1.
        -11    1    3    3    0    0  0.14600329599E+01 -0.13358959949E+01 -0.40304528565E+01  0.44900851710E+01  0.51100000000E-03 0.  1.
         12    1    3    3    0    0 -0.69973535556E+01 -0.70130608475E+01  0.18488058485E+01  0.10077899697E+02  0.00000000000E+00 0. -1.
</event>
<event>
 7    1  0.4878192E-011  0.5052886E+02  0.7816164E-02  0.1300439E+00
        -11   -1    0    0    0    0  0.00000000000E+00  0.00000000000E+00  0.45593999997E+02  0.45594000000E+02  0.51100000000E-03 0.  1.
         11   -1    0    0    0    0 -0.00000000000E+00 -0.00000000000E+00 -0.45593999997E+02  0.45594000000E+02  0.51100000000E-03 0. -1.
    9900012    2    1    2    0    0 -0.23062805057E+02 -0.10622481680E+02 -0.31755878208E+02  0.50528857180E+02  0.29999991883E+02 0.  0.
        -12    1    1    2    0    0  0.23062805057E+02  0.10622481680E+02  0.31755878208E+02  0.40659142820E+02  0.00000000000E+00 0.  1.
         11    1    3    3    0    0 -0.78637017857E+00 -0.25667232091E+01 -0.96951642971E+01  0.10059953136E+02  0.51100000000E-03 0. -1.
        -11    1    3    3    0    0 -0.14465608390E+02  0.64111574917E+01 -0.45815694552E+01  0.16472630191E+02  0.51100000000E-03 0.  1.
        -12    1    3    3    0    0 -0.78108264879E+01 -0.14466915962E+02 -0.17479144456E+02  0.23996273852E+02  0.00000000000E+00 0.  1.
</event>
<event>
 7    1  0.4878192E-011  0.5052876E+02  0.7816164E-02  0.1300439E+00
        -11   -1    0    0    0    0  0.00000000000E+00  0.00000000000E+00  0.45593999997E+02  0.45594000000E+02  0.51100000000E-03 0.  1.
         11   -1    0    0    0    0 -0.00000000000E+00 -0.00000000000E+00 -0.45593999997E+02  0.45594000000E+02  0.51100000000E-03 0. -1.
    9900012    2    1    2    0    0 -0.18862605454E+02  0.18631312665E+02 -0.30826127825E+02  0.50528759318E+02  0.29999694420E+02 0.  0.
        -12    1    1    2    0    0  0.18862605454E+02 -0.18631312665E+02  0.30826127825E+02  0.40659240682E+02  0.00000000000E+00 0.  1.
         11    1    3    3    0    0 -0.92713848240E+01  0.56380392863E+01 -0.88825924973E+01  0.14023070751E+02  0.51100000000E-03 0. -1.
        -11    1    3    3    0    0 -0.15728971472E+01 -0.46059413093E+01 -0.15301878794E+02  0.16057278588E+02  0.51100000000E-03 0.  1.
        -12    1    3    3    0    0 -0.80183234833E+01  0.17599214688E+02 -0.66416565346E+01  0.20448409979E+02  0.00000000000E+00 0.  1.
</event>
<event>
 7    1  0.4878192E-011  0.5052885E+02  0.7816164E-02  0.1300439E+00
        -11   -1    0    0    0    0  0.00000000000E+00  0.00000000000E+00  0.45593999997E+02  0.45594000000E+02  0.51100000000E-03 0.  1.
         11   -1    0    0    0    0 -0.00000000000E+00 -0.00000000000E+00 -0.45593999997E+02  0.45594000000E+02  0.51100000000E-03 0. -1.
    9900012    2    1    2    0    0  0.16868754243E+02 -0.36922390071E+02  0.23126660574E+01  0.50528853642E+02  0.29999981130E+02 0.  0.
        -12    1    1    2    0    0 -0.16868754243E+02  0.36922390071E+02 -0.23126660574E+01  0.40659146358E+02  0.00000000000E+00 0.  1.
         11    1    3    3    0    0 -0.29764009448E+01 -0.13785077597E+02 -0.34440654830E+01  0.14517193746E+02  0.51100000000E-03 0. -1.
        -11    1    3    3    0    0  0.21324696427E+02 -0.23674422457E+02  0.83856672844E+01  0.32947539703E+02  0.51100000000E-03 0.  1.
        -12    1    3    3    0    0 -0.14795412392E+01  0.53710998330E+00 -0.26289357440E+01  0.30641201933E+01  0.00000000000E+00 0.  1.
</event>
<event>
 7    1  0.4878192E-011  0.5052879E+02  0.7816164E-02  0.1300439E+00
        -11   -1    0    0    0    0  0.00000000000E+00  0.00000000000E+00  0.45593999997E+02  0.45594000000E+02  0.51100000000E-03 0.  1.
         11   -1    0    0    0    0 -0.00000000000E+00 -0.00000000000E+00 -0.45593999997E+02  0.45594000000E+02  0.51100000000E-03 0. -1.
    9900012    2    1    2    0    0  0.39985632748E+02  0.33677151102E+01  0.65558263000E+01  0.50528792066E+02  0.29999793963E+02 0.  0.
        -12    1    1    2    0    0 -0.39985632748E+02 -0.33677151102E+01 -0.65558263000E+01  0.40659207934E+02  0.00000000000E+00 0.  1.
         11    1    3    3    0    0  0.17819690432E+02  0.49428024059E+01 -0.50165618499E+01  0.19160859995E+02  0.51100000000E-03 0. -1.
        -11    1    3    3    0    0  0.95001035315E+01 -0.82219206329E+01  0.11546674819E+02  0.17063928200E+02  0.51100000000E-03 0.  1.
        -12    1    3    3    0    0  0.12665838785E+02  0.66468333372E+01  0.25713331256E-01  0.14304003870E+02  0.00000000000E+00 0.  1.
</event>
<event>
 7    1  0.4878192E-011  0.5052886E+02  0.7816164E-02  0.1300439E+00
        -11   -1    0    0    0    0  0.00000000000E+00  0.00000000000E+00  0.45593999997E+02  0.45594000000E+02  0.51100000000E-03 0.  1.
         11   -1    0    0    0    0 -0.00000000000E+00 -0.00000000000E+00 -0.45593999997E+02  0.45594000000E+02  0.51100000000E-03 0. -1.
    9900012    2    1    2    0    0 -0.27741726661E+02 -0.24366395919E+02 -0.17024709779E+02  0.50528863373E+02  0.30000010709E+02 0.  0.
        -12    1    1    2    0    0  0.27741726661E+02  0.24366395919E+02  0.17024709779E+02  0.40659136627E+02  0.00000000000E+00 0.  1.
         11    1    3    3    0    0 -0.13645208045E+02  0.19568684568E+01 -0.15405147849E+01  0.13870624456E+02  0.51100000000E-03 0. -1.
        -11    1    3    3    0    0 -0.92747171076E+01 -0.20929112494E+02 -0.42309231527E+01  0.23279794634E+02  0.51100000000E-03 0.  1.
        -12    1    3    3    0    0 -0.48218015085E+01 -0.53941518820E+01 -0.11253271841E+02  0.13378444283E+02  0.00000000000E+00 0.  1.
</event>
<event>
 7    1  0.4878192E-011  0.5052886E+02  0.7816164E-02  0.1300439E+00
        -11   -1    0    0    0    0  0.00000000000E+00  0.00000000000E+00  0.45593999997E+02  0.45594000000E+02  0.51100000000E-03 0.  1.
         11   -1    0    0    0    0 -0.00000000000E+00 -0.00000000000E+00 -0.45593999997E+02  0.45594000000E+02  0.51100000000E-03 0. -1.
    9900012    2    1    2    0    0 -0.74649043761E+01  0.20979740624E+02 -0.34018985517E+02  0.50528859704E+02  0.29999999557E+02 0.  0.
        -12    1    1    2    0    0  0.74649043761E+01 -0.20979740624E+02  0.34018985517E+02  0.40659140296E+02  0.00000000000E+00 0.  1.
         11    1    3    3    0    0 -0.26108775685E+01  0.20286680919E+02 -0.38107726615E+02  0.43250028120E+02  0.51100000000E-03 0. -1.
        -11    1    3    3    0    0  0.31149896660E+00 -0.14441316161E+00  0.13091995484E+01  0.13534734893E+01  0.51100000000E-03 0.  1.
         12    1    3    3    0    0 -0.51655257742E+01  0.83747286684E+00  0.27795415496E+01  0.59253580949E+01  0.00000000000E+00 0. -1.
</event>
<event>
 7    1  0.4878192E-011  0.5052886E+02  0.7816164E-02  0.1300439E+00
        -11   -1    0    0    0    0  0.00000000000E+00  0.00000000000E+00  0.45593999997E+02  0.45594000000E+02  0.51100000000E-03 0. -1.
         11   -1    0    0    0    0 -0.00000000000E+00 -0.00000000000E+00 -0.45593999997E+02  0.45594000000E+02  0.51100000000E-03 0.  1.
    9900012    2    1    2    0    0  0.32568690811E+02  0.12754163115E+02 -0.20731079565E+02  0.50528856406E+02  0.29999989530E+02 0.  0.
        -12    1    1    2    0    0 -0.32568690811E+02 -0.12754163115E+02  0.20731079565E+02  0.40659143594E+02  0.00000000000E+00 0.  1.
         11    1    3    3    0    0  0.70711698917E+01 -0.43260986557E+01  0.13414754103E+01  0.83973882698E+01  0.51100000000E-03 0. -1.
        -11    1    3    3    0    0  0.16929112954E+02  0.20495170529E+02 -0.15131317432E+02  0.30587638809E+02  0.51100000000E-03 0.  1.
        -12    1    3    3    0    0  0.85684079652E+01 -0.34149087583E+01 -0.69412375434E+01  0.11543829326E+02  0.00000000000E+00 0.  1.
</event>
<event>
 7    1  0.4878192E-011  0.5052885E+02  0.7816164E-02  0.1300439E+00
        -11   -1    0    0    0    0  0.00000000000E+00  0.00000000000E+00  0.45593999997E+02  0.45594000000E+02  0.51100000000E-03 0.  1.
         11   -1    0    0    0    0 -0.00000000000E+00 -0.00000000000E+00 -0.45593999997E+02  0.45594000000E+02  0.51100000000E-03 0. -1.
    9900012    2    1    2    0    0  0.67364433962E+01 -0.39925834772E+02 -0.37032872314E+01  0.50528852343E+02  0.29999977181E+02 0.  0.
        -12    1    1    2    0    0 -0.67364433962E+01  0.39925834772E+02  0.37032872314E+01  0.40659147657E+02  0.00000000000E+00 0.  1.
         11    1    3    3    0    0  0.88804196712E+01 -0.33032673256E+02 -0.57170200386E+01  0.34680018373E+02  0.51100000000E-03 0. -1.
        -11    1    3    3    0    0 -0.22891667780E+01  0.18589400069E+01  0.56476612468E+01  0.63711867267E+01  0.51100000000E-03 0.  1.
        -12    1    3    3    0    0  0.14519050294E+00 -0.87521015231E+01 -0.36339284396E+01  0.94776472427E+01  0.00000000000E+00 0.  1.
</event>
<event>
 7    1  0.4878192E-011  0.5052885E+02  0.7816164E-02  0.1300439E+00
        -11   -1    0    0    0    0  0.00000000000E+00  0.00000000000E+00  0.45593999997E+02  0.45594000000E+02  0.51100000000E-03 0.  1.
         11   -1    0    0    0    0 -0.00000000000E+00 -0.00000000000E+00 -0.45593999997E+02  0.45594000000E+02  0.51100000000E-03 0. -1.
    9900012    2    1    2    0    0  0.23884843648E+02  0.24080069611E+02 -0.22423890849E+02  0.50528851099E+02  0.29999973401E+02 0.  0.
        -12    1    1    2    0    0 -0.23884843648E+02 -0.24080069611E+02  0.22423890849E+02  0.40659148901E+02  0.00000000000E+00 0.  1.
         11    1    3    3    0    0  0.23228344774E+02  0.98406149741E+01 -0.14740688727E+02  0.29217830317E+02  0.51100000000E-03 0. -1.
        -11    1    3    3    0    0 -0.67150805983E+00  0.88584334524E+00 -0.78122294923E+01  0.78909170195E+01  0.51100000000E-03 0.  1.
         12    1    3    3    0    0  0.13280069334E+01  0.13353611291E+02  0.12902737058E+00  0.13420103763E+02  0.00000000000E+00 0. -1.
</event>
<event>
 7    1  0.4878192E-011  0.5052886E+02  0.7816164E-02  0.1300439E+00
        -11   -1    0    0    0    0  0.00000000000E+00  0.00000000000E+00  0.45593999997E+02  0.45594000000E+02  0.51100000000E-03 0. -1.
         11   -1    0    0    0    0 -0.00000000000E+00 -0.00000000000E+00 -0.45593999997E+02  0.45594000000E+02  0.51100000000E-03 0.  1.
    9900012    2    1    2    0    0 -0.38444330066E+02 -0.45451747839E+01  0.12431423500E+02  0.50528863041E+02  0.30000009698E+02 0.  0.
        -12    1    1    2    0    0  0.38444330066E+02  0.45451747839E+01 -0.12431423500E+02  0.40659136959E+02  0.00000000000E+00 0.  1.
         11    1    3    3    0    0 -0.20634668254E+02  0.53269965081E+01  0.26142480989E+01  0.21470927301E+02  0.51100000000E-03 0. -1.
        -11    1    3    3    0    0  0.11105774048E+01 -0.74004052969E+01  0.60167827048E+01  0.96021380489E+01  0.51100000000E-03 0.  1.
        -12    1    3    3    0    0 -0.18920239217E+02 -0.24717659951E+01  0.38003926963E+01  0.19455797691E+02  0.00000000000E+00 0.  1.
</event>
<event>
 7    1  0.4878192E-011  0.5052887E+02  0.7816164E-02  0.1300439E+00
        -11   -1    0    0    0    0  0.00000000000E+00  0.00000000000E+00  0.45593999997E+02  0.45594000000E+02  0.51100000000E-03 0.  1.
         11   -1    0    0    0    0 -0.00000000000E+00 -0.00000000000E+00 -0.45593999997E+02  0.45594000000E+02  0.51100000000E-03 0. -1.
    9900012    2    1    2    0    0  0.18097829972E+02  0.36326959884E+02  0.24465005249E+01  0.50528870288E+02  0.30000031727E+02 0.  0.
        -12    1    1    2    0    0 -0.18097829972E+02 -0.36326959884E+02 -0.24465005249E+01  0.40659129712E+02  0.00000000000E+00 0.  1.
         11    1    3    3    0    0  0.20649121432E+01  0.21850443897E+02  0.32865800004E+01  0.22192507047E+02  0.51100000000E-03 0. -1.
        -11    1    3    3    0    0  0.50282001569E+01 -0.29888061251E+01  0.40590358343E+01  0.71197985250E+01  0.51100000000E-03 0.  1.
        -12    1    3    3    0    0  0.11004717672E+02  0.17465322112E+02 -0.48991153097E+01  0.21216564716E+02  0.00000000000E+00 0.  1.
</event>
<event>
 7    1  0.4878192E-011  0.5052886E+02  0.7816164E-02  0.1300439E+00
        -11   -1    0    0    0    0  0.00000000000E+00  0.00000000000E+00  0.45593999997E+02  0.45594000000E+02  0.51100000000E-03 0.  1.
         11   -1    0    0    0    0 -0.00000000000E+00 -0.00000000000E+00 -0.45593999997E+02  0.45594000000E+02  0.51100000000E-03 0. -1.
    9900012    2    1    2    0    0  0.15523578683E+02 -0.37557955669E+02  0.12586058045E+01  0.50528860588E+02  0.30000002242E+02 0.  0.
        -12    1    1    2    0    0 -0.15523578683E+02  0.37557955669E+02 -0.12586058045E+01  0.40659139412E+02  0.00000000000E+00 0.  1.
         11    1    3    3    0    0  0.76283804524E+01 -0.19274781272E+02 -0.52214765008E+01  0.21376931457E+02  0.51100000000E-03 0. -1.
        -11    1    3    3    0    0  0.28071806711E+01  0.24123126521E+01 -0.39599529622E+01  0.54204006655E+01  0.51100000000E-03 0.  1.
        -12    1    3    3    0    0  0.50880175599E+01 -0.20695487049E+02  0.10440035267E+02  0.23731528465E+02  0.00000000000E+00 0.  1.
</event>
<event>
 7    1  0.4878192E-011  0.5052884E+02  0.7816164E-02  0.1300439E+00
        -11   -1    0    0    0    0  0.00000000000E+00  0.00000000000E+00  0.45593999997E+02  0.45594000000E+02  0.51100000000E-03 0. -1.
         11   -1    0    0    0    0 -0.00000000000E+00 -0.00000000000E+00 -0.45593999997E+02  0.45594000000E+02  0.51100000000E-03 0.  1.
    9900012    2    1    2    0    0  0.39252146661E+02 -0.15452720849E+01 -0.10490391778E+02  0.50528841094E+02  0.29999942990E+02 0.  0.
        -12    1    1    2    0    0 -0.39252146661E+02  0.15452720849E+01  0.10490391778E+02  0.40659158906E+02  0.00000000000E+00 0.  1.
         11    1    3    3    0    0  0.12356010531E+02 -0.71963572188E+01 -0.57258959227E+01  0.15402741244E+02  0.51100000000E-03 0. -1.
        -11    1    3    3    0    0  0.23401924072E+02  0.12546849289E+02 -0.61901637044E+01  0.27265208679E+02  0.51100000000E-03 0.  1.
        -12    1    3    3    0    0  0.34942120574E+01 -0.68957641549E+01  0.14256678497E+01  0.78608911708E+01  0.00000000000E+00 0.  1.
</event>
<event>
 7    1  0.4878192E-011  0.5052886E+02  0.7816164E-02  0.1300439E+00
        -11   -1    0    0    0    0  0.00000000000E+00  0.00000000000E+00  0.45593999997E+02  0.45594000000E+02  0.51100000000E-03 0. -1.
         11   -1    0    0    0    0 -0.00000000000E+00 -0.00000000000E+00 -0.45593999997E+02  0.45594000000E+02  0.51100000000E-03 0.  1.
    9900012    2    1    2    0    0  0.32132954430E+02 -0.57057087163E+01 -0.24250432890E+02  0.50528863662E+02  0.30000011588E+02 0.  0.
        -12    1    1    2    0    0 -0.32132954430E+02  0.57057087163E+01  0.24250432890E+02  0.40659136338E+02  0.00000000000E+00 0.  1.
         11    1    3    3    0    0  0.24554160304E+02 -0.77714984349E+01 -0.38023462829E+01  0.26033839780E+02  0.51100000000E-03 0. -1.
        -11    1    3    3    0    0  0.23098556884E+01  0.60405573453E+01 -0.13156127497E+02  0.14659722280E+02  0.51100000000E-03 0.  1.
        -12    1    3    3    0    0  0.52689384375E+01 -0.39747676267E+01 -0.72919591108E+01  0.98353016028E+01  0.00000000000E+00 0.  1.
</event>
<event>
 7    1  0.4878192E-011  0.5052886E+02  0.7816164E-02  0.1300439E+00
        -11   -1    0    0    0    0  0.00000000000E+00  0.00000000000E+00  0.45593999997E+02  0.45594000000E+02  0.51100000000E-03 0.  1.
         11   -1    0    0    0    0 -0.00000000000E+00 -0.00000000000E+00 -0.45593999997E+02  0.45594000000E+02  0.51100000000E-03 0. -1.
    9900012    2    1    2    0    0 -0.55552908273E+01  0.16283193060E+02 -0.36839678168E+02  0.50528861791E+02  0.30000005900E+02 0.  0.
        -12    1    1    2    0    0  0.55552908273E+01 -0.16283193060E+02  0.36839678168E+02  0.40659138209E+02  0.00000000000E+00 0.  1.
         11    1    3    3    0    0 -0.11968194537E+02  0.11038467833E+02 -0.75537781281E+01  0.17948398727E+02  0.51100000000E-03 0. -1.
        -11    1    3    3    0    0  0.40127085568E+01  0.38527072964E+01 -0.33439356776E+01  0.64905384638E+01  0.51100000000E-03 0.  1.
         12    1    3    3    0    0  0.24001951533E+01  0.13920179307E+01 -0.25941964362E+02  0.26089924601E+02  0.00000000000E+00 0. -1.
</event>
<event>
 7    1  0.4878192E-011  0.5052886E+02  0.7816164E-02  0.1300439E+00
        -11   -1    0    0    0    0  0.00000000000E+00  0.00000000000E+00  0.45593999997E+02  0.45594000000E+02  0.51100000000E-03 0.  1.
         11   -1    0    0    0    0 -0.00000000000E+00 -0.00000000000E+00 -0.45593999997E+02  0.45594000000E+02  0.51100000000E-03 0. -1.
    9900012    2    1    2    0    0 -0.35841912353E+02 -0.73150290628E+01 -0.17748613934E+02  0.50528860463E+02  0.30000001864E+02 0.  0.
        -12    1    1    2    0    0  0.35841912353E+02  0.73150290628E+01  0.17748613934E+02  0.40659139537E+02  0.00000000000E+00 0.  1.
         11    1    3    3    0    0 -0.28977348821E+02 -0.10641798846E+02 -0.19546363001E+02  0.36537582489E+02  0.51100000000E-03 0. -1.
        -11    1    3    3    0    0 -0.96877552979E-01 -0.38767453354E+01 -0.29166793314E+00  0.38889086001E+01  0.51100000000E-03 0.  1.
         12    1    3    3    0    0 -0.67676859788E+01  0.72035151182E+01  0.20894169996E+01  0.10102369374E+02  0.00000000000E+00 0. -1.
</event>
<event>
 7    1  0.4878192E-011  0.5052889E+02  0.7816164E-02  0.1300439E+00
        -11   -1    0    0    0    0  0.00000000000E+00  0.00000000000E+00  0.45593999997E+02  0.45594000000E+02  0.51100000000E-03 0.  1.
         11   -1    0    0    0    0 -0.00000000000E+00 -0.00000000000E+00 -0.45593999997E+02  0.45594000000E+02  0.51100000000E-03 0. -1.
    9900012    2    1    2    0    0 -0.23251696552E+01  0.40591278327E+02 -0.32398116215E+00  0.50528889656E+02  0.30000090600E+02 0.  0.
        -12    1    1    2    0    0  0.23251696552E+01 -0.40591278327E+02  0.32398116215E+00  0.40659110344E+02  0.00000000000E+00 0.  1.
         11    1    3    3    0    0  0.38149834821E+01  0.34829339340E+02 -0.35859348469E+01  0.35220674424E+02  0.51100000000E-03 0. -1.
        -11    1    3    3    0    0 -0.71662156183E+01  0.60188588942E+01 -0.23078606007E+01  0.96388551960E+01  0.51100000000E-03 0.  1.
         12    1    3    3    0    0  0.10260624810E+01 -0.25691990774E+00  0.55698142854E+01  0.56693600369E+01  0.00000000000E+00 0. -1.
</event>
<event>
 7    1  0.4878192E-011  0.5052886E+02  0.7816164E-02  0.1300439E+00
        -11   -1    0    0    0    0  0.00000000000E+00  0.00000000000E+00  0.45593999997E+02  0.45594000000E+02  0.51100000000E-03 0.  1.
         11   -1    0    0    0    0 -0.00000000000E+00 -0.00000000000E+00 -0.45593999997E+02  0.45594000000E+02  0.51100000000E-03 0. -1.
    9900012    2    1    2    0    0  0.37976125296E+02  0.86609522281E+01 -0.11660495603E+02  0.50528863958E+02  0.30000012488E+02 0.  0.
        -12    1    1    2    0    0 -0.37976125296E+02 -0.86609522281E+01  0.11660495603E+02  0.40659136042E+02  0.00000000000E+00 0.  1.
         11    1    3    3    0    0  0.32623252151E+02 -0.22320075269E+01 -0.64451797485E+01  0.33328648049E+02  0.51100000000E-03 0. -1.
        -11    1    3    3    0    0  0.22471721618E+01  0.12386961044E+02 -0.55082034389E+01  0.13741429766E+02  0.51100000000E-03 0.  1.
         12    1    3    3    0    0  0.31057009829E+01 -0.14940012895E+01  0.29288758465E+00  0.34587861433E+01  0.00000000000E+00 0. -1.
</event>
<event>
 7    1  0.4878192E-011  0.5052886E+02  0.7816164E-02  0.1300439E+00
        -11   -1    0    0    0    0  0.00000000000E+00  0.00000000000E+00  0.45593999997E+02  0.45594000000E+02  0.51100000000E-03 0.  1.
         11   -1    0    0    0    0 -0.00000000000E+00 -0.00000000000E+00 -0.45593999997E+02  0.45594000000E+02  0.51100000000E-03 0. -1.
    9900012    2    1    2    0    0  0.21171683421E+02  0.28276100682E+02 -0.20134234103E+02  0.50528862877E+02  0.30000009202E+02 0.  0.
        -12    1    1    2    0    0 -0.21171683421E+02 -0.28276100682E+02  0.20134234103E+02  0.40659137123E+02  0.00000000000E+00 0.  1.
         11    1    3    3    0    0 -0.17895682270E+01  0.14631298700E+02 -0.10892114578E+02  0.18328000882E+02  0.51100000000E-03 0. -1.
        -11    1    3    3    0    0  0.20272745155E+02  0.72716521760E+01 -0.11681193080E+01  0.21569089560E+02  0.51100000000E-03 0.  1.
        -12    1    3    3    0    0  0.26885064932E+01  0.63731498060E+01 -0.80740002169E+01  0.10631772435E+02  0.00000000000E+00 0.  1.
</event>
<event>
 7    1  0.4878192E-011  0.5052886E+02  0.7816164E-02  0.1300439E+00
        -11   -1    0    0    0    0  0.00000000000E+00  0.00000000000E+00  0.45593999997E+02  0.45594000000E+02  0.51100000000E-03 0. -1.
         11   -1    0    0    0    0 -0.00000000000E+00 -0.00000000000E+00 -0.45593999997E+02  0.45594000000E+02  0.51100000000E-03 0.  1.
    9900012    2    1    2    0    0  0.26343306827E+02  0.28194645256E+02  0.12816323384E+02  0.50528856123E+02  0.29999988672E+02 0.  0.
        -12    1    1    2    0    0 -0.26343306827E+02 -0.28194645256E+02 -0.12816323384E+02  0.40659143877E+02  0.00000000000E+00 0.  1.
         11    1    3    3    0    0  0.41878747441E+01 -0.26025279810E+01 -0.68521696463E+00  0.49780487456E+01  0.51100000000E-03 0. -1.
        -11    1    3    3    0    0  0.19466502588E+02  0.32927379481E+02  0.15837757781E+02  0.41400381814E+02  0.51100000000E-03 0.  1.
        -12    1    3    3    0    0  0.26889294945E+01 -0.21302062442E+01 -0.23362174324E+01  0.41504255638E+01  0.00000000000E+00 0.  1.
</event>
<event>
 7    1  0.8811337E-011  0.5052887E+02  0.7816164E-02  0.1300439E+00
        -11   -1    0    0    0    0  0.00000000000E+00  0.00000000000E+00  0.45593999997E+02  0.45594000000E+02  0.51100000000E-03 0. -1.
         11   -1    0    0    0    0 -0.00000000000E+00 -0.00000000000E+00 -0.45593999997E+02  0.45594000000E+02  0.51100000000E-03 0.  1.
    9900012    2    1    2    0    0 -0.24499024926E+02 -0.31448514904E+02  0.79971201145E+01  0.50528865207E+02  0.30000016283E+02 0.  0.
        -12    1    1    2    0    0  0.24499024926E+02  0.31448514904E+02 -0.79971201145E+01  0.40659134793E+02  0.00000000000E+00 0.  1.
         11    1    3    3    0    0 -0.22871093421E+02 -0.15857389360E+02  0.79445978746E+01  0.28942362503E+02  0.51100000000E-03 0. -1.
        -11    1    3    3    0    0 -0.57912780901E+00  0.17639222859E+01 -0.33873629967E+01  0.38627760979E+01  0.51100000000E-03 0.  1.
         12    1    3    3    0    0 -0.10488036955E+01 -0.17355047830E+02  0.34398852365E+01  0.17723726606E+02  0.00000000000E+00 0. -1.
</event>
<event>
 7    1  0.4878192E-011  0.5052891E+02  0.7816164E-02  0.1300439E+00
        -11   -1    0    0    0    0  0.00000000000E+00  0.00000000000E+00  0.45593999997E+02  0.45594000000E+02  0.51100000000E-03 0.  1.
         11   -1    0    0    0    0 -0.00000000000E+00 -0.00000000000E+00 -0.45593999997E+02  0.45594000000E+02  0.51100000000E-03 0. -1.
    9900012    2    1    2    0    0 -0.24104930789E+02 -0.84222484087E+01 -0.31641420984E+02  0.50528911490E+02  0.30000156963E+02 0.  0.
        -12    1    1    2    0    0  0.24104930789E+02  0.84222484087E+01  0.31641420984E+02  0.40659088510E+02  0.00000000000E+00 0.  1.
         11    1    3    3    0    0 -0.17531977646E+02  0.18358512065E+01 -0.13397021979E+02  0.22140930152E+02  0.51100000000E-03 0. -1.
        -11    1    3    3    0    0  0.10717181181E+01 -0.13202009789E+02 -0.13540150014E+02  0.18941417710E+02  0.51100000000E-03 0.  1.
        -12    1    3    3    0    0 -0.76446712615E+01  0.29439101738E+01 -0.47042489905E+01  0.94465636277E+01  0.00000000000E+00 0.  1.
</event>
<event>
 7    1  0.4878192E-011  0.5052885E+02  0.7816164E-02  0.1300439E+00
        -11   -1    0    0    0    0  0.00000000000E+00  0.00000000000E+00  0.45593999997E+02  0.45594000000E+02  0.51100000000E-03 0. -1.
         11   -1    0    0    0    0 -0.00000000000E+00 -0.00000000000E+00 -0.45593999997E+02  0.45594000000E+02  0.51100000000E-03 0.  1.
    9900012    2    1    2    0    0 -0.92232512759E+00 -0.33457076578E+02 -0.23085487156E+02  0.50528851288E+02  0.29999973975E+02 0.  0.
        -12    1    1    2    0    0  0.92232512759E+00  0.33457076578E+02  0.23085487156E+02  0.40659148712E+02  0.00000000000E+00 0.  1.
         11    1    3    3    0    0  0.67342718145E+00 -0.33559571796E+02 -0.12465881472E+02  0.35806376030E+02  0.51100000000E-03 0. -1.
        -11    1    3    3    0    0  0.10493427121E+01 -0.35874753117E+01 -0.92557076877E+01  0.99819449157E+01  0.51100000000E-03 0.  1.
         12    1    3    3    0    0 -0.26450950211E+01  0.36899705297E+01 -0.13638979963E+01  0.47405303422E+01  0.00000000000E+00 0. -1.
</event>
<event>
 7    1  0.4878192E-011  0.5052886E+02  0.7816164E-02  0.1300439E+00
        -11   -1    0    0    0    0  0.00000000000E+00  0.00000000000E+00  0.45593999997E+02  0.45594000000E+02  0.51100000000E-03 0.  1.
         11   -1    0    0    0    0 -0.00000000000E+00 -0.00000000000E+00 -0.45593999997E+02  0.45594000000E+02  0.51100000000E-03 0. -1.
    9900012    2    1    2    0    0 -0.20584946326E+02  0.24123346135E+02 -0.25445824934E+02  0.50528857725E+02  0.29999993541E+02 0.  0.
        -12    1    1    2    0    0  0.20584946326E+02 -0.24123346135E+02  0.25445824934E+02  0.40659142275E+02  0.00000000000E+00 0.  1.
         11    1    3    3    0    0 -0.19775683125E+02  0.20267116596E+02 -0.52380455649E+01  0.28797061999E+02  0.51100000000E-03 0.  1.
        -11    1    3    3    0    0  0.13364884153E+01  0.17585244548E+01 -0.17653428358E+02  0.17791069180E+02  0.51100000000E-03 0. -1.
         12    1    3    3    0    0 -0.21457516167E+01  0.20977050840E+01 -0.25543510110E+01  0.39407265457E+01  0.00000000000E+00 0. -1.
</event>
<event>
 7    1  0.4878192E-011  0.5052886E+02  0.7816164E-02  0.1300439E+00
        -11   -1    0    0    0    0  0.00000000000E+00  0.00000000000E+00  0.45593999997E+02  0.45594000000E+02  0.51100000000E-03 0.  1.
         11   -1    0    0    0    0 -0.00000000000E+00 -0.00000000000E+00 -0.45593999997E+02  0.45594000000E+02  0.51100000000E-03 0. -1.
    9900012    2    1    2    0    0  0.72394409833E+01  0.27088087266E+02 -0.29444719873E+02  0.50528861964E+02  0.30000006425E+02 0.  0.
        -12    1    1    2    0    0 -0.72394409833E+01 -0.27088087266E+02  0.29444719873E+02  0.40659138036E+02  0.00000000000E+00 0.  1.
         11    1    3    3    0    0  0.14728505607E+02  0.10648702083E+02 -0.80223381876E+01  0.19866596179E+02  0.51100000000E-03 0.  1.
        -11    1    3    3    0    0 -0.64595160454E+01  0.18506064698E+02 -0.18670388403E+02  0.27069968259E+02  0.51100000000E-03 0. -1.
         12    1    3    3    0    0 -0.10295485781E+01 -0.20666795152E+01 -0.27519932823E+01  0.35922975265E+01  0.00000000000E+00 0. -1.
</event>
<event>
 7    1  0.4878192E-011  0.5052886E+02  0.7816164E-02  0.1300439E+00
        -11   -1    0    0    0    0  0.00000000000E+00  0.00000000000E+00  0.45593999997E+02  0.45594000000E+02  0.51100000000E-03 0.  1.
         11   -1    0    0    0    0 -0.00000000000E+00 -0.00000000000E+00 -0.45593999997E+02  0.45594000000E+02  0.51100000000E-03 0. -1.
    9900012    2    1    2    0    0 -0.25294019371E+02  0.31553357449E+02  0.42146973409E+01  0.50528862578E+02  0.30000008291E+02 0.  0.
        -12    1    1    2    0    0  0.25294019371E+02 -0.31553357449E+02 -0.42146973409E+01  0.40659137422E+02  0.00000000000E+00 0.  1.
         11    1    3    3    0    0 -0.23554407998E+02  0.20026056668E+02 -0.77338789880E+01  0.31869514686E+02  0.51100000000E-03 0. -1.
        -11    1    3    3    0    0  0.27173722246E+01  0.14237955358E+01  0.40578253616E+01  0.50869688874E+01  0.51100000000E-03 0.  1.
         12    1    3    3    0    0 -0.44569835971E+01  0.10103505245E+02  0.78907509673E+01  0.13572379005E+02  0.00000000000E+00 0. -1.
</event>
<event>
 7    1  0.4878192E-011  0.5052886E+02  0.7816164E-02  0.1300439E+00
        -11   -1    0    0    0    0  0.00000000000E+00  0.00000000000E+00  0.45593999997E+02  0.45594000000E+02  0.51100000000E-03 0.  1.
         11   -1    0    0    0    0 -0.00000000000E+00 -0.00000000000E+00 -0.45593999997E+02  0.45594000000E+02  0.51100000000E-03 0. -1.
    9900012    2    1    2    0    0 -0.19603356314E+02  0.30328156198E+02 -0.18683608810E+02  0.50528857421E+02  0.29999992616E+02 0.  0.
        -12    1    1    2    0    0  0.19603356314E+02 -0.30328156198E+02  0.18683608810E+02  0.40659142579E+02  0.00000000000E+00 0.  1.
         11    1    3    3    0    0 -0.16973841595E+02  0.15625247170E+02 -0.12233852568E+01  0.23103166868E+02  0.51100000000E-03 0. -1.
        -11    1    3    3    0    0  0.73252470294E+00  0.11332254971E+02 -0.19241517326E+02  0.22342618120E+02  0.51100000000E-03 0.  1.
        -12    1    3    3    0    0 -0.33620394225E+01  0.33706540564E+01  0.17812937733E+01  0.50830724324E+01  0.00000000000E+00 0.  1.
</event>
<event>
 7    1  0.4878192E-011  0.5052886E+02  0.7816164E-02  0.1300439E+00
        -11   -1    0    0    0    0  0.00000000000E+00  0.00000000000E+00  0.45593999997E+02  0.45594000000E+02  0.51100000000E-03 0. -1.
         11   -1    0    0    0    0 -0.00000000000E+00 -0.00000000000E+00 -0.45593999997E+02  0.45594000000E+02  0.51100000000E-03 0.  1.
    9900012    2    1    2    0    0 -0.22519272567E+02 -0.24935289034E+02  0.22897140132E+02  0.50528864466E+02  0.30000014031E+02 0.  0.
        -12    1    1    2    0    0  0.22519272567E+02  0.24935289034E+02 -0.22897140132E+02  0.40659135534E+02  0.00000000000E+00 0.  1.
         11    1    3    3    0    0 -0.23065038717E+02 -0.22763094470E+02  0.27311692827E+02  0.42380219988E+02  0.51100000000E-03 0. -1.
        -11    1    3    3    0    0 -0.19667200822E+01 -0.34384637263E+01 -0.19822322203E+01  0.44294768896E+01  0.51100000000E-03 0.  1.
         12    1    3    3    0    0  0.25124862323E+01  0.12662691620E+01 -0.24323204755E+01  0.37191675888E+01  0.00000000000E+00 0. -1.
</event>
<event>
 7    1  0.4878192E-011  0.5052887E+02  0.7816164E-02  0.1300439E+00
        -11   -1    0    0    0    0  0.00000000000E+00  0.00000000000E+00  0.45593999997E+02  0.45594000000E+02  0.51100000000E-03 0.  1.
         11   -1    0    0    0    0 -0.00000000000E+00 -0.00000000000E+00 -0.45593999997E+02  0.45594000000E+02  0.51100000000E-03 0. -1.
    9900012    2    1    2    0    0  0.11133354600E+02  0.18344060944E+02 -0.34535613423E+02  0.50528871246E+02  0.30000034639E+02 0.  0.
        -12    1    1    2    0    0 -0.11133354600E+02 -0.18344060944E+02  0.34535613423E+02  0.40659128754E+02  0.00000000000E+00 0.  1.
         11    1    3    3    0    0  0.10163882497E+02  0.44811259004E+01 -0.25345644781E+02  0.27672851432E+02  0.51100000000E-03 0. -1.
        -11    1    3    3    0    0 -0.55568025125E+01  0.15391735036E+00 -0.11543329521E+01  0.56775196643E+01  0.51100000000E-03 0.  1.
         12    1    3    3    0    0  0.65262746151E+01  0.13709017693E+02 -0.80356356902E+01  0.17178500150E+02  0.00000000000E+00 0. -1.
</event>
<event>
 7    1  0.4878192E-011  0.5052886E+02  0.7816164E-02  0.1300439E+00
        -11   -1    0    0    0    0  0.00000000000E+00  0.00000000000E+00  0.45593999997E+02  0.45594000000E+02  0.51100000000E-03 0.  1.
         11   -1    0    0    0    0 -0.00000000000E+00 -0.00000000000E+00 -0.45593999997E+02  0.45594000000E+02  0.51100000000E-03 0. -1.
    9900012    2    1    2    0    0  0.14528401646E+02 -0.42046061762E+01 -0.37741392352E+02  0.50528857558E+02  0.29999993032E+02 0.  0.
        -12    1    1    2    0    0 -0.14528401646E+02  0.42046061762E+01  0.37741392352E+02  0.40659142442E+02  0.00000000000E+00 0.  1.
         11    1    3    3    0    0  0.12934987781E+02 -0.14402046372E+02 -0.14981502026E+02  0.24478117816E+02  0.51100000000E-03 0. -1.
        -11    1    3    3    0    0  0.27326594476E+01  0.56345720387E+01 -0.19073445617E+02  0.20075162706E+02  0.51100000000E-03 0.  1.
        -12    1    3    3    0    0 -0.11392455824E+01  0.45628681571E+01 -0.36864447095E+01  0.59755770359E+01  0.00000000000E+00 0.  1.
</event>
<event>
 7    1  0.4878192E-011  0.5052887E+02  0.7816164E-02  0.1300439E+00
        -11   -1    0    0    0    0  0.00000000000E+00  0.00000000000E+00  0.45593999997E+02  0.45594000000E+02  0.51100000000E-03 0. -1.
         11   -1    0    0    0    0 -0.00000000000E+00 -0.00000000000E+00 -0.45593999997E+02  0.45594000000E+02  0.51100000000E-03 0.  1.
    9900012    2    1    2    0    0 -0.31011276040E+02  0.21567939973E+02  0.15042916002E+02  0.50528873127E+02  0.30000040355E+02 0.  0.
        -12    1    1    2    0    0  0.31011276040E+02 -0.21567939973E+02 -0.15042916002E+02  0.40659126873E+02  0.00000000000E+00 0.  1.
         11    1    3    3    0    0 -0.24928386558E+01  0.11916191673E+02  0.15403467269E+02  0.19633559858E+02  0.51100000000E-03 0.  1.
        -11    1    3    3    0    0 -0.22017420779E+02  0.75861060808E+01  0.26523981916E+01  0.23438238834E+02  0.51100000000E-03 0. -1.
        -12    1    3    3    0    0 -0.65010166050E+01  0.20656422189E+01 -0.30129494586E+01  0.74570744340E+01  0.00000000000E+00 0.  1.
</event>
<event>
 7    1  0.4878192E-011  0.5052886E+02  0.7816164E-02  0.1300439E+00
        -11   -1    0    0    0    0  0.00000000000E+00  0.00000000000E+00  0.45593999997E+02  0.45594000000E+02  0.51100000000E-03 0. -1.
         11   -1    0    0    0    0 -0.00000000000E+00 -0.00000000000E+00 -0.45593999997E+02  0.45594000000E+02  0.51100000000E-03 0.  1.
    9900012    2    1    2    0    0  0.28670077058E+02 -0.27969003590E+02  0.69948138807E+01  0.50528857098E+02  0.29999991634E+02 0.  0.
        -12    1    1    2    0    0 -0.28670077058E+02  0.27969003590E+02 -0.69948138807E+01  0.40659142902E+02  0.00000000000E+00 0.  1.
         11    1    3    3    0    0  0.21310554241E+02 -0.57345576910E+01  0.89242310278E+01  0.23804763676E+02  0.51100000000E-03 0. -1.
        -11    1    3    3    0    0 -0.34585717565E+01 -0.29875645750E+01 -0.53185565173E+00  0.46011011052E+01  0.51100000000E-03 0.  1.
        -12    1    3    3    0    0  0.10818094574E+02 -0.19246881324E+02 -0.13975614954E+01  0.22122992317E+02  0.00000000000E+00 0.  1.
</event>
<event>
 7    1  0.4878192E-011  0.5052889E+02  0.7816164E-02  0.1300439E+00
        -11   -1    0    0    0    0  0.00000000000E+00  0.00000000000E+00  0.45593999997E+02  0.45594000000E+02  0.51100000000E-03 0. -1.
         11   -1    0    0    0    0 -0.00000000000E+00 -0.00000000000E+00 -0.45593999997E+02  0.45594000000E+02  0.51100000000E-03 0.  1.
    9900012    2    1    2    0    0 -0.28597707186E+02 -0.28521494859E+02  0.46753681831E+01  0.50528885488E+02  0.30000077928E+02 0.  0.
        -12    1    1    2    0    0  0.28597707186E+02  0.28521494859E+02 -0.46753681831E+01  0.40659114512E+02  0.00000000000E+00 0.  1.
         11    1    3    3    0    0 -0.65478687167E+01 -0.14866582527E+02  0.67186719867E+01  0.17579260914E+02  0.51100000000E-03 0. -1.
        -11    1    3    3    0    0 -0.21702383174E+02 -0.35921712778E+01  0.20236459110E+01  0.22090547141E+02  0.51100000000E-03 0.  1.
        -12    1    3    3    0    0 -0.34745529449E+00 -0.10062741054E+02 -0.40669497146E+01  0.10859077433E+02  0.00000000000E+00 0.  1.
</event>
<event>
 7    1  0.4878192E-011  0.5052886E+02  0.7816164E-02  0.1300439E+00
        -11   -1    0    0    0    0  0.00000000000E+00  0.00000000000E+00  0.45593999997E+02  0.45594000000E+02  0.51100000000E-03 0. -1.
         11   -1    0    0    0    0 -0.00000000000E+00 -0.00000000000E+00 -0.45593999997E+02  0.45594000000E+02  0.51100000000E-03 0.  1.
    9900012    2    1    2    0    0 -0.33952839949E+02 -0.22294126055E+02 -0.18282617666E+01  0.50528856647E+02  0.29999990263E+02 0.  0.
        -12    1    1    2    0    0  0.33952839949E+02  0.22294126055E+02  0.18282617666E+01  0.40659143353E+02  0.00000000000E+00 0.  1.
         11    1    3    3    0    0 -0.14295190265E+02 -0.96007456211E+01 -0.73309841982E+01  0.18715504555E+02  0.51100000000E-03 0. -1.
        -11    1    3    3    0    0 -0.17548087015E+02 -0.72238560403E-01  0.70752101274E+01  0.18920866125E+02  0.51100000000E-03 0.  1.
        -12    1    3    3    0    0 -0.21095626689E+01 -0.12621141874E+02 -0.15724876959E+01  0.12892485967E+02  0.00000000000E+00 0.  1.
</event>
<event>
 7    1  0.4878192E-011  0.5052886E+02  0.7816164E-02  0.1300439E+00
        -11   -1    0    0    0    0  0.00000000000E+00  0.00000000000E+00  0.45593999997E+02  0.45594000000E+02  0.51100000000E-03 0.  1.
         11   -1    0    0    0    0 -0.00000000000E+00 -0.00000000000E+00 -0.45593999997E+02  0.45594000000E+02  0.51100000000E-03 0. -1.
    9900012    2    1    2    0    0 -0.20224190365E+02  0.34096059482E+02  0.90336143417E+01  0.50528864050E+02  0.30000012766E+02 0.  0.
        -12    1    1    2    0    0  0.20224190365E+02 -0.34096059482E+02 -0.90336143417E+01  0.40659135950E+02  0.00000000000E+00 0.  1.
         11    1    3    3    0    0  0.13589387392E+01  0.92744669676E+01 -0.52879785289E-01  0.93736464923E+01  0.51100000000E-03 0. -1.
        -11    1    3    3    0    0 -0.96854223320E+01  0.21997166048E+01  0.11832350822E+02  0.15448323052E+02  0.51100000000E-03 0.  1.
        -12    1    3    3    0    0 -0.11897706772E+02  0.22621875910E+02 -0.27458566949E+01  0.25706894505E+02  0.00000000000E+00 0.  1.
</event>
<event>
 7    1  0.4878192E-011  0.5052888E+02  0.7816164E-02  0.1300439E+00
        -11   -1    0    0    0    0  0.00000000000E+00  0.00000000000E+00  0.45593999997E+02  0.45594000000E+02  0.51100000000E-03 0. -1.
         11   -1    0    0    0    0 -0.00000000000E+00 -0.00000000000E+00 -0.45593999997E+02  0.45594000000E+02  0.51100000000E-03 0.  1.
    9900012    2    1    2    0    0  0.10726297281E+02  0.14654496068E+02  0.36377963713E+02  0.50528881069E+02  0.30000064497E+02 0.  0.
        -12    1    1    2    0    0 -0.10726297281E+02 -0.14654496068E+02 -0.36377963713E+02  0.40659118931E+02  0.00000000000E+00 0.  1.
         11    1    3    3    0    0 -0.34338418022E+01 -0.22843854880E+01 -0.12689957772E+01  0.43150941037E+01  0.51100000000E-03 0. -1.
        -11    1    3    3    0    0  0.17071931368E+02  0.11580161576E+02  0.27540032707E+02  0.34409364780E+02  0.51100000000E-03 0.  1.
         12    1    3    3    0    0 -0.29117922855E+01  0.53587199794E+01  0.10106926783E+02  0.11804422185E+02  0.00000000000E+00 0. -1.
</event>
<event>
 7    1  0.4878192E-011  0.5052886E+02  0.7816164E-02  0.1300439E+00
        -11   -1    0    0    0    0  0.00000000000E+00  0.00000000000E+00  0.45593999997E+02  0.45594000000E+02  0.51100000000E-03 0.  1.
         11   -1    0    0    0    0 -0.00000000000E+00 -0.00000000000E+00 -0.45593999997E+02  0.45594000000E+02  0.51100000000E-03 0. -1.
    9900012    2    1    2    0    0  0.33391296443E+02 -0.74543160013E+01  0.21968616251E+02  0.50528860742E+02  0.30000002713E+02 0.  0.
        -12    1    1    2    0    0 -0.33391296443E+02  0.74543160013E+01 -0.21968616251E+02  0.40659139258E+02  0.00000000000E+00 0.  1.
         11    1    3    3    0    0  0.63314761162E+01  0.45925773441E+00 -0.16441350647E+01  0.65575672203E+01  0.51100000000E-03 0. -1.
        -11    1    3    3    0    0  0.24139169685E+01  0.44042264316E+01  0.13862599119E+02  0.14744350111E+02  0.51100000000E-03 0.  1.
        -12    1    3    3    0    0  0.24645903358E+02 -0.12317800167E+02  0.97501521965E+01  0.29226943411E+02  0.00000000000E+00 0.  1.
</event>
<event>
 7    1  0.4878192E-011  0.5052886E+02  0.7816164E-02  0.1300439E+00
        -11   -1    0    0    0    0  0.00000000000E+00  0.00000000000E+00  0.45593999997E+02  0.45594000000E+02  0.51100000000E-03 0.  1.
         11   -1    0    0    0    0 -0.00000000000E+00 -0.00000000000E+00 -0.45593999997E+02  0.45594000000E+02  0.51100000000E-03 0. -1.
    9900012    2    1    2    0    0 -0.33810140132E+02  0.12389773837E+02 -0.18882094375E+02  0.50528861305E+02  0.30000004422E+02 0.  0.
        -12    1    1    2    0    0  0.33810140132E+02 -0.12389773837E+02  0.18882094375E+02  0.40659138695E+02  0.00000000000E+00 0.  1.
         11    1    3    3    0    0  0.19561095557E+01 -0.22794081332E+01 -0.92428819397E+01  0.97186898728E+01  0.51100000000E-03 0. -1.
        -11    1    3    3    0    0 -0.22588718602E+02  0.12465316658E+02 -0.32607386395E+01  0.26005129190E+02  0.51100000000E-03 0.  1.
         12    1    3    3    0    0 -0.13177531085E+02  0.22038653122E+01 -0.63784737954E+01  0.14805042242E+02  0.00000000000E+00 0. -1.
</event>
<event>
 7    1  0.4878192E-011  0.5052884E+02  0.7816164E-02  0.1300439E+00
        -11   -1    0    0    0    0  0.00000000000E+00  0.00000000000E+00  0.45593999997E+02  0.45594000000E+02  0.51100000000E-03 0.  1.
         11   -1    0    0    0    0 -0.00000000000E+00 -0.00000000000E+00 -0.45593999997E+02  0.45594000000E+02  0.51100000000E-03 0. -1.
    9900012    2    1    2    0    0 -0.11017879532E+02 -0.17600312734E+01 -0.39098280915E+02  0.50528844205E+02  0.29999952445E+02 0.  0.
        -12    1    1    2    0    0  0.11017879532E+02  0.17600312734E+01  0.39098280915E+02  0.40659155795E+02  0.00000000000E+00 0.  1.
         11    1    3    3    0    0 -0.92742530572E+01  0.86209142820E+01 -0.76587285674E+01  0.14798245043E+02  0.51100000000E-03 0.  1.
        -11    1    3    3    0    0  0.13427740850E+01 -0.22451793421E+01 -0.24395250740E+02  0.24535120368E+02  0.51100000000E-03 0. -1.
        -12    1    3    3    0    0 -0.30864005596E+01 -0.81357662132E+01 -0.70443016077E+01  0.11195478794E+02  0.00000000000E+00 0.  1.
</event>
<event>
 7    1  0.4878192E-011  0.5052886E+02  0.7816164E-02  0.1300439E+00
        -11   -1    0    0    0    0  0.00000000000E+00  0.00000000000E+00  0.45593999997E+02  0.45594000000E+02  0.51100000000E-03 0. -1.
         11   -1    0    0    0    0 -0.00000000000E+00 -0.00000000000E+00 -0.45593999997E+02  0.45594000000E+02  0.51100000000E-03 0.  1.
    9900012    2    1    2    0    0 -0.34234068390E+02  0.11328510102E+02  0.18784548101E+02  0.50528858014E+02  0.29999994419E+02 0.  0.
        -12    1    1    2    0    0  0.34234068390E+02 -0.11328510102E+02 -0.18784548101E+02  0.40659141986E+02  0.00000000000E+00 0.  1.
         11    1    3    3    0    0 -0.21980237325E+02  0.70693974049E+01  0.17643322728E+02  0.29058459176E+02  0.51100000000E-03 0. -1.
        -11    1    3    3    0    0  0.37127563734E+01  0.30657802824E+01  0.24564673196E+01  0.54053492562E+01  0.51100000000E-03 0.  1.
        -12    1    3    3    0    0 -0.15966587439E+02  0.11933324147E+01 -0.13152419463E+01  0.16065049582E+02  0.00000000000E+00 0.  1.
</event>
<event>
 7    1  0.4878192E-011  0.5052886E+02  0.7816164E-02  0.1300439E+00
        -11   -1    0    0    0    0  0.00000000000E+00  0.00000000000E+00  0.45593999997E+02  0.45594000000E+02  0.51100000000E-03 0.  1.
         11   -1    0    0    0    0 -0.00000000000E+00 -0.00000000000E+00 -0.45593999997E+02  0.45594000000E+02  0.51100000000E-03 0. -1.
    9900012    2    1    2    0    0  0.33525758235E+02 -0.47495198075E-01 -0.23004058968E+02  0.50528862650E+02  0.30000008511E+02 0.  0.
        -12    1    1    2    0    0 -0.33525758235E+02  0.47495198075E-01  0.23004058968E+02  0.40659137350E+02  0.00000000000E+00 0.  1.
         11    1    3    3    0    0  0.80560613625E+01 -0.77017369138E+01 -0.17005999616E+01  0.11274259029E+02  0.51100000000E-03 0. -1.
        -11    1    3    3    0    0  0.15073005045E+02  0.83825425712E+01 -0.22944658006E+02  0.28704003769E+02  0.51100000000E-03 0.  1.
        -12    1    3    3    0    0  0.10396691827E+02 -0.72830085553E+00  0.16411989997E+01  0.10550599852E+02  0.00000000000E+00 0.  1.
</event>
<event>
 7    1  0.4878192E-011  0.5052886E+02  0.7816164E-02  0.1300439E+00
        -11   -1    0    0    0    0  0.00000000000E+00  0.00000000000E+00  0.45593999997E+02  0.45594000000E+02  0.51100000000E-03 0. -1.
         11   -1    0    0    0    0 -0.00000000000E+00 -0.00000000000E+00 -0.45593999997E+02  0.45594000000E+02  0.51100000000E-03 0.  1.
    9900012    2    1    2    0    0  0.42600544072E+01 -0.37233365029E+02  0.15770036716E+02  0.50528860892E+02  0.30000003169E+02 0.  0.
        -12    1    1    2    0    0 -0.42600544072E+01  0.37233365029E+02 -0.15770036716E+02  0.40659139108E+02  0.00000000000E+00 0.  1.
         11    1    3    3    0    0 -0.58689855001E+01 -0.27998537008E+02  0.19233046266E+02  0.34471337866E+02  0.51100000000E-03 0. -1.
        -11    1    3    3    0    0  0.44711996665E+01 -0.82366197448E+01 -0.41910160669E+01  0.10266359979E+02  0.51100000000E-03 0.  1.
         12    1    3    3    0    0  0.56578402408E+01 -0.99820827658E+00  0.72800651769E+00  0.57911630476E+01  0.00000000000E+00 0. -1.
</event>
<event>
 7    1  0.4878192E-011  0.5052887E+02  0.7816164E-02  0.1300439E+00
        -11   -1    0    0    0    0  0.00000000000E+00  0.00000000000E+00  0.45593999997E+02  0.45594000000E+02  0.51100000000E-03 0.  1.
         11   -1    0    0    0    0 -0.00000000000E+00 -0.00000000000E+00 -0.45593999997E+02  0.45594000000E+02  0.51100000000E-03 0. -1.
    9900012    2    1    2    0    0 -0.17012403109E+02  0.32014566757E+02 -0.18406811398E+02  0.50528867569E+02  0.30000023463E+02 0.  0.
        -12    1    1    2    0    0  0.17012403109E+02 -0.32014566757E+02  0.18406811398E+02  0.40659132431E+02  0.00000000000E+00 0.  1.
         11    1    3    3    0    0 -0.35763671962E+01  0.19186066024E+02 -0.17031117370E+02  0.25902789250E+02  0.51100000000E-03 0. -1.
        -11    1    3    3    0    0 -0.47940614360E+01 -0.19538053907E+01  0.41483978108E+01  0.66339720541E+01  0.51100000000E-03 0.  1.
        -12    1    3    3    0    0 -0.86419744771E+01  0.14782306124E+02 -0.55240918382E+01  0.17992106265E+02  0.00000000000E+00 0.  1.
</event>
<event>
 7    1  0.4878192E-011  0.5052887E+02  0.7816164E-02  0.1300439E+00
        -11   -1    0    0    0    0  0.00000000000E+00  0.00000000000E+00  0.45593999997E+02  0.45594000000E+02  0.51100000000E-03 0. -1.
         11   -1    0    0    0    0 -0.00000000000E+00 -0.00000000000E+00 -0.45593999997E+02  0.45594000000E+02  0.51100000000E-03 0.  1.
    9900012    2    1    2    0    0 -0.39293690862E+02  0.19727187732E+00 -0.10446622794E+02  0.50528868362E+02  0.30000025873E+02 0.  0.
        -12    1    1    2    0    0  0.39293690862E+02 -0.19727187732E+00  0.10446622794E+02  0.40659131638E+02  0.00000000000E+00 0.  1.
         11    1    3    3    0    0 -0.45782895803E+01 -0.23656379152E+01  0.88500939016E+01  0.10241149377E+02  0.51100000000E-03 0. -1.
        -11    1    3    3    0    0 -0.12008353571E+02  0.33216913771E+01 -0.48855244698E+01  0.13382919663E+02  0.51100000000E-03 0.  1.
         12    1    3    3    0    0 -0.22707047710E+02 -0.75878158454E+00 -0.14411192226E+02  0.26904799323E+02  0.00000000000E+00 0. -1.
</event>
<event>
 7    1  0.4878192E-011  0.5052887E+02  0.7816164E-02  0.1300439E+00
        -11   -1    0    0    0    0  0.00000000000E+00  0.00000000000E+00  0.45593999997E+02  0.45594000000E+02  0.51100000000E-03 0.  1.
         11   -1    0    0    0    0 -0.00000000000E+00 -0.00000000000E+00 -0.45593999997E+02  0.45594000000E+02  0.51100000000E-03 0. -1.
    9900012    2    1    2    0    0  0.55965816306E+01 -0.39406086906E+02 -0.83068452109E+01  0.50528867096E+02  0.30000022024E+02 0.  0.
        -12    1    1    2    0    0 -0.55965816306E+01  0.39406086906E+02  0.83068452109E+01  0.40659132904E+02  0.00000000000E+00 0.  1.
         11    1    3    3    0    0 -0.14108226331E+01 -0.69923931666E+01  0.88217643322E+01  0.11344933182E+02  0.51100000000E-03 0. -1.
        -11    1    3    3    0    0 -0.32565042823E+01 -0.79778286843E+01 -0.56304842576E+01  0.10293343669E+02  0.51100000000E-03 0.  1.
         12    1    3    3    0    0  0.10263908546E+02 -0.24435865055E+02 -0.11498125286E+02  0.28890590245E+02  0.00000000000E+00 0. -1.
</event>
<event>
 7    1  0.4878192E-011  0.5052887E+02  0.7816164E-02  0.1300439E+00
        -11   -1    0    0    0    0  0.00000000000E+00  0.00000000000E+00  0.45593999997E+02  0.45594000000E+02  0.51100000000E-03 0.  1.
         11   -1    0    0    0    0 -0.00000000000E+00 -0.00000000000E+00 -0.45593999997E+02  0.45594000000E+02  0.51100000000E-03 0. -1.
    9900012    2    1    2    0    0  0.37414797842E+02 -0.15906879556E+02 -0.51885732535E+00  0.50528866614E+02  0.30000020560E+02 0.  0.
        -12    1    1    2    0    0 -0.37414797842E+02  0.15906879556E+02  0.51885732535E+00  0.40659133386E+02  0.00000000000E+00 0.  1.
         11    1    3    3    0    0  0.14656010113E+02  0.14205760491E+01  0.75970682128E+01  0.16569010665E+02  0.51100000000E-03 0.  1.
        -11    1    3    3    0    0  0.17862336581E+02 -0.20407059730E+02 -0.75276098318E+01  0.28145622484E+02  0.51100000000E-03 0. -1.
         12    1    3    3    0    0  0.48964511485E+01  0.30796041250E+01 -0.58831570633E+00  0.58142334651E+01  0.00000000000E+00 0. -1.
</event>
<event>
 7    1  0.4878192E-011  0.5052887E+02  0.7816164E-02  0.1300439E+00
        -11   -1    0    0    0    0  0.00000000000E+00  0.00000000000E+00  0.45593999997E+02  0.45594000000E+02  0.51100000000E-03 0.  1.
         11   -1    0    0    0    0 -0.00000000000E+00 -0.00000000000E+00 -0.45593999997E+02  0.45594000000E+02  0.51100000000E-03 0. -1.
    9900012    2    1    2    0    0 -0.28446061531E+02 -0.22565909794E+01 -0.28963677907E+02  0.50528865019E+02  0.30000015712E+02 0.  0.
        -12    1    1    2    0    0  0.28446061531E+02  0.22565909794E+01  0.28963677907E+02  0.40659134981E+02  0.00000000000E+00 0.  1.
         11    1    3    3    0    0 -0.40657312799E+01 -0.11005858841E+02 -0.88679652606E+01  0.14707137988E+02  0.51100000000E-03 0. -1.
        -11    1    3    3    0    0 -0.13973971463E+02  0.12125448296E+02 -0.14660292846E+02  0.23605562086E+02  0.51100000000E-03 0.  1.
        -12    1    3    3    0    0 -0.10406358789E+02 -0.33761804341E+01 -0.54354198008E+01  0.12216164945E+02  0.00000000000E+00 0.  1.
</event>
<event>
 7    1  0.4878192E-011  0.5052885E+02  0.7816164E-02  0.1300439E+00
        -11   -1    0    0    0    0  0.00000000000E+00  0.00000000000E+00  0.45593999997E+02  0.45594000000E+02  0.51100000000E-03 0.  1.
         11   -1    0    0    0    0 -0.00000000000E+00 -0.00000000000E+00 -0.45593999997E+02  0.45594000000E+02  0.51100000000E-03 0. -1.
    9900012    2    1    2    0    0  0.12612398849E+02 -0.22821916239E+02 -0.31197015789E+02  0.50528852693E+02  0.29999978247E+02 0.  0.
        -12    1    1    2    0    0 -0.12612398849E+02  0.22821916239E+02  0.31197015789E+02  0.40659147307E+02  0.00000000000E+00 0.  1.
         11    1    3    3    0    0  0.62736558122E+01 -0.14103621750E+02 -0.27351933124E+01  0.15676485143E+02  0.51100000000E-03 0. -1.
        -11    1    3    3    0    0  0.88798994720E+01 -0.50155313740E+01 -0.28595310919E+02  0.30359512124E+02  0.51100000000E-03 0.  1.
        -12    1    3    3    0    0 -0.25411564353E+01 -0.37027631152E+01  0.13348844274E+00  0.44928554262E+01  0.00000000000E+00 0.  1.
</event>
<event>
 7    1  0.4878192E-011  0.5052886E+02  0.7816164E-02  0.1300439E+00
        -11   -1    0    0    0    0  0.00000000000E+00  0.00000000000E+00  0.45593999997E+02  0.45594000000E+02  0.51100000000E-03 0. -1.
         11   -1    0    0    0    0 -0.00000000000E+00 -0.00000000000E+00 -0.45593999997E+02  0.45594000000E+02  0.51100000000E-03 0.  1.
    9900012    2    1    2    0    0 -0.22787398332E+02 -0.22928335310E+02  0.24661538448E+02  0.50528861280E+02  0.30000004346E+02 0.  0.
        -12    1    1    2    0    0  0.22787398332E+02  0.22928335310E+02 -0.24661538448E+02  0.40659138720E+02  0.00000000000E+00 0.  1.
         11    1    3    3    0    0 -0.14779174796E+02 -0.78106589358E+00  0.13025765152E+02  0.19715593566E+02  0.51100000000E-03 0. -1.
        -11    1    3    3    0    0  0.33632265929E+01 -0.13038031324E+01  0.49898001757E+01  0.61570530108E+01  0.51100000000E-03 0.  1.
         12    1    3    3    0    0 -0.11371450129E+02 -0.20843466285E+02  0.66459731198E+01  0.24656214703E+02  0.00000000000E+00 0. -1.
</event>
<event>
 7    1  0.4878192E-011  0.5052876E+02  0.7816164E-02  0.1300439E+00
        -11   -1    0    0    0    0  0.00000000000E+00  0.00000000000E+00  0.45593999997E+02  0.45594000000E+02  0.51100000000E-03 0.  1.
         11   -1    0    0    0    0 -0.00000000000E+00 -0.00000000000E+00 -0.45593999997E+02  0.45594000000E+02  0.51100000000E-03 0. -1.
    9900012    2    1    2    0    0  0.35679627713E+02 -0.15554477587E+02 -0.11755677139E+02  0.50528763021E+02  0.29999705678E+02 0.  0.
        -12    1    1    2    0    0 -0.35679627713E+02  0.15554477587E+02  0.11755677139E+02  0.40659236979E+02  0.00000000000E+00 0.  1.
         11    1    3    3    0    0  0.32112108067E+02 -0.68358018547E+01  0.23870770681E+01  0.32918289881E+02  0.51100000000E-03 0. -1.
        -11    1    3    3    0    0  0.15174638211E+01 -0.87068929592E+00 -0.54371286465E+01  0.57116691499E+01  0.51100000000E-03 0.  1.
         12    1    3    3    0    0  0.20500558242E+01 -0.78479864359E+01 -0.87056255609E+01  0.11898803990E+02  0.00000000000E+00 0. -1.
</event>
<event>
 7    1  0.4878192E-011  0.5052886E+02  0.7816164E-02  0.1300439E+00
        -11   -1    0    0    0    0  0.00000000000E+00  0.00000000000E+00  0.45593999997E+02  0.45594000000E+02  0.51100000000E-03 0.  1.
         11   -1    0    0    0    0 -0.00000000000E+00 -0.00000000000E+00 -0.45593999997E+02  0.45594000000E+02  0.51100000000E-03 0. -1.
    9900012    2    1    2    0    0 -0.14416775110E+01  0.28473511840E+02 -0.28988727695E+02  0.50528860266E+02  0.30000001266E+02 0.  0.
        -12    1    1    2    0    0  0.14416775110E+01 -0.28473511840E+02  0.28988727695E+02  0.40659139734E+02  0.00000000000E+00 0.  1.
         11    1    3    3    0    0  0.42868434115E+00  0.22417514901E+02 -0.31097776575E+02  0.38337976639E+02  0.51100000000E-03 0. -1.
        -11    1    3    3    0    0  0.35817756830E+01  0.18914856662E+01 -0.16431943018E+01  0.43711466280E+01  0.51100000000E-03 0.  1.
         12    1    3    3    0    0 -0.54521375352E+01  0.41645112729E+01  0.37522431822E+01  0.78197369996E+01  0.00000000000E+00 0. -1.
</event>
<event>
 7    1  0.4878192E-011  0.5052888E+02  0.7816164E-02  0.1300439E+00
        -11   -1    0    0    0    0  0.00000000000E+00  0.00000000000E+00  0.45593999997E+02  0.45594000000E+02  0.51100000000E-03 0. -1.
         11   -1    0    0    0    0 -0.00000000000E+00 -0.00000000000E+00 -0.45593999997E+02  0.45594000000E+02  0.51100000000E-03 0.  1.
    9900012    2    1    2    0    0 -0.26792196962E+01  0.29946520116E+02  0.27371366171E+02  0.50528880835E+02  0.30000063786E+02 0.  0.
        -12    1    1    2    0    0  0.26792196962E+01 -0.29946520116E+02 -0.27371366171E+02  0.40659119165E+02  0.00000000000E+00 0.  1.
         11    1    3    3    0    0  0.27094642027E+01  0.10495290635E+01  0.89216174600E+01  0.93828548899E+01  0.51100000000E-03 0. -1.
        -11    1    3    3    0    0 -0.57217831260E+01  0.29258227959E+02  0.22321713124E+02  0.37243007162E+02  0.51100000000E-03 0.  1.
        -12    1    3    3    0    0  0.33309922707E+00 -0.36123690656E+00 -0.38719644136E+01  0.39030187826E+01  0.00000000000E+00 0.  1.
</event>
<event>
 7    1  0.4878192E-011  0.5052887E+02  0.7816164E-02  0.1300439E+00
        -11   -1    0    0    0    0  0.00000000000E+00  0.00000000000E+00  0.45593999997E+02  0.45594000000E+02  0.51100000000E-03 0.  1.
         11   -1    0    0    0    0 -0.00000000000E+00 -0.00000000000E+00 -0.45593999997E+02  0.45594000000E+02  0.51100000000E-03 0. -1.
    9900012    2    1    2    0    0 -0.34001639549E+02 -0.10037890490E+02 -0.19907147225E+02  0.50528865133E+02  0.30000016058E+02 0.  0.
        -12    1    1    2    0    0  0.34001639549E+02  0.10037890490E+02  0.19907147225E+02  0.40659134867E+02  0.00000000000E+00 0.  1.
         11    1    3    3    0    0  0.46280463406E+00 -0.34218730383E+01 -0.24639170133E+01  0.42419677661E+01  0.51100000000E-03 0.  1.
        -11    1    3    3    0    0 -0.31593885920E+02 -0.11815325135E+02 -0.72677783619E+01  0.34505016130E+02  0.51100000000E-03 0. -1.
        -12    1    3    3    0    0 -0.28705582629E+01  0.51993076830E+01 -0.10175451850E+02  0.11781881236E+02  0.00000000000E+00 0.  1.
</event>
<event>
 7    1  0.4878192E-011  0.5052886E+02  0.7816164E-02  0.1300439E+00
        -11   -1    0    0    0    0  0.00000000000E+00  0.00000000000E+00  0.45593999997E+02  0.45594000000E+02  0.51100000000E-03 0.  1.
         11   -1    0    0    0    0 -0.00000000000E+00 -0.00000000000E+00 -0.45593999997E+02  0.45594000000E+02  0.51100000000E-03 0. -1.
    9900012    2    1    2    0    0 -0.10124886399E+01 -0.17917442835E+02 -0.36484324319E+02  0.50528858199E+02  0.29999994980E+02 0.  0.
        -12    1    1    2    0    0  0.10124886399E+01  0.17917442835E+02  0.36484324319E+02  0.40659141801E+02  0.00000000000E+00 0.  1.
         11    1    3    3    0    0 -0.37856582881E+01 -0.17081886586E+02 -0.86212860870E+01  0.19505092465E+02  0.51100000000E-03 0. -1.
        -11    1    3    3    0    0 -0.43984715483E+01 -0.10919014731E+01 -0.19425751564E+02  0.19947396444E+02  0.51100000000E-03 0.  1.
         12    1    3    3    0    0  0.71716411965E+01  0.25634522417E+00 -0.84372866683E+01  0.11076369290E+02  0.00000000000E+00 0. -1.
</event>
<event>
 7    1  0.4878192E-011  0.5052886E+02  0.7816164E-02  0.1300439E+00
        -11   -1    0    0    0    0  0.00000000000E+00  0.00000000000E+00  0.45593999997E+02  0.45594000000E+02  0.51100000000E-03 0. -1.
         11   -1    0    0    0    0 -0.00000000000E+00 -0.00000000000E+00 -0.45593999997E+02  0.45594000000E+02  0.51100000000E-03 0.  1.
    9900012    2    1    2    0    0  0.85445149177E+01 -0.31324422107E+02  0.24473193158E+02  0.50528864017E+02  0.30000012667E+02 0.  0.
        -12    1    1    2    0    0 -0.85445149177E+01  0.31324422107E+02 -0.24473193158E+02  0.40659135983E+02  0.00000000000E+00 0.  1.
         11    1    3    3    0    0  0.13792562827E+02 -0.32688914910E+02  0.17153840461E+02  0.39408808535E+02  0.51100000000E-03 0. -1.
        -11    1    3    3    0    0 -0.38418473792E+01 -0.13119258351E+01  0.11019996252E+01  0.42065834257E+01  0.51100000000E-03 0.  1.
         12    1    3    3    0    0 -0.14062005298E+01  0.26764186383E+01  0.62173530720E+01  0.69134720568E+01  0.00000000000E+00 0. -1.
</event>
<event>
 7    1  0.4878192E-011  0.5052887E+02  0.7816164E-02  0.1300439E+00
        -11   -1    0    0    0    0  0.00000000000E+00  0.00000000000E+00  0.45593999997E+02  0.45594000000E+02  0.51100000000E-03 0. -1.
         11   -1    0    0    0    0 -0.00000000000E+00 -0.00000000000E+00 -0.45593999997E+02  0.45594000000E+02  0.51100000000E-03 0.  1.
    9900012    2    1    2    0    0 -0.74255757840E+01  0.39945117610E+02  0.15534109166E+01  0.50528872094E+02  0.30000037217E+02 0.  0.
        -12    1    1    2    0    0  0.74255757840E+01 -0.39945117610E+02 -0.15534109166E+01  0.40659127906E+02  0.00000000000E+00 0.  1.
         11    1    3    3    0    0 -0.90380165341E+01  0.22542618346E+02 -0.11716886421E+02  0.26965548621E+02  0.51100000000E-03 0. -1.
        -11    1    3    3    0    0  0.44410182239E+01  0.62302438169E+01  0.73388394336E+01  0.10601751996E+02  0.51100000000E-03 0.  1.
         12    1    3    3    0    0 -0.28285774738E+01  0.11172255447E+02  0.59314579039E+01  0.12961571477E+02  0.00000000000E+00 0. -1.
</event>
<event>
 7    1  0.4878192E-011  0.5052887E+02  0.7816164E-02  0.1300439E+00
        -11   -1    0    0    0    0  0.00000000000E+00  0.00000000000E+00  0.45593999997E+02  0.45594000000E+02  0.51100000000E-03 0.  1.
         11   -1    0    0    0    0 -0.00000000000E+00 -0.00000000000E+00 -0.45593999997E+02  0.45594000000E+02  0.51100000000E-03 0. -1.
    9900012    2    1    2    0    0 -0.32196576951E+02 -0.19179695720E+02 -0.15769741622E+02  0.50528867618E+02  0.30000023611E+02 0.  0.
        -12    1    1    2    0    0  0.32196576951E+02  0.19179695720E+02  0.15769741622E+02  0.40659132382E+02  0.00000000000E+00 0.  1.
         11    1    3    3    0    0 -0.15178198162E+02 -0.12510890214E+02  0.19977883313E+01  0.19770969422E+02  0.51100000000E-03 0. -1.
        -11    1    3    3    0    0 -0.65346012513E+00 -0.49038505915E+01 -0.12551645280E+02  0.13491425434E+02  0.51100000000E-03 0.  1.
        -12    1    3    3    0    0 -0.16364918663E+02 -0.17649549148E+01 -0.52158846737E+01  0.17266472762E+02  0.00000000000E+00 0.  1.
</event>
<event>
 7    1  0.4878192E-011  0.5052887E+02  0.7816164E-02  0.1300439E+00
        -11   -1    0    0    0    0  0.00000000000E+00  0.00000000000E+00  0.45593999997E+02  0.45594000000E+02  0.51100000000E-03 0. -1.
         11   -1    0    0    0    0 -0.00000000000E+00 -0.00000000000E+00 -0.45593999997E+02  0.45594000000E+02  0.51100000000E-03 0.  1.
    9900012    2    1    2    0    0 -0.21153593580E+02 -0.14813059920E+02  0.31404831376E+02  0.50528871883E+02  0.30000036574E+02 0.  0.
        -12    1    1    2    0    0  0.21153593580E+02  0.14813059920E+02 -0.31404831376E+02  0.40659128117E+02  0.00000000000E+00 0.  1.
         11    1    3    3    0    0 -0.78936326023E+01 -0.76131024455E+01  0.23674602159E+02  0.26091292650E+02  0.51100000000E-03 0. -1.
        -11    1    3    3    0    0 -0.14459004273E+02  0.13095620329E+01  0.57734279925E+01  0.15624027276E+02  0.51100000000E-03 0.  1.
         12    1    3    3    0    0  0.11990432945E+01 -0.85095195070E+01  0.19568012244E+01  0.88135519567E+01  0.00000000000E+00 0. -1.
</event>
<event>
 7    1  0.4878192E-011  0.5052886E+02  0.7816164E-02  0.1300439E+00
        -11   -1    0    0    0    0  0.00000000000E+00  0.00000000000E+00  0.45593999997E+02  0.45594000000E+02  0.51100000000E-03 0.  1.
         11   -1    0    0    0    0 -0.00000000000E+00 -0.00000000000E+00 -0.45593999997E+02  0.45594000000E+02  0.51100000000E-03 0. -1.
    9900012    2    1    2    0    0 -0.38939470340E+02 -0.88123114937E+01  0.76958509180E+01  0.50528864427E+02  0.30000013912E+02 0.  0.
        -12    1    1    2    0    0  0.38939470340E+02  0.88123114937E+01 -0.76958509180E+01  0.40659135573E+02  0.00000000000E+00 0.  1.
         11    1    3    3    0    0 -0.89911241844E+01 -0.64301879355E+01  0.17717804535E+01  0.11194946950E+02  0.51100000000E-03 0. -1.
        -11    1    3    3    0    0  0.28406884214E+01  0.32919695697E+01 -0.24894810986E+01  0.50103982633E+01  0.51100000000E-03 0.  1.
        -12    1    3    3    0    0 -0.32789034577E+02 -0.56740931279E+01  0.84135515631E+01  0.34323519213E+02  0.00000000000E+00 0.  1.
</event>
<event>
 7    1  0.4878192E-011  0.5052886E+02  0.7816164E-02  0.1300439E+00
        -11   -1    0    0    0    0  0.00000000000E+00  0.00000000000E+00  0.45593999997E+02  0.45594000000E+02  0.51100000000E-03 0. -1.
         11   -1    0    0    0    0 -0.00000000000E+00 -0.00000000000E+00 -0.45593999997E+02  0.45594000000E+02  0.51100000000E-03 0.  1.
    9900012    2    1    2    0    0  0.27769947359E+02 -0.28003106924E+02  0.98904896031E+01  0.50528858860E+02  0.29999996990E+02 0.  0.
        -12    1    1    2    0    0 -0.27769947359E+02  0.28003106924E+02 -0.98904896031E+01  0.40659141140E+02  0.00000000000E+00 0.  1.
         11    1    3    3    0    0  0.14840122225E+02 -0.27589154063E+01  0.13156556211E+02  0.20023381669E+02  0.51100000000E-03 0. -1.
        -11    1    3    3    0    0  0.53015038562E+01 -0.19772304802E+02  0.27329878121E+00  0.20472534596E+02  0.51100000000E-03 0.  1.
         12    1    3    3    0    0  0.76283212772E+01 -0.54718867157E+01 -0.35393653892E+01  0.10032942594E+02  0.00000000000E+00 0. -1.
</event>
<event>
 7    1  0.4878192E-011  0.5052885E+02  0.7816164E-02  0.1300439E+00
        -11   -1    0    0    0    0  0.00000000000E+00  0.00000000000E+00  0.45593999997E+02  0.45594000000E+02  0.51100000000E-03 0.  1.
         11   -1    0    0    0    0 -0.00000000000E+00 -0.00000000000E+00 -0.45593999997E+02  0.45594000000E+02  0.51100000000E-03 0. -1.
    9900012    2    1    2    0    0  0.25245332164E+02 -0.26340027779E+02 -0.17945535537E+02  0.50528854593E+02  0.29999984021E+02 0.  0.
        -12    1    1    2    0    0 -0.25245332164E+02  0.26340027779E+02  0.17945535537E+02  0.40659145407E+02  0.00000000000E+00 0.  1.
         11    1    3    3    0    0  0.80337104578E+01 -0.65753680085E+01 -0.62247007017E+01  0.12104663038E+02  0.51100000000E-03 0. -1.
        -11    1    3    3    0    0 -0.20369148178E+01  0.36438639248E+01 -0.64200432934E+01  0.76579189358E+01  0.51100000000E-03 0.  1.
        -12    1    3    3    0    0  0.19248536524E+02 -0.23408523696E+02 -0.53007915423E+01  0.30766272620E+02  0.00000000000E+00 0.  1.
</event>
<event>
 7    1  0.4878192E-011  0.5052887E+02  0.7816164E-02  0.1300439E+00
        -11   -1    0    0    0    0  0.00000000000E+00  0.00000000000E+00  0.45593999997E+02  0.45594000000E+02  0.51100000000E-03 0.  1.
         11   -1    0    0    0    0 -0.00000000000E+00 -0.00000000000E+00 -0.45593999997E+02  0.45594000000E+02  0.51100000000E-03 0. -1.
    9900012    2    1    2    0    0 -0.18014165199E+01  0.47296133041E+01 -0.40342912465E+02  0.50528869050E+02  0.30000027964E+02 0.  0.
        -12    1    1    2    0    0  0.18014165199E+01 -0.47296133041E+01  0.40342912465E+02  0.40659130950E+02  0.00000000000E+00 0.  1.
         11    1    3    3    0    0 -0.27412189348E+01  0.71432441751E+01 -0.31861750407E+02  0.32767535120E+02  0.51100000000E-03 0. -1.
        -11    1    3    3    0    0 -0.26705713220E+01 -0.82661196313E+01 -0.40823044391E+01  0.95982235199E+01  0.51100000000E-03 0.  1.
        -12    1    3    3    0    0  0.36103737369E+01  0.58524887603E+01 -0.43988576185E+01  0.81631104095E+01  0.00000000000E+00 0.  1.
</event>
<event>
 7    1  0.4878192E-011  0.5052883E+02  0.7816164E-02  0.1300439E+00
        -11   -1    0    0    0    0  0.00000000000E+00  0.00000000000E+00  0.45593999997E+02  0.45594000000E+02  0.51100000000E-03 0.  1.
         11   -1    0    0    0    0 -0.00000000000E+00 -0.00000000000E+00 -0.45593999997E+02  0.45594000000E+02  0.51100000000E-03 0. -1.
    9900012    2    1    2    0    0 -0.11274401565E+02  0.39013687884E+02 -0.19970722745E+01  0.50528827964E+02  0.29999903080E+02 0.  0.
        -12    1    1    2    0    0  0.11274401565E+02 -0.39013687884E+02  0.19970722745E+01  0.40659172036E+02  0.00000000000E+00 0.  1.
         11    1    3    3    0    0  0.39983234678E+01  0.10825181246E+01  0.53688703974E+01  0.67810917741E+01  0.51100000000E-03 0. -1.
        -11    1    3    3    0    0 -0.29276959721E+01  0.25187922161E+02 -0.50412506171E+01  0.25853762483E+02  0.51100000000E-03 0.  1.
         12    1    3    3    0    0 -0.12345029061E+02  0.12743247598E+02 -0.23246920548E+01  0.17893973707E+02  0.00000000000E+00 0. -1.
</event>
<event>
 7    1  0.4878192E-011  0.5052886E+02  0.7816164E-02  0.1300439E+00
        -11   -1    0    0    0    0  0.00000000000E+00  0.00000000000E+00  0.45593999997E+02  0.45594000000E+02  0.51100000000E-03 0. -1.
         11   -1    0    0    0    0 -0.00000000000E+00 -0.00000000000E+00 -0.45593999997E+02  0.45594000000E+02  0.51100000000E-03 0.  1.
    9900012    2    1    2    0    0  0.24402662415E+01  0.54976568722E+01  0.40211769351E+02  0.50528861731E+02  0.30000005717E+02 0.  0.
        -12    1    1    2    0    0 -0.24402662415E+01 -0.54976568722E+01 -0.40211769351E+02  0.40659138269E+02  0.00000000000E+00 0.  1.
         11    1    3    3    0    0 -0.45878161260E+00 -0.68009766778E+01  0.29585405539E+02  0.30360500416E+02  0.51100000000E-03 0. -1.
        -11    1    3    3    0    0 -0.17722031409E+01  0.57670848063E+01 -0.92126948219E+00  0.61031720323E+01  0.51100000000E-03 0.  1.
        -12    1    3    3    0    0  0.46712509950E+01  0.65315487436E+01  0.11547633295E+02  0.14065189283E+02  0.00000000000E+00 0.  1.
</event>
<event>
 7    1  0.4878192E-011  0.5052886E+02  0.7816164E-02  0.1300439E+00
        -11   -1    0    0    0    0  0.00000000000E+00  0.00000000000E+00  0.45593999997E+02  0.45594000000E+02  0.51100000000E-03 0.  1.
         11   -1    0    0    0    0 -0.00000000000E+00 -0.00000000000E+00 -0.45593999997E+02  0.45594000000E+02  0.51100000000E-03 0. -1.
    9900012    2    1    2    0    0 -0.12889296022E+02 -0.32558429168E+02 -0.20663498201E+02  0.50528863023E+02  0.30000009645E+02 0.  0.
        -12    1    1    2    0    0  0.12889296022E+02  0.32558429168E+02  0.20663498201E+02  0.40659136977E+02  0.00000000000E+00 0.  1.
         11    1    3    3    0    0  0.65352818004E+01 -0.80299546308E+01 -0.94784649351E+01  0.14036786576E+02  0.51100000000E-03 0. -1.
        -11    1    3    3    0    0 -0.15516713821E+02 -0.74837001378E+01 -0.49085861713E+01  0.17912799726E+02  0.51100000000E-03 0.  1.
        -12    1    3    3    0    0 -0.39078640010E+01 -0.17044774399E+02 -0.62764470943E+01  0.18579276722E+02  0.00000000000E+00 0.  1.
</event>
<event>
 7    1  0.4878192E-011  0.5052887E+02  0.7816164E-02  0.1300439E+00
        -11   -1    0    0    0    0  0.00000000000E+00  0.00000000000E+00  0.45593999997E+02  0.45594000000E+02  0.51100000000E-03 0.  1.
         11   -1    0    0    0    0 -0.00000000000E+00 -0.00000000000E+00 -0.45593999997E+02  0.45594000000E+02  0.51100000000E-03 0. -1.
    9900012    2    1    2    0    0  0.33278894417E+02 -0.96689034747E+01 -0.21264822713E+02  0.50528865811E+02  0.30000018118E+02 0.  0.
        -12    1    1    2    0    0 -0.33278894417E+02  0.96689034747E+01  0.21264822713E+02  0.40659134189E+02  0.00000000000E+00 0.  1.
         11    1    3    3    0    0 -0.22223297460E+01  0.43934039152E+01  0.98951454611E+00  0.50219405373E+01  0.51100000000E-03 0. -1.
        -11    1    3    3    0    0  0.48956664210E+01 -0.65547715386E+01 -0.45868616238E+01  0.93793325693E+01  0.51100000000E-03 0.  1.
         12    1    3    3    0    0  0.30605557742E+02 -0.75075358513E+01 -0.17667475635E+02  0.36127592704E+02  0.00000000000E+00 0. -1.
</event>
<event>
 7    1  0.4878192E-011  0.5052886E+02  0.7816164E-02  0.1300439E+00
        -11   -1    0    0    0    0  0.00000000000E+00  0.00000000000E+00  0.45593999997E+02  0.45594000000E+02  0.51100000000E-03 0.  1.
         11   -1    0    0    0    0 -0.00000000000E+00 -0.00000000000E+00 -0.45593999997E+02  0.45594000000E+02  0.51100000000E-03 0. -1.
    9900012    2    1    2    0    0  0.16842277367E+02  0.14913769878E+01 -0.36976735338E+02  0.50528862424E+02  0.30000007823E+02 0.  0.
        -12    1    1    2    0    0 -0.16842277367E+02 -0.14913769878E+01  0.36976735338E+02  0.40659137576E+02  0.00000000000E+00 0.  1.
         11    1    3    3    0    0  0.38424950098E+01 -0.12235054788E+02 -0.12685177525E+02  0.18038155745E+02  0.51100000000E-03 0. -1.
        -11    1    3    3    0    0  0.10580453587E+02  0.54612027321E+01 -0.18875560802E+02  0.22317202540E+02  0.51100000000E-03 0.  1.
         12    1    3    3    0    0  0.24193287696E+01  0.82652290434E+01 -0.54159970107E+01  0.10173504138E+02  0.00000000000E+00 0. -1.
</event>
<event>
 7    1  0.4878192E-011  0.5052884E+02  0.7816164E-02  0.1300439E+00
        -11   -1    0    0    0    0  0.00000000000E+00  0.00000000000E+00  0.45593999997E+02  0.45594000000E+02  0.51100000000E-03 0.  1.
         11   -1    0    0    0    0 -0.00000000000E+00 -0.00000000000E+00 -0.45593999997E+02  0.45594000000E+02  0.51100000000E-03 0. -1.
    9900012    2    1    2    0    0 -0.22128814898E+02 -0.34080354400E+02 -0.14185468491E+01  0.50528840147E+02  0.29999940109E+02 0.  0.
        -12    1    1    2    0    0  0.22128814898E+02  0.34080354400E+02  0.14185468491E+01  0.40659159853E+02  0.00000000000E+00 0.  1.
         11    1    3    3    0    0 -0.17460005886E+02 -0.39396341014E+01 -0.53538100732E+00  0.17906958297E+02  0.51100000000E-03 0. -1.
        -11    1    3    3    0    0 -0.26728884982E+01 -0.23048158337E+02  0.43206339787E+01  0.23601479061E+02  0.51100000000E-03 0.  1.
         12    1    3    3    0    0 -0.19959205141E+01 -0.70925619622E+01 -0.52037998205E+01  0.90204027880E+01  0.00000000000E+00 0. -1.
</event>
<event>
 7    1  0.4878192E-011  0.5052887E+02  0.7816164E-02  0.1300439E+00
        -11   -1    0    0    0    0  0.00000000000E+00  0.00000000000E+00  0.45593999997E+02  0.45594000000E+02  0.51100000000E-03 0. -1.
         11   -1    0    0    0    0 -0.00000000000E+00 -0.00000000000E+00 -0.45593999997E+02  0.45594000000E+02  0.51100000000E-03 0.  1.
    9900012    2    1    2    0    0 -0.37907246508E+01 -0.86187356995E+01  0.39553923717E+02  0.50528867202E+02  0.30000022348E+02 0.  0.
        -12    1    1    2    0    0  0.37907246508E+01  0.86187356995E+01 -0.39553923717E+02  0.40659132798E+02  0.00000000000E+00 0.  1.
         11    1    3    3    0    0 -0.94825452525E+01  0.48596133179E+01  0.16948870902E+02  0.20019958321E+02  0.51100000000E-03 0. -1.
        -11    1    3    3    0    0  0.85714471679E+01 -0.11608860653E+02  0.22895258577E+02  0.27063411052E+02  0.51100000000E-03 0.  1.
         12    1    3    3    0    0 -0.28796265662E+01 -0.18694883644E+01 -0.29020576159E+00  0.34454978290E+01  0.00000000000E+00 0. -1.
</event>
<event>
 7    1  0.4878192E-011  0.5052876E+02  0.7816164E-02  0.1300439E+00
        -11   -1    0    0    0    0  0.00000000000E+00  0.00000000000E+00  0.45593999997E+02  0.45594000000E+02  0.51100000000E-03 0. -1.
         11   -1    0    0    0    0 -0.00000000000E+00 -0.00000000000E+00 -0.45593999997E+02  0.45594000000E+02  0.51100000000E-03 0.  1.
    9900012    2    1    2    0    0 -0.35261673704E+02  0.18193677333E+02 -0.88756958045E+01  0.50528763616E+02  0.29999707487E+02 0.  0.
        -12    1    1    2    0    0  0.35261673704E+02 -0.18193677333E+02  0.88756958045E+01  0.40659236384E+02  0.00000000000E+00 0.  1.
         11    1    3    3    0    0 -0.31355062877E+02  0.11228564018E+02 -0.36148185868E+01  0.33500560169E+02  0.51100000000E-03 0. -1.
        -11    1    3    3    0    0  0.40709191790E+00  0.10402945582E+02 -0.19414026167E+01  0.10590375111E+02  0.51100000000E-03 0.  1.
         12    1    3    3    0    0 -0.43137027443E+01 -0.34378322669E+01 -0.33194746011E+01  0.64378283364E+01  0.00000000000E+00 0. -1.
</event>
<event>
 7    1  0.4878192E-011  0.5052886E+02  0.7816164E-02  0.1300439E+00
        -11   -1    0    0    0    0  0.00000000000E+00  0.00000000000E+00  0.45593999997E+02  0.45594000000E+02  0.51100000000E-03 0.  1.
         11   -1    0    0    0    0 -0.00000000000E+00 -0.00000000000E+00 -0.45593999997E+02  0.45594000000E+02  0.51100000000E-03 0. -1.
    9900012    2    1    2    0    0  0.10188216308E+02 -0.28068965683E+02 -0.27595272092E+02  0.50528860463E+02  0.30000001863E+02 0.  0.
        -12    1    1    2    0    0 -0.10188216308E+02  0.28068965683E+02  0.27595272092E+02  0.40659139537E+02  0.00000000000E+00 0.  1.
         11    1    3    3    0    0  0.11646702288E+02 -0.31413052920E+02 -0.14115778681E+02  0.36354927809E+02  0.51100000000E-03 0. -1.
        -11    1    3    3    0    0 -0.33703133424E+00  0.19375214218E+01 -0.10583749752E+02  0.10764912376E+02  0.51100000000E-03 0.  1.
         12    1    3    3    0    0 -0.11214546456E+01  0.14065658158E+01 -0.28957436589E+01  0.34090202778E+01  0.00000000000E+00 0. -1.
</event>
<event>
 7    1  0.4878192E-011  0.5052885E+02  0.7816164E-02  0.1300439E+00
        -11   -1    0    0    0    0  0.00000000000E+00  0.00000000000E+00  0.45593999997E+02  0.45594000000E+02  0.51100000000E-03 0.  1.
         11   -1    0    0    0    0 -0.00000000000E+00 -0.00000000000E+00 -0.45593999997E+02  0.45594000000E+02  0.51100000000E-03 0. -1.
    9900012    2    1    2    0    0  0.11260504051E+02 -0.80192721361E+01 -0.38236874342E+02  0.50528852978E+02  0.29999979112E+02 0.  0.
        -12    1    1    2    0    0 -0.11260504051E+02  0.80192721361E+01  0.38236874342E+02  0.40659147022E+02  0.00000000000E+00 0.  1.
         11    1    3    3    0    0  0.18200963588E+02 -0.87120772969E+01 -0.28573084609E+02  0.34979944693E+02  0.51100000000E-03 0. -1.
        -11    1    3    3    0    0 -0.52875378875E+01 -0.40964811522E+01 -0.34332622894E+01  0.75184110656E+01  0.51100000000E-03 0.  1.
        -12    1    3    3    0    0 -0.16529216499E+01  0.47892863129E+01 -0.62305274436E+01  0.80304972195E+01  0.00000000000E+00 0.  1.
</event>
<event>
 7    1  0.4878192E-011  0.5052887E+02  0.7816164E-02  0.1300439E+00
        -11   -1    0    0    0    0  0.00000000000E+00  0.00000000000E+00  0.45593999997E+02  0.45594000000E+02  0.51100000000E-03 0.  1.
         11   -1    0    0    0    0 -0.00000000000E+00 -0.00000000000E+00 -0.45593999997E+02  0.45594000000E+02  0.51100000000E-03 0. -1.
    9900012    2    1    2    0    0 -0.12795128637E+02  0.30910387739E+02 -0.23108393003E+02  0.50528865550E+02  0.30000017325E+02 0.  0.
        -12    1    1    2    0    0  0.12795128637E+02 -0.30910387739E+02  0.23108393003E+02  0.40659134450E+02  0.00000000000E+00 0.  1.
         11    1    3    3    0    0  0.43537317976E+00  0.72875362626E+01 -0.17980447452E+02  0.19406035799E+02  0.51100000000E-03 0. -1.
        -11    1    3    3    0    0 -0.13356225802E+02  0.20455379029E+02 -0.90746411318E+01  0.26060706261E+02  0.51100000000E-03 0.  1.
         12    1    3    3    0    0  0.12572398500E+00  0.31674724482E+01  0.39466955803E+01  0.50621234906E+01  0.00000000000E+00 0. -1.
</event>
<event>
 7    1  0.4878192E-011  0.5052886E+02  0.7816164E-02  0.1300439E+00
        -11   -1    0    0    0    0  0.00000000000E+00  0.00000000000E+00  0.45593999997E+02  0.45594000000E+02  0.51100000000E-03 0. -1.
         11   -1    0    0    0    0 -0.00000000000E+00 -0.00000000000E+00 -0.45593999997E+02  0.45594000000E+02  0.51100000000E-03 0.  1.
    9900012    2    1    2    0    0  0.58225747590E+01 -0.33568698528E+02 -0.22190214774E+02  0.50528861675E+02  0.30000005546E+02 0.  0.
        -12    1    1    2    0    0 -0.58225747590E+01  0.33568698528E+02  0.22190214774E+02  0.40659138325E+02  0.00000000000E+00 0.  1.
         11    1    3    3    0    0 -0.96657563981E+01 -0.12641740729E+02 -0.45355943717E+01  0.16547267810E+02  0.51100000000E-03 0. -1.
        -11    1    3    3    0    0  0.12099047804E+02 -0.66359353716E+01 -0.11848569351E+02  0.18188215744E+02  0.51100000000E-03 0.  1.
         12    1    3    3    0    0  0.33892833529E+01 -0.14291022427E+02 -0.58060510515E+01  0.15793378121E+02  0.00000000000E+00 0. -1.
</event>
<event>
 7    1  0.4878192E-011  0.5052886E+02  0.7816164E-02  0.1300439E+00
        -11   -1    0    0    0    0  0.00000000000E+00  0.00000000000E+00  0.45593999997E+02  0.45594000000E+02  0.51100000000E-03 0.  1.
         11   -1    0    0    0    0 -0.00000000000E+00 -0.00000000000E+00 -0.45593999997E+02  0.45594000000E+02  0.51100000000E-03 0. -1.
    9900012    2    1    2    0    0  0.25082327397E+01 -0.16565614887E+01 -0.40547878692E+02  0.50528857192E+02  0.29999991922E+02 0.  0.
        -12    1    1    2    0    0 -0.25082327397E+01  0.16565614887E+01  0.40547878692E+02  0.40659142808E+02  0.00000000000E+00 0.  1.
         11    1    3    3    0    0 -0.55787281844E+01  0.46727849021E+01 -0.60209313186E+01  0.94450379089E+01  0.51100000000E-03 0. -1.
        -11    1    3    3    0    0  0.75245081081E+01  0.18606108862E+01 -0.31329097899E+02  0.32273711757E+02  0.51100000000E-03 0.  1.
        -12    1    3    3    0    0  0.56245281604E+00 -0.81899572770E+01 -0.31978494746E+01  0.88101075267E+01  0.00000000000E+00 0.  1.
</event>
<event>
 7    1  0.4878192E-011  0.5052887E+02  0.7816164E-02  0.1300439E+00
        -11   -1    0    0    0    0  0.00000000000E+00  0.00000000000E+00  0.45593999997E+02  0.45594000000E+02  0.51100000000E-03 0. -1.
         11   -1    0    0    0    0 -0.00000000000E+00 -0.00000000000E+00 -0.45593999997E+02  0.45594000000E+02  0.51100000000E-03 0.  1.
    9900012    2    1    2    0    0 -0.64235374446E+01  0.39967228117E+02 -0.38110253198E+01  0.50528867315E+02  0.30000022692E+02 0.  0.
        -12    1    1    2    0    0  0.64235374446E+01 -0.39967228117E+02  0.38110253198E+01  0.40659132685E+02  0.00000000000E+00 0.  1.
         11    1    3    3    0    0  0.42553450929E+01  0.13979457919E+02  0.57386269819E+00  0.14624039258E+02  0.51100000000E-03 0. -1.
        -11    1    3    3    0    0 -0.66033135309E+01  0.12947462363E+02 -0.13209739203E+02  0.19640207262E+02  0.51100000000E-03 0.  1.
        -12    1    3    3    0    0 -0.40755690067E+01  0.13040307836E+02  0.88248511850E+01  0.16264620795E+02  0.00000000000E+00 0.  1.
</event>
<event>
 7    1  0.4878192E-011  0.5052887E+02  0.7816164E-02  0.1300439E+00
        -11   -1    0    0    0    0  0.00000000000E+00  0.00000000000E+00  0.45593999997E+02  0.45594000000E+02  0.51100000000E-03 0. -1.
         11   -1    0    0    0    0 -0.00000000000E+00 -0.00000000000E+00 -0.45593999997E+02  0.45594000000E+02  0.51100000000E-03 0.  1.
    9900012    2    1    2    0    0 -0.21954086053E+02 -0.97322658553E+01  0.32809538447E+02  0.50528871797E+02  0.30000036315E+02 0.  0.
        -12    1    1    2    0    0  0.21954086053E+02  0.97322658553E+01 -0.32809538447E+02  0.40659128203E+02  0.00000000000E+00 0.  1.
         11    1    3    3    0    0 -0.37312575756E+01  0.27704464807E+01  0.17098012437E+02  0.17718343217E+02  0.51100000000E-03 0. -1.
        -11    1    3    3    0    0 -0.52483153842E+01 -0.13019222343E+02  0.13802078134E+02  0.19686094734E+02  0.51100000000E-03 0.  1.
        -12    1    3    3    0    0 -0.12974513093E+02  0.51651000719E+00  0.19094478756E+01  0.13124433846E+02  0.00000000000E+00 0.  1.
</event>
<event>
 7    1  0.4878192E-011  0.5052886E+02  0.7816164E-02  0.1300439E+00
        -11   -1    0    0    0    0  0.00000000000E+00  0.00000000000E+00  0.45593999997E+02  0.45594000000E+02  0.51100000000E-03 0. -1.
         11   -1    0    0    0    0 -0.00000000000E+00 -0.00000000000E+00 -0.45593999997E+02  0.45594000000E+02  0.51100000000E-03 0.  1.
    9900012    2    1    2    0    0 -0.19592521782E+02  0.95115721287E+01 -0.34334079091E+02  0.50528857102E+02  0.29999991647E+02 0.  0.
        -12    1    1    2    0    0  0.19592521782E+02 -0.95115721287E+01  0.34334079091E+02  0.40659142898E+02  0.00000000000E+00 0.  1.
         11    1    3    3    0    0 -0.11185071435E+02  0.32563608122E+01 -0.73493259364E+01  0.13773971858E+02  0.51100000000E-03 0. -1.
        -11    1    3    3    0    0  0.95295797204E+00  0.87122551610E+01 -0.25500070753E+02  0.26964145222E+02  0.51100000000E-03 0.  1.
        -12    1    3    3    0    0 -0.93604083192E+01 -0.24570438445E+01 -0.14846824025E+01  0.97907400227E+01  0.00000000000E+00 0.  1.
</event>
<event>
 7    1  0.4878192E-011  0.5052884E+02  0.7816164E-02  0.1300439E+00
        -11   -1    0    0    0    0  0.00000000000E+00  0.00000000000E+00  0.45593999997E+02  0.45594000000E+02  0.51100000000E-03 0.  1.
         11   -1    0    0    0    0 -0.00000000000E+00 -0.00000000000E+00 -0.45593999997E+02  0.45594000000E+02  0.51100000000E-03 0. -1.
    9900012    2    1    2    0    0 -0.22024638062E+02  0.33626529447E+02  0.61105605663E+01  0.50528842178E+02  0.29999946283E+02 0.  0.
        -12    1    1    2    0    0  0.22024638062E+02 -0.33626529447E+02 -0.61105605663E+01  0.40659157822E+02  0.00000000000E+00 0.  1.
         11    1    3    3    0    0 -0.18244795135E+02  0.28587284518E+02 -0.17152124064E+01  0.33956550759E+02  0.51100000000E-03 0. -1.
        -11    1    3    3    0    0  0.36226340781E+01 -0.21333288801E+01  0.31534113426E+01  0.52553375849E+01  0.51100000000E-03 0.  1.
        -12    1    3    3    0    0 -0.74024770053E+01  0.71725738090E+01  0.46723616301E+01  0.11316953833E+02  0.00000000000E+00 0.  1.
</event>
<event>
 7    1  0.4878192E-011  0.5052884E+02  0.7816164E-02  0.1300439E+00
        -11   -1    0    0    0    0  0.00000000000E+00  0.00000000000E+00  0.45593999997E+02  0.45594000000E+02  0.51100000000E-03 0.  1.
         11   -1    0    0    0    0 -0.00000000000E+00 -0.00000000000E+00 -0.45593999997E+02  0.45594000000E+02  0.51100000000E-03 0. -1.
    9900012    2    1    2    0    0 -0.31954813527E+02  0.20557888966E+02 -0.14471706227E+02  0.50528841286E+02  0.29999943571E+02 0.  0.
        -12    1    1    2    0    0  0.31954813527E+02 -0.20557888966E+02  0.14471706227E+02  0.40659158714E+02  0.00000000000E+00 0.  1.
         11    1    3    3    0    0 -0.27886686007E+02  0.18555784940E+02 -0.15651449353E+02  0.36972317729E+02  0.51100000000E-03 0. -1.
        -11    1    3    3    0    0 -0.77594643663E+01  0.11323803905E+01  0.40260617854E+01  0.88148026842E+01  0.51100000000E-03 0.  1.
         12    1    3    3    0    0  0.36913368465E+01  0.86972363547E+00 -0.28463186593E+01  0.47417208719E+01  0.00000000000E+00 0. -1.
</event>
<event>
 7    1  0.4878192E-011  0.5052884E+02  0.7816164E-02  0.1300439E+00
        -11   -1    0    0    0    0  0.00000000000E+00  0.00000000000E+00  0.45593999997E+02  0.45594000000E+02  0.51100000000E-03 0.  1.
         11   -1    0    0    0    0 -0.00000000000E+00 -0.00000000000E+00 -0.45593999997E+02  0.45594000000E+02  0.51100000000E-03 0. -1.
    9900012    2    1    2    0    0 -0.11847267330E+02 -0.93975028821E+01 -0.37742499628E+02  0.50528842584E+02  0.29999947518E+02 0.  0.
        -12    1    1    2    0    0  0.11847267330E+02  0.93975028821E+01  0.37742499628E+02  0.40659157416E+02  0.00000000000E+00 0.  1.
         11    1    3    3    0    0 -0.17088636703E+02 -0.12079404668E+02 -0.19040012261E+02  0.28292323847E+02  0.51100000000E-03 0. -1.
        -11    1    3    3    0    0  0.48894097597E+01 -0.79437082404E+00 -0.18004429314E+02  0.18673425716E+02  0.51100000000E-03 0.  1.
        -12    1    3    3    0    0  0.35195961360E+00  0.34762726100E+01 -0.69805805355E+00  0.35630930208E+01  0.00000000000E+00 0.  1.
</event>
<event>
 7    1  0.4878192E-011  0.5052891E+02  0.7816164E-02  0.1300439E+00
        -11   -1    0    0    0    0  0.00000000000E+00  0.00000000000E+00  0.45593999997E+02  0.45594000000E+02  0.51100000000E-03 0.  1.
         11   -1    0    0    0    0 -0.00000000000E+00 -0.00000000000E+00 -0.45593999997E+02  0.45594000000E+02  0.51100000000E-03 0. -1.
    9900012    2    1    2    0    0 -0.32271486703E+02  0.93937784618E+01 -0.22879454822E+02  0.50528912692E+02  0.30000160617E+02 0.  0.
        -12    1    1    2    0    0  0.32271486703E+02 -0.93937784618E+01  0.22879454822E+02  0.40659087308E+02  0.00000000000E+00 0.  1.
         11    1    3    3    0    0 -0.28810883111E+02 -0.99024603777E+00 -0.17291143169E+02  0.33615936774E+02  0.51100000000E-03 0. -1.
        -11    1    3    3    0    0 -0.70080353321E+01  0.83346295635E+01 -0.12744323500E+01  0.10963703172E+02  0.51100000000E-03 0.  1.
         12    1    3    3    0    0  0.35474317402E+01  0.20493949360E+01 -0.43138793032E+01  0.59492727453E+01  0.00000000000E+00 0. -1.
</event>
<event>
 7    1  0.4878192E-011  0.5052884E+02  0.7816164E-02  0.1300439E+00
        -11   -1    0    0    0    0  0.00000000000E+00  0.00000000000E+00  0.45593999997E+02  0.45594000000E+02  0.51100000000E-03 0. -1.
         11   -1    0    0    0    0 -0.00000000000E+00 -0.00000000000E+00 -0.45593999997E+02  0.45594000000E+02  0.51100000000E-03 0.  1.
    9900012    2    1    2    0    0  0.31820634114E+02 -0.22025274871E+01  0.25214343813E+02  0.50528843385E+02  0.29999949952E+02 0.  0.
        -12    1    1    2    0    0 -0.31820634114E+02  0.22025274871E+01 -0.25214343813E+02  0.40659156615E+02  0.00000000000E+00 0.  1.
         11    1    3    3    0    0  0.30247604453E+02 -0.11433877166E+02  0.17149550736E+02  0.36602707727E+02  0.51100000000E-03 0. -1.
        -11    1    3    3    0    0 -0.22871572667E+01  0.15897807632E+01  0.21868331158E+01  0.35412893945E+01  0.51100000000E-03 0.  1.
         12    1    3    3    0    0  0.38601869278E+01  0.76415689160E+01  0.58779599610E+01  0.10384846264E+02  0.00000000000E+00 0. -1.
</event>
<event>
 7    1  0.4878192E-011  0.5052885E+02  0.7816164E-02  0.1300439E+00
        -11   -1    0    0    0    0  0.00000000000E+00  0.00000000000E+00  0.45593999997E+02  0.45594000000E+02  0.51100000000E-03 0. -1.
         11   -1    0    0    0    0 -0.00000000000E+00 -0.00000000000E+00 -0.45593999997E+02  0.45594000000E+02  0.51100000000E-03 0.  1.
    9900012    2    1    2    0    0 -0.27675295384E+02  0.27460066483E+02  0.11540766251E+02  0.50528849597E+02  0.29999968835E+02 0.  0.
        -12    1    1    2    0    0  0.27675295384E+02 -0.27460066483E+02 -0.11540766251E+02  0.40659150403E+02  0.00000000000E+00 0.  1.
         11    1    3    3    0    0 -0.15440503094E+02  0.30938121209E+02  0.14186756954E+02  0.37374330133E+02  0.51100000000E-03 0. -1.
        -11    1    3    3    0    0 -0.29279811870E+01 -0.29679130412E+00 -0.13364364286E+01  0.32322161899E+01  0.51100000000E-03 0.  1.
         12    1    3    3    0    0 -0.93068111030E+01 -0.31812634226E+01 -0.13095542736E+01  0.99223032743E+01  0.00000000000E+00 0. -1.
</event>
<event>
 7    1  0.4878192E-011  0.5052886E+02  0.7816164E-02  0.1300439E+00
        -11   -1    0    0    0    0  0.00000000000E+00  0.00000000000E+00  0.45593999997E+02  0.45594000000E+02  0.51100000000E-03 0.  1.
         11   -1    0    0    0    0 -0.00000000000E+00 -0.00000000000E+00 -0.45593999997E+02  0.45594000000E+02  0.51100000000E-03 0. -1.
    9900012    2    1    2    0    0 -0.19647453236E+02  0.14935884409E+02 -0.32311954869E+02  0.50528862168E+02  0.30000007047E+02 0.  0.
        -12    1    1    2    0    0  0.19647453236E+02 -0.14935884409E+02  0.32311954869E+02  0.40659137832E+02  0.00000000000E+00 0.  1.
         11    1    3    3    0    0 -0.12262951010E+02  0.20187362156E+01 -0.94576567102E+01  0.15617379233E+02  0.51100000000E-03 0. -1.
        -11    1    3    3    0    0  0.74744480322E-01  0.50894338687E+01  0.36652710559E+01  0.62723309874E+01  0.51100000000E-03 0.  1.
        -12    1    3    3    0    0 -0.74592467062E+01  0.78277143244E+01 -0.26519569215E+02  0.28639151948E+02  0.00000000000E+00 0.  1.
</event>
<event>
 7    1  0.4878192E-011  0.5052886E+02  0.7816164E-02  0.1300439E+00
        -11   -1    0    0    0    0  0.00000000000E+00  0.00000000000E+00  0.45593999997E+02  0.45594000000E+02  0.51100000000E-03 0.  1.
         11   -1    0    0    0    0 -0.00000000000E+00 -0.00000000000E+00 -0.45593999997E+02  0.45594000000E+02  0.51100000000E-03 0. -1.
    9900012    2    1    2    0    0  0.22168707097E+02 -0.28801840543E+02 -0.18225478442E+02  0.50528860100E+02  0.30000000759E+02 0.  0.
        -12    1    1    2    0    0 -0.22168707097E+02  0.28801840543E+02  0.18225478442E+02  0.40659139900E+02  0.00000000000E+00 0.  1.
         11    1    3    3    0    0 -0.53585447023E+01 -0.56957436882E+01 -0.88810808032E+01  0.11833388947E+02  0.51100000000E-03 0. -1.
        -11    1    3    3    0    0  0.16064543203E+02 -0.19180694949E+02 -0.35671074665E+01  0.25272373513E+02  0.51100000000E-03 0.  1.
        -12    1    3    3    0    0  0.11462708597E+02 -0.39254019053E+01 -0.57772901727E+01  0.13423097639E+02  0.00000000000E+00 0.  1.
</event>
<event>
 7    1  0.4878192E-011  0.5052886E+02  0.7816164E-02  0.1300439E+00
        -11   -1    0    0    0    0  0.00000000000E+00  0.00000000000E+00  0.45593999997E+02  0.45594000000E+02  0.51100000000E-03 0. -1.
         11   -1    0    0    0    0 -0.00000000000E+00 -0.00000000000E+00 -0.45593999997E+02  0.45594000000E+02  0.51100000000E-03 0.  1.
    9900012    2    1    2    0    0  0.36057007354E+01 -0.40237999081E+02 -0.45899767288E+01  0.50528861615E+02  0.30000005366E+02 0.  0.
        -12    1    1    2    0    0 -0.36057007354E+01  0.40237999081E+02  0.45899767288E+01  0.40659138385E+02  0.00000000000E+00 0.  1.
         11    1    3    3    0    0  0.38543950221E+01 -0.30656330555E+02 -0.12516322172E+02  0.33336545787E+02  0.51100000000E-03 0.  1.
        -11    1    3    3    0    0 -0.57056763628E+01 -0.36547601805E+01  0.56446542811E+01  0.88189646188E+01  0.51100000000E-03 0. -1.
        -12    1    3    3    0    0  0.54569820761E+01 -0.59269083454E+01  0.22816911617E+01  0.83733512091E+01  0.00000000000E+00 0.  1.
</event>
<event>
 7    1  0.4878192E-011  0.5052886E+02  0.7816164E-02  0.1300439E+00
        -11   -1    0    0    0    0  0.00000000000E+00  0.00000000000E+00  0.45593999997E+02  0.45594000000E+02  0.51100000000E-03 0. -1.
         11   -1    0    0    0    0 -0.00000000000E+00 -0.00000000000E+00 -0.45593999997E+02  0.45594000000E+02  0.51100000000E-03 0.  1.
    9900012    2    1    2    0    0  0.39145143875E+02  0.60116653176E+01  0.92023480848E+01  0.50528860570E+02  0.30000002190E+02 0.  0.
        -12    1    1    2    0    0 -0.39145143875E+02 -0.60116653176E+01 -0.92023480848E+01  0.40659139430E+02  0.00000000000E+00 0.  1.
         11    1    3    3    0    0  0.17957692614E+02 -0.80102441351E+01  0.42406658770E+01  0.20115317111E+02  0.51100000000E-03 0. -1.
        -11    1    3    3    0    0  0.16208213348E+02  0.17269621170E+02  0.58671635586E+01  0.24400196798E+02  0.51100000000E-03 0.  1.
        -12    1    3    3    0    0  0.49792379124E+01 -0.32477117176E+01 -0.90548135078E+00  0.60133466610E+01  0.00000000000E+00 0.  1.
</event>
<event>
 7    1  0.4878192E-011  0.5052886E+02  0.7816164E-02  0.1300439E+00
        -11   -1    0    0    0    0  0.00000000000E+00  0.00000000000E+00  0.45593999997E+02  0.45594000000E+02  0.51100000000E-03 0.  1.
         11   -1    0    0    0    0 -0.00000000000E+00 -0.00000000000E+00 -0.45593999997E+02  0.45594000000E+02  0.51100000000E-03 0. -1.
    9900012    2    1    2    0    0 -0.39337236622E+01  0.39939762357E+02  0.65196998184E+01  0.50528864684E+02  0.30000014692E+02 0.  0.
        -12    1    1    2    0    0  0.39337236622E+01 -0.39939762357E+02 -0.65196998184E+01  0.40659135316E+02  0.00000000000E+00 0.  1.
         11    1    3    3    0    0  0.93951588244E+01  0.29408035539E+02  0.37742944201E+01  0.31102200279E+02  0.51100000000E-03 0. -1.
        -11    1    3    3    0    0 -0.34549737528E+01  0.62622413071E+01 -0.23435127689E+01  0.75262581792E+01  0.51100000000E-03 0.  1.
         12    1    3    3    0    0 -0.98739087338E+01  0.42694855109E+01  0.50889181672E+01  0.11900406225E+02  0.00000000000E+00 0. -1.
</event>
<event>
 7    1  0.4878192E-011  0.5052874E+02  0.7816164E-02  0.1300439E+00
        -11   -1    0    0    0    0  0.00000000000E+00  0.00000000000E+00  0.45593999997E+02  0.45594000000E+02  0.51100000000E-03 0. -1.
         11   -1    0    0    0    0 -0.00000000000E+00 -0.00000000000E+00 -0.45593999997E+02  0.45594000000E+02  0.51100000000E-03 0.  1.
    9900012    2    1    2    0    0 -0.70773729994E+01  0.24221547064E+02  0.31881079732E+02  0.50528735427E+02  0.29999621803E+02 0.  0.
        -12    1    1    2    0    0  0.70773729994E+01 -0.24221547064E+02 -0.31881079732E+02  0.40659264573E+02  0.00000000000E+00 0.  1.
         11    1    3    3    0    0 -0.10336748276E+02  0.22082376934E+02  0.22532068425E+02  0.33199003655E+02  0.51100000000E-03 0. -1.
        -11    1    3    3    0    0 -0.24473717732E+01 -0.30663025346E+01  0.87416313549E+01  0.95816469793E+01  0.51100000000E-03 0.  1.
         12    1    3    3    0    0  0.57067470493E+01  0.52054726649E+01  0.60737995191E+00  0.77480847928E+01  0.00000000000E+00 0. -1.
</event>
<event>
 7    1  0.4878192E-011  0.5052884E+02  0.7816164E-02  0.1300439E+00
        -11   -1    0    0    0    0  0.00000000000E+00  0.00000000000E+00  0.45593999997E+02  0.45594000000E+02  0.51100000000E-03 0.  1.
         11   -1    0    0    0    0 -0.00000000000E+00 -0.00000000000E+00 -0.45593999997E+02  0.45594000000E+02  0.51100000000E-03 0. -1.
    9900012    2    1    2    0    0 -0.65100681674E+01 -0.27220316295E+02 -0.29493065687E+02  0.50528837068E+02  0.29999930751E+02 0.  0.
        -12    1    1    2    0    0  0.65100681674E+01  0.27220316295E+02  0.29493065687E+02  0.40659162932E+02  0.00000000000E+00 0.  1.
         11    1    3    3    0    0  0.72188676898E+01 -0.11561031675E+02 -0.14283263251E+02  0.19742875005E+02  0.51100000000E-03 0. -1.
        -11    1    3    3    0    0 -0.10454003704E+02 -0.18483266797E+02 -0.86499286196E+01  0.22928990609E+02  0.51100000000E-03 0.  1.
         12    1    3    3    0    0 -0.32749321527E+01  0.28239821770E+01 -0.65598738165E+01  0.78569714541E+01  0.00000000000E+00 0. -1.
</event>
<event>
 7    1  0.4878192E-011  0.5052885E+02  0.7816164E-02  0.1300439E+00
        -11   -1    0    0    0    0  0.00000000000E+00  0.00000000000E+00  0.45593999997E+02  0.45594000000E+02  0.51100000000E-03 0.  1.
         11   -1    0    0    0    0 -0.00000000000E+00 -0.00000000000E+00 -0.45593999997E+02  0.45594000000E+02  0.51100000000E-03 0. -1.
    9900012    2    1    2    0    0 -0.56412843398E+01  0.20906659995E+02 -0.34412986107E+02  0.50528854240E+02  0.29999982948E+02 0.  0.
        -12    1    1    2    0    0  0.56412843398E+01 -0.20906659995E+02  0.34412986107E+02  0.40659145760E+02  0.00000000000E+00 0.  1.
         11    1    3    3    0    0  0.49087501155E+01  0.11678536525E+02 -0.14474804095E+01  0.12750656566E+02  0.51100000000E-03 0. -1.
        -11    1    3    3    0    0  0.15201372960E+00 -0.12518822448E+01 -0.11695262958E+02  0.11763056288E+02  0.51100000000E-03 0.  1.
         12    1    3    3    0    0 -0.10702048185E+02  0.10480005715E+02 -0.21270242739E+02  0.26015141386E+02  0.00000000000E+00 0. -1.
</event>
<event>
 7    1  0.4878192E-011  0.5052883E+02  0.7816164E-02  0.1300439E+00
        -11   -1    0    0    0    0  0.00000000000E+00  0.00000000000E+00  0.45593999997E+02  0.45594000000E+02  0.51100000000E-03 0. -1.
         11   -1    0    0    0    0 -0.00000000000E+00 -0.00000000000E+00 -0.45593999997E+02  0.45594000000E+02  0.51100000000E-03 0.  1.
    9900012    2    1    2    0    0  0.33439099530E+02  0.22434387943E+02  0.56296457658E+01  0.50528830662E+02  0.29999911281E+02 0.  0.
        -12    1    1    2    0    0 -0.33439099530E+02 -0.22434387943E+02 -0.56296457658E+01  0.40659169338E+02  0.00000000000E+00 0.  1.
         11    1    3    3    0    0  0.13429926116E+02  0.35528812805E+01  0.10303548438E+02  0.17295924131E+02  0.51100000000E-03 0. -1.
        -11    1    3    3    0    0  0.11133594212E+02  0.11467733347E+02 -0.11603469818E+02  0.19751109849E+02  0.51100000000E-03 0.  1.
         12    1    3    3    0    0  0.88755792026E+01  0.74137733159E+01  0.69295671453E+01  0.13481796682E+02  0.00000000000E+00 0. -1.
</event>
<event>
 7    1  0.4878192E-011  0.5052886E+02  0.7816164E-02  0.1300439E+00
        -11   -1    0    0    0    0  0.00000000000E+00  0.00000000000E+00  0.45593999997E+02  0.45594000000E+02  0.51100000000E-03 0. -1.
         11   -1    0    0    0    0 -0.00000000000E+00 -0.00000000000E+00 -0.45593999997E+02  0.45594000000E+02  0.51100000000E-03 0.  1.
    9900012    2    1    2    0    0 -0.95673966621E+01 -0.79052536907E+01  0.38718699756E+02  0.50528858032E+02  0.29999994474E+02 0.  0.
        -12    1    1    2    0    0  0.95673966621E+01  0.79052536907E+01 -0.38718699756E+02  0.40659141968E+02  0.00000000000E+00 0.  1.
         11    1    3    3    0    0  0.60346358906E+00  0.18189188930E+01  0.77247534184E+01  0.79589226582E+01  0.51100000000E-03 0. -1.
        -11    1    3    3    0    0 -0.97526838785E+01 -0.18175039480E+02  0.20383290679E+02  0.28998714490E+02  0.51100000000E-03 0.  1.
        -12    1    3    3    0    0 -0.41817637259E+00  0.84508668961E+01  0.10610655658E+02  0.13571220883E+02  0.00000000000E+00 0.  1.
</event>
<event>
 7    1  0.4878192E-011  0.5052885E+02  0.7816164E-02  0.1300439E+00
        -11   -1    0    0    0    0  0.00000000000E+00  0.00000000000E+00  0.45593999997E+02  0.45594000000E+02  0.51100000000E-03 0.  1.
         11   -1    0    0    0    0 -0.00000000000E+00 -0.00000000000E+00 -0.45593999997E+02  0.45594000000E+02  0.51100000000E-03 0. -1.
    9900012    2    1    2    0    0 -0.23144263890E+02  0.27145648296E+02  0.19509559599E+02  0.50528854803E+02  0.29999984659E+02 0.  0.
        -12    1    1    2    0    0  0.23144263890E+02 -0.27145648296E+02 -0.19509559599E+02  0.40659145197E+02  0.00000000000E+00 0.  1.
         11    1    3    3    0    0 -0.14983900750E+02  0.75846302046E-01  0.23610229666E+01  0.15168963843E+02  0.51100000000E-03 0.  1.
        -11    1    3    3    0    0 -0.59057047190E+01  0.23930836597E+02  0.88216705236E+01  0.26179842619E+02  0.51100000000E-03 0. -1.
         12    1    3    3    0    0 -0.22546584214E+01  0.31389653965E+01  0.83268661085E+01  0.91800483412E+01  0.00000000000E+00 0. -1.
</event>
<event>
 7    1  0.4878192E-011  0.5052886E+02  0.7816164E-02  0.1300439E+00
        -11   -1    0    0    0    0  0.00000000000E+00  0.00000000000E+00  0.45593999997E+02  0.45594000000E+02  0.51100000000E-03 0.  1.
         11   -1    0    0    0    0 -0.00000000000E+00 -0.00000000000E+00 -0.45593999997E+02  0.45594000000E+02  0.51100000000E-03 0. -1.
    9900012    2    1    2    0    0  0.19680815674E+02 -0.35366093483E+02 -0.38820470318E+01  0.50528863720E+02  0.30000011764E+02 0.  0.
        -12    1    1    2    0    0 -0.19680815674E+02  0.35366093483E+02  0.38820470318E+01  0.40659136280E+02  0.00000000000E+00 0.  1.
         11    1    3    3    0    0  0.13522618503E+02 -0.30225588580E+02 -0.71969899049E+01  0.33885750399E+02  0.51100000000E-03 0. -1.
        -11    1    3    3    0    0 -0.35311987843E+01  0.20458397419E+01  0.18844268965E+01  0.44950962274E+01  0.51100000000E-03 0.  1.
         12    1    3    3    0    0  0.96893959556E+01 -0.71863446458E+01  0.14305159766E+01  0.12148017094E+02  0.00000000000E+00 0. -1.
</event>
<event>
 7    1  0.4878192E-011  0.5052886E+02  0.7816164E-02  0.1300439E+00
        -11   -1    0    0    0    0  0.00000000000E+00  0.00000000000E+00  0.45593999997E+02  0.45594000000E+02  0.51100000000E-03 0.  1.
         11   -1    0    0    0    0 -0.00000000000E+00 -0.00000000000E+00 -0.45593999997E+02  0.45594000000E+02  0.51100000000E-03 0. -1.
    9900012    2    1    2    0    0 -0.11587818257E+02 -0.37736607314E+02  0.97383998482E+01  0.50528862095E+02  0.30000006825E+02 0.  0.
        -12    1    1    2    0    0  0.11587818257E+02  0.37736607314E+02 -0.97383998482E+01  0.40659137905E+02  0.00000000000E+00 0.  1.
         11    1    3    3    0    0 -0.68064710312E+01 -0.49477367837E+01 -0.90601278270E+01  0.12365033913E+02  0.51100000000E-03 0. -1.
        -11    1    3    3    0    0 -0.34240918511E+01 -0.28426476836E+02  0.15849766818E+02  0.32726198966E+02  0.51100000000E-03 0.  1.
         12    1    3    3    0    0 -0.13572553745E+01 -0.43623936950E+01  0.29487608569E+01  0.54376292162E+01  0.00000000000E+00 0. -1.
</event>
<event>
 7    1  0.4878192E-011  0.5052886E+02  0.7816164E-02  0.1300439E+00
        -11   -1    0    0    0    0  0.00000000000E+00  0.00000000000E+00  0.45593999997E+02  0.45594000000E+02  0.51100000000E-03 0. -1.
         11   -1    0    0    0    0 -0.00000000000E+00 -0.00000000000E+00 -0.45593999997E+02  0.45594000000E+02  0.51100000000E-03 0.  1.
    9900012    2    1    2    0    0  0.33674958024E+02 -0.84026408267E+00  0.22769639044E+02  0.50528864447E+02  0.30000013975E+02 0.  0.
        -12    1    1    2    0    0 -0.33674958024E+02  0.84026408267E+00 -0.22769639044E+02  0.40659135553E+02  0.00000000000E+00 0.  1.
         11    1    3    3    0    0  0.98183007667E+01  0.48104986563E+00  0.41059609459E+01  0.10653138245E+02  0.51100000000E-03 0. -1.
        -11    1    3    3    0    0 -0.11746370246E+01 -0.61033308110E+01 -0.25496213228E+01  0.67179601278E+01  0.51100000000E-03 0.  1.
        -12    1    3    3    0    0  0.25031294282E+02  0.47820168627E+01  0.21213299421E+02  0.33157766075E+02  0.00000000000E+00 0.  1.
</event>
<event>
 7    1  0.4878192E-011  0.5052886E+02  0.7816164E-02  0.1300439E+00
        -11   -1    0    0    0    0  0.00000000000E+00  0.00000000000E+00  0.45593999997E+02  0.45594000000E+02  0.51100000000E-03 0.  1.
         11   -1    0    0    0    0 -0.00000000000E+00 -0.00000000000E+00 -0.45593999997E+02  0.45594000000E+02  0.51100000000E-03 0. -1.
    9900012    2    1    2    0    0  0.60046070756E+01  0.40148747456E+02 -0.22778718344E+01  0.50528856766E+02  0.29999990627E+02 0.  0.
        -12    1    1    2    0    0 -0.60046070756E+01 -0.40148747456E+02  0.22778718344E+01  0.40659143234E+02  0.00000000000E+00 0.  1.
         11    1    3    3    0    0  0.53912980093E+01  0.22441186907E+02  0.51381228478E+01  0.23644730294E+02  0.51100000000E-03 0. -1.
        -11    1    3    3    0    0 -0.11101029461E+01  0.14785708082E+02 -0.13413145006E+02  0.19994047895E+02  0.51100000000E-03 0.  1.
        -12    1    3    3    0    0  0.17234120124E+01  0.29218524672E+01  0.59971503234E+01  0.68900785776E+01  0.00000000000E+00 0.  1.
</event>
<event>
 7    1  0.4878192E-011  0.5052886E+02  0.7816164E-02  0.1300439E+00
        -11   -1    0    0    0    0  0.00000000000E+00  0.00000000000E+00  0.45593999997E+02  0.45594000000E+02  0.51100000000E-03 0.  1.
         11   -1    0    0    0    0 -0.00000000000E+00 -0.00000000000E+00 -0.45593999997E+02  0.45594000000E+02  0.51100000000E-03 0. -1.
    9900012    2    1    2    0    0  0.11383955134E+02 -0.32850334716E+02 -0.21081433255E+02  0.50528858918E+02  0.29999997167E+02 0.  0.
        -12    1    1    2    0    0 -0.11383955134E+02  0.32850334716E+02  0.21081433255E+02  0.40659141082E+02  0.00000000000E+00 0.  1.
         11    1    3    3    0    0 -0.13792171730E+01 -0.22049296774E+02 -0.19645168734E+02  0.29563598953E+02  0.51100000000E-03 0. -1.
        -11    1    3    3    0    0  0.10964001960E+02 -0.98164063328E+01  0.39202119356E+01  0.15229551345E+02  0.51100000000E-03 0.  1.
        -12    1    3    3    0    0  0.17991703469E+01 -0.98463160914E+00 -0.53564764567E+01  0.57357086200E+01  0.00000000000E+00 0.  1.
</event>
<event>
 7    1  0.4878192E-011  0.5052892E+02  0.7816164E-02  0.1300439E+00
        -11   -1    0    0    0    0  0.00000000000E+00  0.00000000000E+00  0.45593999997E+02  0.45594000000E+02  0.51100000000E-03 0.  1.
         11   -1    0    0    0    0 -0.00000000000E+00 -0.00000000000E+00 -0.45593999997E+02  0.45594000000E+02  0.51100000000E-03 0. -1.
    9900012    2    1    2    0    0 -0.28087601176E+02 -0.11069537096E+02 -0.27234400792E+02  0.50528922565E+02  0.30000190629E+02 0.  0.
        -12    1    1    2    0    0  0.28087601176E+02  0.11069537096E+02  0.27234400792E+02  0.40659077435E+02  0.00000000000E+00 0.  1.
         11    1    3    3    0    0 -0.25232864217E+02 -0.14167254345E+02 -0.29447553960E+02  0.41286401717E+02  0.51100000000E-03 0. -1.
        -11    1    3    3    0    0 -0.47241270105E+01  0.45768439833E+01  0.18363957310E+01  0.68291453639E+01  0.51100000000E-03 0.  1.
         12    1    3    3    0    0  0.18693900514E+01 -0.14791267349E+01  0.37675743753E+00  0.24133754844E+01  0.00000000000E+00 0. -1.
</event>
<event>
 7    1  0.4878192E-011  0.5052883E+02  0.7816164E-02  0.1300439E+00
        -11   -1    0    0    0    0  0.00000000000E+00  0.00000000000E+00  0.45593999997E+02  0.45594000000E+02  0.51100000000E-03 0.  1.
         11   -1    0    0    0    0 -0.00000000000E+00 -0.00000000000E+00 -0.45593999997E+02  0.45594000000E+02  0.51100000000E-03 0. -1.
    9900012    2    1    2    0    0 -0.32026497577E+02  0.44969911848E+01 -0.24642421556E+02  0.50528826165E+02  0.29999897611E+02 0.  0.
        -12    1    1    2    0    0  0.32026497577E+02 -0.44969911848E+01  0.24642421556E+02  0.40659173835E+02  0.00000000000E+00 0.  1.
         11    1    3    3    0    0 -0.20164544157E+02  0.89219117756E+01 -0.61362626721E+01  0.22888055195E+02  0.51100000000E-03 0. -1.
        -11    1    3    3    0    0 -0.82888676611E+01 -0.95402983404E+01 -0.17067620214E+02  0.21237379300E+02  0.51100000000E-03 0.  1.
        -12    1    3    3    0    0 -0.35730857595E+01  0.51153777496E+01 -0.14385386703E+01  0.64033916694E+01  0.00000000000E+00 0.  1.
</event>
<event>
 7    1  0.4878192E-011  0.5052884E+02  0.7816164E-02  0.1300439E+00
        -11   -1    0    0    0    0  0.00000000000E+00  0.00000000000E+00  0.45593999997E+02  0.45594000000E+02  0.51100000000E-03 0. -1.
         11   -1    0    0    0    0 -0.00000000000E+00 -0.00000000000E+00 -0.45593999997E+02  0.45594000000E+02  0.51100000000E-03 0.  1.
    9900012    2    1    2    0    0 -0.17698018417E+02  0.17104663780E+02  0.32363215807E+02  0.50528842160E+02  0.29999946229E+02 0.  0.
        -12    1    1    2    0    0  0.17698018417E+02 -0.17104663780E+02 -0.32363215807E+02  0.40659157840E+02  0.00000000000E+00 0.  1.
         11    1    3    3    0    0  0.42931333613E+01 -0.35615144430E+01  0.40993783389E+00  0.55931590782E+01  0.51100000000E-03 0.  1.
        -11    1    3    3    0    0 -0.17064987041E+02  0.99931603423E+01  0.21403389778E+02  0.29140729754E+02  0.51100000000E-03 0. -1.
        -12    1    3    3    0    0 -0.49261647374E+01  0.10673017880E+02  0.10549888194E+02  0.15794953327E+02  0.00000000000E+00 0.  1.
</event>
<event>
 7    1  0.4878192E-011  0.5052885E+02  0.7816164E-02  0.1300439E+00
        -11   -1    0    0    0    0  0.00000000000E+00  0.00000000000E+00  0.45593999997E+02  0.45594000000E+02  0.51100000000E-03 0.  1.
         11   -1    0    0    0    0 -0.00000000000E+00 -0.00000000000E+00 -0.45593999997E+02  0.45594000000E+02  0.51100000000E-03 0. -1.
    9900012    2    1    2    0    0 -0.31005990380E+01 -0.25672854831E+02 -0.31376056467E+02  0.50528854547E+02  0.29999983881E+02 0.  0.
        -12    1    1    2    0    0  0.31005990380E+01  0.25672854831E+02  0.31376056467E+02  0.40659145453E+02  0.00000000000E+00 0.  1.
         11    1    3    3    0    0  0.40566058564E+01 -0.29422383406E+01 -0.26542140370E+01  0.56707733108E+01  0.51100000000E-03 0. -1.
        -11    1    3    3    0    0 -0.78396756946E+01  0.31390121148E+01 -0.54193828781E+01  0.10034122936E+02  0.51100000000E-03 0.  1.
        -12    1    3    3    0    0  0.68247080013E+00 -0.25869628605E+02 -0.23302459552E+02  0.34823958300E+02  0.00000000000E+00 0.  1.
</event>
<event>
 7    1  0.4878192E-011  0.5052885E+02  0.7816164E-02  0.1300439E+00
        -11   -1    0    0    0    0  0.00000000000E+00  0.00000000000E+00  0.45593999997E+02  0.45594000000E+02  0.51100000000E-03 0. -1.
         11   -1    0    0    0    0 -0.00000000000E+00 -0.00000000000E+00 -0.45593999997E+02  0.45594000000E+02  0.51100000000E-03 0.  1.
    9900012    2    1    2    0    0 -0.54657277333E+01  0.17942406367E+02  0.36074399662E+02  0.50528850515E+02  0.29999971626E+02 0.  0.
        -12    1    1    2    0    0  0.54657277333E+01 -0.17942406367E+02 -0.36074399662E+02  0.40659149485E+02  0.00000000000E+00 0.  1.
         11    1    3    3    0    0  0.66463376443E+01  0.17098101025E+02  0.30116441843E+02  0.35263563806E+02  0.51100000000E-03 0. -1.
        -11    1    3    3    0    0 -0.27361399290E+01  0.32929751921E+01  0.10755934848E+01  0.44144137700E+01  0.51100000000E-03 0.  1.
         12    1    3    3    0    0 -0.93759254485E+01 -0.24486698505E+01  0.48823643334E+01  0.10850872939E+02  0.00000000000E+00 0. -1.
</event>
<event>
 7    1  0.4878192E-011  0.5052884E+02  0.7816164E-02  0.1300439E+00
        -11   -1    0    0    0    0  0.00000000000E+00  0.00000000000E+00  0.45593999997E+02  0.45594000000E+02  0.51100000000E-03 0. -1.
         11   -1    0    0    0    0 -0.00000000000E+00 -0.00000000000E+00 -0.45593999997E+02  0.45594000000E+02  0.51100000000E-03 0.  1.
    9900012    2    1    2    0    0  0.43225384159E+01 -0.18650369070E+02  0.35869852812E+02  0.50528844259E+02  0.29999952611E+02 0.  0.
        -12    1    1    2    0    0 -0.43225384159E+01  0.18650369070E+02 -0.35869852812E+02  0.40659155741E+02  0.00000000000E+00 0.  1.
         11    1    3    3    0    0 -0.96215712455E+01 -0.15730752498E+02  0.23283975069E+02  0.29701425937E+02  0.51100000000E-03 0. -1.
        -11    1    3    3    0    0  0.46719784748E+01 -0.51306945049E+01  0.65682046142E+01  0.95547224495E+01  0.51100000000E-03 0.  1.
         12    1    3    3    0    0  0.92721311865E+01  0.22110779333E+01  0.60176731283E+01  0.11272695873E+02  0.00000000000E+00 0. -1.
</event>
<event>
 7    1  0.4878192E-011  0.5052886E+02  0.7816164E-02  0.1300439E+00
        -11   -1    0    0    0    0  0.00000000000E+00  0.00000000000E+00  0.45593999997E+02  0.45594000000E+02  0.51100000000E-03 0.  1.
         11   -1    0    0    0    0 -0.00000000000E+00 -0.00000000000E+00 -0.45593999997E+02  0.45594000000E+02  0.51100000000E-03 0. -1.
    9900012    2    1    2    0    0  0.32139350525E+02 -0.19735676955E+01 -0.24826054095E+02  0.50528858549E+02  0.29999996044E+02 0.  0.
        -12    1    1    2    0    0 -0.32139350525E+02  0.19735676955E+01  0.24826054095E+02  0.40659141451E+02  0.00000000000E+00 0.  1.
         11    1    3    3    0    0  0.27094495893E+02 -0.75386703861E+01 -0.14430896608E+02  0.31610030624E+02  0.51100000000E-03 0. -1.
        -11    1    3    3    0    0  0.92981367621E+01  0.59732901466E+01 -0.94541605321E+01  0.14543613514E+02  0.51100000000E-03 0.  1.
         12    1    3    3    0    0 -0.42532821294E+01 -0.40818745602E+00 -0.94099695528E+00  0.43752144109E+01  0.00000000000E+00 0. -1.
</event>
<event>
 7    1  0.4878192E-011  0.5052888E+02  0.7816164E-02  0.1300439E+00
        -11   -1    0    0    0    0  0.00000000000E+00  0.00000000000E+00  0.45593999997E+02  0.45594000000E+02  0.51100000000E-03 0.  1.
         11   -1    0    0    0    0 -0.00000000000E+00 -0.00000000000E+00 -0.45593999997E+02  0.45594000000E+02  0.51100000000E-03 0. -1.
    9900012    2    1    2    0    0  0.18036382863E+01  0.16145661926E+02 -0.37272356382E+02  0.50528879739E+02  0.30000060456E+02 0.  0.
        -12    1    1    2    0    0 -0.18036382863E+01 -0.16145661926E+02  0.37272356382E+02  0.40659120261E+02  0.00000000000E+00 0.  1.
         11    1    3    3    0    0 -0.71226440427E+01  0.52267092369E+01 -0.32995701266E+02  0.34157969054E+02  0.51100000000E-03 0. -1.
        -11    1    3    3    0    0  0.89059955613E+01  0.97858296508E+01 -0.58208233157E+01  0.14455490418E+02  0.51100000000E-03 0.  1.
        -12    1    3    3    0    0  0.20286767719E-01  0.11331230388E+01  0.15441681993E+01  0.19154202676E+01  0.00000000000E+00 0.  1.
</event>
<event>
 7    1  0.4878192E-011  0.5052886E+02  0.7816164E-02  0.1300439E+00
        -11   -1    0    0    0    0  0.00000000000E+00  0.00000000000E+00  0.45593999997E+02  0.45594000000E+02  0.51100000000E-03 0.  1.
         11   -1    0    0    0    0 -0.00000000000E+00 -0.00000000000E+00 -0.45593999997E+02  0.45594000000E+02  0.51100000000E-03 0. -1.
    9900012    2    1    2    0    0 -0.46863192047E+01 -0.10761622372E+02 -0.38928027785E+02  0.50528862639E+02  0.30000008477E+02 0.  0.
        -12    1    1    2    0    0  0.46863192047E+01  0.10761622372E+02  0.38928027785E+02  0.40659137361E+02  0.00000000000E+00 0.  1.
         11    1    3    3    0    0 -0.61819327745E+01 -0.15667850182E+02 -0.39921126759E+02  0.43328907027E+02  0.51100000000E-03 0. -1.
        -11    1    3    3    0    0 -0.43080799639E+00  0.51670984905E+01  0.80008146266E+00  0.52463923746E+01  0.51100000000E-03 0.  1.
         12    1    3    3    0    0  0.19264215662E+01 -0.26087067999E+00  0.19301751206E+00  0.19535632374E+01  0.00000000000E+00 0. -1.
</event>
<event>
 7    1  0.5277682E-011  0.5052886E+02  0.7816164E-02  0.1300439E+00
        -11   -1    0    0    0    0  0.00000000000E+00  0.00000000000E+00  0.45593999997E+02  0.45594000000E+02  0.51100000000E-03 0.  1.
         11   -1    0    0    0    0 -0.00000000000E+00 -0.00000000000E+00 -0.45593999997E+02  0.45594000000E+02  0.51100000000E-03 0. -1.
    9900012    2    1    2    0    0 -0.40356690328E+02  0.13835566651E+01 -0.47527476966E+01  0.50528864569E+02  0.30000014345E+02 0.  0.
        -12    1    1    2    0    0  0.40356690328E+02 -0.13835566651E+01  0.47527476966E+01  0.40659135431E+02  0.00000000000E+00 0.  1.
         11    1    3    3    0    0 -0.24721164189E+02 -0.10819490871E+02  0.87013595363E+00  0.26999156995E+02  0.51100000000E-03 0. -1.
        -11    1    3    3    0    0 -0.24597168765E+00  0.43043839084E+01  0.18434370102E+01  0.46889746399E+01  0.51100000000E-03 0.  1.
         12    1    3    3    0    0 -0.15389554451E+02  0.78986636279E+01 -0.74663206604E+01  0.18840732935E+02  0.00000000000E+00 0. -1.
</event>
<event>
 7    1  0.4878192E-011  0.5052886E+02  0.7816164E-02  0.1300439E+00
        -11   -1    0    0    0    0  0.00000000000E+00  0.00000000000E+00  0.45593999997E+02  0.45594000000E+02  0.51100000000E-03 0. -1.
         11   -1    0    0    0    0 -0.00000000000E+00 -0.00000000000E+00 -0.45593999997E+02  0.45594000000E+02  0.51100000000E-03 0.  1.
    9900012    2    1    2    0    0  0.24531697274E+02  0.21245497052E+02  0.24494706160E+02  0.50528856551E+02  0.29999989972E+02 0.  0.
        -12    1    1    2    0    0 -0.24531697274E+02 -0.21245497052E+02 -0.24494706160E+02  0.40659143449E+02  0.00000000000E+00 0.  1.
         11    1    3    3    0    0  0.17816359877E+02  0.39044825682E+01  0.12129406975E+02  0.21904113248E+02  0.51100000000E-03 0. -1.
        -11    1    3    3    0    0 -0.52212192920E+01  0.99124452799E+00  0.99557689518E+00  0.54069279841E+01  0.51100000000E-03 0.  1.
        -12    1    3    3    0    0  0.11936556690E+02  0.16349769956E+02  0.11369722290E+02  0.23217815318E+02  0.00000000000E+00 0.  1.
</event>
<event>
 7    1  0.4878192E-011  0.5052884E+02  0.7816164E-02  0.1300439E+00
        -11   -1    0    0    0    0  0.00000000000E+00  0.00000000000E+00  0.45593999997E+02  0.45594000000E+02  0.51100000000E-03 0.  1.
         11   -1    0    0    0    0 -0.00000000000E+00 -0.00000000000E+00 -0.45593999997E+02  0.45594000000E+02  0.51100000000E-03 0. -1.
    9900012    2    1    2    0    0 -0.17465184556E+02 -0.19515868978E+02 -0.31100892736E+02  0.50528839378E+02  0.29999937772E+02 0.  0.
        -12    1    1    2    0    0  0.17465184556E+02  0.19515868978E+02  0.31100892736E+02  0.40659160622E+02  0.00000000000E+00 0.  1.
         11    1    3    3    0    0 -0.16873692321E+02 -0.10263278972E+02 -0.10789526452E+02  0.22504894337E+02  0.51100000000E-03 0. -1.
        -11    1    3    3    0    0 -0.78198268903E+00  0.49429756997E+01 -0.66395212836E+01  0.83143098830E+01  0.51100000000E-03 0.  1.
        -12    1    3    3    0    0  0.19049045403E+00 -0.14195565706E+02 -0.13671845001E+02  0.19709635157E+02  0.00000000000E+00 0.  1.
</event>
<event>
 7    1  0.4878192E-011  0.5052886E+02  0.7816164E-02  0.1300439E+00
        -11   -1    0    0    0    0  0.00000000000E+00  0.00000000000E+00  0.45593999997E+02  0.45594000000E+02  0.51100000000E-03 0. -1.
         11   -1    0    0    0    0 -0.00000000000E+00 -0.00000000000E+00 -0.45593999997E+02  0.45594000000E+02  0.51100000000E-03 0.  1.
    9900012    2    1    2    0    0  0.30082359408E+02 -0.75163315011E+01  0.26300604267E+02  0.50528863615E+02  0.30000011443E+02 0.  0.
        -12    1    1    2    0    0 -0.30082359408E+02  0.75163315011E+01 -0.26300604267E+02  0.40659136385E+02  0.00000000000E+00 0.  1.
         11    1    3    3    0    0  0.13409413765E+02  0.35098037892E+01  0.16457687040E+02  0.21517122557E+02  0.51100000000E-03 0. -1.
        -11    1    3    3    0    0  0.17922039271E+02 -0.13068869040E+02  0.37899545389E+01  0.22502412877E+02  0.51100000000E-03 0.  1.
        -12    1    3    3    0    0 -0.12490936280E+01  0.20427337500E+01  0.60529626875E+01  0.65093281805E+01  0.00000000000E+00 0.  1.
</event>
<event>
 7    1  0.4878192E-011  0.5052886E+02  0.7816164E-02  0.1300439E+00
        -11   -1    0    0    0    0  0.00000000000E+00  0.00000000000E+00  0.45593999997E+02  0.45594000000E+02  0.51100000000E-03 0.  1.
         11   -1    0    0    0    0 -0.00000000000E+00 -0.00000000000E+00 -0.45593999997E+02  0.45594000000E+02  0.51100000000E-03 0. -1.
    9900012    2    1    2    0    0  0.35846502250E+02  0.15205219290E+02 -0.11704491696E+02  0.50528861506E+02  0.30000005033E+02 0.  0.
        -12    1    1    2    0    0 -0.35846502250E+02 -0.15205219290E+02  0.11704491696E+02  0.40659138494E+02  0.00000000000E+00 0.  1.
         11    1    3    3    0    0  0.59804860046E+00  0.71054591809E+01  0.43476606479E+01  0.83514888296E+01  0.51100000000E-03 0.  1.
        -11    1    3    3    0    0  0.36044130323E+02  0.71308641900E+01 -0.17115379131E+02  0.40533501674E+02  0.51100000000E-03 0. -1.
         12    1    3    3    0    0 -0.79567667351E+00  0.96889591931E+00  0.10632267874E+01  0.16438710024E+01  0.00000000000E+00 0. -1.
</event>
<event>
 7    1  0.4878192E-011  0.5052885E+02  0.7816164E-02  0.1300439E+00
        -11   -1    0    0    0    0  0.00000000000E+00  0.00000000000E+00  0.45593999997E+02  0.45594000000E+02  0.51100000000E-03 0. -1.
         11   -1    0    0    0    0 -0.00000000000E+00 -0.00000000000E+00 -0.45593999997E+02  0.45594000000E+02  0.51100000000E-03 0.  1.
    9900012    2    1    2    0    0  0.12169163298E+02  0.34086664071E+02  0.18525038611E+02  0.50528852709E+02  0.29999978295E+02 0.  0.
        -12    1    1    2    0    0 -0.12169163298E+02 -0.34086664071E+02 -0.18525038611E+02  0.40659147291E+02  0.00000000000E+00 0.  1.
         11    1    3    3    0    0  0.15502614124E+02  0.16617236605E+02  0.15178863678E+02  0.27328766892E+02  0.51100000000E-03 0. -1.
        -11    1    3    3    0    0  0.26131082277E+01  0.15356272145E+02 -0.88489350619E+00  0.15602130162E+02  0.51100000000E-03 0.  1.
         12    1    3    3    0    0 -0.59465590541E+01  0.21131553211E+01  0.42310684393E+01  0.75979556549E+01  0.00000000000E+00 0. -1.
</event>
<event>
 7    1  0.4878192E-011  0.5052886E+02  0.7816164E-02  0.1300439E+00
        -11   -1    0    0    0    0  0.00000000000E+00  0.00000000000E+00  0.45593999997E+02  0.45594000000E+02  0.51100000000E-03 0.  1.
         11   -1    0    0    0    0 -0.00000000000E+00 -0.00000000000E+00 -0.45593999997E+02  0.45594000000E+02  0.51100000000E-03 0. -1.
    9900012    2    1    2    0    0 -0.83875775837E+01 -0.48567232464E+01 -0.39487043477E+02  0.50528858089E+02  0.29999994646E+02 0.  0.
        -12    1    1    2    0    0  0.83875775837E+01  0.48567232464E+01  0.39487043477E+02  0.40659141911E+02  0.00000000000E+00 0.  1.
         11    1    3    3    0    0  0.77863001137E+01  0.67499809841E+01 -0.20572431906E+02  0.23008991015E+02  0.51100000000E-03 0. -1.
        -11    1    3    3    0    0 -0.64993788580E+01 -0.38232919345E+01 -0.63972460046E+01  0.98885915813E+01  0.51100000000E-03 0.  1.
         12    1    3    3    0    0 -0.96744988394E+01 -0.77834122960E+01 -0.12517365566E+02  0.17631275492E+02  0.00000000000E+00 0. -1.
</event>
<event>
 7    1  0.4878192E-011  0.5052886E+02  0.7816164E-02  0.1300439E+00
        -11   -1    0    0    0    0  0.00000000000E+00  0.00000000000E+00  0.45593999997E+02  0.45594000000E+02  0.51100000000E-03 0.  1.
         11   -1    0    0    0    0 -0.00000000000E+00 -0.00000000000E+00 -0.45593999997E+02  0.45594000000E+02  0.51100000000E-03 0. -1.
    9900012    2    1    2    0    0 -0.12610447478E+02  0.22793884406E+02 -0.31218279718E+02  0.50528861538E+02  0.30000005132E+02 0.  0.
        -12    1    1    2    0    0  0.12610447478E+02 -0.22793884406E+02  0.31218279718E+02  0.40659138462E+02  0.00000000000E+00 0.  1.
         11    1    3    3    0    0 -0.11839373343E+02  0.28233847137E+01 -0.62784210563E+01  0.13695285087E+02  0.51100000000E-03 0. -1.
        -11    1    3    3    0    0  0.78570034412E+01  0.87750914470E+01 -0.60513206412E+01  0.13242100088E+02  0.51100000000E-03 0.  1.
        -12    1    3    3    0    0 -0.86280775758E+01  0.11195408245E+02 -0.18888538021E+02  0.23591476363E+02  0.00000000000E+00 0.  1.
</event>
<event>
 7    1  0.4878192E-011  0.5052885E+02  0.7816164E-02  0.1300439E+00
        -11   -1    0    0    0    0  0.00000000000E+00  0.00000000000E+00  0.45593999997E+02  0.45594000000E+02  0.51100000000E-03 0.  1.
         11   -1    0    0    0    0 -0.00000000000E+00 -0.00000000000E+00 -0.45593999997E+02  0.45594000000E+02  0.51100000000E-03 0. -1.
    9900012    2    1    2    0    0 -0.19785973902E+01  0.23004441050E+02 -0.33467107842E+02  0.50528850194E+02  0.29999970649E+02 0.  0.
        -12    1    1    2    0    0  0.19785973902E+01 -0.23004441050E+02  0.33467107842E+02  0.40659149806E+02  0.00000000000E+00 0.  1.
         11    1    3    3    0    0 -0.72328853322E+01  0.46625144135E+01 -0.23134489653E+02  0.24683157875E+02  0.51100000000E-03 0. -1.
        -11    1    3    3    0    0 -0.10103077832E+01  0.52580322757E+01  0.30048924474E+01  0.61397886047E+01  0.51100000000E-03 0.  1.
         12    1    3    3    0    0  0.62645957252E+01  0.13083894361E+02 -0.13337510636E+02  0.19705903715E+02  0.00000000000E+00 0. -1.
</event>
<event>
 7    1  0.4878192E-011  0.5052887E+02  0.7816164E-02  0.1300439E+00
        -11   -1    0    0    0    0  0.00000000000E+00  0.00000000000E+00  0.45593999997E+02  0.45594000000E+02  0.51100000000E-03 0.  1.
         11   -1    0    0    0    0 -0.00000000000E+00 -0.00000000000E+00 -0.45593999997E+02  0.45594000000E+02  0.51100000000E-03 0. -1.
    9900012    2    1    2    0    0 -0.10638630641E+02 -0.65074139530E+01 -0.38699330701E+02  0.50528867016E+02  0.30000021783E+02 0.  0.
        -12    1    1    2    0    0  0.10638630641E+02  0.65074139530E+01  0.38699330701E+02  0.40659132984E+02  0.00000000000E+00 0.  1.
         11    1    3    3    0    0 -0.13797970677E+02  0.73689066297E+01 -0.19209223750E+02  0.24772546438E+02  0.51100000000E-03 0. -1.
        -11    1    3    3    0    0 -0.13444122836E+01 -0.81251073965E+01 -0.52920195902E+01  0.97892944688E+01  0.51100000000E-03 0.  1.
         12    1    3    3    0    0  0.45037523191E+01 -0.57512131861E+01 -0.14198087361E+02  0.15967026109E+02  0.00000000000E+00 0. -1.
</event>
<event>
 7    1  0.4878192E-011  0.5052885E+02  0.7816164E-02  0.1300439E+00
        -11   -1    0    0    0    0  0.00000000000E+00  0.00000000000E+00  0.45593999997E+02  0.45594000000E+02  0.51100000000E-03 0.  1.
         11   -1    0    0    0    0 -0.00000000000E+00 -0.00000000000E+00 -0.45593999997E+02  0.45594000000E+02  0.51100000000E-03 0. -1.
    9900012    2    1    2    0    0 -0.11012791062E+02 -0.32985315514E+02 -0.21067832373E+02  0.50528853828E+02  0.29999981695E+02 0.  0.
        -12    1    1    2    0    0  0.11012791062E+02  0.32985315514E+02  0.21067832373E+02  0.40659146172E+02  0.00000000000E+00 0.  1.
         11    1    3    3    0    0 -0.86791723124E+01 -0.30604454097E+02 -0.27252298092E+02  0.41888523418E+02  0.51100000000E-03 0. -1.
        -11    1    3    3    0    0 -0.29760056757E+01 -0.24470440748E+01  0.18788851013E+01  0.42865888502E+01  0.51100000000E-03 0.  1.
         12    1    3    3    0    0  0.64238692578E+00  0.66182657216E-01  0.43055806181E+01  0.43537415593E+01  0.00000000000E+00 0. -1.
</event>
<event>
 7    1  0.4878192E-011  0.5052886E+02  0.7816164E-02  0.1300439E+00
        -11   -1    0    0    0    0  0.00000000000E+00  0.00000000000E+00  0.45593999997E+02  0.45594000000E+02  0.51100000000E-03 0.  1.
         11   -1    0    0    0    0 -0.00000000000E+00 -0.00000000000E+00 -0.45593999997E+02  0.45594000000E+02  0.51100000000E-03 0. -1.
    9900012    2    1    2    0    0 -0.34981724973E+02  0.17083108968E+02 -0.11730825413E+02  0.50528856392E+02  0.29999989488E+02 0.  0.
        -12    1    1    2    0    0  0.34981724973E+02 -0.17083108968E+02  0.11730825413E+02  0.40659143608E+02  0.00000000000E+00 0.  1.
         11    1    3    3    0    0 -0.25524779835E+02  0.15524185719E+02 -0.22404890154E+01  0.29958880472E+02  0.51100000000E-03 0. -1.
        -11    1    3    3    0    0  0.64304078724E+00  0.82916396321E+00  0.37540649435E+01  0.38979505119E+01  0.51100000000E-03 0.  1.
         12    1    3    3    0    0 -0.10099985925E+02  0.72975928547E+00 -0.13244401341E+02  0.16672025408E+02  0.00000000000E+00 0. -1.
</event>
<event>
 7    1  0.4878192E-011  0.5052893E+02  0.7816164E-02  0.1300439E+00
        -11   -1    0    0    0    0  0.00000000000E+00  0.00000000000E+00  0.45593999997E+02  0.45594000000E+02  0.51100000000E-03 0.  1.
         11   -1    0    0    0    0 -0.00000000000E+00 -0.00000000000E+00 -0.45593999997E+02  0.45594000000E+02  0.51100000000E-03 0. -1.
    9900012    2    1    2    0    0  0.13689039940E+02  0.55664340367E+01 -0.37878550248E+02  0.50528934944E+02  0.30000228254E+02 0.  0.
        -12    1    1    2    0    0 -0.13689039940E+02 -0.55664340367E+01  0.37878550248E+02  0.40659065056E+02  0.00000000000E+00 0.  1.
         11    1    3    3    0    0  0.95058658325E+01  0.79595966584E+01 -0.14136302528E+02  0.18802970872E+02  0.51100000000E-03 0. -1.
        -11    1    3    3    0    0  0.54527020521E+01 -0.78627936378E+01 -0.26923471565E+01  0.99400310327E+01  0.51100000000E-03 0.  1.
        -12    1    3    3    0    0 -0.12695279445E+01  0.54696310160E+01 -0.21049900563E+02  0.21785933039E+02  0.00000000000E+00 0.  1.
</event>
<event>
 7    1  0.4878192E-011  0.5052887E+02  0.7816164E-02  0.1300439E+00
        -11   -1    0    0    0    0  0.00000000000E+00  0.00000000000E+00  0.45593999997E+02  0.45594000000E+02  0.51100000000E-03 0. -1.
         11   -1    0    0    0    0 -0.00000000000E+00 -0.00000000000E+00 -0.45593999997E+02  0.45594000000E+02  0.51100000000E-03 0.  1.
    9900012    2    1    2    0    0 -0.26594770224E+02 -0.21305452323E+02  0.22180186881E+02  0.50528870742E+02  0.30000033108E+02 0.  0.
        -12    1    1    2    0    0  0.26594770224E+02  0.21305452323E+02 -0.22180186881E+02  0.40659129258E+02  0.00000000000E+00 0.  1.
         11    1    3    3    0    0 -0.21860146227E+00 -0.53173096019E+01 -0.41786452802E+01  0.67662873602E+01  0.51100000000E-03 0.  1.
        -11    1    3    3    0    0 -0.18707894840E+02 -0.49167832063E+01  0.22666095332E+02  0.29797851672E+02  0.51100000000E-03 0. -1.
         12    1    3    3    0    0 -0.76682739214E+01 -0.11071359514E+02  0.36927368297E+01  0.13964731710E+02  0.00000000000E+00 0. -1.
</event>
<event>
 7    1  0.4878192E-011  0.5052884E+02  0.7816164E-02  0.1300439E+00
        -11   -1    0    0    0    0  0.00000000000E+00  0.00000000000E+00  0.45593999997E+02  0.45594000000E+02  0.51100000000E-03 0.  1.
         11   -1    0    0    0    0 -0.00000000000E+00 -0.00000000000E+00 -0.45593999997E+02  0.45594000000E+02  0.51100000000E-03 0. -1.
    9900012    2    1    2    0    0 -0.95297016146E+01  0.34052618258E+02 -0.20069162216E+02  0.50528839960E+02  0.29999939542E+02 0.  0.
        -12    1    1    2    0    0  0.95297016146E+01 -0.34052618258E+02  0.20069162216E+02  0.40659160040E+02  0.00000000000E+00 0.  1.
         11    1    3    3    0    0  0.35478347346E+01  0.10970641875E+02  0.47527824506E+01  0.12471209073E+02  0.51100000000E-03 0. -1.
        -11    1    3    3    0    0 -0.10708122679E+02  0.23007810949E+02 -0.18790318197E+02  0.31576879425E+02  0.51100000000E-03 0.  1.
        -12    1    3    3    0    0 -0.23694136704E+01  0.74165434416E-01 -0.60316264694E+01  0.64807514625E+01  0.00000000000E+00 0.  1.
</event>
<event>
 7    1  0.4878192E-011  0.5052886E+02  0.7816164E-02  0.1300439E+00
        -11   -1    0    0    0    0  0.00000000000E+00  0.00000000000E+00  0.45593999997E+02  0.45594000000E+02  0.51100000000E-03 0. -1.
         11   -1    0    0    0    0 -0.00000000000E+00 -0.00000000000E+00 -0.45593999997E+02  0.45594000000E+02  0.51100000000E-03 0.  1.
    9900012    2    1    2    0    0 -0.13518522944E+02  0.35772295809E+02  0.13811524794E+02  0.50528858012E+02  0.29999994414E+02 0.  0.
        -12    1    1    2    0    0  0.13518522944E+02 -0.35772295809E+02 -0.13811524794E+02  0.40659141988E+02  0.00000000000E+00 0.  1.
         11    1    3    3    0    0 -0.20901251230E+00  0.18912243010E+02  0.83931844338E+01  0.20692079816E+02  0.51100000000E-03 0. -1.
        -11    1    3    3    0    0 -0.12965932947E+02  0.45583218997E+01 -0.40289286375E+01  0.14322219868E+02  0.51100000000E-03 0.  1.
        -12    1    3    3    0    0 -0.34357748519E+00  0.12301730899E+02  0.94472689973E+01  0.15514558328E+02  0.00000000000E+00 0.  1.
</event>
<event>
 7    1  0.4878192E-011  0.5052886E+02  0.7816164E-02  0.1300439E+00
        -11   -1    0    0    0    0  0.00000000000E+00  0.00000000000E+00  0.45593999997E+02  0.45594000000E+02  0.51100000000E-03 0. -1.
         11   -1    0    0    0    0 -0.00000000000E+00 -0.00000000000E+00 -0.45593999997E+02  0.45594000000E+02  0.51100000000E-03 0.  1.
    9900012    2    1    2    0    0 -0.11588375767E+02  0.27434385823E+02  0.27680860360E+02  0.50528855780E+02  0.29999987630E+02 0.  0.
        -12    1    1    2    0    0  0.11588375767E+02 -0.27434385823E+02 -0.27680860360E+02  0.40659144220E+02  0.00000000000E+00 0.  1.
         11    1    3    3    0    0 -0.10995934704E+02  0.11228431127E+02  0.84887579617E+01  0.17861894009E+02  0.51100000000E-03 0. -1.
        -11    1    3    3    0    0  0.78205735233E+01  0.11730388828E+02  0.18292776490E+02  0.23095217346E+02  0.51100000000E-03 0.  1.
        -12    1    3    3    0    0 -0.84130145859E+01  0.44755658678E+01  0.89932590920E+00  0.95717444257E+01  0.00000000000E+00 0.  1.
</event>
<event>
 7    1  0.4878192E-011  0.5052886E+02  0.7816164E-02  0.1300439E+00
        -11   -1    0    0    0    0  0.00000000000E+00  0.00000000000E+00  0.45593999997E+02  0.45594000000E+02  0.51100000000E-03 0.  1.
         11   -1    0    0    0    0 -0.00000000000E+00 -0.00000000000E+00 -0.45593999997E+02  0.45594000000E+02  0.51100000000E-03 0. -1.
    9900012    2    1    2    0    0  0.30594938834E+01  0.24543585268E+02 -0.32271002588E+02  0.50528859716E+02  0.29999999592E+02 0.  0.
        -12    1    1    2    0    0 -0.30594938834E+01 -0.24543585268E+02  0.32271002588E+02  0.40659140284E+02  0.00000000000E+00 0.  1.
         11    1    3    3    0    0 -0.13307321042E+01  0.78063939273E+01  0.45411776037E+01  0.91286871110E+01  0.51100000000E-03 0. -1.
        -11    1    3    3    0    0 -0.10879192172E+01  0.42355375610E+01 -0.42724143530E+01  0.61136626762E+01  0.51100000000E-03 0.  1.
         12    1    3    3    0    0  0.54781452048E+01  0.12501653780E+02 -0.32539765839E+02  0.35286509929E+02  0.00000000000E+00 0. -1.
</event>
<event>
 7    1  0.4878192E-011  0.5052886E+02  0.7816164E-02  0.1300439E+00
        -11   -1    0    0    0    0  0.00000000000E+00  0.00000000000E+00  0.45593999997E+02  0.45594000000E+02  0.51100000000E-03 0.  1.
         11   -1    0    0    0    0 -0.00000000000E+00 -0.00000000000E+00 -0.45593999997E+02  0.45594000000E+02  0.51100000000E-03 0. -1.
    9900012    2    1    2    0    0  0.29311578688E+02 -0.16610073843E+02 -0.22761858860E+02  0.50528863057E+02  0.30000009747E+02 0.  0.
        -12    1    1    2    0    0 -0.29311578688E+02  0.16610073843E+02  0.22761858860E+02  0.40659136943E+02  0.00000000000E+00 0.  1.
         11    1    3    3    0    0  0.17100235406E+01 -0.91496996952E+00 -0.15440945970E+02  0.15562267292E+02  0.51100000000E-03 0. -1.
        -11    1    3    3    0    0  0.21834127105E+02 -0.14472342319E+02 -0.10555729635E+02  0.28241834697E+02  0.51100000000E-03 0.  1.
        -12    1    3    3    0    0  0.57674280420E+01 -0.12227615547E+01  0.32348167461E+01  0.67247610679E+01  0.00000000000E+00 0.  1.
</event>
<event>
 7    1  0.4878192E-011  0.5052886E+02  0.7816164E-02  0.1300439E+00
        -11   -1    0    0    0    0  0.00000000000E+00  0.00000000000E+00  0.45593999997E+02  0.45594000000E+02  0.51100000000E-03 0.  1.
         11   -1    0    0    0    0 -0.00000000000E+00 -0.00000000000E+00 -0.45593999997E+02  0.45594000000E+02  0.51100000000E-03 0. -1.
    9900012    2    1    2    0    0  0.32891941427E+02 -0.21795913703E+02 -0.98093935473E+01  0.50528857525E+02  0.29999992934E+02 0.  0.
        -12    1    1    2    0    0 -0.32891941427E+02  0.21795913703E+02  0.98093935473E+01  0.40659142475E+02  0.00000000000E+00 0.  1.
         11    1    3    3    0    0  0.18552926180E+02 -0.21286397465E+02 -0.15327826299E+02  0.32128866244E+02  0.51100000000E-03 0. -1.
        -11    1    3    3    0    0  0.81911856883E+01  0.45839992973E+01  0.16579993225E+01  0.95319218708E+01  0.51100000000E-03 0.  1.
         12    1    3    3    0    0  0.61478295590E+01 -0.50935155361E+01  0.38604334288E+01  0.88680694100E+01  0.00000000000E+00 0. -1.
</event>
<event>
 7    1  0.4878192E-011  0.5052885E+02  0.7816164E-02  0.1300439E+00
        -11   -1    0    0    0    0  0.00000000000E+00  0.00000000000E+00  0.45593999997E+02  0.45594000000E+02  0.51100000000E-03 0.  1.
         11   -1    0    0    0    0 -0.00000000000E+00 -0.00000000000E+00 -0.45593999997E+02  0.45594000000E+02  0.51100000000E-03 0. -1.
    9900012    2    1    2    0    0 -0.36732330056E+02 -0.16696100551E+02 -0.50142225946E+01  0.50528852528E+02  0.29999977744E+02 0.  0.
        -12    1    1    2    0    0  0.36732330056E+02  0.16696100551E+02  0.50142225946E+01  0.40659147472E+02  0.00000000000E+00 0.  1.
         11    1    3    3    0    0 -0.21071770506E+02 -0.11959135208E+02 -0.96290272746E+01  0.26072180456E+02  0.51100000000E-03 0. -1.
        -11    1    3    3    0    0 -0.33823204498E+01 -0.71799888057E+01  0.82226650936E+01  0.11428234876E+02  0.51100000000E-03 0.  1.
        -12    1    3    3    0    0 -0.12278239099E+02  0.24430234624E+01 -0.36078604137E+01  0.13028437197E+02  0.00000000000E+00 0.  1.
</event>
<event>
 7    1  0.4878192E-011  0.5052886E+02  0.7816164E-02  0.1300439E+00
        -11   -1    0    0    0    0  0.00000000000E+00  0.00000000000E+00  0.45593999997E+02  0.45594000000E+02  0.51100000000E-03 0. -1.
         11   -1    0    0    0    0 -0.00000000000E+00 -0.00000000000E+00 -0.45593999997E+02  0.45594000000E+02  0.51100000000E-03 0.  1.
    9900012    2    1    2    0    0 -0.10515798004E+02 -0.23484395175E+02  0.31481216476E+02  0.50528858160E+02  0.29999994863E+02 0.  0.
        -12    1    1    2    0    0  0.10515798004E+02  0.23484395175E+02 -0.31481216476E+02  0.40659141840E+02  0.00000000000E+00 0.  1.
         11    1    3    3    0    0 -0.12217810120E+02 -0.20704855997E+02  0.26114136094E+02  0.35495267998E+02  0.51100000000E-03 0. -1.
        -11    1    3    3    0    0  0.34203975743E+01 -0.46165185604E+01 -0.28689392805E+01  0.64220071661E+01  0.51100000000E-03 0.  1.
        -12    1    3    3    0    0 -0.17183854578E+01  0.18369793830E+01  0.82360196618E+01  0.86115829964E+01  0.00000000000E+00 0.  1.
</event>
<event>
 7    1  0.4878192E-011  0.5052885E+02  0.7816164E-02  0.1300439E+00
        -11   -1    0    0    0    0  0.00000000000E+00  0.00000000000E+00  0.45593999997E+02  0.45594000000E+02  0.51100000000E-03 0.  1.
         11   -1    0    0    0    0 -0.00000000000E+00 -0.00000000000E+00 -0.45593999997E+02  0.45594000000E+02  0.51100000000E-03 0. -1.
    9900012    2    1    2    0    0 -0.18426344993E+02  0.11801270336E+01 -0.36224907522E+02  0.50528845870E+02  0.29999957506E+02 0.  0.
        -12    1    1    2    0    0  0.18426344993E+02 -0.11801270336E+01  0.36224907522E+02  0.40659154130E+02  0.00000000000E+00 0.  1.
         11    1    3    3    0    0 -0.17816774367E+02  0.13230935998E+01 -0.47860911091E+01  0.18495802062E+02  0.51100000000E-03 0.  1.
        -11    1    3    3    0    0 -0.13260476204E+01 -0.10232583237E+01 -0.30538271321E+02  0.30584170340E+02  0.51100000000E-03 0. -1.
        -12    1    3    3    0    0  0.71647699499E+00  0.88029175754E+00 -0.90054509226E+00  0.14488734679E+01  0.00000000000E+00 0.  1.
</event>
<event>
 7    1  0.4878192E-011  0.5052886E+02  0.7816164E-02  0.1300439E+00
        -11   -1    0    0    0    0  0.00000000000E+00  0.00000000000E+00  0.45593999997E+02  0.45594000000E+02  0.51100000000E-03 0. -1.
         11   -1    0    0    0    0 -0.00000000000E+00 -0.00000000000E+00 -0.45593999997E+02  0.45594000000E+02  0.51100000000E-03 0.  1.
    9900012    2    1    2    0    0 -0.39268496302E+02  0.10208333229E+02 -0.26345557322E+01  0.50528858924E+02  0.29999997185E+02 0.  0.
        -12    1    1    2    0    0  0.39268496302E+02 -0.10208333229E+02  0.26345557322E+01  0.40659141076E+02  0.00000000000E+00 0.  1.
         11    1    3    3    0    0 -0.20827395064E+02 -0.61223723056E+01  0.49380108355E+01  0.22263148454E+02  0.51100000000E-03 0. -1.
        -11    1    3    3    0    0  0.10499762309E+01  0.38861806504E+01 -0.35816332566E+00  0.40414268968E+01  0.51100000000E-03 0.  1.
         12    1    3    3    0    0 -0.19491077469E+02  0.12444524884E+02 -0.72144032420E+01  0.24224283573E+02  0.00000000000E+00 0. -1.
</event>
<event>
 7    1  0.4878192E-011  0.5052887E+02  0.7816164E-02  0.1300439E+00
        -11   -1    0    0    0    0  0.00000000000E+00  0.00000000000E+00  0.45593999997E+02  0.45594000000E+02  0.51100000000E-03 0.  1.
         11   -1    0    0    0    0 -0.00000000000E+00 -0.00000000000E+00 -0.45593999997E+02  0.45594000000E+02  0.51100000000E-03 0. -1.
    9900012    2    1    2    0    0  0.14150952625E+02 -0.37715414436E+02 -0.55193460294E+01  0.50528866625E+02  0.30000020593E+02 0.  0.
        -12    1    1    2    0    0 -0.14150952625E+02  0.37715414436E+02  0.55193460294E+01  0.40659133375E+02  0.00000000000E+00 0.  1.
         11    1    3    3    0    0  0.42415674034E+01 -0.26032748684E+02 -0.85316603317E+01  0.27721546247E+02  0.51100000000E-03 0. -1.
        -11    1    3    3    0    0  0.95155853559E+01  0.11645994722E+01 -0.81442772782E-01  0.95869332835E+01  0.51100000000E-03 0.  1.
        -12    1    3    3    0    0  0.39379986524E+00 -0.12847265224E+02  0.30937570751E+01  0.13220387094E+02  0.00000000000E+00 0.  1.
</event>
