<event>
 7    1  0.2492468E-009  0.4778728E+02  0.7816164E-02  0.1312668E+00
        -11   -1    0    0    0    0  0.00000000000E+00  0.00000000000E+00  0.45593999997E+02  0.45594000000E+02  0.51100000000E-03 0.  1.
         11   -1    0    0    0    0 -0.00000000000E+00 -0.00000000000E+00 -0.45593999997E+02  0.45594000000E+02  0.51100000000E-03 0. -1.
    9900012    2    1    2    0    0  0.17519031507E+02  0.14241577444E+02  0.37065940297E+02  0.47787275086E+02  0.20000018425E+02 0.  0.
         12    1    1    2    0    0 -0.17519031507E+02 -0.14241577444E+02 -0.37065940297E+02  0.43400724914E+02  0.00000000000E+00 0. -1.
         11    1    3    3    0    0  0.81666846921E+01  0.78168826004E+01  0.19072906362E+02  0.22171471530E+02  0.51100000000E-03 0.  1.
        -11    1    3    3    0    0 -0.19402895404E+01  0.88802533002E-01  0.10452815933E+02  0.10631743534E+02  0.51100000000E-03 0. -1.
         12    1    3    3    0    0  0.11292636355E+02  0.63358923106E+01  0.75402180024E+01  0.14984060022E+02  0.00000000000E+00 0. -1.
</event>
<event>
 7    1  0.2492468E-009  0.4778727E+02  0.7816164E-02  0.1312668E+00
        -11   -1    0    0    0    0  0.00000000000E+00  0.00000000000E+00  0.45593999997E+02  0.45594000000E+02  0.51100000000E-03 0. -1.
         11   -1    0    0    0    0 -0.00000000000E+00 -0.00000000000E+00 -0.45593999997E+02  0.45594000000E+02  0.51100000000E-03 0.  1.
    9900012    2    1    2    0    0  0.47286842667E+01 -0.96102009224E+00 -0.43131653979E+02  0.47787267409E+02  0.19999983423E+02 0.  0.
         12    1    1    2    0    0 -0.47286842667E+01  0.96102009224E+00  0.43131653979E+02  0.43400732591E+02  0.00000000000E+00 0. -1.
         11    1    3    3    0    0  0.27322849103E+01 -0.16274362041E+01 -0.12328608810E+02  0.12732184608E+02  0.51100000000E-03 0. -1.
        -11    1    3    3    0    0  0.79723030356E+01  0.44086930362E+01 -0.12718746984E+02  0.15644830299E+02  0.51100000000E-03 0.  1.
         12    1    3    3    0    0 -0.59759036792E+01 -0.37422769243E+01 -0.18084298185E+02  0.19410252502E+02  0.00000000000E+00 0. -1.
</event>
<event>
 7    1  0.2492468E-009  0.4778727E+02  0.7816164E-02  0.1312668E+00
        -11   -1    0    0    0    0  0.00000000000E+00  0.00000000000E+00  0.45593999997E+02  0.45594000000E+02  0.51100000000E-03 0. -1.
         11   -1    0    0    0    0 -0.00000000000E+00 -0.00000000000E+00 -0.45593999997E+02  0.45594000000E+02  0.51100000000E-03 0.  1.
    9900012    2    1    2    0    0  0.35699156688E+02 -0.10465263767E+02 -0.22353339765E+02  0.47787270368E+02  0.19999996914E+02 0.  0.
         12    1    1    2    0    0 -0.35699156688E+02  0.10465263767E+02  0.22353339765E+02  0.43400729632E+02  0.00000000000E+00 0. -1.
         11    1    3    3    0    0  0.10106454783E+02 -0.37280334582E+01 -0.12964419895E+02  0.16855706607E+02  0.51100000000E-03 0. -1.
        -11    1    3    3    0    0  0.75952398205E+01 -0.99844671209E+00 -0.92898844764E+01  0.12041034740E+02  0.51100000000E-03 0.  1.
         12    1    3    3    0    0  0.17997462085E+02 -0.57387835967E+01 -0.99035393997E-01  0.18890529021E+02  0.00000000000E+00 0. -1.
</event>
<event>
 7    1  0.2492468E-009  0.4778727E+02  0.7816164E-02  0.1312668E+00
        -11   -1    0    0    0    0  0.00000000000E+00  0.00000000000E+00  0.45593999997E+02  0.45594000000E+02  0.51100000000E-03 0. -1.
         11   -1    0    0    0    0 -0.00000000000E+00 -0.00000000000E+00 -0.45593999997E+02  0.45594000000E+02  0.51100000000E-03 0.  1.
    9900012    2    1    2    0    0  0.34074322157E+02  0.10277395905E+02 -0.24838258917E+02  0.47787269556E+02  0.19999993214E+02 0.  0.
         12    1    1    2    0    0 -0.34074322157E+02 -0.10277395905E+02  0.24838258917E+02  0.43400730444E+02  0.00000000000E+00 0. -1.
         11    1    3    3    0    0  0.20140658552E+02  0.49046409651E+01 -0.18021939150E+02  0.27468016327E+02  0.51100000000E-03 0. -1.
        -11    1    3    3    0    0  0.55431031279E+01  0.53709675173E+01 -0.87919741377E+01  0.11699234755E+02  0.51100000000E-03 0.  1.
         12    1    3    3    0    0  0.83905604766E+01  0.17874225349E-02  0.19756543705E+01  0.86200184743E+01  0.00000000000E+00 0. -1.
</event>
<event>
 7    1  0.2492468E-009  0.4778727E+02  0.7816164E-02  0.1312668E+00
        -11   -1    0    0    0    0  0.00000000000E+00  0.00000000000E+00  0.45593999997E+02  0.45594000000E+02  0.51100000000E-03 0.  1.
         11   -1    0    0    0    0 -0.00000000000E+00 -0.00000000000E+00 -0.45593999997E+02  0.45594000000E+02  0.51100000000E-03 0. -1.
    9900012    2    1    2    0    0  0.31911454939E+02  0.12200270289E+02  0.26766312632E+02  0.47787273700E+02  0.20000012108E+02 0.  0.
         12    1    1    2    0    0 -0.31911454939E+02 -0.12200270289E+02 -0.26766312632E+02  0.43400726300E+02  0.00000000000E+00 0. -1.
         11    1    3    3    0    0  0.22374080135E+02  0.11378644728E+02  0.15609098276E+02  0.29558703743E+02  0.51100000000E-03 0. -1.
        -11    1    3    3    0    0  0.92016706805E+01  0.32537351475E+01  0.38019611659E+01  0.10474370849E+02  0.51100000000E-03 0.  1.
        -12    1    3    3    0    0  0.33570412344E+00 -0.24321095866E+01  0.73552531903E+01  0.77541991071E+01  0.00000000000E+00 0.  1.
</event>
<event>
 7    1  0.2492468E-009  0.4778728E+02  0.7816164E-02  0.1312668E+00
        -11   -1    0    0    0    0  0.00000000000E+00  0.00000000000E+00  0.45593999997E+02  0.45594000000E+02  0.51100000000E-03 0.  1.
         11   -1    0    0    0    0 -0.00000000000E+00 -0.00000000000E+00 -0.45593999997E+02  0.45594000000E+02  0.51100000000E-03 0. -1.
    9900012    2    1    2    0    0  0.16144099403E+01  0.80263301862E+01  0.42621519000E+02  0.47787283674E+02  0.20000057583E+02 0.  0.
         12    1    1    2    0    0 -0.16144099403E+01 -0.80263301862E+01 -0.42621519000E+02  0.43400716326E+02  0.00000000000E+00 0. -1.
         11    1    3    3    0    0 -0.55344746283E+01  0.65352945523E+01  0.22456821701E+02  0.24034336385E+02  0.51100000000E-03 0.  1.
        -11    1    3    3    0    0  0.20813866225E+01  0.55385862896E+01  0.77958787824E+01  0.97869216106E+01  0.51100000000E-03 0. -1.
         12    1    3    3    0    0  0.50674979461E+01 -0.40475506557E+01  0.12368818517E+02  0.13966025678E+02  0.00000000000E+00 0. -1.
</event>
<event>
 7    1  0.2492468E-009  0.4778727E+02  0.7816164E-02  0.1312668E+00
        -11   -1    0    0    0    0  0.00000000000E+00  0.00000000000E+00  0.45593999997E+02  0.45594000000E+02  0.51100000000E-03 0.  1.
         11   -1    0    0    0    0 -0.00000000000E+00 -0.00000000000E+00 -0.45593999997E+02  0.45594000000E+02  0.51100000000E-03 0. -1.
    9900012    2    1    2    0    0  0.37930322855E+02  0.12958805174E+02  0.16642813169E+02  0.47787271278E+02  0.20000001064E+02 0.  0.
         12    1    1    2    0    0 -0.37930322855E+02 -0.12958805174E+02 -0.16642813169E+02  0.43400728722E+02  0.00000000000E+00 0. -1.
         11    1    3    3    0    0  0.29693433485E+02  0.62215941210E+01  0.11960647299E+02  0.32610815838E+02  0.51100000000E-03 0. -1.
        -11    1    3    3    0    0  0.88298174333E+01  0.82072174919E+01  0.22345247178E+01  0.12260391341E+02  0.51100000000E-03 0.  1.
         12    1    3    3    0    0 -0.59292806317E+00 -0.14700064387E+01  0.24476411525E+01  0.29160640990E+01  0.00000000000E+00 0. -1.
</event>
<event>
 7    1  0.2492468E-009  0.4778728E+02  0.7816164E-02  0.1312668E+00
        -11   -1    0    0    0    0  0.00000000000E+00  0.00000000000E+00  0.45593999997E+02  0.45594000000E+02  0.51100000000E-03 0.  1.
         11   -1    0    0    0    0 -0.00000000000E+00 -0.00000000000E+00 -0.45593999997E+02  0.45594000000E+02  0.51100000000E-03 0. -1.
    9900012    2    1    2    0    0  0.18180003565E+01  0.23334288948E+01  0.43299801190E+02  0.47787276518E+02  0.20000024954E+02 0.  0.
         12    1    1    2    0    0 -0.18180003565E+01 -0.23334288948E+01 -0.43299801190E+02  0.43400723482E+02  0.00000000000E+00 0. -1.
         11    1    3    3    0    0 -0.34838551500E+01 -0.49043931557E+01  0.19012049240E+02  0.19941121721E+02  0.51100000000E-03 0. -1.
        -11    1    3    3    0    0 -0.16761195901E+01 -0.15843233225E+01  0.31793496487E+01  0.39278138602E+01  0.51100000000E-03 0.  1.
        -12    1    3    3    0    0  0.69779750966E+01  0.88221453730E+01  0.21108402302E+02  0.23918340937E+02  0.00000000000E+00 0.  1.
</event>
<event>
 7    1  0.2492468E-009  0.4778728E+02  0.7816164E-02  0.1312668E+00
        -11   -1    0    0    0    0  0.00000000000E+00  0.00000000000E+00  0.45593999997E+02  0.45594000000E+02  0.51100000000E-03 0.  1.
         11   -1    0    0    0    0 -0.00000000000E+00 -0.00000000000E+00 -0.45593999997E+02  0.45594000000E+02  0.51100000000E-03 0. -1.
    9900012    2    1    2    0    0  0.44497335372E+00 -0.14657801376E+02  0.40848177714E+02  0.47787276907E+02  0.20000026729E+02 0.  0.
         12    1    1    2    0    0 -0.44497335372E+00  0.14657801376E+02 -0.40848177714E+02  0.43400723093E+02  0.00000000000E+00 0. -1.
         11    1    3    3    0    0 -0.32591077319E-01  0.13854294682E+01  0.60647047895E+00  0.15127074049E+01  0.51100000000E-03 0. -1.
        -11    1    3    3    0    0  0.82744652141E+01 -0.99881573461E+01  0.22436054481E+02  0.25915373868E+02  0.51100000000E-03 0.  1.
         12    1    3    3    0    0 -0.77969007830E+01 -0.60550734982E+01  0.17805652754E+02  0.20359195634E+02  0.00000000000E+00 0. -1.
</event>
<event>
 7    1  0.2492468E-009  0.4778723E+02  0.7816164E-02  0.1312668E+00
        -11   -1    0    0    0    0  0.00000000000E+00  0.00000000000E+00  0.45593999997E+02  0.45594000000E+02  0.51100000000E-03 0.  1.
         11   -1    0    0    0    0 -0.00000000000E+00 -0.00000000000E+00 -0.45593999997E+02  0.45594000000E+02  0.51100000000E-03 0. -1.
    9900012    2    1    2    0    0  0.12847495032E+01 -0.42940254747E+02 -0.61734205328E+01  0.47787226043E+02  0.19999794820E+02 0.  0.
         12    1    1    2    0    0 -0.12847495032E+01  0.42940254747E+02  0.61734205328E+01  0.43400773957E+02  0.00000000000E+00 0. -1.
         11    1    3    3    0    0 -0.71943859918E+00 -0.16181073807E+02  0.69717857008E+01  0.17633789654E+02  0.51100000000E-03 0. -1.
        -11    1    3    3    0    0  0.81385500119E+00 -0.71078385415E+01 -0.16015895293E+01  0.73313585355E+01  0.51100000000E-03 0.  1.
        -12    1    3    3    0    0  0.11903331012E+01 -0.19651342398E+02 -0.11543616704E+02  0.22822077853E+02  0.00000000000E+00 0.  1.
</event>
<event>
 7    1  0.2492468E-009  0.4778727E+02  0.7816164E-02  0.1312668E+00
        -11   -1    0    0    0    0  0.00000000000E+00  0.00000000000E+00  0.45593999997E+02  0.45594000000E+02  0.51100000000E-03 0.  1.
         11   -1    0    0    0    0 -0.00000000000E+00 -0.00000000000E+00 -0.45593999997E+02  0.45594000000E+02  0.51100000000E-03 0. -1.
    9900012    2    1    2    0    0 -0.24517088783E+02 -0.34615103055E+02  0.91831628789E+01  0.47787268642E+02  0.19999989047E+02 0.  0.
         12    1    1    2    0    0  0.24517088783E+02  0.34615103055E+02 -0.91831628789E+01  0.43400731358E+02  0.00000000000E+00 0. -1.
         11    1    3    3    0    0 -0.98449087079E+01 -0.50424380641E+01  0.57895128483E+01  0.12484665329E+02  0.51100000000E-03 0. -1.
        -11    1    3    3    0    0 -0.13902839454E+02 -0.30741429392E+02  0.32119554138E+01  0.33891607867E+02  0.51100000000E-03 0.  1.
         12    1    3    3    0    0 -0.76934062139E+00  0.11687644008E+01  0.18169461672E+00  0.14109954465E+01  0.00000000000E+00 0. -1.
</event>
<event>
 7    1  0.2492468E-009  0.4778727E+02  0.7816164E-02  0.1312668E+00
        -11   -1    0    0    0    0  0.00000000000E+00  0.00000000000E+00  0.45593999997E+02  0.45594000000E+02  0.51100000000E-03 0.  1.
         11   -1    0    0    0    0 -0.00000000000E+00 -0.00000000000E+00 -0.45593999997E+02  0.45594000000E+02  0.51100000000E-03 0. -1.
    9900012    2    1    2    0    0 -0.57040832899E+00  0.39753195588E+02  0.17406358413E+02  0.47787271454E+02  0.20000001866E+02 0.  0.
         12    1    1    2    0    0  0.57040832899E+00 -0.39753195588E+02 -0.17406358413E+02  0.43400728546E+02  0.00000000000E+00 0. -1.
         11    1    3    3    0    0  0.52978460026E+01  0.29863768186E+02  0.10693726128E+02  0.32160031115E+02  0.51100000000E-03 0. -1.
        -11    1    3    3    0    0 -0.16989654720E+01  0.47988839566E+01 -0.13048535314E+01  0.52553224357E+01  0.51100000000E-03 0.  1.
         12    1    3    3    0    0 -0.41692888596E+01  0.50905434453E+01  0.80174858171E+01  0.10371917903E+02  0.00000000000E+00 0. -1.
</event>
<event>
 7    1  0.2492468E-009  0.4778728E+02  0.7816164E-02  0.1312668E+00
        -11   -1    0    0    0    0  0.00000000000E+00  0.00000000000E+00  0.45593999997E+02  0.45594000000E+02  0.51100000000E-03 0.  1.
         11   -1    0    0    0    0 -0.00000000000E+00 -0.00000000000E+00 -0.45593999997E+02  0.45594000000E+02  0.51100000000E-03 0. -1.
    9900012    2    1    2    0    0 -0.41518179547E+00 -0.41647616616E+02  0.12203545712E+02  0.47787275655E+02  0.20000021020E+02 0.  0.
         12    1    1    2    0    0  0.41518179547E+00  0.41647616616E+02 -0.12203545712E+02  0.43400724345E+02  0.00000000000E+00 0. -1.
         11    1    3    3    0    0  0.18984142189E+01  0.49566568645E+00  0.28012779329E+01  0.34200613061E+01  0.51100000000E-03 0. -1.
        -11    1    3    3    0    0  0.14088969654E+00 -0.28914842013E+01 -0.18807941298E+01  0.34522337135E+01  0.51100000000E-03 0.  1.
        -12    1    3    3    0    0 -0.24544857109E+01 -0.39251798102E+02  0.11283061909E+02  0.40914980635E+02  0.00000000000E+00 0.  1.
</event>
<event>
 7    1  0.2492468E-009  0.4778727E+02  0.7816164E-02  0.1312668E+00
        -11   -1    0    0    0    0  0.00000000000E+00  0.00000000000E+00  0.45593999997E+02  0.45594000000E+02  0.51100000000E-03 0.  1.
         11   -1    0    0    0    0 -0.00000000000E+00 -0.00000000000E+00 -0.45593999997E+02  0.45594000000E+02  0.51100000000E-03 0. -1.
    9900012    2    1    2    0    0 -0.16684600089E+02 -0.90219028416E+01  0.39036556923E+02  0.47787269736E+02  0.19999994036E+02 0.  0.
         12    1    1    2    0    0  0.16684600089E+02  0.90219028416E+01 -0.39036556923E+02  0.43400730264E+02  0.00000000000E+00 0. -1.
         11    1    3    3    0    0 -0.97691780126E+01 -0.10053403616E+01  0.61448535824E+01  0.11584764741E+02  0.51100000000E-03 0. -1.
        -11    1    3    3    0    0  0.18193934632E+01 -0.49870927840E+01  0.75705226732E+01  0.92463020076E+01  0.51100000000E-03 0.  1.
        -12    1    3    3    0    0 -0.87348155395E+01 -0.30294696961E+01  0.25321180667E+02  0.26956202988E+02  0.00000000000E+00 0.  1.
</event>
<event>
 7    1  0.2492468E-009  0.4778727E+02  0.7816164E-02  0.1312668E+00
        -11   -1    0    0    0    0  0.00000000000E+00  0.00000000000E+00  0.45593999997E+02  0.45594000000E+02  0.51100000000E-03 0.  1.
         11   -1    0    0    0    0 -0.00000000000E+00 -0.00000000000E+00 -0.45593999997E+02  0.45594000000E+02  0.51100000000E-03 0. -1.
    9900012    2    1    2    0    0 -0.27936149763E+02  0.20009099358E+02  0.26510956531E+02  0.47787270318E+02  0.19999996689E+02 0.  0.
         12    1    1    2    0    0  0.27936149763E+02 -0.20009099358E+02 -0.26510956531E+02  0.43400729682E+02  0.00000000000E+00 0. -1.
         11    1    3    3    0    0 -0.21250054055E+02  0.97947642356E+01  0.13765074847E+02  0.27147366163E+02  0.51100000000E-03 0.  1.
        -11    1    3    3    0    0 -0.60345169386E+01  0.10298444367E+02  0.51236718604E+01  0.12989432807E+02  0.51100000000E-03 0. -1.
         12    1    3    3    0    0 -0.65157876960E+00 -0.84109244180E-01  0.76222098236E+01  0.76504713484E+01  0.00000000000E+00 0. -1.
</event>
<event>
 7    1  0.2492468E-009  0.4778724E+02  0.7816164E-02  0.1312668E+00
        -11   -1    0    0    0    0  0.00000000000E+00  0.00000000000E+00  0.45593999997E+02  0.45594000000E+02  0.51100000000E-03 0. -1.
         11   -1    0    0    0    0 -0.00000000000E+00 -0.00000000000E+00 -0.45593999997E+02  0.45594000000E+02  0.51100000000E-03 0.  1.
    9900012    2    1    2    0    0 -0.31642530129E+02 -0.25819123581E+02 -0.14688404672E+02  0.47787238633E+02  0.19999852222E+02 0.  0.
         12    1    1    2    0    0  0.31642530129E+02  0.25819123581E+02  0.14688404672E+02  0.43400761367E+02  0.00000000000E+00 0. -1.
         11    1    3    3    0    0  0.22480104578E+01 -0.15955250322E+01 -0.24438919379E+01  0.36840004359E+01  0.51100000000E-03 0. -1.
        -11    1    3    3    0    0 -0.58252415149E+01 -0.37654120482E+01  0.84616301836E+00  0.69876862204E+01  0.51100000000E-03 0.  1.
        -12    1    3    3    0    0 -0.28065299071E+02 -0.20458186501E+02 -0.13090675753E+02  0.37115551977E+02  0.00000000000E+00 0.  1.
</event>
<event>
 7    1  0.2492468E-009  0.4778727E+02  0.7816164E-02  0.1312668E+00
        -11   -1    0    0    0    0  0.00000000000E+00  0.00000000000E+00  0.45593999997E+02  0.45594000000E+02  0.51100000000E-03 0.  1.
         11   -1    0    0    0    0 -0.00000000000E+00 -0.00000000000E+00 -0.45593999997E+02  0.45594000000E+02  0.51100000000E-03 0. -1.
    9900012    2    1    2    0    0  0.40594455612E+01 -0.34221440179E+01  0.43074738367E+02  0.47787271281E+02  0.20000001077E+02 0.  0.
         12    1    1    2    0    0 -0.40594455612E+01  0.34221440179E+01 -0.43074738367E+02  0.43400728719E+02  0.00000000000E+00 0. -1.
         11    1    3    3    0    0 -0.30943729396E+01 -0.25792647106E+01  0.78812954796E+01  0.88511337712E+01  0.51100000000E-03 0. -1.
        -11    1    3    3    0    0 -0.23923694236E+01 -0.87264871278E+00  0.79621026621E-01  0.25478004247E+01  0.51100000000E-03 0.  1.
        -12    1    3    3    0    0  0.95461879244E+01  0.29769405534E-01  0.35113821861E+02  0.36388337085E+02  0.00000000000E+00 0.  1.
</event>
<event>
 7    1  0.2492468E-009  0.4778727E+02  0.7816164E-02  0.1312668E+00
        -11   -1    0    0    0    0  0.00000000000E+00  0.00000000000E+00  0.45593999997E+02  0.45594000000E+02  0.51100000000E-03 0.  1.
         11   -1    0    0    0    0 -0.00000000000E+00 -0.00000000000E+00 -0.45593999997E+02  0.45594000000E+02  0.51100000000E-03 0. -1.
    9900012    2    1    2    0    0  0.20733607751E+02  0.19592353526E+02  0.32709027821E+02  0.47787270651E+02  0.19999998204E+02 0.  0.
         12    1    1    2    0    0 -0.20733607751E+02 -0.19592353526E+02 -0.32709027821E+02  0.43400729349E+02  0.00000000000E+00 0. -1.
         11    1    3    3    0    0  0.10302494298E+01  0.48168121219E+01  0.10104641526E+01  0.50283328222E+01  0.51100000000E-03 0.  1.
        -11    1    3    3    0    0  0.88271958441E+01  0.22149760619E+01  0.29726249866E+01  0.95740276267E+01  0.51100000000E-03 0. -1.
        -12    1    3    3    0    0  0.10876162477E+02  0.12560565342E+02  0.28725938682E+02  0.33184910202E+02  0.00000000000E+00 0.  1.
</event>
<event>
 7    1  0.2492468E-009  0.4778727E+02  0.7816164E-02  0.1312668E+00
        -11   -1    0    0    0    0  0.00000000000E+00  0.00000000000E+00  0.45593999997E+02  0.45594000000E+02  0.51100000000E-03 0.  1.
         11   -1    0    0    0    0 -0.00000000000E+00 -0.00000000000E+00 -0.45593999997E+02  0.45594000000E+02  0.51100000000E-03 0. -1.
    9900012    2    1    2    0    0  0.15029812962E+02  0.20838051138E+02  0.34978617755E+02  0.47787270134E+02  0.19999995847E+02 0.  0.
         12    1    1    2    0    0 -0.15029812962E+02 -0.20838051138E+02 -0.34978617755E+02  0.43400729866E+02  0.00000000000E+00 0. -1.
         11    1    3    3    0    0 -0.13690311052E+01  0.78187572428E+01  0.14545856536E+02  0.16570731837E+02  0.51100000000E-03 0. -1.
        -11    1    3    3    0    0  0.68388609269E+01  0.75053969857E+01  0.16740368335E+02  0.19579094334E+02  0.51100000000E-03 0.  1.
         12    1    3    3    0    0  0.95599831406E+01  0.55138969095E+01  0.36923928841E+01  0.11637443963E+02  0.00000000000E+00 0. -1.
</event>
<event>
 7    1  0.2492468E-009  0.4778726E+02  0.7816164E-02  0.1312668E+00
        -11   -1    0    0    0    0  0.00000000000E+00  0.00000000000E+00  0.45593999997E+02  0.45594000000E+02  0.51100000000E-03 0. -1.
         11   -1    0    0    0    0 -0.00000000000E+00 -0.00000000000E+00 -0.45593999997E+02  0.45594000000E+02  0.51100000000E-03 0.  1.
    9900012    2    1    2    0    0 -0.37393258413E+02  0.21950245149E+02 -0.18854232386E+01  0.47787264320E+02  0.19999969339E+02 0.  0.
         12    1    1    2    0    0  0.37393258413E+02 -0.21950245149E+02  0.18854232386E+01  0.43400735680E+02  0.00000000000E+00 0. -1.
         11    1    3    3    0    0 -0.12534682470E+02  0.86628958156E+01  0.61964236438E+01  0.16448698877E+02  0.51100000000E-03 0. -1.
        -11    1    3    3    0    0 -0.17053183504E+02  0.38205001345E+01 -0.18401649638E+01  0.17572521056E+02  0.51100000000E-03 0.  1.
        -12    1    3    3    0    0 -0.78053924392E+01  0.94668491987E+01 -0.62416819187E+01  0.13766044387E+02  0.00000000000E+00 0.  1.
</event>
<event>
 7    1  0.2492468E-009  0.4778727E+02  0.7816164E-02  0.1312668E+00
        -11   -1    0    0    0    0  0.00000000000E+00  0.00000000000E+00  0.45593999997E+02  0.45594000000E+02  0.51100000000E-03 0.  1.
         11   -1    0    0    0    0 -0.00000000000E+00 -0.00000000000E+00 -0.45593999997E+02  0.45594000000E+02  0.51100000000E-03 0. -1.
    9900012    2    1    2    0    0 -0.20149236397E+02 -0.90249473958E+01  0.37365515546E+02  0.47787272415E+02  0.20000006251E+02 0.  0.
         12    1    1    2    0    0  0.20149236397E+02  0.90249473958E+01 -0.37365515546E+02  0.43400727585E+02  0.00000000000E+00 0. -1.
         11    1    3    3    0    0 -0.11986351009E+02 -0.54447535860E+01  0.22220088219E+02  0.25827316408E+02  0.51100000000E-03 0. -1.
        -11    1    3    3    0    0 -0.48204649241E+01 -0.83908721095E+01  0.11625116127E+02  0.15125704680E+02  0.51100000000E-03 0.  1.
         12    1    3    3    0    0 -0.33424204640E+01  0.48106782996E+01  0.35203111992E+01  0.68342513270E+01  0.00000000000E+00 0. -1.
</event>
<event>
 7    1  0.2492468E-009  0.4778727E+02  0.7816164E-02  0.1312668E+00
        -11   -1    0    0    0    0  0.00000000000E+00  0.00000000000E+00  0.45593999997E+02  0.45594000000E+02  0.51100000000E-03 0.  1.
         11   -1    0    0    0    0 -0.00000000000E+00 -0.00000000000E+00 -0.45593999997E+02  0.45594000000E+02  0.51100000000E-03 0. -1.
    9900012    2    1    2    0    0 -0.98737537076E+01  0.14713082551E+02  0.39618903214E+02  0.47787270717E+02  0.19999998505E+02 0.  0.
         12    1    1    2    0    0  0.98737537076E+01 -0.14713082551E+02 -0.39618903214E+02  0.43400729283E+02  0.00000000000E+00 0. -1.
         11    1    3    3    0    0  0.10004888254E+01  0.36480169153E+01  0.14951110662E+01  0.40674762034E+01  0.51100000000E-03 0. -1.
        -11    1    3    3    0    0 -0.84546856960E+01  0.61108648744E+01  0.81362735945E+01  0.13229638241E+02  0.51100000000E-03 0.  1.
        -12    1    3    3    0    0 -0.24195568371E+01  0.49542007612E+01  0.29987518554E+02  0.30490156272E+02  0.00000000000E+00 0.  1.
</event>
<event>
 7    1  0.2492468E-009  0.4778727E+02  0.7816164E-02  0.1312668E+00
        -11   -1    0    0    0    0  0.00000000000E+00  0.00000000000E+00  0.45593999997E+02  0.45594000000E+02  0.51100000000E-03 0.  1.
         11   -1    0    0    0    0 -0.00000000000E+00 -0.00000000000E+00 -0.45593999997E+02  0.45594000000E+02  0.51100000000E-03 0. -1.
    9900012    2    1    2    0    0 -0.47319713109E+01 -0.60297110842E+01  0.42718545987E+02  0.47787272593E+02  0.20000007060E+02 0.  0.
         12    1    1    2    0    0  0.47319713109E+01  0.60297110842E+01 -0.42718545987E+02  0.43400727407E+02  0.00000000000E+00 0. -1.
         11    1    3    3    0    0 -0.58835958549E+00  0.35926297095E+01  0.11398412099E+02  0.11965657269E+02  0.51100000000E-03 0. -1.
        -11    1    3    3    0    0 -0.32094578648E+00  0.91405384492E+00 -0.11310984748E+01  0.14892564085E+01  0.51100000000E-03 0.  1.
        -12    1    3    3    0    0 -0.38226659389E+01 -0.10536394639E+02  0.32451232363E+02  0.34332358916E+02  0.00000000000E+00 0.  1.
</event>
<event>
 7    1  0.2492468E-009  0.4778727E+02  0.7816164E-02  0.1312668E+00
        -11   -1    0    0    0    0  0.00000000000E+00  0.00000000000E+00  0.45593999997E+02  0.45594000000E+02  0.51100000000E-03 0. -1.
         11   -1    0    0    0    0 -0.00000000000E+00 -0.00000000000E+00 -0.45593999997E+02  0.45594000000E+02  0.51100000000E-03 0.  1.
    9900012    2    1    2    0    0  0.38082299922E+02  0.45606857523E+01 -0.20311615212E+02  0.47787272652E+02  0.20000007328E+02 0.  0.
         12    1    1    2    0    0 -0.38082299922E+02 -0.45606857523E+01  0.20311615212E+02  0.43400727348E+02  0.00000000000E+00 0. -1.
         11    1    3    3    0    0  0.22941509684E+02 -0.19525009375E+01 -0.70214356008E+01  0.24071262631E+02  0.51100000000E-03 0. -1.
        -11    1    3    3    0    0  0.10075846228E+02 -0.95376869962E+00 -0.96581555225E+01  0.13989721952E+02  0.51100000000E-03 0.  1.
         12    1    3    3    0    0  0.50649440097E+01  0.74669553894E+01 -0.36320240883E+01  0.97262880682E+01  0.00000000000E+00 0. -1.
</event>
<event>
 7    1  0.2492468E-009  0.4778727E+02  0.7816164E-02  0.1312668E+00
        -11   -1    0    0    0    0  0.00000000000E+00  0.00000000000E+00  0.45593999997E+02  0.45594000000E+02  0.51100000000E-03 0.  1.
         11   -1    0    0    0    0 -0.00000000000E+00 -0.00000000000E+00 -0.45593999997E+02  0.45594000000E+02  0.51100000000E-03 0. -1.
    9900012    2    1    2    0    0  0.13463777491E+02  0.20154728605E+02  0.36001897196E+02  0.47787274301E+02  0.20000014850E+02 0.  0.
         12    1    1    2    0    0 -0.13463777491E+02 -0.20154728605E+02 -0.36001897196E+02  0.43400725699E+02  0.00000000000E+00 0. -1.
         11    1    3    3    0    0 -0.23624224811E+01  0.47463160478E+01  0.39714632040E+01  0.66242793002E+01  0.51100000000E-03 0. -1.
        -11    1    3    3    0    0  0.33730321652E+01  0.37748786844E+01  0.21026240605E+00  0.50666819133E+01  0.51100000000E-03 0.  1.
        -12    1    3    3    0    0  0.12453167807E+02  0.11633533873E+02  0.31820171586E+02  0.36096313088E+02  0.00000000000E+00 0.  1.
</event>
<event>
 7    1  0.2492468E-009  0.4778727E+02  0.7816164E-02  0.1312668E+00
        -11   -1    0    0    0    0  0.00000000000E+00  0.00000000000E+00  0.45593999997E+02  0.45594000000E+02  0.51100000000E-03 0.  1.
         11   -1    0    0    0    0 -0.00000000000E+00 -0.00000000000E+00 -0.45593999997E+02  0.45594000000E+02  0.51100000000E-03 0. -1.
    9900012    2    1    2    0    0 -0.31339609978E+02 -0.23641471486E+02  0.18507646424E+02  0.47787270700E+02  0.19999998430E+02 0.  0.
         12    1    1    2    0    0  0.31339609978E+02  0.23641471486E+02 -0.18507646424E+02  0.43400729300E+02  0.00000000000E+00 0. -1.
         11    1    3    3    0    0 -0.36042385370E+01 -0.34620830498E+01  0.70999761259E+01  0.86825235804E+01  0.51100000000E-03 0. -1.
        -11    1    3    3    0    0 -0.27772650524E+01 -0.15160051631E+01  0.69326202424E+01  0.76205443711E+01  0.51100000000E-03 0.  1.
         12    1    3    3    0    0 -0.24958106389E+02 -0.18663383273E+02  0.44750500556E+01  0.31484202749E+02  0.00000000000E+00 0. -1.
</event>
<event>
 7    1  0.2492468E-009  0.4778727E+02  0.7816164E-02  0.1312668E+00
        -11   -1    0    0    0    0  0.00000000000E+00  0.00000000000E+00  0.45593999997E+02  0.45594000000E+02  0.51100000000E-03 0. -1.
         11   -1    0    0    0    0 -0.00000000000E+00 -0.00000000000E+00 -0.45593999997E+02  0.45594000000E+02  0.51100000000E-03 0.  1.
    9900012    2    1    2    0    0 -0.43135535059E+02 -0.20716871792E+01 -0.43193793108E+01  0.47787270625E+02  0.19999998090E+02 0.  0.
         12    1    1    2    0    0  0.43135535059E+02  0.20716871792E+01  0.43193793108E+01  0.43400729375E+02  0.00000000000E+00 0. -1.
         11    1    3    3    0    0 -0.39649853486E+01  0.35031626650E+01  0.22240198606E+01  0.57392963048E+01  0.51100000000E-03 0. -1.
        -11    1    3    3    0    0 -0.22008521933E+02  0.32118142682E+01 -0.40394354933E+01  0.22605482254E+02  0.51100000000E-03 0.  1.
         12    1    3    3    0    0 -0.17162027777E+02 -0.87866641124E+01 -0.25039636782E+01  0.19442492066E+02  0.00000000000E+00 0. -1.
</event>
<event>
 7    1  0.2492468E-009  0.4778726E+02  0.7816164E-02  0.1312668E+00
        -11   -1    0    0    0    0  0.00000000000E+00  0.00000000000E+00  0.45593999997E+02  0.45594000000E+02  0.51100000000E-03 0.  1.
         11   -1    0    0    0    0 -0.00000000000E+00 -0.00000000000E+00 -0.45593999997E+02  0.45594000000E+02  0.51100000000E-03 0. -1.
    9900012    2    1    2    0    0  0.81922800150E+01  0.38380011413E+02 -0.18533352087E+02  0.47787264205E+02  0.19999968819E+02 0.  0.
         12    1    1    2    0    0 -0.81922800150E+01 -0.38380011413E+02  0.18533352087E+02  0.43400735795E+02  0.00000000000E+00 0. -1.
         11    1    3    3    0    0  0.66446117680E+01  0.12331289575E+02 -0.10402449805E+02  0.17447708455E+02  0.51100000000E-03 0. -1.
        -11    1    3    3    0    0  0.64568591471E+01  0.97432880527E+01 -0.61170479381E+01  0.13192458750E+02  0.51100000000E-03 0.  1.
        -12    1    3    3    0    0 -0.49091909001E+01  0.16305433785E+02 -0.20138543436E+01  0.17147097000E+02  0.00000000000E+00 0.  1.
</event>
<event>
 7    1  0.2492468E-009  0.4778727E+02  0.7816164E-02  0.1312668E+00
        -11   -1    0    0    0    0  0.00000000000E+00  0.00000000000E+00  0.45593999997E+02  0.45594000000E+02  0.51100000000E-03 0.  1.
         11   -1    0    0    0    0 -0.00000000000E+00 -0.00000000000E+00 -0.45593999997E+02  0.45594000000E+02  0.51100000000E-03 0. -1.
    9900012    2    1    2    0    0 -0.97977848777E+00  0.52644076069E+01  0.43069123591E+02  0.47787270049E+02  0.19999995462E+02 0.  0.
         12    1    1    2    0    0  0.97977848777E+00 -0.52644076069E+01 -0.43069123591E+02  0.43400729951E+02  0.00000000000E+00 0. -1.
         11    1    3    3    0    0  0.10997742927E+01 -0.28274844081E+01 -0.18813825398E+00  0.30396657442E+01  0.51100000000E-03 0. -1.
        -11    1    3    3    0    0  0.81769833122E+00 -0.12404087292E+01  0.90846075099E+01  0.92052886020E+01  0.51100000000E-03 0.  1.
        -12    1    3    3    0    0 -0.28972511117E+01  0.93323007442E+01  0.34172654335E+02  0.35542315703E+02  0.00000000000E+00 0.  1.
</event>
<event>
 7    1  0.2492468E-009  0.4778727E+02  0.7816164E-02  0.1312668E+00
        -11   -1    0    0    0    0  0.00000000000E+00  0.00000000000E+00  0.45593999997E+02  0.45594000000E+02  0.51100000000E-03 0. -1.
         11   -1    0    0    0    0 -0.00000000000E+00 -0.00000000000E+00 -0.45593999997E+02  0.45594000000E+02  0.51100000000E-03 0.  1.
    9900012    2    1    2    0    0  0.17498036701E+02 -0.77689957094E-01 -0.39716948204E+02  0.47787270758E+02  0.19999998693E+02 0.  0.
         12    1    1    2    0    0 -0.17498036701E+02  0.77689957094E-01  0.39716948204E+02  0.43400729242E+02  0.00000000000E+00 0. -1.
         11    1    3    3    0    0  0.14401706598E+00 -0.37438931726E+01 -0.44044530483E+01  0.57824461882E+01  0.51100000000E-03 0. -1.
        -11    1    3    3    0    0  0.17171700231E+01 -0.35962671874E+01 -0.14191095438E+02  0.14740047509E+02  0.51100000000E-03 0.  1.
         12    1    3    3    0    0  0.15636849612E+02  0.72624704029E+01 -0.21121399717E+02  0.27264777060E+02  0.00000000000E+00 0. -1.
</event>
<event>
 7    1  0.2492468E-009  0.4778727E+02  0.7816164E-02  0.1312668E+00
        -11   -1    0    0    0    0  0.00000000000E+00  0.00000000000E+00  0.45593999997E+02  0.45594000000E+02  0.51100000000E-03 0.  1.
         11   -1    0    0    0    0 -0.00000000000E+00 -0.00000000000E+00 -0.45593999997E+02  0.45594000000E+02  0.51100000000E-03 0. -1.
    9900012    2    1    2    0    0  0.20528219940E+02 -0.33841663759E+01  0.38088881144E+02  0.47787271173E+02  0.20000000584E+02 0.  0.
         12    1    1    2    0    0 -0.20528219940E+02  0.33841663759E+01 -0.38088881144E+02  0.43400728827E+02  0.00000000000E+00 0. -1.
         11    1    3    3    0    0  0.10770069788E+02 -0.16659341660E+01  0.91362960147E+01  0.14221168904E+02  0.51100000000E-03 0. -1.
        -11    1    3    3    0    0  0.12040884791E+02 -0.35206139510E+01  0.27682427394E+02  0.30392341401E+02  0.51100000000E-03 0.  1.
         12    1    3    3    0    0 -0.22827346386E+01  0.18023817411E+01  0.12701577350E+01  0.31737608673E+01  0.00000000000E+00 0. -1.
</event>
<event>
 7    1  0.2492468E-009  0.4778727E+02  0.7816164E-02  0.1312668E+00
        -11   -1    0    0    0    0  0.00000000000E+00  0.00000000000E+00  0.45593999997E+02  0.45594000000E+02  0.51100000000E-03 0.  1.
         11   -1    0    0    0    0 -0.00000000000E+00 -0.00000000000E+00 -0.45593999997E+02  0.45594000000E+02  0.51100000000E-03 0. -1.
    9900012    2    1    2    0    0 -0.82494610328E+01 -0.15044935049E+02  0.39865014846E+02  0.47787273202E+02  0.20000009835E+02 0.  0.
         12    1    1    2    0    0  0.82494610328E+01  0.15044935049E+02 -0.39865014846E+02  0.43400726798E+02  0.00000000000E+00 0. -1.
         11    1    3    3    0    0 -0.38945576386E+01 -0.37928526060E+01  0.17303129729E+02  0.18137023151E+02  0.51100000000E-03 0. -1.
        -11    1    3    3    0    0  0.10026029249E+01 -0.83262351355E+01  0.21971227702E+02  0.23517360633E+02  0.51100000000E-03 0.  1.
         12    1    3    3    0    0 -0.53575063191E+01 -0.29258473077E+01  0.59065741479E+00  0.61328894176E+01  0.00000000000E+00 0. -1.
</event>
<event>
 7    1  0.2492468E-009  0.4778727E+02  0.7816164E-02  0.1312668E+00
        -11   -1    0    0    0    0  0.00000000000E+00  0.00000000000E+00  0.45593999997E+02  0.45594000000E+02  0.51100000000E-03 0. -1.
         11   -1    0    0    0    0 -0.00000000000E+00 -0.00000000000E+00 -0.45593999997E+02  0.45594000000E+02  0.51100000000E-03 0.  1.
    9900012    2    1    2    0    0 -0.25906527043E+02  0.31696433515E+02  0.14415656137E+02  0.47787272092E+02  0.20000004777E+02 0.  0.
         12    1    1    2    0    0  0.25906527043E+02 -0.31696433515E+02 -0.14415656137E+02  0.43400727908E+02  0.00000000000E+00 0. -1.
         11    1    3    3    0    0 -0.89312210351E+01  0.64929874650E+01 -0.35445770972E+01  0.11596966088E+02  0.51100000000E-03 0. -1.
        -11    1    3    3    0    0 -0.96920819063E+01  0.16452004815E+02  0.68611510333E+01  0.20289906552E+02  0.51100000000E-03 0.  1.
         12    1    3    3    0    0 -0.72832241021E+01  0.87514412350E+01  0.11099082201E+02  0.15900399452E+02  0.00000000000E+00 0. -1.
</event>
<event>
 7    1  0.2492468E-009  0.4778727E+02  0.7816164E-02  0.1312668E+00
        -11   -1    0    0    0    0  0.00000000000E+00  0.00000000000E+00  0.45593999997E+02  0.45594000000E+02  0.51100000000E-03 0.  1.
         11   -1    0    0    0    0 -0.00000000000E+00 -0.00000000000E+00 -0.45593999997E+02  0.45594000000E+02  0.51100000000E-03 0. -1.
    9900012    2    1    2    0    0 -0.34386574502E+02 -0.19856767590E+01  0.26405369515E+02  0.47787274691E+02  0.20000016625E+02 0.  0.
         12    1    1    2    0    0  0.34386574502E+02  0.19856767590E+01 -0.26405369515E+02  0.43400725309E+02  0.00000000000E+00 0. -1.
         11    1    3    3    0    0 -0.11234193688E+02  0.70070990547E+01  0.73809418939E+01  0.15158655893E+02  0.51100000000E-03 0. -1.
        -11    1    3    3    0    0 -0.19436683327E+02 -0.57978163495E+01  0.10607987469E+02  0.22889489544E+02  0.51100000000E-03 0.  1.
        -12    1    3    3    0    0 -0.37156974871E+01 -0.31949594643E+01  0.84164401520E+01  0.97391292540E+01  0.00000000000E+00 0.  1.
</event>
<event>
 7    1  0.2492468E-009  0.4778727E+02  0.7816164E-02  0.1312668E+00
        -11   -1    0    0    0    0  0.00000000000E+00  0.00000000000E+00  0.45593999997E+02  0.45594000000E+02  0.51100000000E-03 0.  1.
         11   -1    0    0    0    0 -0.00000000000E+00 -0.00000000000E+00 -0.45593999997E+02  0.45594000000E+02  0.51100000000E-03 0. -1.
    9900012    2    1    2    0    0 -0.22986969944E+02  0.13355941580E+02  0.34305120047E+02  0.47787271618E+02  0.20000002613E+02 0.  0.
         12    1    1    2    0    0  0.22986969944E+02 -0.13355941580E+02 -0.34305120047E+02  0.43400728382E+02  0.00000000000E+00 0. -1.
         11    1    3    3    0    0 -0.38616651045E+01  0.90287597372E+01  0.89305163352E+01  0.13273472871E+02  0.51100000000E-03 0. -1.
        -11    1    3    3    0    0 -0.10780554571E+02  0.26759993056E+01  0.45220715195E+01  0.11992933763E+02  0.51100000000E-03 0.  1.
         12    1    3    3    0    0 -0.83447502679E+01  0.16511825370E+01  0.20852532192E+02  0.22520864984E+02  0.00000000000E+00 0. -1.
</event>
<event>
 7    1  0.2492468E-009  0.4778728E+02  0.7816164E-02  0.1312668E+00
        -11   -1    0    0    0    0  0.00000000000E+00  0.00000000000E+00  0.45593999997E+02  0.45594000000E+02  0.51100000000E-03 0. -1.
         11   -1    0    0    0    0 -0.00000000000E+00 -0.00000000000E+00 -0.45593999997E+02  0.45594000000E+02  0.51100000000E-03 0.  1.
    9900012    2    1    2    0    0 -0.49029803330E+01 -0.39192879306E+02 -0.17986149863E+02  0.47787278908E+02  0.20000035852E+02 0.  0.
         12    1    1    2    0    0  0.49029803330E+01  0.39192879306E+02  0.17986149863E+02  0.43400721092E+02  0.00000000000E+00 0. -1.
         11    1    3    3    0    0 -0.47047551239E+01 -0.10294761987E+02 -0.14080929055E+01  0.11406119894E+02  0.51100000000E-03 0. -1.
        -11    1    3    3    0    0 -0.48984893647E+01 -0.25354134264E+02 -0.16196841544E+02  0.30482207902E+02  0.51100000000E-03 0.  1.
         12    1    3    3    0    0  0.47002641555E+01 -0.35439830550E+01 -0.38121541386E+00  0.58989511117E+01  0.00000000000E+00 0. -1.
</event>
<event>
 7    1  0.2492468E-009  0.4778727E+02  0.7816164E-02  0.1312668E+00
        -11   -1    0    0    0    0  0.00000000000E+00  0.00000000000E+00  0.45593999997E+02  0.45594000000E+02  0.51100000000E-03 0. -1.
         11   -1    0    0    0    0 -0.00000000000E+00 -0.00000000000E+00 -0.45593999997E+02  0.45594000000E+02  0.51100000000E-03 0.  1.
    9900012    2    1    2    0    0  0.15519986642E+02 -0.30755233606E+01 -0.40414036097E+02  0.47787272553E+02  0.20000006878E+02 0.  0.
         12    1    1    2    0    0 -0.15519986642E+02  0.30755233606E+01  0.40414036097E+02  0.43400727447E+02  0.00000000000E+00 0. -1.
         11    1    3    3    0    0  0.44389935396E+00  0.20368232011E+01 -0.51304911924E+01  0.55378367189E+01  0.51100000000E-03 0. -1.
        -11    1    3    3    0    0  0.69828313196E+01 -0.33572293943E+01 -0.20709636455E+01  0.80199634118E+01  0.51100000000E-03 0.  1.
        -12    1    3    3    0    0  0.80932559681E+01 -0.17551171674E+01 -0.33212581259E+02  0.34229472422E+02  0.00000000000E+00 0.  1.
</event>
<event>
 7    1  0.2492468E-009  0.4778727E+02  0.7816164E-02  0.1312668E+00
        -11   -1    0    0    0    0  0.00000000000E+00  0.00000000000E+00  0.45593999997E+02  0.45594000000E+02  0.51100000000E-03 0.  1.
         11   -1    0    0    0    0 -0.00000000000E+00 -0.00000000000E+00 -0.45593999997E+02  0.45594000000E+02  0.51100000000E-03 0. -1.
    9900012    2    1    2    0    0  0.30458747480E+02  0.10376991925E+02  0.29123977306E+02  0.47787270587E+02  0.19999997913E+02 0.  0.
         12    1    1    2    0    0 -0.30458747480E+02 -0.10376991925E+02 -0.29123977306E+02  0.43400729413E+02  0.00000000000E+00 0. -1.
         11    1    3    3    0    0 -0.18596552668E+01  0.34685424467E-01  0.42179154612E+00  0.19072045405E+01  0.51100000000E-03 0. -1.
        -11    1    3    3    0    0  0.14321353695E+02 -0.33664645272E+00  0.78383881451E+01  0.16329569237E+02  0.51100000000E-03 0.  1.
         12    1    3    3    0    0  0.17997049052E+02  0.10678952953E+02  0.20863797615E+02  0.29550496809E+02  0.00000000000E+00 0. -1.
</event>
<event>
 7    1  0.2492468E-009  0.4778727E+02  0.7816164E-02  0.1312668E+00
        -11   -1    0    0    0    0  0.00000000000E+00  0.00000000000E+00  0.45593999997E+02  0.45594000000E+02  0.51100000000E-03 0.  1.
         11   -1    0    0    0    0 -0.00000000000E+00 -0.00000000000E+00 -0.45593999997E+02  0.45594000000E+02  0.51100000000E-03 0. -1.
    9900012    2    1    2    0    0  0.37952375511E+02 -0.84754358875E+01  0.19271935740E+02  0.47787270426E+02  0.19999997181E+02 0.  0.
         12    1    1    2    0    0 -0.37952375511E+02  0.84754358875E+01 -0.19271935740E+02  0.43400729574E+02  0.00000000000E+00 0. -1.
         11    1    3    3    0    0  0.20397668639E+02 -0.77660965634E+01  0.55680409295E+01  0.22525102037E+02  0.51100000000E-03 0. -1.
        -11    1    3    3    0    0  0.18564036117E+02 -0.25894892765E+01  0.10716897806E+02  0.21591220218E+02  0.51100000000E-03 0.  1.
        -12    1    3    3    0    0 -0.10093292449E+01  0.18801499525E+01  0.29869970045E+01  0.36709481709E+01  0.00000000000E+00 0.  1.
</event>
<event>
 7    1  0.2492468E-009  0.4778727E+02  0.7816164E-02  0.1312668E+00
        -11   -1    0    0    0    0  0.00000000000E+00  0.00000000000E+00  0.45593999997E+02  0.45594000000E+02  0.51100000000E-03 0.  1.
         11   -1    0    0    0    0 -0.00000000000E+00 -0.00000000000E+00 -0.45593999997E+02  0.45594000000E+02  0.51100000000E-03 0. -1.
    9900012    2    1    2    0    0  0.33918416225E+02 -0.87811674076E+01  0.25613587389E+02  0.47787265914E+02  0.19999976610E+02 0.  0.
         12    1    1    2    0    0 -0.33918416225E+02  0.87811674076E+01 -0.25613587389E+02  0.43400734086E+02  0.00000000000E+00 0. -1.
         11    1    3    3    0    0  0.16007445853E+02 -0.90897515664E+01  0.53739979481E+01  0.19176594079E+02  0.51100000000E-03 0. -1.
        -11    1    3    3    0    0  0.14697452985E+02 -0.32632777336E+01  0.12835096755E+02  0.19783928194E+02  0.51100000000E-03 0.  1.
         12    1    3    3    0    0  0.32135173870E+01  0.35718618924E+01  0.74044926855E+01  0.88267436410E+01  0.00000000000E+00 0. -1.
</event>
<event>
 7    1  0.2492468E-009  0.4778727E+02  0.7816164E-02  0.1312668E+00
        -11   -1    0    0    0    0  0.00000000000E+00  0.00000000000E+00  0.45593999997E+02  0.45594000000E+02  0.51100000000E-03 0.  1.
         11   -1    0    0    0    0 -0.00000000000E+00 -0.00000000000E+00 -0.45593999997E+02  0.45594000000E+02  0.51100000000E-03 0. -1.
    9900012    2    1    2    0    0  0.17866224330E+02 -0.26874272719E+02  0.29020591676E+02  0.47787271351E+02  0.20000001400E+02 0.  0.
         12    1    1    2    0    0 -0.17866224330E+02  0.26874272719E+02 -0.29020591676E+02  0.43400728649E+02  0.00000000000E+00 0. -1.
         11    1    3    3    0    0  0.26096003314E+01  0.76938945835E+00  0.13003897186E+01  0.30154581260E+01  0.51100000000E-03 0. -1.
        -11    1    3    3    0    0  0.52352169289E+01 -0.14472390219E+02  0.22795480257E+02  0.27504390474E+02  0.51100000000E-03 0.  1.
         12    1    3    3    0    0  0.10021407069E+02 -0.13171271958E+02  0.49247217012E+01  0.17267422752E+02  0.00000000000E+00 0. -1.
</event>
<event>
 7    1  0.2492468E-009  0.4778727E+02  0.7816164E-02  0.1312668E+00
        -11   -1    0    0    0    0  0.00000000000E+00  0.00000000000E+00  0.45593999997E+02  0.45594000000E+02  0.51100000000E-03 0.  1.
         11   -1    0    0    0    0 -0.00000000000E+00 -0.00000000000E+00 -0.45593999997E+02  0.45594000000E+02  0.51100000000E-03 0. -1.
    9900012    2    1    2    0    0 -0.20570454150E+02 -0.16839949573E+02  0.34305915246E+02  0.47787270670E+02  0.19999998292E+02 0.  0.
         12    1    1    2    0    0  0.20570454150E+02  0.16839949573E+02 -0.34305915246E+02  0.43400729330E+02  0.00000000000E+00 0. -1.
         11    1    3    3    0    0 -0.12568547592E+02 -0.26024734866E+01  0.19682324622E+02  0.23497556460E+02  0.51100000000E-03 0. -1.
        -11    1    3    3    0    0 -0.55108191974E+01 -0.98156389614E+01  0.15482604446E+02  0.19142281398E+02  0.51100000000E-03 0.  1.
         12    1    3    3    0    0 -0.24910873603E+01 -0.44218371253E+01 -0.85901382196E+00  0.51474328112E+01  0.00000000000E+00 0. -1.
</event>
<event>
 7    1  0.2492468E-009  0.4778727E+02  0.7816164E-02  0.1312668E+00
        -11   -1    0    0    0    0  0.00000000000E+00  0.00000000000E+00  0.45593999997E+02  0.45594000000E+02  0.51100000000E-03 0.  1.
         11   -1    0    0    0    0 -0.00000000000E+00 -0.00000000000E+00 -0.45593999997E+02  0.45594000000E+02  0.51100000000E-03 0. -1.
    9900012    2    1    2    0    0 -0.17830351433E+02 -0.29981807297E+02  0.25822344334E+02  0.47787266505E+02  0.19999979304E+02 0.  0.
         12    1    1    2    0    0  0.17830351433E+02  0.29981807297E+02 -0.25822344334E+02  0.43400733495E+02  0.00000000000E+00 0. -1.
         11    1    3    3    0    0 -0.11205744782E+02 -0.17403075867E+02  0.13467772448E+02  0.24694466196E+02  0.51100000000E-03 0. -1.
        -11    1    3    3    0    0 -0.10630776957E+02 -0.85753398999E+01  0.10143216137E+02  0.17012780695E+02  0.51100000000E-03 0.  1.
         12    1    3    3    0    0  0.40061703060E+01 -0.40033915298E+01  0.22113557487E+01  0.60800196142E+01  0.00000000000E+00 0. -1.
</event>
<event>
 7    1  0.2492468E-009  0.4778727E+02  0.7816164E-02  0.1312668E+00
        -11   -1    0    0    0    0  0.00000000000E+00  0.00000000000E+00  0.45593999997E+02  0.45594000000E+02  0.51100000000E-03 0. -1.
         11   -1    0    0    0    0 -0.00000000000E+00 -0.00000000000E+00 -0.45593999997E+02  0.45594000000E+02  0.51100000000E-03 0.  1.
    9900012    2    1    2    0    0 -0.38353004075E+02  0.22908755995E+01 -0.20184707673E+02  0.47787268941E+02  0.19999990409E+02 0.  0.
         12    1    1    2    0    0  0.38353004075E+02 -0.22908755995E+01  0.20184707673E+02  0.43400731059E+02  0.00000000000E+00 0. -1.
         11    1    3    3    0    0 -0.10713560321E+01  0.36380934217E+01  0.20539606570E+01  0.43130363011E+01  0.51100000000E-03 0. -1.
        -11    1    3    3    0    0 -0.51764496096E+01 -0.46386441476E+00 -0.24075798833E+01  0.57277606368E+01  0.51100000000E-03 0.  1.
         12    1    3    3    0    0 -0.32105198434E+02 -0.88335340747E+00 -0.19831088447E+02  0.37746472003E+02  0.00000000000E+00 0. -1.
</event>
<event>
 7    1  0.2492468E-009  0.4778728E+02  0.7816164E-02  0.1312668E+00
        -11   -1    0    0    0    0  0.00000000000E+00  0.00000000000E+00  0.45593999997E+02  0.45594000000E+02  0.51100000000E-03 0.  1.
         11   -1    0    0    0    0 -0.00000000000E+00 -0.00000000000E+00 -0.45593999997E+02  0.45594000000E+02  0.51100000000E-03 0. -1.
    9900012    2    1    2    0    0 -0.87658932352E+01 -0.42435696247E+02 -0.24481661856E+01  0.47787277450E+02  0.20000029206E+02 0.  0.
         12    1    1    2    0    0  0.87658932352E+01  0.42435696247E+02  0.24481661856E+01  0.43400722550E+02  0.00000000000E+00 0. -1.
         11    1    3    3    0    0 -0.26307361785E+01 -0.21073996285E+02 -0.10375505265E+01  0.21262892644E+02  0.51100000000E-03 0. -1.
        -11    1    3    3    0    0 -0.95671001259E+01 -0.19597308229E+02 -0.35764605690E+01  0.22099207341E+02  0.51100000000E-03 0.  1.
         12    1    3    3    0    0  0.34319430693E+01 -0.17643917328E+01  0.21658449100E+01  0.44251774644E+01  0.00000000000E+00 0. -1.
</event>
<event>
 7    1  0.2492468E-009  0.4778727E+02  0.7816164E-02  0.1312668E+00
        -11   -1    0    0    0    0  0.00000000000E+00  0.00000000000E+00  0.45593999997E+02  0.45594000000E+02  0.51100000000E-03 0.  1.
         11   -1    0    0    0    0 -0.00000000000E+00 -0.00000000000E+00 -0.45593999997E+02  0.45594000000E+02  0.51100000000E-03 0. -1.
    9900012    2    1    2    0    0  0.62041009016E+01  0.27917370874E+02  0.32645865419E+02  0.47787274275E+02  0.20000014729E+02 0.  0.
         12    1    1    2    0    0 -0.62041009016E+01 -0.27917370874E+02 -0.32645865419E+02  0.43400725725E+02  0.00000000000E+00 0. -1.
         11    1    3    3    0    0  0.32565389832E+01  0.37937101441E+01  0.81742075697E+00  0.50661089369E+01  0.51100000000E-03 0. -1.
        -11    1    3    3    0    0  0.19439391979E+01 -0.50252947732E+00 -0.50000537082E+00  0.20691643513E+01  0.51100000000E-03 0.  1.
        -12    1    3    3    0    0  0.10036227205E+01  0.24626190207E+02  0.32328450033E+02  0.40652000987E+02  0.00000000000E+00 0.  1.
</event>
<event>
 7    1  0.2492468E-009  0.4778726E+02  0.7816164E-02  0.1312668E+00
        -11   -1    0    0    0    0  0.00000000000E+00  0.00000000000E+00  0.45593999997E+02  0.45594000000E+02  0.51100000000E-03 0.  1.
         11   -1    0    0    0    0 -0.00000000000E+00 -0.00000000000E+00 -0.45593999997E+02  0.45594000000E+02  0.51100000000E-03 0. -1.
    9900012    2    1    2    0    0 -0.79613954533E+01 -0.23546712321E+02  0.35577983996E+02  0.47787257795E+02  0.19999939591E+02 0.  0.
         12    1    1    2    0    0  0.79613954533E+01  0.23546712321E+02 -0.35577983996E+02  0.43400742205E+02  0.00000000000E+00 0. -1.
         11    1    3    3    0    0  0.10989250837E+01 -0.72447489110E+01  0.48867451665E+01  0.88076274732E+01  0.51100000000E-03 0. -1.
        -11    1    3    3    0    0  0.35571376001E+00 -0.35897610394E+01 -0.83873181381E+00  0.37035642178E+01  0.51100000000E-03 0.  1.
        -12    1    3    3    0    0 -0.94160342970E+01 -0.12712202371E+02  0.31529970643E+02  0.35276066104E+02  0.00000000000E+00 0.  1.
</event>
<event>
 7    1  0.2492468E-009  0.4778727E+02  0.7816164E-02  0.1312668E+00
        -11   -1    0    0    0    0  0.00000000000E+00  0.00000000000E+00  0.45593999997E+02  0.45594000000E+02  0.51100000000E-03 0.  1.
         11   -1    0    0    0    0 -0.00000000000E+00 -0.00000000000E+00 -0.45593999997E+02  0.45594000000E+02  0.51100000000E-03 0. -1.
    9900012    2    1    2    0    0  0.15139037639E+02  0.34490118260E+02  0.21560715119E+02  0.47787272417E+02  0.20000006259E+02 0.  0.
         12    1    1    2    0    0 -0.15139037639E+02 -0.34490118260E+02 -0.21560715119E+02  0.43400727583E+02  0.00000000000E+00 0. -1.
         11    1    3    3    0    0  0.51919047933E+01  0.22476202459E+01  0.25089014938E+01  0.61888818957E+01  0.51100000000E-03 0. -1.
        -11    1    3    3    0    0  0.48633394589E+01  0.31399682511E+02  0.17138095377E+02  0.36101335791E+02  0.51100000000E-03 0.  1.
         12    1    3    3    0    0  0.50837933870E+01  0.84281550340E+00  0.19137182483E+01  0.54970547303E+01  0.00000000000E+00 0. -1.
</event>
<event>
 7    1  0.2492468E-009  0.4778728E+02  0.7816164E-02  0.1312668E+00
        -11   -1    0    0    0    0  0.00000000000E+00  0.00000000000E+00  0.45593999997E+02  0.45594000000E+02  0.51100000000E-03 0.  1.
         11   -1    0    0    0    0 -0.00000000000E+00 -0.00000000000E+00 -0.45593999997E+02  0.45594000000E+02  0.51100000000E-03 0. -1.
    9900012    2    1    2    0    0  0.10034465741E+02 -0.34942804977E+02  0.23705119461E+02  0.47787276377E+02  0.20000024313E+02 0.  0.
         12    1    1    2    0    0 -0.10034465741E+02  0.34942804977E+02 -0.23705119461E+02  0.43400723623E+02  0.00000000000E+00 0. -1.
         11    1    3    3    0    0 -0.35291124011E+01 -0.66561396659E+01  0.73507392000E-01  0.75342042174E+01  0.51100000000E-03 0. -1.
        -11    1    3    3    0    0  0.17676622199E+00 -0.24770396964E+01  0.53768402803E+01  0.59226162813E+01  0.51100000000E-03 0.  1.
        -12    1    3    3    0    0  0.13386811920E+02 -0.25809625614E+02  0.18254771789E+02  0.34330455878E+02  0.00000000000E+00 0.  1.
</event>
<event>
 7    1  0.2492468E-009  0.4778727E+02  0.7816164E-02  0.1312668E+00
        -11   -1    0    0    0    0  0.00000000000E+00  0.00000000000E+00  0.45593999997E+02  0.45594000000E+02  0.51100000000E-03 0.  1.
         11   -1    0    0    0    0 -0.00000000000E+00 -0.00000000000E+00 -0.45593999997E+02  0.45594000000E+02  0.51100000000E-03 0. -1.
    9900012    2    1    2    0    0 -0.22575372389E+02  0.30323979320E+02  0.21317408691E+02  0.47787273352E+02  0.20000010520E+02 0.  0.
         12    1    1    2    0    0  0.22575372389E+02 -0.30323979320E+02 -0.21317408691E+02  0.43400726648E+02  0.00000000000E+00 0. -1.
         11    1    3    3    0    0 -0.54901233345E+01  0.23460586818E+02  0.12360202085E+02  0.27079792908E+02  0.51100000000E-03 0. -1.
        -11    1    3    3    0    0 -0.37652295490E+01  0.23502902175E+01  0.33764758319E+01  0.55768635421E+01  0.51100000000E-03 0.  1.
         12    1    3    3    0    0 -0.13320019506E+02  0.45131022842E+01  0.55807307741E+01  0.15130616902E+02  0.00000000000E+00 0. -1.
</event>
<event>
 7    1  0.2492468E-009  0.4778727E+02  0.7816164E-02  0.1312668E+00
        -11   -1    0    0    0    0  0.00000000000E+00  0.00000000000E+00  0.45593999997E+02  0.45594000000E+02  0.51100000000E-03 0.  1.
         11   -1    0    0    0    0 -0.00000000000E+00 -0.00000000000E+00 -0.45593999997E+02  0.45594000000E+02  0.51100000000E-03 0. -1.
    9900012    2    1    2    0    0  0.81106290126E+01 -0.34230535274E+02  0.25418723445E+02  0.47787270171E+02  0.19999996017E+02 0.  0.
         12    1    1    2    0    0 -0.81106290126E+01  0.34230535274E+02 -0.25418723445E+02  0.43400729829E+02  0.00000000000E+00 0. -1.
         11    1    3    3    0    0  0.41517342103E+01 -0.22856240687E+02  0.14160237913E+02  0.27205826091E+02  0.51100000000E-03 0. -1.
        -11    1    3    3    0    0  0.82077036720E+01 -0.81735711564E+01  0.94939123968E+01  0.14976916835E+02  0.51100000000E-03 0.  1.
         12    1    3    3    0    0 -0.42488088696E+01 -0.32007234310E+01  0.17645731354E+01  0.56045272452E+01  0.00000000000E+00 0. -1.
</event>
<event>
 7    1  0.2492468E-009  0.4778728E+02  0.7816164E-02  0.1312668E+00
        -11   -1    0    0    0    0  0.00000000000E+00  0.00000000000E+00  0.45593999997E+02  0.45594000000E+02  0.51100000000E-03 0.  1.
         11   -1    0    0    0    0 -0.00000000000E+00 -0.00000000000E+00 -0.45593999997E+02  0.45594000000E+02  0.51100000000E-03 0. -1.
    9900012    2    1    2    0    0  0.26792040009E+02  0.39374824990E+01 -0.33916156582E+02  0.47787275887E+02  0.20000022077E+02 0.  0.
         12    1    1    2    0    0 -0.26792040009E+02 -0.39374824990E+01  0.33916156582E+02  0.43400724113E+02  0.00000000000E+00 0. -1.
         11    1    3    3    0    0  0.12572132882E+02  0.37363566932E+01 -0.20604977497E+02  0.24425068770E+02  0.51100000000E-03 0. -1.
        -11    1    3    3    0    0 -0.61684933768E+00  0.33371728704E+01 -0.50755938451E+01  0.61056432105E+01  0.51100000000E-03 0.  1.
         12    1    3    3    0    0  0.14836756465E+02 -0.31360470645E+01 -0.82355852405E+01  0.17256563906E+02  0.00000000000E+00 0. -1.
</event>
<event>
 7    1  0.2492468E-009  0.4778726E+02  0.7816164E-02  0.1312668E+00
        -11   -1    0    0    0    0  0.00000000000E+00  0.00000000000E+00  0.45593999997E+02  0.45594000000E+02  0.51100000000E-03 0.  1.
         11   -1    0    0    0    0 -0.00000000000E+00 -0.00000000000E+00 -0.45593999997E+02  0.45594000000E+02  0.51100000000E-03 0. -1.
    9900012    2    1    2    0    0  0.32197584035E+02 -0.76911615049E+01  0.28067517517E+02  0.47787263571E+02  0.19999965927E+02 0.  0.
         12    1    1    2    0    0 -0.32197584035E+02  0.76911615049E+01 -0.28067517517E+02  0.43400736429E+02  0.00000000000E+00 0. -1.
         11    1    3    3    0    0 -0.98445562029E+00 -0.97533339658E+00 -0.34994714849E+00  0.14292975095E+01  0.51100000000E-03 0. -1.
        -11    1    3    3    0    0 -0.11141478500E+01  0.46242817581E-01  0.28170889626E+01  0.30297614286E+01  0.51100000000E-03 0.  1.
        -12    1    3    3    0    0  0.34296187505E+02 -0.67620709259E+01  0.25600375703E+02  0.43328204633E+02  0.00000000000E+00 0.  1.
</event>
<event>
 7    1  0.2492468E-009  0.4778727E+02  0.7816164E-02  0.1312668E+00
        -11   -1    0    0    0    0  0.00000000000E+00  0.00000000000E+00  0.45593999997E+02  0.45594000000E+02  0.51100000000E-03 0.  1.
         11   -1    0    0    0    0 -0.00000000000E+00 -0.00000000000E+00 -0.45593999997E+02  0.45594000000E+02  0.51100000000E-03 0. -1.
    9900012    2    1    2    0    0 -0.29706537632E+02 -0.10086799418E+02  0.29990020932E+02  0.47787271249E+02  0.20000000934E+02 0.  0.
         12    1    1    2    0    0  0.29706537632E+02  0.10086799418E+02 -0.29990020932E+02  0.43400728751E+02  0.00000000000E+00 0. -1.
         11    1    3    3    0    0 -0.11320842137E+02  0.88129496414E+00  0.38492006082E+01  0.11989766182E+02  0.51100000000E-03 0. -1.
        -11    1    3    3    0    0 -0.18620948807E+02 -0.67722039581E+01  0.18662768778E+02  0.27219504397E+02  0.51100000000E-03 0.  1.
         12    1    3    3    0    0  0.23525331203E+00 -0.41958904242E+01  0.74780515462E+01  0.85780006703E+01  0.00000000000E+00 0. -1.
</event>
<event>
 7    1  0.2492468E-009  0.4778727E+02  0.7816164E-02  0.1312668E+00
        -11   -1    0    0    0    0  0.00000000000E+00  0.00000000000E+00  0.45593999997E+02  0.45594000000E+02  0.51100000000E-03 0.  1.
         11   -1    0    0    0    0 -0.00000000000E+00 -0.00000000000E+00 -0.45593999997E+02  0.45594000000E+02  0.51100000000E-03 0. -1.
    9900012    2    1    2    0    0  0.35859264952E+02 -0.24442746250E+02 -0.53690970138E+00  0.47787274209E+02  0.20000014430E+02 0.  0.
         12    1    1    2    0    0 -0.35859264952E+02  0.24442746250E+02  0.53690970138E+00  0.43400725791E+02  0.00000000000E+00 0. -1.
         11    1    3    3    0    0  0.19319352492E+02 -0.71916803377E+01 -0.57549752779E+01  0.21402742523E+02  0.51100000000E-03 0. -1.
        -11    1    3    3    0    0  0.14407271311E+02 -0.85742138537E+01  0.19860745739E+01  0.16882864162E+02  0.51100000000E-03 0.  1.
        -12    1    3    3    0    0  0.21326411494E+01 -0.86768520581E+01  0.32319910026E+01  0.95016675248E+01  0.00000000000E+00 0.  1.
</event>
<event>
 7    1  0.2492468E-009  0.4778727E+02  0.7816164E-02  0.1312668E+00
        -11   -1    0    0    0    0  0.00000000000E+00  0.00000000000E+00  0.45593999997E+02  0.45594000000E+02  0.51100000000E-03 0. -1.
         11   -1    0    0    0    0 -0.00000000000E+00 -0.00000000000E+00 -0.45593999997E+02  0.45594000000E+02  0.51100000000E-03 0.  1.
    9900012    2    1    2    0    0  0.20962900529E+02 -0.37916909341E+02  0.25472508150E+01  0.47787266144E+02  0.19999977657E+02 0.  0.
         12    1    1    2    0    0 -0.20962900529E+02  0.37916909341E+02 -0.25472508150E+01  0.43400733856E+02  0.00000000000E+00 0. -1.
         11    1    3    3    0    0 -0.91481773038E-01  0.19155366231E+01 -0.10427880410E+01  0.21829009663E+01  0.51100000000E-03 0. -1.
        -11    1    3    3    0    0  0.81249461337E+01 -0.15393009518E+02  0.43649621658E+01  0.17944703583E+02  0.51100000000E-03 0.  1.
         12    1    3    3    0    0  0.12929436168E+02 -0.24439436446E+02 -0.77492330977E+00  0.27659661595E+02  0.00000000000E+00 0. -1.
</event>
<event>
 7    1  0.2492468E-009  0.4778727E+02  0.7816164E-02  0.1312668E+00
        -11   -1    0    0    0    0  0.00000000000E+00  0.00000000000E+00  0.45593999997E+02  0.45594000000E+02  0.51100000000E-03 0. -1.
         11   -1    0    0    0    0 -0.00000000000E+00 -0.00000000000E+00 -0.45593999997E+02  0.45594000000E+02  0.51100000000E-03 0.  1.
    9900012    2    1    2    0    0 -0.34666585330E+02  0.20700980278E+01 -0.26030093641E+02  0.47787271674E+02  0.20000002870E+02 0.  0.
         12    1    1    2    0    0  0.34666585330E+02 -0.20700980278E+01  0.26030093641E+02  0.43400728326E+02  0.00000000000E+00 0. -1.
         11    1    3    3    0    0 -0.17899597795E+00 -0.17114634210E+01  0.57914284370E+00  0.18156412906E+01  0.51100000000E-03 0. -1.
        -11    1    3    3    0    0 -0.18328984363E+01  0.38282684717E+01 -0.73274602047E+00  0.43072117618E+01  0.51100000000E-03 0.  1.
        -12    1    3    3    0    0 -0.32654690916E+02 -0.46707022915E-01 -0.25876490464E+02  0.41664418622E+02  0.00000000000E+00 0.  1.
</event>
<event>
 7    1  0.2492468E-009  0.4778728E+02  0.7816164E-02  0.1312668E+00
        -11   -1    0    0    0    0  0.00000000000E+00  0.00000000000E+00  0.45593999997E+02  0.45594000000E+02  0.51100000000E-03 0. -1.
         11   -1    0    0    0    0 -0.00000000000E+00 -0.00000000000E+00 -0.45593999997E+02  0.45594000000E+02  0.51100000000E-03 0.  1.
    9900012    2    1    2    0    0 -0.40706888447E+02  0.38711102283E+01  0.14546007955E+02  0.47787278705E+02  0.20000034930E+02 0.  0.
         12    1    1    2    0    0  0.40706888447E+02 -0.38711102283E+01 -0.14546007955E+02  0.43400721295E+02  0.00000000000E+00 0. -1.
         11    1    3    3    0    0 -0.98291416210E+01 -0.11875556950E+01  0.96117630882E+00  0.99471691295E+01  0.51100000000E-03 0. -1.
        -11    1    3    3    0    0 -0.81721173793E+01  0.86454739409E+01  0.18789310672E+01  0.12044006988E+02  0.51100000000E-03 0.  1.
         12    1    3    3    0    0 -0.22705629447E+02 -0.35868080175E+01  0.11705900579E+02  0.25796102587E+02  0.00000000000E+00 0. -1.
</event>
<event>
 7    1  0.2492468E-009  0.4778723E+02  0.7816164E-02  0.1312668E+00
        -11   -1    0    0    0    0  0.00000000000E+00  0.00000000000E+00  0.45593999997E+02  0.45594000000E+02  0.51100000000E-03 0.  1.
         11   -1    0    0    0    0 -0.00000000000E+00 -0.00000000000E+00 -0.45593999997E+02  0.45594000000E+02  0.51100000000E-03 0. -1.
    9900012    2    1    2    0    0  0.17032128582E+02 -0.34844202460E+02  0.19478571235E+02  0.47787232882E+02  0.19999826001E+02 0.  0.
         12    1    1    2    0    0 -0.17032128582E+02  0.34844202460E+02 -0.19478571235E+02  0.43400767118E+02  0.00000000000E+00 0. -1.
         11    1    3    3    0    0  0.14583669379E+01 -0.82590404924E+00 -0.36314806872E+00  0.17148843707E+01  0.51100000000E-03 0. -1.
        -11    1    3    3    0    0  0.19247152949E+02 -0.31600921620E+02  0.19003521461E+02  0.41595732619E+02  0.51100000000E-03 0.  1.
        -12    1    3    3    0    0 -0.36733913050E+01 -0.24173767901E+01  0.83819784278E+00  0.44766158924E+01  0.00000000000E+00 0.  1.
</event>
<event>
 7    1  0.2492468E-009  0.4778727E+02  0.7816164E-02  0.1312668E+00
        -11   -1    0    0    0    0  0.00000000000E+00  0.00000000000E+00  0.45593999997E+02  0.45594000000E+02  0.51100000000E-03 0. -1.
         11   -1    0    0    0    0 -0.00000000000E+00 -0.00000000000E+00 -0.45593999997E+02  0.45594000000E+02  0.51100000000E-03 0.  1.
    9900012    2    1    2    0    0  0.15002656260E+02  0.78346174675E+01 -0.39964514578E+02  0.47787270154E+02  0.19999995940E+02 0.  0.
         12    1    1    2    0    0 -0.15002656260E+02 -0.78346174675E+01  0.39964514578E+02  0.43400729846E+02  0.00000000000E+00 0. -1.
         11    1    3    3    0    0  0.77894862711E+01  0.16074756045E+01 -0.10410534495E+02  0.13101118384E+02  0.51100000000E-03 0. -1.
        -11    1    3    3    0    0  0.70771152802E+01  0.86534850915E+01 -0.10052992349E+02  0.15034328065E+02  0.51100000000E-03 0.  1.
         12    1    3    3    0    0  0.13605470903E+00 -0.24263432285E+01 -0.19500987733E+02  0.19651823705E+02  0.00000000000E+00 0. -1.
</event>
<event>
 7    1  0.2492468E-009  0.4778727E+02  0.7816164E-02  0.1312668E+00
        -11   -1    0    0    0    0  0.00000000000E+00  0.00000000000E+00  0.45593999997E+02  0.45594000000E+02  0.51100000000E-03 0.  1.
         11   -1    0    0    0    0 -0.00000000000E+00 -0.00000000000E+00 -0.45593999997E+02  0.45594000000E+02  0.51100000000E-03 0. -1.
    9900012    2    1    2    0    0 -0.32014926861E+02  0.51549802763E+01  0.28846036755E+02  0.47787271895E+02  0.20000003879E+02 0.  0.
         12    1    1    2    0    0  0.32014926861E+02 -0.51549802763E+01 -0.28846036755E+02  0.43400728105E+02  0.00000000000E+00 0. -1.
         11    1    3    3    0    0 -0.13988959156E+02 -0.44453387284E+01  0.91831949222E+01  0.17314245115E+02  0.51100000000E-03 0. -1.
        -11    1    3    3    0    0 -0.25679870710E+01 -0.24111629288E+01  0.17286990894E+01  0.39238584415E+01  0.51100000000E-03 0.  1.
        -12    1    3    3    0    0 -0.15457980634E+02  0.12011481934E+02  0.17934142743E+02  0.26549168339E+02  0.00000000000E+00 0.  1.
</event>
<event>
 7    1  0.2492468E-009  0.4778724E+02  0.7816164E-02  0.1312668E+00
        -11   -1    0    0    0    0  0.00000000000E+00  0.00000000000E+00  0.45593999997E+02  0.45594000000E+02  0.51100000000E-03 0.  1.
         11   -1    0    0    0    0 -0.00000000000E+00 -0.00000000000E+00 -0.45593999997E+02  0.45594000000E+02  0.51100000000E-03 0. -1.
    9900012    2    1    2    0    0  0.37096050705E+02 -0.60899523571E+01  0.21689194840E+02  0.47787243435E+02  0.19999874118E+02 0.  0.
         12    1    1    2    0    0 -0.37096050705E+02  0.60899523571E+01 -0.21689194840E+02  0.43400756565E+02  0.00000000000E+00 0. -1.
         11    1    3    3    0    0 -0.50635147856E-01 -0.34659457205E+01  0.51478689710E+00  0.35043329560E+01  0.51100000000E-03 0. -1.
        -11    1    3    3    0    0  0.52615553485E+01 -0.42168609451E+01  0.19606487508E+01  0.70221097045E+01  0.51100000000E-03 0.  1.
        -12    1    3    3    0    0  0.31885130504E+02  0.15928543085E+01  0.19213759192E+02  0.37260800775E+02  0.00000000000E+00 0.  1.
</event>
<event>
 7    1  0.2492468E-009  0.4778727E+02  0.7816164E-02  0.1312668E+00
        -11   -1    0    0    0    0  0.00000000000E+00  0.00000000000E+00  0.45593999997E+02  0.45594000000E+02  0.51100000000E-03 0. -1.
         11   -1    0    0    0    0 -0.00000000000E+00 -0.00000000000E+00 -0.45593999997E+02  0.45594000000E+02  0.51100000000E-03 0.  1.
    9900012    2    1    2    0    0 -0.72736237434E+01 -0.40748305515E+02  0.13049646549E+02  0.47787270977E+02  0.19999999692E+02 0.  0.
         12    1    1    2    0    0  0.72736237434E+01  0.40748305515E+02 -0.13049646549E+02  0.43400729023E+02  0.00000000000E+00 0. -1.
         11    1    3    3    0    0  0.25169222489E+01 -0.14899417315E+02  0.95560385933E+01  0.17878629919E+02  0.51100000000E-03 0. -1.
        -11    1    3    3    0    0  0.12850613649E+01 -0.51788069149E+01  0.36375440252E+01  0.64577976563E+01  0.51100000000E-03 0.  1.
         12    1    3    3    0    0 -0.11075607357E+02 -0.20670081284E+02 -0.14393606915E+00  0.23450843401E+02  0.00000000000E+00 0. -1.
</event>
<event>
 7    1  0.2492468E-009  0.4778722E+02  0.7816164E-02  0.1312668E+00
        -11   -1    0    0    0    0  0.00000000000E+00  0.00000000000E+00  0.45593999997E+02  0.45594000000E+02  0.51100000000E-03 0.  1.
         11   -1    0    0    0    0 -0.00000000000E+00 -0.00000000000E+00 -0.45593999997E+02  0.45594000000E+02  0.51100000000E-03 0. -1.
    9900012    2    1    2    0    0 -0.25959803871E+02  0.90035149347E+01 -0.33595429137E+02  0.47787221699E+02  0.19999775014E+02 0.  0.
         12    1    1    2    0    0  0.25959803871E+02 -0.90035149347E+01  0.33595429137E+02  0.43400778301E+02  0.00000000000E+00 0. -1.
         11    1    3    3    0    0 -0.37347312652E+01 -0.79434054889E+00 -0.29111138550E+01  0.48014350635E+01  0.51100000000E-03 0. -1.
        -11    1    3    3    0    0 -0.16547505811E+02 -0.16924950261E+01 -0.12826812466E+02  0.21005037640E+02  0.51100000000E-03 0.  1.
         12    1    3    3    0    0 -0.56775667946E+01  0.11490350510E+02 -0.17857502817E+02  0.21980748995E+02  0.00000000000E+00 0. -1.
</event>
<event>
 7    1  0.2492468E-009  0.4778727E+02  0.7816164E-02  0.1312668E+00
        -11   -1    0    0    0    0  0.00000000000E+00  0.00000000000E+00  0.45593999997E+02  0.45594000000E+02  0.51100000000E-03 0. -1.
         11   -1    0    0    0    0 -0.00000000000E+00 -0.00000000000E+00 -0.45593999997E+02  0.45594000000E+02  0.51100000000E-03 0.  1.
    9900012    2    1    2    0    0  0.42082758930E+01  0.27169169944E+02 -0.33581988272E+02  0.47787270539E+02  0.19999997694E+02 0.  0.
         12    1    1    2    0    0 -0.42082758930E+01 -0.27169169944E+02  0.33581988272E+02  0.43400729461E+02  0.00000000000E+00 0. -1.
         11    1    3    3    0    0 -0.93643969400E-01  0.93969054397E+01 -0.42786046386E+01  0.10325553687E+02  0.51100000000E-03 0. -1.
        -11    1    3    3    0    0 -0.11467046111E+01  0.16294140459E+02 -0.15373140203E+02  0.22430947032E+02  0.51100000000E-03 0.  1.
         12    1    3    3    0    0  0.54486244735E+01  0.14781240456E+01 -0.13930243430E+02  0.15030769820E+02  0.00000000000E+00 0. -1.
</event>
<event>
 7    1  0.2492468E-009  0.4778727E+02  0.7816164E-02  0.1312668E+00
        -11   -1    0    0    0    0  0.00000000000E+00  0.00000000000E+00  0.45593999997E+02  0.45594000000E+02  0.51100000000E-03 0.  1.
         11   -1    0    0    0    0 -0.00000000000E+00 -0.00000000000E+00 -0.45593999997E+02  0.45594000000E+02  0.51100000000E-03 0. -1.
    9900012    2    1    2    0    0  0.36754605244E+02  0.18072510737E+02  0.14356423198E+02  0.47787268001E+02  0.19999986124E+02 0.  0.
         12    1    1    2    0    0 -0.36754605244E+02 -0.18072510737E+02 -0.14356423198E+02  0.43400731999E+02  0.00000000000E+00 0. -1.
         11    1    3    3    0    0  0.11866698777E+02  0.45751277793E+01  0.13482879013E+02  0.18534787854E+02  0.51100000000E-03 0. -1.
        -11    1    3    3    0    0  0.83898570095E+01  0.84958393455E+00  0.72246070322E+00  0.84636542481E+01  0.51100000000E-03 0.  1.
        -12    1    3    3    0    0  0.16498049458E+02  0.12647799023E+02  0.15108348162E+00  0.20788825899E+02  0.00000000000E+00 0.  1.
</event>
<event>
 7    1  0.2492468E-009  0.4778728E+02  0.7816164E-02  0.1312668E+00
        -11   -1    0    0    0    0  0.00000000000E+00  0.00000000000E+00  0.45593999997E+02  0.45594000000E+02  0.51100000000E-03 0.  1.
         11   -1    0    0    0    0 -0.00000000000E+00 -0.00000000000E+00 -0.45593999997E+02  0.45594000000E+02  0.51100000000E-03 0. -1.
    9900012    2    1    2    0    0  0.17684064667E+02 -0.22642064808E+02  0.32530503361E+02  0.47787275457E+02  0.20000020120E+02 0.  0.
         12    1    1    2    0    0 -0.17684064667E+02  0.22642064808E+02 -0.32530503361E+02  0.43400724543E+02  0.00000000000E+00 0. -1.
         11    1    3    3    0    0  0.60438291278E+01 -0.73981048480E+01  0.92821541109E+01  0.13319842757E+02  0.51100000000E-03 0. -1.
        -11    1    3    3    0    0  0.42073675710E+01  0.28224328259E+01  0.88553534280E+01  0.10202222970E+02  0.51100000000E-03 0.  1.
        -12    1    3    3    0    0  0.74328679683E+01 -0.18066392786E+02  0.14392995822E+02  0.24265209730E+02  0.00000000000E+00 0.  1.
</event>
<event>
 7    1  0.2492468E-009  0.4778727E+02  0.7816164E-02  0.1312668E+00
        -11   -1    0    0    0    0  0.00000000000E+00  0.00000000000E+00  0.45593999997E+02  0.45594000000E+02  0.51100000000E-03 0.  1.
         11   -1    0    0    0    0 -0.00000000000E+00 -0.00000000000E+00 -0.45593999997E+02  0.45594000000E+02  0.51100000000E-03 0. -1.
    9900012    2    1    2    0    0 -0.40955870315E+02 -0.13276364824E+02 -0.54752560076E+01  0.47787267235E+02  0.19999982630E+02 0.  0.
         12    1    1    2    0    0  0.40955870315E+02  0.13276364824E+02  0.54752560076E+01  0.43400732765E+02  0.00000000000E+00 0. -1.
         11    1    3    3    0    0 -0.12458173076E+02 -0.39138123824E+01 -0.82369675061E+01  0.15439288769E+02  0.51100000000E-03 0. -1.
        -11    1    3    3    0    0 -0.15159838936E+02 -0.10964482346E+01 -0.32520503878E+01  0.15543447085E+02  0.51100000000E-03 0.  1.
        -12    1    3    3    0    0 -0.13337858303E+02 -0.82661042074E+01  0.60137618863E+01  0.16804531380E+02  0.00000000000E+00 0.  1.
</event>
<event>
 7    1  0.2492468E-009  0.4778726E+02  0.7816164E-02  0.1312668E+00
        -11   -1    0    0    0    0  0.00000000000E+00  0.00000000000E+00  0.45593999997E+02  0.45594000000E+02  0.51100000000E-03 0. -1.
         11   -1    0    0    0    0 -0.00000000000E+00 -0.00000000000E+00 -0.45593999997E+02  0.45594000000E+02  0.51100000000E-03 0.  1.
    9900012    2    1    2    0    0  0.27308213754E+02 -0.29097150729E+02 -0.17065795655E+02  0.47787261523E+02  0.19999956589E+02 0.  0.
         12    1    1    2    0    0 -0.27308213754E+02  0.29097150729E+02  0.17065795655E+02  0.43400738477E+02  0.00000000000E+00 0. -1.
         11    1    3    3    0    0  0.14666373210E+02 -0.60021639026E+01 -0.93378348405E+01  0.18393575901E+02  0.51100000000E-03 0. -1.
        -11    1    3    3    0    0  0.87557078784E+01 -0.74364349399E+01 -0.65345635619E+01  0.13216032168E+02  0.51100000000E-03 0.  1.
         12    1    3    3    0    0  0.38861326660E+01 -0.15658551887E+02 -0.11933972521E+01  0.16177653454E+02  0.00000000000E+00 0. -1.
</event>
<event>
 7    1  0.2521620E-009  0.4778727E+02  0.7816164E-02  0.1312668E+00
        -11   -1    0    0    0    0  0.00000000000E+00  0.00000000000E+00  0.45593999997E+02  0.45594000000E+02  0.51100000000E-03 0.  1.
         11   -1    0    0    0    0 -0.00000000000E+00 -0.00000000000E+00 -0.45593999997E+02  0.45594000000E+02  0.51100000000E-03 0. -1.
    9900012    2    1    2    0    0  0.33998508353E+02  0.40743667504E+00  0.26973292563E+02  0.47787273202E+02  0.20000009839E+02 0.  0.
         12    1    1    2    0    0 -0.33998508353E+02 -0.40743667504E+00 -0.26973292563E+02  0.43400726798E+02  0.00000000000E+00 0. -1.
         11    1    3    3    0    0  0.22111892974E+02 -0.50624200708E+00  0.18658292835E+02  0.28936550997E+02  0.51100000000E-03 0. -1.
        -11    1    3    3    0    0  0.81057517270E+01 -0.50725722669E+01  0.64328180145E+01  0.11524554149E+02  0.51100000000E-03 0.  1.
         12    1    3    3    0    0  0.37808636521E+01  0.59862509491E+01  0.18821817140E+01  0.73261680561E+01  0.00000000000E+00 0. -1.
</event>
<event>
 7    1  0.2492468E-009  0.4778727E+02  0.7816164E-02  0.1312668E+00
        -11   -1    0    0    0    0  0.00000000000E+00  0.00000000000E+00  0.45593999997E+02  0.45594000000E+02  0.51100000000E-03 0.  1.
         11   -1    0    0    0    0 -0.00000000000E+00 -0.00000000000E+00 -0.45593999997E+02  0.45594000000E+02  0.51100000000E-03 0. -1.
    9900012    2    1    2    0    0 -0.33647422520E+02 -0.17590390337E+02 -0.21025048124E+02  0.47787268173E+02  0.19999986910E+02 0.  0.
         12    1    1    2    0    0  0.33647422520E+02  0.17590390337E+02  0.21025048124E+02  0.43400731827E+02  0.00000000000E+00 0. -1.
         11    1    3    3    0    0 -0.12071916196E+02 -0.43068640620E+01 -0.14979916259E+02  0.19714921508E+02  0.51100000000E-03 0. -1.
        -11    1    3    3    0    0 -0.14842767047E+02 -0.92711893387E+01 -0.90211998176E+01  0.19688695532E+02  0.51100000000E-03 0.  1.
        -12    1    3    3    0    0 -0.67327392775E+01 -0.40123369357E+01  0.29760679519E+01  0.83836511329E+01  0.00000000000E+00 0.  1.
</event>
<event>
 7    1  0.2492468E-009  0.4778727E+02  0.7816164E-02  0.1312668E+00
        -11   -1    0    0    0    0  0.00000000000E+00  0.00000000000E+00  0.45593999997E+02  0.45594000000E+02  0.51100000000E-03 0.  1.
         11   -1    0    0    0    0 -0.00000000000E+00 -0.00000000000E+00 -0.45593999997E+02  0.45594000000E+02  0.51100000000E-03 0. -1.
    9900012    2    1    2    0    0 -0.45315213036E+01  0.10852449608E+01  0.43149864135E+02  0.47787271702E+02  0.20000002998E+02 0.  0.
         12    1    1    2    0    0  0.45315213036E+01 -0.10852449608E+01 -0.43149864135E+02  0.43400728298E+02  0.00000000000E+00 0. -1.
         11    1    3    3    0    0 -0.28151943121E+00  0.13841343596E+01  0.15447423802E+02  0.15511865893E+02  0.51100000000E-03 0. -1.
        -11    1    3    3    0    0  0.24349048124E+01 -0.28132659863E+01  0.23892785204E+02  0.24180744654E+02  0.51100000000E-03 0.  1.
         12    1    3    3    0    0 -0.66849066848E+01  0.25143765875E+01  0.38096551291E+01  0.80946611548E+01  0.00000000000E+00 0. -1.
</event>
<event>
 7    1  0.2492468E-009  0.4778727E+02  0.7816164E-02  0.1312668E+00
        -11   -1    0    0    0    0  0.00000000000E+00  0.00000000000E+00  0.45593999997E+02  0.45594000000E+02  0.51100000000E-03 0. -1.
         11   -1    0    0    0    0 -0.00000000000E+00 -0.00000000000E+00 -0.45593999997E+02  0.45594000000E+02  0.51100000000E-03 0.  1.
    9900012    2    1    2    0    0  0.39320699374E+01 -0.32177286045E+01 -0.43102301227E+02  0.47787270485E+02  0.19999997450E+02 0.  0.
         12    1    1    2    0    0 -0.39320699374E+01  0.32177286045E+01  0.43102301227E+02  0.43400729515E+02  0.00000000000E+00 0. -1.
         11    1    3    3    0    0 -0.42609468206E+01  0.36336603147E+01 -0.86477971982E+01  0.10302599271E+02  0.51100000000E-03 0. -1.
        -11    1    3    3    0    0 -0.13972232960E+01 -0.47425623581E+01 -0.11739345583E+02  0.12737989073E+02  0.51100000000E-03 0.  1.
         12    1    3    3    0    0  0.95902400540E+01 -0.21088265610E+01 -0.22715158446E+02  0.24746682141E+02  0.00000000000E+00 0. -1.
</event>
<event>
 7    1  0.2492468E-009  0.4778727E+02  0.7816164E-02  0.1312668E+00
        -11   -1    0    0    0    0  0.00000000000E+00  0.00000000000E+00  0.45593999997E+02  0.45594000000E+02  0.51100000000E-03 0.  1.
         11   -1    0    0    0    0 -0.00000000000E+00 -0.00000000000E+00 -0.45593999997E+02  0.45594000000E+02  0.51100000000E-03 0. -1.
    9900012    2    1    2    0    0 -0.32374280302E+02  0.67446087859E+01  0.28107639501E+02  0.47787272229E+02  0.20000005402E+02 0.  0.
         12    1    1    2    0    0  0.32374280302E+02 -0.67446087859E+01 -0.28107639501E+02  0.43400727771E+02  0.00000000000E+00 0. -1.
         11    1    3    3    0    0 -0.99394474315E+01 -0.55439987827E+01  0.47020716000E+01  0.12314138839E+02  0.51100000000E-03 0. -1.
        -11    1    3    3    0    0 -0.16106336671E+01  0.11356715412E+01  0.54666460606E+01  0.58110334772E+01  0.51100000000E-03 0.  1.
        -12    1    3    3    0    0 -0.20824199203E+02  0.11152936027E+02  0.17938921840E+02  0.29662099913E+02  0.00000000000E+00 0.  1.
</event>
<event>
 7    1  0.2492468E-009  0.4778726E+02  0.7816164E-02  0.1312668E+00
        -11   -1    0    0    0    0  0.00000000000E+00  0.00000000000E+00  0.45593999997E+02  0.45594000000E+02  0.51100000000E-03 0.  1.
         11   -1    0    0    0    0 -0.00000000000E+00 -0.00000000000E+00 -0.45593999997E+02  0.45594000000E+02  0.51100000000E-03 0. -1.
    9900012    2    1    2    0    0 -0.41194102002E+02  0.91620141334E+01 -0.10135449126E+02  0.47787264157E+02  0.19999968597E+02 0.  0.
         12    1    1    2    0    0  0.41194102002E+02 -0.91620141334E+01  0.10135449126E+02  0.43400735843E+02  0.00000000000E+00 0. -1.
         11    1    3    3    0    0 -0.75130328932E+01  0.17055533929E+01 -0.38284598168E+01  0.86030041532E+01  0.51100000000E-03 0. -1.
        -11    1    3    3    0    0 -0.26381206748E+02  0.11060870556E+02 -0.99199704682E+01  0.30277330485E+02  0.51100000000E-03 0.  1.
         12    1    3    3    0    0 -0.72998623602E+01 -0.36044098154E+01  0.36129811587E+01  0.89069295186E+01  0.00000000000E+00 0. -1.
</event>
<event>
 7    1  0.2492468E-009  0.4778727E+02  0.7816164E-02  0.1312668E+00
        -11   -1    0    0    0    0  0.00000000000E+00  0.00000000000E+00  0.45593999997E+02  0.45594000000E+02  0.51100000000E-03 0. -1.
         11   -1    0    0    0    0 -0.00000000000E+00 -0.00000000000E+00 -0.45593999997E+02  0.45594000000E+02  0.51100000000E-03 0.  1.
    9900012    2    1    2    0    0 -0.36254438812E+02 -0.10949265730E+02 -0.21197940326E+02  0.47787269272E+02  0.19999991920E+02 0.  0.
         12    1    1    2    0    0  0.36254438812E+02  0.10949265730E+02  0.21197940326E+02  0.43400730728E+02  0.00000000000E+00 0. -1.
         11    1    3    3    0    0 -0.31514849185E+01 -0.69187356296E+01 -0.44087483219E+01  0.87885051022E+01  0.51100000000E-03 0.  1.
        -11    1    3    3    0    0 -0.77838594359E+01 -0.19737856996E+01 -0.97654741512E+01  0.12643131865E+02  0.51100000000E-03 0. -1.
        -12    1    3    3    0    0 -0.25319094458E+02 -0.20567444007E+01 -0.70237178530E+01  0.26355632305E+02  0.00000000000E+00 0.  1.
</event>
<event>
 7    1  0.2492468E-009  0.4778727E+02  0.7816164E-02  0.1312668E+00
        -11   -1    0    0    0    0  0.00000000000E+00  0.00000000000E+00  0.45593999997E+02  0.45594000000E+02  0.51100000000E-03 0.  1.
         11   -1    0    0    0    0 -0.00000000000E+00 -0.00000000000E+00 -0.45593999997E+02  0.45594000000E+02  0.51100000000E-03 0. -1.
    9900012    2    1    2    0    0  0.38848075830E+02  0.24793447483E+01  0.19191224574E+02  0.47787271358E+02  0.20000001428E+02 0.  0.
         12    1    1    2    0    0 -0.38848075830E+02 -0.24793447483E+01 -0.19191224574E+02  0.43400728642E+02  0.00000000000E+00 0. -1.
         11    1    3    3    0    0  0.29194505030E+00 -0.42141045679E+00 -0.14914994388E+01  0.15771460055E+01  0.51100000000E-03 0. -1.
        -11    1    3    3    0    0  0.10495755047E+02  0.61754977201E+01  0.10811054275E+02  0.16284242104E+02  0.51100000000E-03 0.  1.
        -12    1    3    3    0    0  0.28060375732E+02 -0.32747425149E+01  0.98716697370E+01  0.29925883248E+02  0.00000000000E+00 0.  1.
</event>
<event>
 7    1  0.2492468E-009  0.4778726E+02  0.7816164E-02  0.1312668E+00
        -11   -1    0    0    0    0  0.00000000000E+00  0.00000000000E+00  0.45593999997E+02  0.45594000000E+02  0.51100000000E-03 0. -1.
         11   -1    0    0    0    0 -0.00000000000E+00 -0.00000000000E+00 -0.45593999997E+02  0.45594000000E+02  0.51100000000E-03 0.  1.
    9900012    2    1    2    0    0 -0.23909831278E+02 -0.31781583344E+02  0.17374560330E+02  0.47787257861E+02  0.19999939890E+02 0.  0.
         12    1    1    2    0    0  0.23909831278E+02  0.31781583344E+02 -0.17374560330E+02  0.43400742139E+02  0.00000000000E+00 0. -1.
         11    1    3    3    0    0 -0.11651196834E+02 -0.88367776380E+01  0.12778404931E+02  0.19419749214E+02  0.51100000000E-03 0. -1.
        -11    1    3    3    0    0 -0.52194062080E+01 -0.17885460281E+01  0.22103650144E+01  0.59436362454E+01  0.51100000000E-03 0.  1.
        -12    1    3    3    0    0 -0.70392282358E+01 -0.21156259678E+02  0.23857903844E+01  0.22423872401E+02  0.00000000000E+00 0.  1.
</event>
<event>
 7    1  0.2492468E-009  0.4778727E+02  0.7816164E-02  0.1312668E+00
        -11   -1    0    0    0    0  0.00000000000E+00  0.00000000000E+00  0.45593999997E+02  0.45594000000E+02  0.51100000000E-03 0.  1.
         11   -1    0    0    0    0 -0.00000000000E+00 -0.00000000000E+00 -0.45593999997E+02  0.45594000000E+02  0.51100000000E-03 0. -1.
    9900012    2    1    2    0    0  0.18638794170E+01  0.27517473268E+02  0.33510265663E+02  0.47787270901E+02  0.19999999344E+02 0.  0.
         12    1    1    2    0    0 -0.18638794170E+01 -0.27517473268E+02 -0.33510265663E+02  0.43400729099E+02  0.00000000000E+00 0. -1.
         11    1    3    3    0    0 -0.14537061591E+00  0.17422602076E+02  0.18149962178E+02  0.25159279064E+02  0.51100000000E-03 0. -1.
        -11    1    3    3    0    0  0.60522042059E-01  0.11903166845E+02  0.68972692976E+01  0.13757229659E+02  0.51100000000E-03 0.  1.
         12    1    3    3    0    0  0.19487279908E+01 -0.18082956529E+01  0.84630341879E+01  0.88707621779E+01  0.00000000000E+00 0. -1.
</event>
<event>
 7    1  0.2492468E-009  0.4778726E+02  0.7816164E-02  0.1312668E+00
        -11   -1    0    0    0    0  0.00000000000E+00  0.00000000000E+00  0.45593999997E+02  0.45594000000E+02  0.51100000000E-03 0. -1.
         11   -1    0    0    0    0 -0.00000000000E+00 -0.00000000000E+00 -0.45593999997E+02  0.45594000000E+02  0.51100000000E-03 0.  1.
    9900012    2    1    2    0    0 -0.29852989748E+02  0.13667465104E+02 -0.28383502595E+02  0.47787264767E+02  0.19999971378E+02 0.  0.
         12    1    1    2    0    0  0.29852989748E+02 -0.13667465104E+02  0.28383502595E+02  0.43400735233E+02  0.00000000000E+00 0. -1.
         11    1    3    3    0    0 -0.21509922021E+01  0.36700744736E-01  0.10007874598E+00  0.21536319125E+01  0.51100000000E-03 0. -1.
        -11    1    3    3    0    0 -0.22144868429E+02  0.18012868835E+02 -0.23556539049E+02  0.37010392778E+02  0.51100000000E-03 0.  1.
        -12    1    3    3    0    0 -0.55571291170E+01 -0.43821044763E+01 -0.49270422920E+01  0.86232400761E+01  0.00000000000E+00 0.  1.
</event>
<event>
 7    1  0.2492468E-009  0.4778727E+02  0.7816164E-02  0.1312668E+00
        -11   -1    0    0    0    0  0.00000000000E+00  0.00000000000E+00  0.45593999997E+02  0.45594000000E+02  0.51100000000E-03 0. -1.
         11   -1    0    0    0    0 -0.00000000000E+00 -0.00000000000E+00 -0.45593999997E+02  0.45594000000E+02  0.51100000000E-03 0.  1.
    9900012    2    1    2    0    0 -0.13829445712E+02 -0.33629524321E+01 -0.41000733366E+02  0.47787272421E+02  0.20000006278E+02 0.  0.
         12    1    1    2    0    0  0.13829445712E+02  0.33629524321E+01  0.41000733366E+02  0.43400727579E+02  0.00000000000E+00 0. -1.
         11    1    3    3    0    0 -0.23832249862E+01 -0.19129384492E+01  0.13263866904E+01  0.33314256346E+01  0.51100000000E-03 0. -1.
        -11    1    3    3    0    0 -0.84884099817E+00  0.21375453187E+01 -0.95030025293E+01  0.97773558984E+01  0.51100000000E-03 0.  1.
        -12    1    3    3    0    0 -0.10597379728E+02 -0.35875593016E+01 -0.32824117528E+02  0.34678490888E+02  0.00000000000E+00 0.  1.
</event>
<event>
 7    1  0.2492468E-009  0.4778727E+02  0.7816164E-02  0.1312668E+00
        -11   -1    0    0    0    0  0.00000000000E+00  0.00000000000E+00  0.45593999997E+02  0.45594000000E+02  0.51100000000E-03 0. -1.
         11   -1    0    0    0    0 -0.00000000000E+00 -0.00000000000E+00 -0.45593999997E+02  0.45594000000E+02  0.51100000000E-03 0.  1.
    9900012    2    1    2    0    0  0.33008010404E+02  0.93894221343E+01 -0.26569402486E+02  0.47787272502E+02  0.20000006646E+02 0.  0.
         12    1    1    2    0    0 -0.33008010404E+02 -0.93894221343E+01  0.26569402486E+02  0.43400727498E+02  0.00000000000E+00 0. -1.
         11    1    3    3    0    0 -0.23949677320E+00 -0.10558947502E+01  0.13201273311E+01  0.17073397023E+01  0.51100000000E-03 0. -1.
        -11    1    3    3    0    0  0.45406422317E+01 -0.22692903633E+01 -0.57056792081E+01  0.76368767253E+01  0.51100000000E-03 0.  1.
        -12    1    3    3    0    0  0.28706864946E+02  0.12714607248E+02 -0.22183850609E+02  0.38443056074E+02  0.00000000000E+00 0.  1.
</event>
<event>
 7    1  0.2492468E-009  0.4778727E+02  0.7816164E-02  0.1312668E+00
        -11   -1    0    0    0    0  0.00000000000E+00  0.00000000000E+00  0.45593999997E+02  0.45594000000E+02  0.51100000000E-03 0.  1.
         11   -1    0    0    0    0 -0.00000000000E+00 -0.00000000000E+00 -0.45593999997E+02  0.45594000000E+02  0.51100000000E-03 0. -1.
    9900012    2    1    2    0    0  0.23887591604E+02 -0.18250197151E+02  0.31303933106E+02  0.47787274700E+02  0.20000016666E+02 0.  0.
         12    1    1    2    0    0 -0.23887591604E+02  0.18250197151E+02 -0.31303933106E+02  0.43400725300E+02  0.00000000000E+00 0. -1.
         11    1    3    3    0    0  0.13007078423E-01 -0.31473260430E+01  0.75221977653E+00  0.32359952500E+01  0.51100000000E-03 0. -1.
        -11    1    3    3    0    0 -0.79476700145E+00 -0.60521147339E+01  0.66946395459E+01  0.90596879775E+01  0.51100000000E-03 0.  1.
         12    1    3    3    0    0  0.24669351527E+02 -0.90507563738E+01  0.23857073784E+02  0.35491591472E+02  0.00000000000E+00 0. -1.
</event>
<event>
 7    1  0.2492468E-009  0.4778727E+02  0.7816164E-02  0.1312668E+00
        -11   -1    0    0    0    0  0.00000000000E+00  0.00000000000E+00  0.45593999997E+02  0.45594000000E+02  0.51100000000E-03 0.  1.
         11   -1    0    0    0    0 -0.00000000000E+00 -0.00000000000E+00 -0.45593999997E+02  0.45594000000E+02  0.51100000000E-03 0. -1.
    9900012    2    1    2    0    0  0.73105142354E+01  0.22767921678E+02  0.36218798815E+02  0.47787271164E+02  0.20000000546E+02 0.  0.
         12    1    1    2    0    0 -0.73105142354E+01 -0.22767921678E+02 -0.36218798815E+02  0.43400728836E+02  0.00000000000E+00 0. -1.
         11    1    3    3    0    0 -0.12414847036E+01  0.98369780883E+01  0.22128713808E+02  0.24248451440E+02  0.51100000000E-03 0. -1.
        -11    1    3    3    0    0  0.28334712021E-01  0.70004047647E+00  0.69924864908E+01  0.70274979267E+01  0.51100000000E-03 0.  1.
         12    1    3    3    0    0  0.85236642269E+01  0.12230903113E+02  0.70975985161E+01  0.16511321798E+02  0.00000000000E+00 0. -1.
</event>
<event>
 7    1  0.2492468E-009  0.4778727E+02  0.7816164E-02  0.1312668E+00
        -11   -1    0    0    0    0  0.00000000000E+00  0.00000000000E+00  0.45593999997E+02  0.45594000000E+02  0.51100000000E-03 0. -1.
         11   -1    0    0    0    0 -0.00000000000E+00 -0.00000000000E+00 -0.45593999997E+02  0.45594000000E+02  0.51100000000E-03 0.  1.
    9900012    2    1    2    0    0 -0.36944968788E+02 -0.89096234196E+01 -0.20959762707E+02  0.47787265433E+02  0.19999974417E+02 0.  0.
         12    1    1    2    0    0  0.36944968788E+02  0.89096234196E+01  0.20959762707E+02  0.43400734567E+02  0.00000000000E+00 0. -1.
         11    1    3    3    0    0 -0.62379594156E+01 -0.12447784305E+01  0.43413052824E+00  0.63757415716E+01  0.51100000000E-03 0. -1.
        -11    1    3    3    0    0 -0.32457563857E+02 -0.69223168457E+01 -0.18636963145E+02  0.38062426585E+02  0.51100000000E-03 0.  1.
         12    1    3    3    0    0  0.17505544845E+01 -0.74252814342E+00 -0.27569300898E+01  0.33490972764E+01  0.00000000000E+00 0. -1.
</event>
<event>
 7    1  0.2492468E-009  0.4778727E+02  0.7816164E-02  0.1312668E+00
        -11   -1    0    0    0    0  0.00000000000E+00  0.00000000000E+00  0.45593999997E+02  0.45594000000E+02  0.51100000000E-03 0.  1.
         11   -1    0    0    0    0 -0.00000000000E+00 -0.00000000000E+00 -0.45593999997E+02  0.45594000000E+02  0.51100000000E-03 0. -1.
    9900012    2    1    2    0    0  0.94745230827E+01 -0.37867585876E+02  0.18971096168E+02  0.47787272615E+02  0.20000007162E+02 0.  0.
         12    1    1    2    0    0 -0.94745230827E+01  0.37867585876E+02 -0.18971096168E+02  0.43400727385E+02  0.00000000000E+00 0. -1.
         11    1    3    3    0    0 -0.22120154497E+00 -0.10822557937E+02  0.43649397290E+01  0.11671734640E+02  0.51100000000E-03 0.  1.
        -11    1    3    3    0    0  0.84171601559E+01 -0.16508269837E+02  0.59742713430E+00  0.18539915791E+02  0.51100000000E-03 0. -1.
         12    1    3    3    0    0  0.12785644717E+01 -0.10536758102E+02  0.14008729304E+02  0.17575622184E+02  0.00000000000E+00 0. -1.
</event>
<event>
 7    1  0.2492468E-009  0.4778730E+02  0.7816164E-02  0.1312668E+00
        -11   -1    0    0    0    0  0.00000000000E+00  0.00000000000E+00  0.45593999997E+02  0.45594000000E+02  0.51100000000E-03 0. -1.
         11   -1    0    0    0    0 -0.00000000000E+00 -0.00000000000E+00 -0.45593999997E+02  0.45594000000E+02  0.51100000000E-03 0.  1.
    9900012    2    1    2    0    0  0.13479585676E+02 -0.14815573007E+02 -0.38502214360E+02  0.47787297884E+02  0.20000122372E+02 0.  0.
         12    1    1    2    0    0 -0.13479585676E+02  0.14815573007E+02  0.38502214360E+02  0.43400702116E+02  0.00000000000E+00 0. -1.
         11    1    3    3    0    0  0.72348126526E+01 -0.73694175616E+01 -0.13948798772E+02  0.17355685430E+02  0.51100000000E-03 0. -1.
        -11    1    3    3    0    0  0.19385649576E+01 -0.11734249874E+02 -0.15824972032E+02  0.19795969143E+02  0.51100000000E-03 0.  1.
         12    1    3    3    0    0  0.43062080661E+01  0.42880944285E+01 -0.87284435559E+01  0.10635643311E+02  0.00000000000E+00 0. -1.
</event>
<event>
 7    1  0.2492468E-009  0.4778727E+02  0.7816164E-02  0.1312668E+00
        -11   -1    0    0    0    0  0.00000000000E+00  0.00000000000E+00  0.45593999997E+02  0.45594000000E+02  0.51100000000E-03 0.  1.
         11   -1    0    0    0    0 -0.00000000000E+00 -0.00000000000E+00 -0.45593999997E+02  0.45594000000E+02  0.51100000000E-03 0. -1.
    9900012    2    1    2    0    0  0.10902001961E+02  0.30345692696E+02  0.29050104357E+02  0.47787271030E+02  0.19999999935E+02 0.  0.
         12    1    1    2    0    0 -0.10902001961E+02 -0.30345692696E+02 -0.29050104357E+02  0.43400728970E+02  0.00000000000E+00 0. -1.
         11    1    3    3    0    0  0.67050899742E+01  0.10967095728E+02  0.94365053020E+01  0.15946255136E+02  0.51100000000E-03 0. -1.
        -11    1    3    3    0    0  0.93475230473E+01  0.81040496165E+01  0.12317747373E+02  0.17457912473E+02  0.51100000000E-03 0.  1.
         12    1    3    3    0    0 -0.51506110603E+01  0.11274547351E+02  0.72958516815E+01  0.14383103421E+02  0.00000000000E+00 0. -1.
</event>
<event>
 7    1  0.2492468E-009  0.4778727E+02  0.7816164E-02  0.1312668E+00
        -11   -1    0    0    0    0  0.00000000000E+00  0.00000000000E+00  0.45593999997E+02  0.45594000000E+02  0.51100000000E-03 0. -1.
         11   -1    0    0    0    0 -0.00000000000E+00 -0.00000000000E+00 -0.45593999997E+02  0.45594000000E+02  0.51100000000E-03 0.  1.
    9900012    2    1    2    0    0  0.80339737572E+01  0.19556459242E+02 -0.37902816615E+02  0.47787270286E+02  0.19999996540E+02 0.  0.
         12    1    1    2    0    0 -0.80339737572E+01 -0.19556459242E+02  0.37902816615E+02  0.43400729714E+02  0.00000000000E+00 0. -1.
         11    1    3    3    0    0 -0.29245419892E+01  0.13906025925E+02 -0.12079741518E+02  0.18650754898E+02  0.51100000000E-03 0. -1.
        -11    1    3    3    0    0  0.46492649620E+01  0.53555567213E+01 -0.15292552061E+02  0.16857040110E+02  0.51100000000E-03 0.  1.
        -12    1    3    3    0    0  0.63092507845E+01  0.29487659533E+00 -0.10530523036E+02  0.12279475277E+02  0.00000000000E+00 0.  1.
</event>
<event>
 7    1  0.2492468E-009  0.4778727E+02  0.7816164E-02  0.1312668E+00
        -11   -1    0    0    0    0  0.00000000000E+00  0.00000000000E+00  0.45593999997E+02  0.45594000000E+02  0.51100000000E-03 0.  1.
         11   -1    0    0    0    0 -0.00000000000E+00 -0.00000000000E+00 -0.45593999997E+02  0.45594000000E+02  0.51100000000E-03 0. -1.
    9900012    2    1    2    0    0  0.23939349820E+01  0.42466827023E+02  0.86291046306E+01  0.47787265342E+02  0.19999974002E+02 0.  0.
         12    1    1    2    0    0 -0.23939349820E+01 -0.42466827023E+02 -0.86291046306E+01  0.43400734658E+02  0.00000000000E+00 0. -1.
         11    1    3    3    0    0  0.24926887672E-01  0.78702266161E+01  0.36550342839E+01  0.86775782460E+01  0.51100000000E-03 0. -1.
        -11    1    3    3    0    0  0.63302876596E+01  0.32121277426E+02  0.77931372424E+01  0.33653855554E+02  0.51100000000E-03 0.  1.
         12    1    3    3    0    0 -0.39612795652E+01  0.24753229811E+01 -0.28190668957E+01  0.54558315422E+01  0.00000000000E+00 0. -1.
</event>
<event>
 7    1  0.2492468E-009  0.4778727E+02  0.7816164E-02  0.1312668E+00
        -11   -1    0    0    0    0  0.00000000000E+00  0.00000000000E+00  0.45593999997E+02  0.45594000000E+02  0.51100000000E-03 0.  1.
         11   -1    0    0    0    0 -0.00000000000E+00 -0.00000000000E+00 -0.45593999997E+02  0.45594000000E+02  0.51100000000E-03 0. -1.
    9900012    2    1    2    0    0 -0.41591388131E+02  0.16535592567E+01  0.12290060705E+02  0.47787269395E+02  0.19999992481E+02 0.  0.
         12    1    1    2    0    0  0.41591388131E+02 -0.16535592567E+01 -0.12290060705E+02  0.43400730605E+02  0.00000000000E+00 0. -1.
         11    1    3    3    0    0 -0.15110030508E+02 -0.63414963517E+01  0.85083413542E+01  0.18464004733E+02  0.51100000000E-03 0. -1.
        -11    1    3    3    0    0 -0.23107405666E+01  0.37719149263E+01 -0.36529591152E+00  0.44385026238E+01  0.51100000000E-03 0.  1.
        -12    1    3    3    0    0 -0.24170617057E+02  0.42231406821E+01  0.41470152624E+01  0.24884762039E+02  0.00000000000E+00 0.  1.
</event>
<event>
 7    1  0.2492468E-009  0.4778727E+02  0.7816164E-02  0.1312668E+00
        -11   -1    0    0    0    0  0.00000000000E+00  0.00000000000E+00  0.45593999997E+02  0.45594000000E+02  0.51100000000E-03 0.  1.
         11   -1    0    0    0    0 -0.00000000000E+00 -0.00000000000E+00 -0.45593999997E+02  0.45594000000E+02  0.51100000000E-03 0. -1.
    9900012    2    1    2    0    0 -0.56142083064E+01  0.79012819785E+01  0.42304540845E+02  0.47787265353E+02  0.19999974051E+02 0.  0.
         12    1    1    2    0    0  0.56142083064E+01 -0.79012819785E+01 -0.42304540845E+02  0.43400734647E+02  0.00000000000E+00 0. -1.
         11    1    3    3    0    0 -0.30142983380E+01  0.51753729813E+01  0.17909511120E+01  0.62512387663E+01  0.51100000000E-03 0. -1.
        -11    1    3    3    0    0 -0.34978559782E+01  0.36456606843E+01  0.12354857480E+02  0.13347971451E+02  0.51100000000E-03 0.  1.
         12    1    3    3    0    0  0.89794600980E+00 -0.91975168719E+00  0.28158732253E+02  0.28188055135E+02  0.00000000000E+00 0. -1.
</event>
<event>
 7    1  0.2492468E-009  0.4778725E+02  0.7816164E-02  0.1312668E+00
        -11   -1    0    0    0    0  0.00000000000E+00  0.00000000000E+00  0.45593999997E+02  0.45594000000E+02  0.51100000000E-03 0. -1.
         11   -1    0    0    0    0 -0.00000000000E+00 -0.00000000000E+00 -0.45593999997E+02  0.45594000000E+02  0.51100000000E-03 0.  1.
    9900012    2    1    2    0    0  0.40236161217E+02  0.11665173234E+02 -0.11340210900E+02  0.47787247480E+02  0.19999892560E+02 0.  0.
         12    1    1    2    0    0 -0.40236161217E+02 -0.11665173234E+02  0.11340210900E+02  0.43400752520E+02  0.00000000000E+00 0. -1.
         11    1    3    3    0    0  0.14624727609E+02  0.67611421162E+01 -0.31254788410E+01  0.16412322158E+02  0.51100000000E-03 0.  1.
        -11    1    3    3    0    0  0.23960557239E+02 -0.11665298053E+01 -0.64382310106E+01  0.24837872570E+02  0.51100000000E-03 0. -1.
         12    1    3    3    0    0  0.16508763681E+01  0.60705609235E+01 -0.17765010481E+01  0.65370527520E+01  0.00000000000E+00 0. -1.
</event>
<event>
 7    1  0.2492468E-009  0.4778727E+02  0.7816164E-02  0.1312668E+00
        -11   -1    0    0    0    0  0.00000000000E+00  0.00000000000E+00  0.45593999997E+02  0.45594000000E+02  0.51100000000E-03 0.  1.
         11   -1    0    0    0    0 -0.00000000000E+00 -0.00000000000E+00 -0.45593999997E+02  0.45594000000E+02  0.51100000000E-03 0. -1.
    9900012    2    1    2    0    0 -0.25869853257E+02 -0.33821952265E+02  0.83934256012E+01  0.47787270100E+02  0.19999995694E+02 0.  0.
         12    1    1    2    0    0  0.25869853257E+02  0.33821952265E+02 -0.83934256012E+01  0.43400729900E+02  0.00000000000E+00 0. -1.
         11    1    3    3    0    0 -0.14324897448E+02 -0.13145251789E+02  0.34935682960E+01  0.19753616154E+02  0.51100000000E-03 0. -1.
        -11    1    3    3    0    0 -0.13447908423E+02 -0.17422724449E+02  0.77223597882E+01  0.23324502334E+02  0.51100000000E-03 0.  1.
         12    1    3    3    0    0  0.19029526134E+01 -0.32539760270E+01 -0.28225024830E+01  0.47091516115E+01  0.00000000000E+00 0. -1.
</event>
<event>
 7    1  0.2492468E-009  0.4778730E+02  0.7816164E-02  0.1312668E+00
        -11   -1    0    0    0    0  0.00000000000E+00  0.00000000000E+00  0.45593999997E+02  0.45594000000E+02  0.51100000000E-03 0.  1.
         11   -1    0    0    0    0 -0.00000000000E+00 -0.00000000000E+00 -0.45593999997E+02  0.45594000000E+02  0.51100000000E-03 0. -1.
    9900012    2    1    2    0    0 -0.21396239602E+02  0.35605320542E+02  0.12573103158E+02  0.47787299049E+02  0.20000127683E+02 0.  0.
         12    1    1    2    0    0  0.21396239602E+02 -0.35605320542E+02 -0.12573103158E+02  0.43400700951E+02  0.00000000000E+00 0. -1.
         11    1    3    3    0    0 -0.31026129181E+01  0.55606982699E+01 -0.88601102390E+00  0.64290425387E+01  0.51100000000E-03 0. -1.
        -11    1    3    3    0    0 -0.21235054700E+02  0.29077867715E+02  0.12222091641E+02  0.38024064266E+02  0.51100000000E-03 0.  1.
         12    1    3    3    0    0  0.29414280165E+01  0.96675455701E+00  0.12370225413E+01  0.33341922437E+01  0.00000000000E+00 0. -1.
</event>
<event>
 7    1  0.2492468E-009  0.4778727E+02  0.7816164E-02  0.1312668E+00
        -11   -1    0    0    0    0  0.00000000000E+00  0.00000000000E+00  0.45593999997E+02  0.45594000000E+02  0.51100000000E-03 0. -1.
         11   -1    0    0    0    0 -0.00000000000E+00 -0.00000000000E+00 -0.45593999997E+02  0.45594000000E+02  0.51100000000E-03 0.  1.
    9900012    2    1    2    0    0 -0.22956734544E+02 -0.35784688653E+02 -0.87216902286E+01  0.47787268631E+02  0.19999988998E+02 0.  0.
         12    1    1    2    0    0  0.22956734544E+02  0.35784688653E+02  0.87216902286E+01  0.43400731369E+02  0.00000000000E+00 0. -1.
         11    1    3    3    0    0 -0.91808633784E+01 -0.16659124473E+02 -0.72776625748E+01  0.20366125144E+02  0.51100000000E-03 0.  1.
        -11    1    3    3    0    0 -0.59626026970E+01 -0.10640852661E+01 -0.44473703834E+01  0.75142539193E+01  0.51100000000E-03 0. -1.
        -12    1    3    3    0    0 -0.78132684686E+01 -0.18061478913E+02  0.30033427296E+01  0.19906889568E+02  0.00000000000E+00 0.  1.
</event>
<event>
 7    1  0.2492468E-009  0.4778728E+02  0.7816164E-02  0.1312668E+00
        -11   -1    0    0    0    0  0.00000000000E+00  0.00000000000E+00  0.45593999997E+02  0.45594000000E+02  0.51100000000E-03 0. -1.
         11   -1    0    0    0    0 -0.00000000000E+00 -0.00000000000E+00 -0.45593999997E+02  0.45594000000E+02  0.51100000000E-03 0.  1.
    9900012    2    1    2    0    0  0.35768484592E+02  0.18309184464E+02 -0.16401591022E+02  0.47787275193E+02  0.20000018914E+02 0.  0.
         12    1    1    2    0    0 -0.35768484592E+02 -0.18309184464E+02  0.16401591022E+02  0.43400724807E+02  0.00000000000E+00 0. -1.
         11    1    3    3    0    0  0.18792314091E+01  0.73453655379E+01 -0.26047163735E+01  0.80168855064E+01  0.51100000000E-03 0. -1.
        -11    1    3    3    0    0  0.10175682272E+02  0.67819662410E+01 -0.44465865698E+00  0.12236719224E+02  0.51100000000E-03 0.  1.
        -12    1    3    3    0    0  0.23713570911E+02  0.41818526850E+01 -0.13352215992E+02  0.27533670462E+02  0.00000000000E+00 0.  1.
</event>
<event>
 7    1  0.2492468E-009  0.4778727E+02  0.7816164E-02  0.1312668E+00
        -11   -1    0    0    0    0  0.00000000000E+00  0.00000000000E+00  0.45593999997E+02  0.45594000000E+02  0.51100000000E-03 0. -1.
         11   -1    0    0    0    0 -0.00000000000E+00 -0.00000000000E+00 -0.45593999997E+02  0.45594000000E+02  0.51100000000E-03 0.  1.
    9900012    2    1    2    0    0 -0.42035405556E+02 -0.10180226218E+02  0.36070836549E+01  0.47787269837E+02  0.19999994497E+02 0.  0.
         12    1    1    2    0    0  0.42035405556E+02  0.10180226218E+02 -0.36070836549E+01  0.43400730163E+02  0.00000000000E+00 0. -1.
         11    1    3    3    0    0 -0.84100245508E+01  0.36571556176E+01  0.25162215967E+01  0.95097145878E+01  0.51100000000E-03 0. -1.
        -11    1    3    3    0    0 -0.17256894004E+02 -0.27799957763E+01  0.49154964746E+01  0.18157391691E+02  0.51100000000E-03 0.  1.
         12    1    3    3    0    0 -0.16368487002E+02 -0.11057386060E+02 -0.38246344164E+01  0.20120163559E+02  0.00000000000E+00 0. -1.
</event>
<event>
 7    1  0.3140475E-009  0.4778729E+02  0.7816164E-02  0.1312668E+00
        -11   -1    0    0    0    0  0.00000000000E+00  0.00000000000E+00  0.45593999997E+02  0.45594000000E+02  0.51100000000E-03 0.  1.
         11   -1    0    0    0    0 -0.00000000000E+00 -0.00000000000E+00 -0.45593999997E+02  0.45594000000E+02  0.51100000000E-03 0. -1.
    9900012    2    1    2    0    0  0.65389791199E+01  0.39721218381E+02  0.16220003272E+02  0.47787286368E+02  0.20000069867E+02 0.  0.
         12    1    1    2    0    0 -0.65389791199E+01 -0.39721218381E+02 -0.16220003272E+02  0.43400713632E+02  0.00000000000E+00 0. -1.
         11    1    3    3    0    0 -0.19629092642E+01  0.15470738027E+01  0.45355788661E+01  0.51786027113E+01  0.51100000000E-03 0. -1.
        -11    1    3    3    0    0  0.40971631927E+01  0.21580830788E+02  0.12766307278E+02  0.25406644909E+02  0.51100000000E-03 0.  1.
         12    1    3    3    0    0  0.44047251914E+01  0.16593313790E+02 -0.10818828722E+01  0.17202038748E+02  0.00000000000E+00 0. -1.
</event>
<event>
 7    1  0.2492468E-009  0.4778728E+02  0.7816164E-02  0.1312668E+00
        -11   -1    0    0    0    0  0.00000000000E+00  0.00000000000E+00  0.45593999997E+02  0.45594000000E+02  0.51100000000E-03 0.  1.
         11   -1    0    0    0    0 -0.00000000000E+00 -0.00000000000E+00 -0.45593999997E+02  0.45594000000E+02  0.51100000000E-03 0. -1.
    9900012    2    1    2    0    0  0.15352821657E+02  0.16007168584E+02  0.37305282113E+02  0.47787278203E+02  0.20000032640E+02 0.  0.
         12    1    1    2    0    0 -0.15352821657E+02 -0.16007168584E+02 -0.37305282113E+02  0.43400721797E+02  0.00000000000E+00 0. -1.
         11    1    3    3    0    0  0.79779640013E+00  0.31860983415E+01 -0.99333179142E-01  0.32859654715E+01  0.51100000000E-03 0. -1.
        -11    1    3    3    0    0  0.96663412248E+01  0.11309484526E+02  0.13613280238E+02  0.20165911634E+02  0.51100000000E-03 0.  1.
        -12    1    3    3    0    0  0.48886840321E+01  0.15115857165E+01  0.23791335054E+02  0.24335401098E+02  0.00000000000E+00 0.  1.
</event>
<event>
 7    1  0.2492468E-009  0.4778727E+02  0.7816164E-02  0.1312668E+00
        -11   -1    0    0    0    0  0.00000000000E+00  0.00000000000E+00  0.45593999997E+02  0.45594000000E+02  0.51100000000E-03 0. -1.
         11   -1    0    0    0    0 -0.00000000000E+00 -0.00000000000E+00 -0.45593999997E+02  0.45594000000E+02  0.51100000000E-03 0.  1.
    9900012    2    1    2    0    0  0.72859625318E+01 -0.23936138231E+02 -0.35462649539E+02  0.47787268719E+02  0.19999989398E+02 0.  0.
         12    1    1    2    0    0 -0.72859625318E+01  0.23936138231E+02  0.35462649539E+02  0.43400731281E+02  0.00000000000E+00 0. -1.
         11    1    3    3    0    0 -0.23762332940E+00 -0.42571459359E+01 -0.10676717199E+02  0.11496610230E+02  0.51100000000E-03 0. -1.
        -11    1    3    3    0    0 -0.25798911267E+01 -0.43264267022E+00 -0.91433726006E+01  0.95102198019E+01  0.51100000000E-03 0.  1.
         12    1    3    3    0    0  0.10103476988E+02 -0.19246349624E+02 -0.15642559739E+02  0.26780438688E+02  0.00000000000E+00 0. -1.
</event>
<event>
 7    1  0.2492468E-009  0.4778727E+02  0.7816164E-02  0.1312668E+00
        -11   -1    0    0    0    0  0.00000000000E+00  0.00000000000E+00  0.45593999997E+02  0.45594000000E+02  0.51100000000E-03 0.  1.
         11   -1    0    0    0    0 -0.00000000000E+00 -0.00000000000E+00 -0.45593999997E+02  0.45594000000E+02  0.51100000000E-03 0. -1.
    9900012    2    1    2    0    0  0.11044197112E+01  0.95043108450E+01  0.42332864407E+02  0.47787273319E+02  0.20000010372E+02 0.  0.
         12    1    1    2    0    0 -0.11044197112E+01 -0.95043108450E+01 -0.42332864407E+02  0.43400726681E+02  0.00000000000E+00 0. -1.
         11    1    3    3    0    0 -0.24294176528E+01  0.82877512978E+01  0.12619561944E+02  0.15291900982E+02  0.51100000000E-03 0. -1.
        -11    1    3    3    0    0 -0.18094723726E+01  0.58249239869E+01  0.13766951919E+02  0.15057652378E+02  0.51100000000E-03 0.  1.
         12    1    3    3    0    0  0.53433097366E+01 -0.46083644397E+01  0.15946350543E+02  0.17437719960E+02  0.00000000000E+00 0. -1.
</event>
<event>
 7    1  0.2492468E-009  0.4778726E+02  0.7816164E-02  0.1312668E+00
        -11   -1    0    0    0    0  0.00000000000E+00  0.00000000000E+00  0.45593999997E+02  0.45594000000E+02  0.51100000000E-03 0.  1.
         11   -1    0    0    0    0 -0.00000000000E+00 -0.00000000000E+00 -0.45593999997E+02  0.45594000000E+02  0.51100000000E-03 0. -1.
    9900012    2    1    2    0    0 -0.47164728141E+00  0.11855032193E+01  0.43381978691E+02  0.47787263322E+02  0.19999964790E+02 0.  0.
         12    1    1    2    0    0  0.47164728141E+00 -0.11855032193E+01 -0.43381978691E+02  0.43400736678E+02  0.00000000000E+00 0. -1.
         11    1    3    3    0    0  0.52375160863E+00  0.44079285826E+00  0.24565984468E+02  0.24575520487E+02  0.51100000000E-03 0.  1.
        -11    1    3    3    0    0 -0.28443102065E+01  0.67384736252E+01  0.98023967145E+01  0.12230458248E+02  0.51100000000E-03 0. -1.
         12    1    3    3    0    0  0.18489113165E+01 -0.59937632641E+01  0.90135975088E+01  0.10981284587E+02  0.00000000000E+00 0. -1.
</event>
<event>
 7    1  0.2492468E-009  0.4778727E+02  0.7816164E-02  0.1312668E+00
        -11   -1    0    0    0    0  0.00000000000E+00  0.00000000000E+00  0.45593999997E+02  0.45594000000E+02  0.51100000000E-03 0. -1.
         11   -1    0    0    0    0 -0.00000000000E+00 -0.00000000000E+00 -0.45593999997E+02  0.45594000000E+02  0.51100000000E-03 0.  1.
    9900012    2    1    2    0    0 -0.10050910615E+02  0.19515914479E+02 -0.37439704382E+02  0.47787272053E+02  0.20000004598E+02 0.  0.
         12    1    1    2    0    0  0.10050910615E+02 -0.19515914479E+02  0.37439704382E+02  0.43400727947E+02  0.00000000000E+00 0. -1.
         11    1    3    3    0    0  0.27347680956E+01  0.76547753979E+00 -0.36902257223E+01  0.46564663150E+01  0.51100000000E-03 0. -1.
        -11    1    3    3    0    0 -0.69972135473E+01 -0.23816027267E+00 -0.91007758147E+01  0.11482240131E+02  0.51100000000E-03 0.  1.
        -12    1    3    3    0    0 -0.57884651636E+01  0.18988597212E+02 -0.24648702845E+02  0.31648565607E+02  0.00000000000E+00 0.  1.
</event>
<event>
 7    1  0.2492468E-009  0.4778727E+02  0.7816164E-02  0.1312668E+00
        -11   -1    0    0    0    0  0.00000000000E+00  0.00000000000E+00  0.45593999997E+02  0.45594000000E+02  0.51100000000E-03 0.  1.
         11   -1    0    0    0    0 -0.00000000000E+00 -0.00000000000E+00 -0.45593999997E+02  0.45594000000E+02  0.51100000000E-03 0. -1.
    9900012    2    1    2    0    0  0.30835641397E+02  0.17223036275E+02  0.25222088976E+02  0.47787268080E+02  0.19999986484E+02 0.  0.
         12    1    1    2    0    0 -0.30835641397E+02 -0.17223036275E+02 -0.25222088976E+02  0.43400731920E+02  0.00000000000E+00 0. -1.
         11    1    3    3    0    0  0.10530582759E+02  0.33472531149E+01  0.74270571196E+01  0.13313844463E+02  0.51100000000E-03 0. -1.
        -11    1    3    3    0    0  0.17148484346E+02  0.98781147757E+01  0.20676636271E+02  0.28621162706E+02  0.51100000000E-03 0.  1.
         12    1    3    3    0    0  0.31565742923E+01  0.39976683845E+01 -0.28816044147E+01  0.58522609116E+01  0.00000000000E+00 0. -1.
</event>
<event>
 7    1  0.2492468E-009  0.4778727E+02  0.7816164E-02  0.1312668E+00
        -11   -1    0    0    0    0  0.00000000000E+00  0.00000000000E+00  0.45593999997E+02  0.45594000000E+02  0.51100000000E-03 0. -1.
         11   -1    0    0    0    0 -0.00000000000E+00 -0.00000000000E+00 -0.45593999997E+02  0.45594000000E+02  0.51100000000E-03 0.  1.
    9900012    2    1    2    0    0  0.68343808043E+00 -0.38798592163E+02  0.19437735141E+02  0.47787269720E+02  0.19999993959E+02 0.  0.
         12    1    1    2    0    0 -0.68343808043E+00  0.38798592163E+02 -0.19437735141E+02  0.43400730280E+02  0.00000000000E+00 0. -1.
         11    1    3    3    0    0  0.48157429600E+01 -0.77633225061E+01  0.71003937482E+01  0.11570486084E+02  0.51100000000E-03 0. -1.
        -11    1    3    3    0    0  0.28306871592E+01 -0.68785079125E+01  0.75997305270E+01  0.10634028646E+02  0.51100000000E-03 0.  1.
        -12    1    3    3    0    0 -0.69629920387E+01 -0.24156761745E+02  0.47376108655E+01  0.25582754989E+02  0.00000000000E+00 0.  1.
</event>
<event>
 7    1  0.2492468E-009  0.4778727E+02  0.7816164E-02  0.1312668E+00
        -11   -1    0    0    0    0  0.00000000000E+00  0.00000000000E+00  0.45593999997E+02  0.45594000000E+02  0.51100000000E-03 0.  1.
         11   -1    0    0    0    0 -0.00000000000E+00 -0.00000000000E+00 -0.45593999997E+02  0.45594000000E+02  0.51100000000E-03 0. -1.
    9900012    2    1    2    0    0 -0.17676150470E+02 -0.19015108679E+02  0.34779344144E+02  0.47787269216E+02  0.19999991663E+02 0.  0.
         12    1    1    2    0    0  0.17676150470E+02  0.19015108679E+02 -0.34779344144E+02  0.43400730784E+02  0.00000000000E+00 0. -1.
         11    1    3    3    0    0  0.42405507859E+00  0.11546904434E+01  0.23089099861E+01  0.26161418759E+01  0.51100000000E-03 0. -1.
        -11    1    3    3    0    0 -0.15478864070E+02 -0.79896854936E+01  0.25538629433E+02  0.30913619987E+02  0.51100000000E-03 0.  1.
         12    1    3    3    0    0 -0.26213414794E+01 -0.12180113629E+02  0.69318047250E+01  0.14257507353E+02  0.00000000000E+00 0. -1.
</event>
<event>
 7    1  0.2492468E-009  0.4778727E+02  0.7816164E-02  0.1312668E+00
        -11   -1    0    0    0    0  0.00000000000E+00  0.00000000000E+00  0.45593999997E+02  0.45594000000E+02  0.51100000000E-03 0.  1.
         11   -1    0    0    0    0 -0.00000000000E+00 -0.00000000000E+00 -0.45593999997E+02  0.45594000000E+02  0.51100000000E-03 0. -1.
    9900012    2    1    2    0    0  0.10082145771E+02  0.15486775876E+02  0.39270005436E+02  0.47787271696E+02  0.20000002970E+02 0.  0.
         12    1    1    2    0    0 -0.10082145771E+02 -0.15486775876E+02 -0.39270005436E+02  0.43400728304E+02  0.00000000000E+00 0. -1.
         11    1    3    3    0    0  0.74165160791E+01  0.91826611143E+01  0.94434501518E+01  0.15116372810E+02  0.51100000000E-03 0. -1.
        -11    1    3    3    0    0  0.68007798580E+01  0.19518445407E+01  0.12926111005E+02  0.14735828778E+02  0.51100000000E-03 0.  1.
         12    1    3    3    0    0 -0.41351501659E+01  0.43522702214E+01  0.16900444279E+02  0.17935070108E+02  0.00000000000E+00 0. -1.
</event>
<event>
 7    1  0.2492468E-009  0.4778727E+02  0.7816164E-02  0.1312668E+00
        -11   -1    0    0    0    0  0.00000000000E+00  0.00000000000E+00  0.45593999997E+02  0.45594000000E+02  0.51100000000E-03 0.  1.
         11   -1    0    0    0    0 -0.00000000000E+00 -0.00000000000E+00 -0.45593999997E+02  0.45594000000E+02  0.51100000000E-03 0. -1.
    9900012    2    1    2    0    0 -0.22749414933E+02  0.12050869716E+02  0.34940862992E+02  0.47787271350E+02  0.20000001394E+02 0.  0.
         12    1    1    2    0    0  0.22749414933E+02 -0.12050869716E+02 -0.34940862992E+02  0.43400728650E+02  0.00000000000E+00 0. -1.
         11    1    3    3    0    0  0.61769936525E+00 -0.24713427764E+01  0.38337830347E+00  0.25760564453E+01  0.51100000000E-03 0. -1.
        -11    1    3    3    0    0 -0.18528439653E+01  0.46634999626E+01  0.33017746259E+01  0.60069109035E+01  0.51100000000E-03 0.  1.
        -12    1    3    3    0    0 -0.21514270333E+02  0.98587125293E+01  0.31255710063E+02  0.39204304001E+02  0.00000000000E+00 0.  1.
</event>
<event>
 7    1  0.2492468E-009  0.4778727E+02  0.7816164E-02  0.1312668E+00
        -11   -1    0    0    0    0  0.00000000000E+00  0.00000000000E+00  0.45593999997E+02  0.45594000000E+02  0.51100000000E-03 0.  1.
         11   -1    0    0    0    0 -0.00000000000E+00 -0.00000000000E+00 -0.45593999997E+02  0.45594000000E+02  0.51100000000E-03 0. -1.
    9900012    2    1    2    0    0 -0.34899634985E+02 -0.24714372249E+02  0.74053109321E+01  0.47787270193E+02  0.19999996119E+02 0.  0.
         12    1    1    2    0    0  0.34899634985E+02  0.24714372249E+02 -0.74053109321E+01  0.43400729807E+02  0.00000000000E+00 0. -1.
         11    1    3    3    0    0 -0.26981520286E+01 -0.14459119034E+01 -0.17230275470E+01  0.35127638393E+01  0.51100000000E-03 0. -1.
        -11    1    3    3    0    0 -0.17453629164E+02 -0.26467948477E+01  0.63916824460E+01  0.18774671734E+02  0.51100000000E-03 0.  1.
        -12    1    3    3    0    0 -0.14747853792E+02 -0.20621665498E+02  0.27366560332E+01  0.25499834620E+02  0.00000000000E+00 0.  1.
</event>
<event>
 7    1  0.2492468E-009  0.4778727E+02  0.7816164E-02  0.1312668E+00
        -11   -1    0    0    0    0  0.00000000000E+00  0.00000000000E+00  0.45593999997E+02  0.45594000000E+02  0.51100000000E-03 0.  1.
         11   -1    0    0    0    0 -0.00000000000E+00 -0.00000000000E+00 -0.45593999997E+02  0.45594000000E+02  0.51100000000E-03 0. -1.
    9900012    2    1    2    0    0 -0.69774343418E+01 -0.42178602976E+02 -0.74768880705E+01  0.47787274266E+02  0.20000014690E+02 0.  0.
         12    1    1    2    0    0  0.69774343418E+01  0.42178602976E+02  0.74768880705E+01  0.43400725734E+02  0.00000000000E+00 0. -1.
         11    1    3    3    0    0 -0.99420258184E+01 -0.17906803141E+02  0.30194568345E+01  0.20703009345E+02  0.51100000000E-03 0. -1.
        -11    1    3    3    0    0  0.25843140016E+01 -0.44904507785E+01 -0.20522912223E+01  0.55726767873E+01  0.51100000000E-03 0.  1.
        -12    1    3    3    0    0  0.38027747499E+00 -0.19781349057E+02 -0.84440536827E+01  0.21511588134E+02  0.00000000000E+00 0.  1.
</event>
<event>
 7    1  0.2492468E-009  0.4778726E+02  0.7816164E-02  0.1312668E+00
        -11   -1    0    0    0    0  0.00000000000E+00  0.00000000000E+00  0.45593999997E+02  0.45594000000E+02  0.51100000000E-03 0. -1.
         11   -1    0    0    0    0 -0.00000000000E+00 -0.00000000000E+00 -0.45593999997E+02  0.45594000000E+02  0.51100000000E-03 0.  1.
    9900012    2    1    2    0    0  0.96664627622E+01  0.12244879359E+02 -0.40499954829E+02  0.47787263670E+02  0.19999966378E+02 0.  0.
         12    1    1    2    0    0 -0.96664627622E+01 -0.12244879359E+02  0.40499954829E+02  0.43400736330E+02  0.00000000000E+00 0. -1.
         11    1    3    3    0    0 -0.11338248097E+00  0.44621776457E+01 -0.28295363879E+01  0.52848993709E+01  0.51100000000E-03 0. -1.
        -11    1    3    3    0    0  0.78138330508E+01  0.11661280018E+02 -0.20893029348E+02  0.25170620060E+02  0.51100000000E-03 0.  1.
        -12    1    3    3    0    0  0.19660121924E+01 -0.38785783048E+01 -0.16777389093E+02  0.17331744239E+02  0.00000000000E+00 0.  1.
</event>
<event>
 7    1  0.2492468E-009  0.4778727E+02  0.7816164E-02  0.1312668E+00
        -11   -1    0    0    0    0  0.00000000000E+00  0.00000000000E+00  0.45593999997E+02  0.45594000000E+02  0.51100000000E-03 0.  1.
         11   -1    0    0    0    0 -0.00000000000E+00 -0.00000000000E+00 -0.45593999997E+02  0.45594000000E+02  0.51100000000E-03 0. -1.
    9900012    2    1    2    0    0  0.91932231335E+01  0.41054275666E+02 -0.10660875986E+02  0.47787272140E+02  0.20000004993E+02 0.  0.
         12    1    1    2    0    0 -0.91932231335E+01 -0.41054275666E+02  0.10660875986E+02  0.43400727860E+02  0.00000000000E+00 0. -1.
         11    1    3    3    0    0 -0.18755333269E+01  0.95454475349E+01 -0.90986654489E+01  0.13319868885E+02  0.51100000000E-03 0. -1.
        -11    1    3    3    0    0  0.21040211946E+01  0.25573417328E+01 -0.24935204177E+01  0.41454247382E+01  0.51100000000E-03 0.  1.
        -12    1    3    3    0    0  0.89647352659E+01  0.28951486398E+02  0.93130988049E+00  0.30321978516E+02  0.00000000000E+00 0.  1.
</event>
<event>
 7    1  0.2492468E-009  0.4778725E+02  0.7816164E-02  0.1312668E+00
        -11   -1    0    0    0    0  0.00000000000E+00  0.00000000000E+00  0.45593999997E+02  0.45594000000E+02  0.51100000000E-03 0.  1.
         11   -1    0    0    0    0 -0.00000000000E+00 -0.00000000000E+00 -0.45593999997E+02  0.45594000000E+02  0.51100000000E-03 0. -1.
    9900012    2    1    2    0    0 -0.30789736616E+02 -0.30472830141E+02 -0.26502879819E+01  0.47787247886E+02  0.19999894411E+02 0.  0.
         12    1    1    2    0    0  0.30789736616E+02  0.30472830141E+02  0.26502879819E+01  0.43400752114E+02  0.00000000000E+00 0. -1.
         11    1    3    3    0    0 -0.58737378094E+01 -0.13147344338E+02  0.10555887991E+01  0.14438411512E+02  0.51100000000E-03 0. -1.
        -11    1    3    3    0    0 -0.20566004707E+02 -0.18979288182E+02 -0.51935370138E+01  0.28463077074E+02  0.51100000000E-03 0.  1.
         12    1    3    3    0    0 -0.43499940996E+01  0.16538023796E+01  0.14876602328E+01  0.48857593008E+01  0.00000000000E+00 0. -1.
</event>
<event>
 7    1  0.2492468E-009  0.4778728E+02  0.7816164E-02  0.1312668E+00
        -11   -1    0    0    0    0  0.00000000000E+00  0.00000000000E+00  0.45593999997E+02  0.45594000000E+02  0.51100000000E-03 0. -1.
         11   -1    0    0    0    0 -0.00000000000E+00 -0.00000000000E+00 -0.45593999997E+02  0.45594000000E+02  0.51100000000E-03 0.  1.
    9900012    2    1    2    0    0 -0.12457759502E+02 -0.15020966562E+02 -0.38765932554E+02  0.47787277252E+02  0.20000028303E+02 0.  0.
         12    1    1    2    0    0  0.12457759502E+02  0.15020966562E+02  0.38765932554E+02  0.43400722748E+02  0.00000000000E+00 0. -1.
         11    1    3    3    0    0 -0.60575588109E+01 -0.10298168332E+02 -0.22232904436E+02  0.25239816355E+02  0.51100000000E-03 0. -1.
        -11    1    3    3    0    0  0.23102391250E+00 -0.79290874824E+01 -0.78315799090E+01  0.11147082331E+02  0.51100000000E-03 0.  1.
        -12    1    3    3    0    0 -0.66312246033E+01  0.32062892525E+01 -0.87014482094E+01  0.11400378566E+02  0.00000000000E+00 0.  1.
</event>
<event>
 7    1  0.2492468E-009  0.4778727E+02  0.7816164E-02  0.1312668E+00
        -11   -1    0    0    0    0  0.00000000000E+00  0.00000000000E+00  0.45593999997E+02  0.45594000000E+02  0.51100000000E-03 0. -1.
         11   -1    0    0    0    0 -0.00000000000E+00 -0.00000000000E+00 -0.45593999997E+02  0.45594000000E+02  0.51100000000E-03 0.  1.
    9900012    2    1    2    0    0  0.79224969038E+01  0.42563781884E+02  0.30301985330E+01  0.47787267418E+02  0.19999983468E+02 0.  0.
         12    1    1    2    0    0 -0.79224969038E+01 -0.42563781884E+02 -0.30301985330E+01  0.43400732582E+02  0.00000000000E+00 0. -1.
         11    1    3    3    0    0  0.50037298065E+00  0.25895886905E+01 -0.39702679077E+01  0.47664840528E+01  0.51100000000E-03 0. -1.
        -11    1    3    3    0    0 -0.60862036710E+00  0.16568303940E+02 -0.19778918828E+01  0.16697040779E+02  0.51100000000E-03 0.  1.
         12    1    3    3    0    0  0.80307442903E+01  0.23405889253E+02  0.89783583235E+01  0.26323742587E+02  0.00000000000E+00 0. -1.
</event>
<event>
 7    1  0.2492468E-009  0.4778727E+02  0.7816164E-02  0.1312668E+00
        -11   -1    0    0    0    0  0.00000000000E+00  0.00000000000E+00  0.45593999997E+02  0.45594000000E+02  0.51100000000E-03 0.  1.
         11   -1    0    0    0    0 -0.00000000000E+00 -0.00000000000E+00 -0.45593999997E+02  0.45594000000E+02  0.51100000000E-03 0. -1.
    9900012    2    1    2    0    0  0.45063206466E+01 -0.16476393828E+02  0.39897932519E+02  0.47787268455E+02  0.19999988196E+02 0.  0.
         12    1    1    2    0    0 -0.45063206466E+01  0.16476393828E+02 -0.39897932519E+02  0.43400731545E+02  0.00000000000E+00 0. -1.
         11    1    3    3    0    0 -0.46618141431E+01 -0.95450706375E+01  0.18212172798E+02  0.21083740723E+02  0.51100000000E-03 0. -1.
        -11    1    3    3    0    0 -0.18654559218E+01 -0.19835129335E+01  0.79504838175E+01  0.84038349905E+01  0.51100000000E-03 0.  1.
        -12    1    3    3    0    0  0.11033590711E+02 -0.49478102566E+01  0.13735275903E+02  0.18299692742E+02  0.00000000000E+00 0.  1.
</event>
<event>
 7    1  0.2492468E-009  0.4778727E+02  0.7816164E-02  0.1312668E+00
        -11   -1    0    0    0    0  0.00000000000E+00  0.00000000000E+00  0.45593999997E+02  0.45594000000E+02  0.51100000000E-03 0.  1.
         11   -1    0    0    0    0 -0.00000000000E+00 -0.00000000000E+00 -0.45593999997E+02  0.45594000000E+02  0.51100000000E-03 0. -1.
    9900012    2    1    2    0    0  0.20783426871E+02 -0.37801087517E+02  0.47697207323E+01  0.47787270907E+02  0.19999999371E+02 0.  0.
         12    1    1    2    0    0 -0.20783426871E+02  0.37801087517E+02 -0.47697207323E+01  0.43400729093E+02  0.00000000000E+00 0. -1.
         11    1    3    3    0    0  0.12009741777E+02 -0.16122306935E+02  0.12110330250E+01  0.20140240309E+02  0.51100000000E-03 0. -1.
        -11    1    3    3    0    0  0.75682641384E+01 -0.15400258767E+02 -0.41281346240E+01  0.17649025125E+02  0.51100000000E-03 0.  1.
         12    1    3    3    0    0  0.12054209560E+01 -0.62785218159E+01  0.76868223313E+01  0.99980054725E+01  0.00000000000E+00 0. -1.
</event>
<event>
 7    1  0.2492468E-009  0.4778727E+02  0.7816164E-02  0.1312668E+00
        -11   -1    0    0    0    0  0.00000000000E+00  0.00000000000E+00  0.45593999997E+02  0.45594000000E+02  0.51100000000E-03 0. -1.
         11   -1    0    0    0    0 -0.00000000000E+00 -0.00000000000E+00 -0.45593999997E+02  0.45594000000E+02  0.51100000000E-03 0.  1.
    9900012    2    1    2    0    0 -0.36919081415E+02 -0.32539825313E+01 -0.22583542013E+02  0.47787270229E+02  0.19999996280E+02 0.  0.
         12    1    1    2    0    0  0.36919081415E+02  0.32539825313E+01  0.22583542013E+02  0.43400729771E+02  0.00000000000E+00 0. -1.
         11    1    3    3    0    0 -0.19336425734E+01 -0.25607613368E+01  0.13779106626E+01  0.34921498079E+01  0.51100000000E-03 0. -1.
        -11    1    3    3    0    0 -0.83020008222E+01  0.53436233165E+00  0.13576173721E+00  0.83202879917E+01  0.51100000000E-03 0.  1.
        -12    1    3    3    0    0 -0.26683438019E+02 -0.12275835262E+01 -0.24097214413E+02  0.35974832429E+02  0.00000000000E+00 0.  1.
</event>
<event>
 7    1  0.2492468E-009  0.4778727E+02  0.7816164E-02  0.1312668E+00
        -11   -1    0    0    0    0  0.00000000000E+00  0.00000000000E+00  0.45593999997E+02  0.45594000000E+02  0.51100000000E-03 0.  1.
         11   -1    0    0    0    0 -0.00000000000E+00 -0.00000000000E+00 -0.45593999997E+02  0.45594000000E+02  0.51100000000E-03 0. -1.
    9900012    2    1    2    0    0 -0.32856844579E+02 -0.20710191498E+02  0.19368506852E+02  0.47787270453E+02  0.19999997304E+02 0.  0.
         12    1    1    2    0    0  0.32856844579E+02  0.20710191498E+02 -0.19368506852E+02  0.43400729547E+02  0.00000000000E+00 0. -1.
         11    1    3    3    0    0 -0.31072476592E+02 -0.19750271300E+02  0.17793016173E+02  0.40892095114E+02  0.51100000000E-03 0. -1.
        -11    1    3    3    0    0 -0.20322639035E+01 -0.29694025692E+01 -0.88819238299E+00  0.37062560842E+01  0.51100000000E-03 0.  1.
         12    1    3    3    0    0  0.24789591691E+00  0.20094823716E+01  0.24636830620E+01  0.31889192554E+01  0.00000000000E+00 0. -1.
</event>
<event>
 7    1  0.2492468E-009  0.4778726E+02  0.7816164E-02  0.1312668E+00
        -11   -1    0    0    0    0  0.00000000000E+00  0.00000000000E+00  0.45593999997E+02  0.45594000000E+02  0.51100000000E-03 0.  1.
         11   -1    0    0    0    0 -0.00000000000E+00 -0.00000000000E+00 -0.45593999997E+02  0.45594000000E+02  0.51100000000E-03 0. -1.
    9900012    2    1    2    0    0 -0.34081534336E+02  0.21291647558E+02  0.16393259076E+02  0.47787260587E+02  0.19999952321E+02 0.  0.
         12    1    1    2    0    0  0.34081534336E+02 -0.21291647558E+02 -0.16393259076E+02  0.43400739413E+02  0.00000000000E+00 0. -1.
         11    1    3    3    0    0 -0.47223324261E+01  0.54844680622E+01 -0.12997801145E+01  0.73531790455E+01  0.51100000000E-03 0. -1.
        -11    1    3    3    0    0 -0.22577886121E+02  0.12379307050E+02  0.59180761801E+01  0.26420291646E+02  0.51100000000E-03 0.  1.
        -12    1    3    3    0    0 -0.67813157896E+01  0.34278724452E+01  0.11774963010E+02  0.14013789895E+02  0.00000000000E+00 0.  1.
</event>
<event>
 7    1  0.2729601E-009  0.4778727E+02  0.7816164E-02  0.1312668E+00
        -11   -1    0    0    0    0  0.00000000000E+00  0.00000000000E+00  0.45593999997E+02  0.45594000000E+02  0.51100000000E-03 0.  1.
         11   -1    0    0    0    0 -0.00000000000E+00 -0.00000000000E+00 -0.45593999997E+02  0.45594000000E+02  0.51100000000E-03 0. -1.
    9900012    2    1    2    0    0  0.28734226217E+02  0.28290747303E+02  0.16049958245E+02  0.47787270757E+02  0.19999998688E+02 0.  0.
         12    1    1    2    0    0 -0.28734226217E+02 -0.28290747303E+02 -0.16049958245E+02  0.43400729243E+02  0.00000000000E+00 0. -1.
         11    1    3    3    0    0  0.33706628038E+00 -0.11632954523E+01 -0.16343396672E+01  0.20341918286E+01  0.51100000000E-03 0. -1.
        -11    1    3    3    0    0  0.14029399258E+02  0.75959632692E+01  0.52908620879E+01  0.16808210000E+02  0.51100000000E-03 0.  1.
         12    1    3    3    0    0  0.14367760678E+02  0.21858079486E+02  0.12393435824E+02  0.28944868928E+02  0.00000000000E+00 0. -1.
</event>
<event>
 7    1  0.2492468E-009  0.4778727E+02  0.7816164E-02  0.1312668E+00
        -11   -1    0    0    0    0  0.00000000000E+00  0.00000000000E+00  0.45593999997E+02  0.45594000000E+02  0.51100000000E-03 0.  1.
         11   -1    0    0    0    0 -0.00000000000E+00 -0.00000000000E+00 -0.45593999997E+02  0.45594000000E+02  0.51100000000E-03 0. -1.
    9900012    2    1    2    0    0 -0.40848005957E+02  0.40423089987E+01  0.14096930174E+02  0.47787270823E+02  0.19999998992E+02 0.  0.
         12    1    1    2    0    0  0.40848005957E+02 -0.40423089987E+01 -0.14096930174E+02  0.43400729177E+02  0.00000000000E+00 0. -1.
         11    1    3    3    0    0 -0.13636469848E+02  0.56736039401E+01  0.79472790582E+01  0.16772070125E+02  0.51100000000E-03 0. -1.
        -11    1    3    3    0    0 -0.14935068829E+02 -0.38529007661E+01  0.94774617459E+01  0.18103132509E+02  0.51100000000E-03 0.  1.
        -12    1    3    3    0    0 -0.12276467281E+02  0.22216058248E+01 -0.33278106305E+01  0.12912068189E+02  0.00000000000E+00 0.  1.
</event>
<event>
 7    1  0.2492468E-009  0.4778727E+02  0.7816164E-02  0.1312668E+00
        -11   -1    0    0    0    0  0.00000000000E+00  0.00000000000E+00  0.45593999997E+02  0.45594000000E+02  0.51100000000E-03 0.  1.
         11   -1    0    0    0    0 -0.00000000000E+00 -0.00000000000E+00 -0.45593999997E+02  0.45594000000E+02  0.51100000000E-03 0. -1.
    9900012    2    1    2    0    0  0.10401677055E+02 -0.40779827226E+01  0.41938032544E+02  0.47787269565E+02  0.19999993256E+02 0.  0.
         12    1    1    2    0    0 -0.10401677055E+02  0.40779827226E+01 -0.41938032544E+02  0.43400730435E+02  0.00000000000E+00 0. -1.
         11    1    3    3    0    0 -0.14666428758E+01 -0.11165851584E+01  0.26683614517E+02  0.26747207101E+02  0.51100000000E-03 0. -1.
        -11    1    3    3    0    0  0.48482978293E+01 -0.19345939009E+01  0.12286812990E+02  0.13349697342E+02  0.51100000000E-03 0.  1.
        -12    1    3    3    0    0  0.70200221014E+01 -0.10268036633E+01  0.29676050363E+01  0.76903651226E+01  0.00000000000E+00 0.  1.
</event>
<event>
 7    1  0.2492468E-009  0.4778727E+02  0.7816164E-02  0.1312668E+00
        -11   -1    0    0    0    0  0.00000000000E+00  0.00000000000E+00  0.45593999997E+02  0.45594000000E+02  0.51100000000E-03 0.  1.
         11   -1    0    0    0    0 -0.00000000000E+00 -0.00000000000E+00 -0.45593999997E+02  0.45594000000E+02  0.51100000000E-03 0. -1.
    9900012    2    1    2    0    0  0.26694462932E+01 -0.15687428757E+02  0.40378234691E+02  0.47787271881E+02  0.20000003814E+02 0.  0.
         12    1    1    2    0    0 -0.26694462932E+01  0.15687428757E+02 -0.40378234691E+02  0.43400728119E+02  0.00000000000E+00 0. -1.
         11    1    3    3    0    0 -0.12795643581E+01  0.41456777142E+00 -0.77908114495E+00  0.15543870416E+01  0.51100000000E-03 0. -1.
        -11    1    3    3    0    0 -0.32586829873E+01 -0.16595762100E+01  0.15461197145E+02  0.15887788563E+02  0.51100000000E-03 0.  1.
        -12    1    3    3    0    0  0.72076936386E+01 -0.14442420318E+02  0.25696118691E+02  0.30345096277E+02  0.00000000000E+00 0.  1.
</event>
<event>
 7    1  0.2492468E-009  0.4778727E+02  0.7816164E-02  0.1312668E+00
        -11   -1    0    0    0    0  0.00000000000E+00  0.00000000000E+00  0.45593999997E+02  0.45594000000E+02  0.51100000000E-03 0.  1.
         11   -1    0    0    0    0 -0.00000000000E+00 -0.00000000000E+00 -0.45593999997E+02  0.45594000000E+02  0.51100000000E-03 0. -1.
    9900012    2    1    2    0    0  0.41177216903E+02 -0.12333326603E+02 -0.59957530020E+01  0.47787271999E+02  0.20000004353E+02 0.  0.
         12    1    1    2    0    0 -0.41177216903E+02  0.12333326603E+02  0.59957530020E+01  0.43400728001E+02  0.00000000000E+00 0. -1.
         11    1    3    3    0    0  0.46207100915E+01 -0.23187261627E+01  0.40871181430E+01  0.65902949663E+01  0.51100000000E-03 0. -1.
        -11    1    3    3    0    0  0.17534589380E+01 -0.38406053633E+01 -0.29165602470E+01  0.51313927680E+01  0.51100000000E-03 0.  1.
        -12    1    3    3    0    0  0.34803047873E+02 -0.61739950773E+01 -0.71663108979E+01  0.36065584265E+02  0.00000000000E+00 0.  1.
</event>
<event>
 7    1  0.2492468E-009  0.4778727E+02  0.7816164E-02  0.1312668E+00
        -11   -1    0    0    0    0  0.00000000000E+00  0.00000000000E+00  0.45593999997E+02  0.45594000000E+02  0.51100000000E-03 0. -1.
         11   -1    0    0    0    0 -0.00000000000E+00 -0.00000000000E+00 -0.45593999997E+02  0.45594000000E+02  0.51100000000E-03 0.  1.
    9900012    2    1    2    0    0  0.31236487202E+02  0.29700111060E+02 -0.50801935450E+01  0.47787273092E+02  0.20000009335E+02 0.  0.
         12    1    1    2    0    0 -0.31236487202E+02 -0.29700111060E+02  0.50801935450E+01  0.43400726908E+02  0.00000000000E+00 0. -1.
         11    1    3    3    0    0  0.14260080804E+02  0.51190707548E+01 -0.58946426660E+01  0.16257355331E+02  0.51100000000E-03 0. -1.
        -11    1    3    3    0    0  0.15711812818E+02  0.14644830192E+02 -0.22459443299E-01  0.21478654941E+02  0.51100000000E-03 0.  1.
         12    1    3    3    0    0  0.12645935800E+01  0.99362101132E+01  0.83690856433E+00  0.10051262820E+02  0.00000000000E+00 0. -1.
</event>
<event>
 7    1  0.2492468E-009  0.4778727E+02  0.7816164E-02  0.1312668E+00
        -11   -1    0    0    0    0  0.00000000000E+00  0.00000000000E+00  0.45593999997E+02  0.45594000000E+02  0.51100000000E-03 0.  1.
         11   -1    0    0    0    0 -0.00000000000E+00 -0.00000000000E+00 -0.45593999997E+02  0.45594000000E+02  0.51100000000E-03 0. -1.
    9900012    2    1    2    0    0 -0.96996440545E+01  0.17690968738E+02  0.38426159108E+02  0.47787272201E+02  0.20000005274E+02 0.  0.
         12    1    1    2    0    0  0.96996440545E+01 -0.17690968738E+02 -0.38426159108E+02  0.43400727799E+02  0.00000000000E+00 0. -1.
         11    1    3    3    0    0 -0.30511369753E+01 -0.27719204778E+01  0.30358148676E+01  0.51194874889E+01  0.51100000000E-03 0.  1.
        -11    1    3    3    0    0  0.13147073874E+01  0.22178349618E+01  0.10414954448E+02  0.10729330074E+02  0.51100000000E-03 0. -1.
         12    1    3    3    0    0 -0.79632144666E+01  0.18245054255E+02  0.24975389792E+02  0.31938454638E+02  0.00000000000E+00 0. -1.
</event>
<event>
 7    1  0.2492468E-009  0.4778727E+02  0.7816164E-02  0.1312668E+00
        -11   -1    0    0    0    0  0.00000000000E+00  0.00000000000E+00  0.45593999997E+02  0.45594000000E+02  0.51100000000E-03 0. -1.
         11   -1    0    0    0    0 -0.00000000000E+00 -0.00000000000E+00 -0.45593999997E+02  0.45594000000E+02  0.51100000000E-03 0.  1.
    9900012    2    1    2    0    0  0.26843646674E+02  0.65317991055E+00 -0.34097141734E+02  0.47787273219E+02  0.20000009914E+02 0.  0.
         12    1    1    2    0    0 -0.26843646674E+02 -0.65317991055E+00  0.34097141734E+02  0.43400726781E+02  0.00000000000E+00 0. -1.
         11    1    3    3    0    0  0.11052547981E+01 -0.43716653071E+01 -0.32782695504E+01  0.55749526664E+01  0.51100000000E-03 0. -1.
        -11    1    3    3    0    0  0.66864082869E+01 -0.13720953841E+01 -0.20650959146E+01  0.71312918128E+01  0.51100000000E-03 0.  1.
        -12    1    3    3    0    0  0.19051983589E+02  0.63969406018E+01 -0.28753776269E+02  0.35081028740E+02  0.00000000000E+00 0.  1.
</event>
<event>
 7    1  0.2492468E-009  0.4778727E+02  0.7816164E-02  0.1312668E+00
        -11   -1    0    0    0    0  0.00000000000E+00  0.00000000000E+00  0.45593999997E+02  0.45594000000E+02  0.51100000000E-03 0.  1.
         11   -1    0    0    0    0 -0.00000000000E+00 -0.00000000000E+00 -0.45593999997E+02  0.45594000000E+02  0.51100000000E-03 0. -1.
    9900012    2    1    2    0    0  0.11879244756E+02  0.40295196442E+02  0.10899733129E+02  0.47787268502E+02  0.19999988410E+02 0.  0.
         12    1    1    2    0    0 -0.11879244756E+02 -0.40295196442E+02 -0.10899733129E+02  0.43400731498E+02  0.00000000000E+00 0. -1.
         11    1    3    3    0    0  0.61481691294E+01  0.32326264463E+02  0.53189490063E+01  0.33332845312E+02  0.51100000000E-03 0.  1.
        -11    1    3    3    0    0  0.59310615312E+01  0.72794567369E+01  0.77465361568E+01  0.12172789490E+02  0.51100000000E-03 0. -1.
        -12    1    3    3    0    0 -0.19998590438E+00  0.68947524131E+00 -0.21657520343E+01  0.22816337007E+01  0.00000000000E+00 0.  1.
</event>
<event>
 7    1  0.2492468E-009  0.4778729E+02  0.7816164E-02  0.1312668E+00
        -11   -1    0    0    0    0  0.00000000000E+00  0.00000000000E+00  0.45593999997E+02  0.45594000000E+02  0.51100000000E-03 0.  1.
         11   -1    0    0    0    0 -0.00000000000E+00 -0.00000000000E+00 -0.45593999997E+02  0.45594000000E+02  0.51100000000E-03 0. -1.
    9900012    2    1    2    0    0 -0.84096041609E+00 -0.27706422125E+02  0.33395642201E+02  0.47787286188E+02  0.20000069046E+02 0.  0.
         12    1    1    2    0    0  0.84096041609E+00  0.27706422125E+02 -0.33395642201E+02  0.43400713812E+02  0.00000000000E+00 0. -1.
         11    1    3    3    0    0  0.59391505815E+01 -0.10568357401E+02  0.96240040502E+01  0.15478538109E+02  0.51100000000E-03 0. -1.
        -11    1    3    3    0    0 -0.78587004236E+00 -0.13523708947E+02  0.20526185393E+02  0.24593344272E+02  0.51100000000E-03 0.  1.
        -12    1    3    3    0    0 -0.59942409552E+01 -0.36143557770E+01  0.32454527574E+01  0.77154038075E+01  0.00000000000E+00 0.  1.
</event>
<event>
 7    1  0.2492468E-009  0.4778727E+02  0.7816164E-02  0.1312668E+00
        -11   -1    0    0    0    0  0.00000000000E+00  0.00000000000E+00  0.45593999997E+02  0.45594000000E+02  0.51100000000E-03 0.  1.
         11   -1    0    0    0    0 -0.00000000000E+00 -0.00000000000E+00 -0.45593999997E+02  0.45594000000E+02  0.51100000000E-03 0. -1.
    9900012    2    1    2    0    0  0.12557481694E-01 -0.20529215465E+02  0.38238393526E+02  0.47787267463E+02  0.19999983672E+02 0.  0.
         12    1    1    2    0    0 -0.12557481694E-01  0.20529215465E+02 -0.38238393526E+02  0.43400732537E+02  0.00000000000E+00 0. -1.
         11    1    3    3    0    0  0.26848016119E+01 -0.11971534956E+01 -0.54698981818E+00  0.29900726261E+01  0.51100000000E-03 0. -1.
        -11    1    3    3    0    0  0.30358222471E+00 -0.32950946357E+01  0.72283028497E+00  0.33870776057E+01  0.51100000000E-03 0.  1.
        -12    1    3    3    0    0 -0.29758263549E+01 -0.16036967334E+02  0.38062553059E+02  0.41410117231E+02  0.00000000000E+00 0.  1.
</event>
<event>
 7    1  0.2492468E-009  0.4778727E+02  0.7816164E-02  0.1312668E+00
        -11   -1    0    0    0    0  0.00000000000E+00  0.00000000000E+00  0.45593999997E+02  0.45594000000E+02  0.51100000000E-03 0.  1.
         11   -1    0    0    0    0 -0.00000000000E+00 -0.00000000000E+00 -0.45593999997E+02  0.45594000000E+02  0.51100000000E-03 0. -1.
    9900012    2    1    2    0    0  0.27599954248E+02 -0.33460241790E+02  0.15094139349E+01  0.47787267453E+02  0.19999983627E+02 0.  0.
         12    1    1    2    0    0 -0.27599954248E+02  0.33460241790E+02 -0.15094139349E+01  0.43400732547E+02  0.00000000000E+00 0. -1.
         11    1    3    3    0    0  0.11037609090E+01 -0.95221581701E-01  0.22247638340E+01  0.24853429687E+01  0.51100000000E-03 0. -1.
        -11    1    3    3    0    0  0.26125493237E+02 -0.25148712962E+02  0.27714684727E+01  0.36368670559E+02  0.51100000000E-03 0.  1.
         12    1    3    3    0    0  0.37070010231E+00 -0.82163072466E+01 -0.34868183718E+01  0.89332539253E+01  0.00000000000E+00 0. -1.
</event>
<event>
 7    1  0.2492468E-009  0.4778727E+02  0.7816164E-02  0.1312668E+00
        -11   -1    0    0    0    0  0.00000000000E+00  0.00000000000E+00  0.45593999997E+02  0.45594000000E+02  0.51100000000E-03 0.  1.
         11   -1    0    0    0    0 -0.00000000000E+00 -0.00000000000E+00 -0.45593999997E+02  0.45594000000E+02  0.51100000000E-03 0. -1.
    9900012    2    1    2    0    0  0.17528431493E+02  0.29778912454E+02  0.26260117013E+02  0.47787270938E+02  0.19999999515E+02 0.  0.
         12    1    1    2    0    0 -0.17528431493E+02 -0.29778912454E+02 -0.26260117013E+02  0.43400729062E+02  0.00000000000E+00 0. -1.
         11    1    3    3    0    0  0.19649557018E+01  0.45067745925E+01  0.12340685396E+02  0.13283997307E+02  0.51100000000E-03 0. -1.
        -11    1    3    3    0    0  0.10073487586E+01  0.61992315623E+01  0.72676776085E+01  0.96054339604E+01  0.51100000000E-03 0.  1.
        -12    1    3    3    0    0  0.14556127032E+02  0.19072906300E+02  0.66517540084E+01  0.24897839671E+02  0.00000000000E+00 0.  1.
</event>
<event>
 7    1  0.2738524E-009  0.4778725E+02  0.7816164E-02  0.1312668E+00
        -11   -1    0    0    0    0  0.00000000000E+00  0.00000000000E+00  0.45593999997E+02  0.45594000000E+02  0.51100000000E-03 0.  1.
         11   -1    0    0    0    0 -0.00000000000E+00 -0.00000000000E+00 -0.45593999997E+02  0.45594000000E+02  0.51100000000E-03 0. -1.
    9900012    2    1    2    0    0  0.13443097650E+01  0.39102561070E+02  0.18783185669E+02  0.47787245227E+02  0.19999882288E+02 0.  0.
         12    1    1    2    0    0 -0.13443097650E+01 -0.39102561070E+02 -0.18783185669E+02  0.43400754773E+02  0.00000000000E+00 0. -1.
         11    1    3    3    0    0 -0.33114479362E+01  0.53945628691E+01  0.80468378113E+01  0.10238095282E+02  0.51100000000E-03 0. -1.
        -11    1    3    3    0    0  0.42105229797E+01  0.17640487372E+02  0.11470048265E+02  0.21458734957E+02  0.51100000000E-03 0.  1.
         12    1    3    3    0    0  0.44523472149E+00  0.16067510829E+02 -0.73370040778E+00  0.16090414988E+02  0.00000000000E+00 0. -1.
</event>
<event>
 7    1  0.2492468E-009  0.4778726E+02  0.7816164E-02  0.1312668E+00
        -11   -1    0    0    0    0  0.00000000000E+00  0.00000000000E+00  0.45593999997E+02  0.45594000000E+02  0.51100000000E-03 0.  1.
         11   -1    0    0    0    0 -0.00000000000E+00 -0.00000000000E+00 -0.45593999997E+02  0.45594000000E+02  0.51100000000E-03 0. -1.
    9900012    2    1    2    0    0  0.16947945488E+02 -0.11270927930E+02  0.38332194904E+02  0.47787264536E+02  0.19999970325E+02 0.  0.
         12    1    1    2    0    0 -0.16947945488E+02  0.11270927930E+02 -0.38332194904E+02  0.43400735464E+02  0.00000000000E+00 0. -1.
         11    1    3    3    0    0  0.17879149946E+01  0.41485712553E+01  0.38784181962E+01  0.59539408339E+01  0.51100000000E-03 0. -1.
        -11    1    3    3    0    0  0.40254852689E+01 -0.27695392949E+01  0.20291048450E+01  0.52907604642E+01  0.51100000000E-03 0.  1.
        -12    1    3    3    0    0  0.11134545225E+02 -0.12649959890E+02  0.32424671863E+02  0.36542563238E+02  0.00000000000E+00 0.  1.
</event>
<event>
 7    1  0.2492468E-009  0.4778727E+02  0.7816164E-02  0.1312668E+00
        -11   -1    0    0    0    0  0.00000000000E+00  0.00000000000E+00  0.45593999997E+02  0.45594000000E+02  0.51100000000E-03 0.  1.
         11   -1    0    0    0    0 -0.00000000000E+00 -0.00000000000E+00 -0.45593999997E+02  0.45594000000E+02  0.51100000000E-03 0. -1.
    9900012    2    1    2    0    0  0.34318511887E+02  0.90997305801E+01  0.24961123367E+02  0.47787273802E+02  0.20000012573E+02 0.  0.
         12    1    1    2    0    0 -0.34318511887E+02 -0.90997305801E+01 -0.24961123367E+02  0.43400726198E+02  0.00000000000E+00 0. -1.
         11    1    3    3    0    0  0.12712807291E+02  0.80264060801E+01  0.90528969660E+01  0.17549746651E+02  0.51100000000E-03 0. -1.
        -11    1    3    3    0    0  0.20991720404E+02  0.50606430120E+01  0.12458775939E+02  0.24929571424E+02  0.51100000000E-03 0.  1.
        -12    1    3    3    0    0  0.61398419073E+00 -0.39873185119E+01  0.34494504623E+01  0.53079557264E+01  0.00000000000E+00 0.  1.
</event>
<event>
 7    1  0.2492468E-009  0.4778726E+02  0.7816164E-02  0.1312668E+00
        -11   -1    0    0    0    0  0.00000000000E+00  0.00000000000E+00  0.45593999997E+02  0.45594000000E+02  0.51100000000E-03 0.  1.
         11   -1    0    0    0    0 -0.00000000000E+00 -0.00000000000E+00 -0.45593999997E+02  0.45594000000E+02  0.51100000000E-03 0. -1.
    9900012    2    1    2    0    0 -0.14155488616E+01 -0.24481008843E+02  0.35809221008E+02  0.47787264041E+02  0.19999968071E+02 0.  0.
         12    1    1    2    0    0  0.14155488616E+01  0.24481008843E+02 -0.35809221008E+02  0.43400735959E+02  0.00000000000E+00 0. -1.
         11    1    3    3    0    0 -0.34528697604E+01  0.43617094386E+00  0.25917592222E+01  0.43393283814E+01  0.51100000000E-03 0. -1.
        -11    1    3    3    0    0 -0.43034382141E+01 -0.69198930566E+01  0.56312472674E+01  0.99053241454E+01  0.51100000000E-03 0.  1.
         12    1    3    3    0    0  0.63407591129E+01 -0.17997286730E+02  0.27586214518E+02  0.33542611515E+02  0.00000000000E+00 0. -1.
</event>
<event>
 7    1  0.2492468E-009  0.4778728E+02  0.7816164E-02  0.1312668E+00
        -11   -1    0    0    0    0  0.00000000000E+00  0.00000000000E+00  0.45593999997E+02  0.45594000000E+02  0.51100000000E-03 0.  1.
         11   -1    0    0    0    0 -0.00000000000E+00 -0.00000000000E+00 -0.45593999997E+02  0.45594000000E+02  0.51100000000E-03 0. -1.
    9900012    2    1    2    0    0 -0.43041419065E+02  0.46139383359E+01  0.31257598956E+01  0.47787279303E+02  0.20000037654E+02 0.  0.
         12    1    1    2    0    0  0.43041419065E+02 -0.46139383359E+01 -0.31257598956E+01  0.43400720697E+02  0.00000000000E+00 0. -1.
         11    1    3    3    0    0 -0.19992100340E+02 -0.44432652476E+01  0.39254161224E+01  0.20852711432E+02  0.51100000000E-03 0.  1.
        -11    1    3    3    0    0 -0.31762407534E+01  0.21021878344E+01 -0.41295592913E+01  0.56179141339E+01  0.51100000000E-03 0. -1.
        -12    1    3    3    0    0 -0.19873077972E+02  0.69550157491E+01  0.33299030644E+01  0.21316653738E+02  0.00000000000E+00 0.  1.
</event>
<event>
 7    1  0.2492468E-009  0.4778727E+02  0.7816164E-02  0.1312668E+00
        -11   -1    0    0    0    0  0.00000000000E+00  0.00000000000E+00  0.45593999997E+02  0.45594000000E+02  0.51100000000E-03 0.  1.
         11   -1    0    0    0    0 -0.00000000000E+00 -0.00000000000E+00 -0.45593999997E+02  0.45594000000E+02  0.51100000000E-03 0. -1.
    9900012    2    1    2    0    0  0.20764395381E+02 -0.16884369691E+02  0.34166957314E+02  0.47787273883E+02  0.20000012940E+02 0.  0.
         12    1    1    2    0    0 -0.20764395381E+02  0.16884369691E+02 -0.34166957314E+02  0.43400726117E+02  0.00000000000E+00 0. -1.
         11    1    3    3    0    0  0.54737977872E+01 -0.51097792530E+01  0.57163535528E+01  0.94206690013E+01  0.51100000000E-03 0. -1.
        -11    1    3    3    0    0  0.18167504655E+02 -0.59351567477E+01  0.22759131983E+02  0.29719730818E+02  0.51100000000E-03 0.  1.
         12    1    3    3    0    0 -0.28769070614E+01 -0.58394336900E+01  0.56914717790E+01  0.86468740635E+01  0.00000000000E+00 0. -1.
</event>
<event>
 7    1  0.2492468E-009  0.4778727E+02  0.7816164E-02  0.1312668E+00
        -11   -1    0    0    0    0  0.00000000000E+00  0.00000000000E+00  0.45593999997E+02  0.45594000000E+02  0.51100000000E-03 0.  1.
         11   -1    0    0    0    0 -0.00000000000E+00 -0.00000000000E+00 -0.45593999997E+02  0.45594000000E+02  0.51100000000E-03 0. -1.
    9900012    2    1    2    0    0 -0.31893152145E+02 -0.11386454233E+02  0.27144038742E+02  0.47787270364E+02  0.19999996896E+02 0.  0.
         12    1    1    2    0    0  0.31893152145E+02  0.11386454233E+02 -0.27144038742E+02  0.43400729636E+02  0.00000000000E+00 0. -1.
         11    1    3    3    0    0 -0.78157784939E+01 -0.35409055864E+01  0.94329859628E+01  0.12751691271E+02  0.51100000000E-03 0. -1.
        -11    1    3    3    0    0 -0.22781221563E+02 -0.26224373295E+01  0.18668152800E+02  0.29569598622E+02  0.51100000000E-03 0.  1.
         12    1    3    3    0    0 -0.12961520881E+01 -0.52231113167E+01 -0.95710001990E+00  0.54659804711E+01  0.00000000000E+00 0. -1.
</event>
<event>
 7    1  0.2492468E-009  0.4778727E+02  0.7816164E-02  0.1312668E+00
        -11   -1    0    0    0    0  0.00000000000E+00  0.00000000000E+00  0.45593999997E+02  0.45594000000E+02  0.51100000000E-03 0. -1.
         11   -1    0    0    0    0 -0.00000000000E+00 -0.00000000000E+00 -0.45593999997E+02  0.45594000000E+02  0.51100000000E-03 0.  1.
    9900012    2    1    2    0    0  0.33389279254E+02 -0.22348472428E+02 -0.16411130707E+02  0.47787269591E+02  0.19999993372E+02 0.  0.
         12    1    1    2    0    0 -0.33389279254E+02  0.22348472428E+02  0.16411130707E+02  0.43400730409E+02  0.00000000000E+00 0. -1.
         11    1    3    3    0    0  0.12612313086E+02 -0.88117396685E+01 -0.43382479139E+01  0.15985543237E+02  0.51100000000E-03 0. -1.
        -11    1    3    3    0    0  0.16140433817E+02 -0.57944504506E+01 -0.14499014167E+02  0.22456862468E+02  0.51100000000E-03 0.  1.
         12    1    3    3    0    0  0.46365323511E+01 -0.77422823091E+01  0.24261313743E+01  0.93448638857E+01  0.00000000000E+00 0. -1.
</event>
<event>
 7    1  0.2492468E-009  0.4778727E+02  0.7816164E-02  0.1312668E+00
        -11   -1    0    0    0    0  0.00000000000E+00  0.00000000000E+00  0.45593999997E+02  0.45594000000E+02  0.51100000000E-03 0.  1.
         11   -1    0    0    0    0 -0.00000000000E+00 -0.00000000000E+00 -0.45593999997E+02  0.45594000000E+02  0.51100000000E-03 0. -1.
    9900012    2    1    2    0    0 -0.19308850177E+02 -0.68222772576E+01  0.38265496254E+02  0.47787269987E+02  0.19999995177E+02 0.  0.
         12    1    1    2    0    0  0.19308850177E+02  0.68222772576E+01 -0.38265496254E+02  0.43400730013E+02  0.00000000000E+00 0. -1.
         11    1    3    3    0    0 -0.39312180124E+00 -0.28849847494E+01  0.43927076060E+00  0.29445951873E+01  0.51100000000E-03 0. -1.
        -11    1    3    3    0    0 -0.15520717074E+02 -0.95175878367E+00  0.15113889520E+02  0.21684744867E+02  0.51100000000E-03 0.  1.
        -12    1    3    3    0    0 -0.33950113016E+01 -0.29855337245E+01  0.22712335974E+02  0.23157929932E+02  0.00000000000E+00 0.  1.
</event>
<event>
 7    1  0.2492468E-009  0.4778727E+02  0.7816164E-02  0.1312668E+00
        -11   -1    0    0    0    0  0.00000000000E+00  0.00000000000E+00  0.45593999997E+02  0.45594000000E+02  0.51100000000E-03 0.  1.
         11   -1    0    0    0    0 -0.00000000000E+00 -0.00000000000E+00 -0.45593999997E+02  0.45594000000E+02  0.51100000000E-03 0. -1.
    9900012    2    1    2    0    0 -0.75364840492E+01  0.20846527678E+02  0.37312823088E+02  0.47787273337E+02  0.20000010454E+02 0.  0.
         12    1    1    2    0    0  0.75364840492E+01 -0.20846527678E+02 -0.37312823088E+02  0.43400726663E+02  0.00000000000E+00 0. -1.
         11    1    3    3    0    0 -0.34379946767E+01  0.12241593215E+02  0.27206974397E+02  0.30031581176E+02  0.51100000000E-03 0. -1.
        -11    1    3    3    0    0 -0.32145533373E+00  0.21891956125E+01  0.10070411354E+02  0.10310630245E+02  0.51100000000E-03 0.  1.
         12    1    3    3    0    0 -0.37770340388E+01  0.64157388504E+01  0.35437337611E-01  0.74450619159E+01  0.00000000000E+00 0. -1.
</event>
<event>
 7    1  0.2492468E-009  0.4778727E+02  0.7816164E-02  0.1312668E+00
        -11   -1    0    0    0    0  0.00000000000E+00  0.00000000000E+00  0.45593999997E+02  0.45594000000E+02  0.51100000000E-03 0.  1.
         11   -1    0    0    0    0 -0.00000000000E+00 -0.00000000000E+00 -0.45593999997E+02  0.45594000000E+02  0.51100000000E-03 0. -1.
    9900012    2    1    2    0    0 -0.19773092144E+02 -0.38323384637E+02 -0.48955314160E+01  0.47787271770E+02  0.20000003310E+02 0.  0.
         12    1    1    2    0    0  0.19773092144E+02  0.38323384637E+02  0.48955314160E+01  0.43400728230E+02  0.00000000000E+00 0. -1.
         11    1    3    3    0    0 -0.16190067718E+01  0.14391279461E+01  0.21456310391E+01  0.30489350583E+01  0.51100000000E-03 0. -1.
        -11    1    3    3    0    0 -0.66831037589E+01 -0.10104529728E+02  0.23705840461E+00  0.12116996073E+02  0.51100000000E-03 0.  1.
         12    1    3    3    0    0 -0.11470981614E+02 -0.29657982855E+02 -0.72782208597E+01  0.32621340639E+02  0.00000000000E+00 0. -1.
</event>
<event>
 7    1  0.2492468E-009  0.4778727E+02  0.7816164E-02  0.1312668E+00
        -11   -1    0    0    0    0  0.00000000000E+00  0.00000000000E+00  0.45593999997E+02  0.45594000000E+02  0.51100000000E-03 0. -1.
         11   -1    0    0    0    0 -0.00000000000E+00 -0.00000000000E+00 -0.45593999997E+02  0.45594000000E+02  0.51100000000E-03 0.  1.
    9900012    2    1    2    0    0 -0.21878752791E+02 -0.24229156001E+02 -0.28598798768E+02  0.47787272872E+02  0.20000008333E+02 0.  0.
         12    1    1    2    0    0  0.21878752791E+02  0.24229156001E+02  0.28598798768E+02  0.43400727128E+02  0.00000000000E+00 0. -1.
         11    1    3    3    0    0  0.11985024121E+01 -0.18062150953E+01 -0.26970274156E+01  0.34601702478E+01  0.51100000000E-03 0. -1.
        -11    1    3    3    0    0 -0.10997490121E+02 -0.12850380699E+02 -0.37229815076E+01  0.17318708515E+02  0.51100000000E-03 0.  1.
        -12    1    3    3    0    0 -0.12079765083E+02 -0.95725602067E+01 -0.22178789845E+02  0.27008394109E+02  0.00000000000E+00 0.  1.
</event>
<event>
 7    1  0.2492468E-009  0.4778727E+02  0.7816164E-02  0.1312668E+00
        -11   -1    0    0    0    0  0.00000000000E+00  0.00000000000E+00  0.45593999997E+02  0.45594000000E+02  0.51100000000E-03 0.  1.
         11   -1    0    0    0    0 -0.00000000000E+00 -0.00000000000E+00 -0.45593999997E+02  0.45594000000E+02  0.51100000000E-03 0. -1.
    9900012    2    1    2    0    0  0.42327707719E+02 -0.90626764009E+01  0.31394845231E+01  0.47787270658E+02  0.19999998240E+02 0.  0.
         12    1    1    2    0    0 -0.42327707719E+02  0.90626764009E+01 -0.31394845231E+01  0.43400729342E+02  0.00000000000E+00 0. -1.
         11    1    3    3    0    0  0.20992945821E+01 -0.46016387826E+01 -0.85676010656E+00  0.51299274234E+01  0.51100000000E-03 0. -1.
        -11    1    3    3    0    0  0.12675963840E+02 -0.22339857322E+01  0.73342030358E+01  0.14814225797E+02  0.51100000000E-03 0.  1.
         12    1    3    3    0    0  0.27552449297E+02 -0.22270518862E+01 -0.33379584062E+01  0.27843117438E+02  0.00000000000E+00 0. -1.
</event>
<event>
 7    1  0.2492468E-009  0.4778727E+02  0.7816164E-02  0.1312668E+00
        -11   -1    0    0    0    0  0.00000000000E+00  0.00000000000E+00  0.45593999997E+02  0.45594000000E+02  0.51100000000E-03 0. -1.
         11   -1    0    0    0    0 -0.00000000000E+00 -0.00000000000E+00 -0.45593999997E+02  0.45594000000E+02  0.51100000000E-03 0.  1.
    9900012    2    1    2    0    0  0.16695946551E+02 -0.37598335256E+02  0.13828749496E+02  0.47787265469E+02  0.19999974578E+02 0.  0.
         12    1    1    2    0    0 -0.16695946551E+02  0.37598335256E+02 -0.13828749496E+02  0.43400734531E+02  0.00000000000E+00 0. -1.
         11    1    3    3    0    0  0.25436728025E+01 -0.14501964542E+01 -0.26300758046E+01  0.39358150465E+01  0.51100000000E-03 0. -1.
        -11    1    3    3    0    0  0.10267318706E+02 -0.21002633689E+02  0.36965062307E+01  0.23668388493E+02  0.51100000000E-03 0.  1.
        -12    1    3    3    0    0  0.38849550426E+01 -0.15145505112E+02  0.12762319070E+02  0.20183061929E+02  0.00000000000E+00 0.  1.
</event>
<event>
 7    1  0.2492468E-009  0.4778727E+02  0.7816164E-02  0.1312668E+00
        -11   -1    0    0    0    0  0.00000000000E+00  0.00000000000E+00  0.45593999997E+02  0.45594000000E+02  0.51100000000E-03 0.  1.
         11   -1    0    0    0    0 -0.00000000000E+00 -0.00000000000E+00 -0.45593999997E+02  0.45594000000E+02  0.51100000000E-03 0. -1.
    9900012    2    1    2    0    0 -0.10634189340E+02 -0.18258484631E+02  0.37909955381E+02  0.47787274650E+02  0.20000016438E+02 0.  0.
         12    1    1    2    0    0  0.10634189340E+02  0.18258484631E+02 -0.37909955381E+02  0.43400725350E+02  0.00000000000E+00 0. -1.
         11    1    3    3    0    0 -0.19253251391E+01 -0.38306642238E+01  0.30422738938E+00  0.42980716434E+01  0.51100000000E-03 0. -1.
        -11    1    3    3    0    0  0.21045521843E+01  0.65346578124E+00  0.99034790027E+01  0.10145691403E+02  0.51100000000E-03 0.  1.
        -12    1    3    3    0    0 -0.10813416385E+02 -0.15081286189E+02  0.27702248989E+02  0.33343511604E+02  0.00000000000E+00 0.  1.
</event>
<event>
 7    1  0.2492468E-009  0.4778727E+02  0.7816164E-02  0.1312668E+00
        -11   -1    0    0    0    0  0.00000000000E+00  0.00000000000E+00  0.45593999997E+02  0.45594000000E+02  0.51100000000E-03 0. -1.
         11   -1    0    0    0    0 -0.00000000000E+00 -0.00000000000E+00 -0.45593999997E+02  0.45594000000E+02  0.51100000000E-03 0.  1.
    9900012    2    1    2    0    0 -0.43979376610E+01  0.19540401857E+02 -0.38502652088E+02  0.47787269842E+02  0.19999994519E+02 0.  0.
         12    1    1    2    0    0  0.43979376610E+01 -0.19540401857E+02  0.38502652088E+02  0.43400730158E+02  0.00000000000E+00 0. -1.
         11    1    3    3    0    0 -0.20040886828E+01  0.11597926190E+02 -0.18201975111E+02  0.21675796677E+02  0.51100000000E-03 0. -1.
        -11    1    3    3    0    0 -0.16907640199E+01  0.11520323633E+02 -0.10591828316E+02  0.15740500847E+02  0.51100000000E-03 0.  1.
         12    1    3    3    0    0 -0.70308495831E+00 -0.35778479655E+01 -0.97088486610E+01  0.10370972319E+02  0.00000000000E+00 0. -1.
</event>
<event>
 7    1  0.2492468E-009  0.4778725E+02  0.7816164E-02  0.1312668E+00
        -11   -1    0    0    0    0  0.00000000000E+00  0.00000000000E+00  0.45593999997E+02  0.45594000000E+02  0.51100000000E-03 0.  1.
         11   -1    0    0    0    0 -0.00000000000E+00 -0.00000000000E+00 -0.45593999997E+02  0.45594000000E+02  0.51100000000E-03 0. -1.
    9900012    2    1    2    0    0 -0.65787999645E+01  0.28632165289E+02  0.31945945760E+02  0.47787251750E+02  0.19999912031E+02 0.  0.
         12    1    1    2    0    0  0.65787999645E+01 -0.28632165289E+02 -0.31945945760E+02  0.43400748250E+02  0.00000000000E+00 0. -1.
         11    1    3    3    0    0 -0.20864811928E+01  0.72190957151E+01  0.38665962368E+01  0.84509948191E+01  0.51100000000E-03 0. -1.
        -11    1    3    3    0    0 -0.84653667414E+01  0.67824890522E+01  0.18368794331E+02  0.21332538462E+02  0.51100000000E-03 0.  1.
         12    1    3    3    0    0  0.39730479697E+01  0.14630580522E+02  0.97105551922E+01  0.18003718469E+02  0.00000000000E+00 0. -1.
</event>
<event>
 7    1  0.2492468E-009  0.4778727E+02  0.7816164E-02  0.1312668E+00
        -11   -1    0    0    0    0  0.00000000000E+00  0.00000000000E+00  0.45593999997E+02  0.45594000000E+02  0.51100000000E-03 0. -1.
         11   -1    0    0    0    0 -0.00000000000E+00 -0.00000000000E+00 -0.45593999997E+02  0.45594000000E+02  0.51100000000E-03 0.  1.
    9900012    2    1    2    0    0 -0.23580220118E+02 -0.35782206342E+02 -0.68724271260E+01  0.47787270443E+02  0.19999997259E+02 0.  0.
         12    1    1    2    0    0  0.23580220118E+02  0.35782206342E+02  0.68724271260E+01  0.43400729557E+02  0.00000000000E+00 0. -1.
         11    1    3    3    0    0  0.15782549114E+01  0.19569432884E+00 -0.38071849497E+00  0.16352772454E+01  0.51100000000E-03 0. -1.
        -11    1    3    3    0    0 -0.53834394789E+01 -0.78489084338E+01  0.38183316062E+01  0.10255069027E+02  0.51100000000E-03 0.  1.
         12    1    3    3    0    0 -0.19775035550E+02 -0.28128992237E+02 -0.10310040237E+02  0.35896924171E+02  0.00000000000E+00 0. -1.
</event>
<event>
 7    1  0.2492468E-009  0.4778727E+02  0.7816164E-02  0.1312668E+00
        -11   -1    0    0    0    0  0.00000000000E+00  0.00000000000E+00  0.45593999997E+02  0.45594000000E+02  0.51100000000E-03 0.  1.
         11   -1    0    0    0    0 -0.00000000000E+00 -0.00000000000E+00 -0.45593999997E+02  0.45594000000E+02  0.51100000000E-03 0. -1.
    9900012    2    1    2    0    0 -0.36634469640E+02 -0.10832222670E+02  0.20596155931E+02  0.47787273590E+02  0.20000011604E+02 0.  0.
         12    1    1    2    0    0  0.36634469640E+02  0.10832222670E+02 -0.20596155931E+02  0.43400726410E+02  0.00000000000E+00 0. -1.
         11    1    3    3    0    0 -0.14936393151E+02 -0.80972452585E+01  0.10635696946E+02  0.20044432417E+02  0.51100000000E-03 0. -1.
        -11    1    3    3    0    0 -0.20921926618E+02 -0.65201578868E+01  0.93722162567E+01  0.23834385037E+02  0.51100000000E-03 0.  1.
         12    1    3    3    0    0 -0.77614987191E+00  0.37851804755E+01  0.58824272846E+00  0.39084561355E+01  0.00000000000E+00 0. -1.
</event>
<event>
 7    1  0.2492468E-009  0.4778727E+02  0.7816164E-02  0.1312668E+00
        -11   -1    0    0    0    0  0.00000000000E+00  0.00000000000E+00  0.45593999997E+02  0.45594000000E+02  0.51100000000E-03 0.  1.
         11   -1    0    0    0    0 -0.00000000000E+00 -0.00000000000E+00 -0.45593999997E+02  0.45594000000E+02  0.51100000000E-03 0. -1.
    9900012    2    1    2    0    0 -0.16484561130E+02  0.11342112335E+02  0.38512846232E+02  0.47787267371E+02  0.19999983252E+02 0.  0.
         12    1    1    2    0    0  0.16484561130E+02 -0.11342112335E+02 -0.38512846232E+02  0.43400732629E+02  0.00000000000E+00 0. -1.
         11    1    3    3    0    0 -0.93216263090E+01  0.38108570592E+01  0.79916251968E+01  0.12856182253E+02  0.51100000000E-03 0. -1.
        -11    1    3    3    0    0 -0.10120138668E+02  0.52877134201E+01  0.14345637006E+02  0.18335059892E+02  0.51100000000E-03 0.  1.
        -12    1    3    3    0    0  0.29572038469E+01  0.22435418553E+01  0.16175584029E+02  0.16596025226E+02  0.00000000000E+00 0.  1.
</event>
<event>
 7    1  0.2492468E-009  0.4778727E+02  0.7816164E-02  0.1312668E+00
        -11   -1    0    0    0    0  0.00000000000E+00  0.00000000000E+00  0.45593999997E+02  0.45594000000E+02  0.51100000000E-03 0.  1.
         11   -1    0    0    0    0 -0.00000000000E+00 -0.00000000000E+00 -0.45593999997E+02  0.45594000000E+02  0.51100000000E-03 0. -1.
    9900012    2    1    2    0    0  0.50951157798E+00  0.12225353555E+00  0.43397568514E+02  0.47787268429E+02  0.19999988073E+02 0.  0.
         12    1    1    2    0    0 -0.50951157798E+00 -0.12225353555E+00 -0.43397568514E+02  0.43400731571E+02  0.00000000000E+00 0. -1.
         11    1    3    3    0    0 -0.72688169034E+01 -0.47560203486E+01  0.21810488663E+02  0.23476644664E+02  0.51100000000E-03 0. -1.
        -11    1    3    3    0    0  0.41135316808E+00  0.35543720009E+01  0.54150087470E+01  0.64903845604E+01  0.51100000000E-03 0.  1.
         12    1    3    3    0    0  0.73669753134E+01  0.13239018833E+01  0.16172071105E+02  0.17820239204E+02  0.00000000000E+00 0. -1.
</event>
<event>
 7    1  0.2492468E-009  0.4778727E+02  0.7816164E-02  0.1312668E+00
        -11   -1    0    0    0    0  0.00000000000E+00  0.00000000000E+00  0.45593999997E+02  0.45594000000E+02  0.51100000000E-03 0.  1.
         11   -1    0    0    0    0 -0.00000000000E+00 -0.00000000000E+00 -0.45593999997E+02  0.45594000000E+02  0.51100000000E-03 0. -1.
    9900012    2    1    2    0    0  0.38912532375E+01  0.17966879019E+02  0.39315046398E+02  0.47787268822E+02  0.19999989868E+02 0.  0.
         12    1    1    2    0    0 -0.38912532375E+01 -0.17966879019E+02 -0.39315046398E+02  0.43400731178E+02  0.00000000000E+00 0. -1.
         11    1    3    3    0    0  0.26820811488E+01  0.43128301052E+01  0.44543573278E+01  0.67553950491E+01  0.51100000000E-03 0. -1.
        -11    1    3    3    0    0  0.66572975879E+01  0.13172369162E+02  0.17838602681E+02  0.23152681624E+02  0.51100000000E-03 0.  1.
         12    1    3    3    0    0 -0.54481254991E+01  0.48167975150E+00  0.17022086390E+02  0.17879192149E+02  0.00000000000E+00 0. -1.
</event>
<event>
 7    1  0.2492468E-009  0.4778730E+02  0.7816164E-02  0.1312668E+00
        -11   -1    0    0    0    0  0.00000000000E+00  0.00000000000E+00  0.45593999997E+02  0.45594000000E+02  0.51100000000E-03 0.  1.
         11   -1    0    0    0    0 -0.00000000000E+00 -0.00000000000E+00 -0.45593999997E+02  0.45594000000E+02  0.51100000000E-03 0. -1.
    9900012    2    1    2    0    0 -0.41346122552E+02  0.24574996803E+01 -0.12964560103E+02  0.47787297547E+02  0.20000120836E+02 0.  0.
         12    1    1    2    0    0  0.41346122552E+02 -0.24574996803E+01  0.12964560103E+02  0.43400702453E+02  0.00000000000E+00 0. -1.
         11    1    3    3    0    0 -0.17029324285E+01 -0.19912780294E+01 -0.10859214046E+01  0.28362638461E+01  0.51100000000E-03 0. -1.
        -11    1    3    3    0    0 -0.11248902857E+02 -0.20116057148E+01  0.35894101498E+01  0.11977822779E+02  0.51100000000E-03 0.  1.
         12    1    3    3    0    0 -0.28394287266E+02  0.64603834246E+01 -0.15468048848E+02  0.32973210922E+02  0.00000000000E+00 0. -1.
</event>
<event>
 7    1  0.2492468E-009  0.4778727E+02  0.7816164E-02  0.1312668E+00
        -11   -1    0    0    0    0  0.00000000000E+00  0.00000000000E+00  0.45593999997E+02  0.45594000000E+02  0.51100000000E-03 0.  1.
         11   -1    0    0    0    0 -0.00000000000E+00 -0.00000000000E+00 -0.45593999997E+02  0.45594000000E+02  0.51100000000E-03 0. -1.
    9900012    2    1    2    0    0 -0.12415963060E+02  0.15919028726E+02  0.38419420419E+02  0.47787268674E+02  0.19999989192E+02 0.  0.
         12    1    1    2    0    0  0.12415963060E+02 -0.15919028726E+02 -0.38419420419E+02  0.43400731326E+02  0.00000000000E+00 0. -1.
         11    1    3    3    0    0 -0.47064099689E+01 -0.12979959658E+01  0.70375845164E+01  0.85652019479E+01  0.51100000000E-03 0. -1.
        -11    1    3    3    0    0 -0.11673281887E+02  0.11193459239E+02  0.19627057950E+02  0.25431878495E+02  0.51100000000E-03 0.  1.
        -12    1    3    3    0    0  0.39637287955E+01  0.60235654519E+01  0.11754777953E+02  0.13790188231E+02  0.00000000000E+00 0.  1.
</event>
<event>
 7    1  0.2492468E-009  0.4778727E+02  0.7816164E-02  0.1312668E+00
        -11   -1    0    0    0    0  0.00000000000E+00  0.00000000000E+00  0.45593999997E+02  0.45594000000E+02  0.51100000000E-03 0.  1.
         11   -1    0    0    0    0 -0.00000000000E+00 -0.00000000000E+00 -0.45593999997E+02  0.45594000000E+02  0.51100000000E-03 0. -1.
    9900012    2    1    2    0    0 -0.40188410073E+02  0.82596711957E+01 -0.14152488340E+02  0.47787269607E+02  0.19999993444E+02 0.  0.
         12    1    1    2    0    0  0.40188410073E+02 -0.82596711957E+01  0.14152488340E+02  0.43400730393E+02  0.00000000000E+00 0. -1.
         11    1    3    3    0    0 -0.70801763536E+01  0.75846372373E+01 -0.28374900470E+01  0.10756717401E+02  0.51100000000E-03 0. -1.
        -11    1    3    3    0    0 -0.17796998967E+02  0.29581129053E+01 -0.32221724523E+00  0.18044041355E+02  0.51100000000E-03 0.  1.
        -12    1    3    3    0    0 -0.15311234753E+02 -0.22830789470E+01 -0.10992781048E+02  0.18986510851E+02  0.00000000000E+00 0.  1.
</event>
<event>
 7    1  0.2492468E-009  0.4778727E+02  0.7816164E-02  0.1312668E+00
        -11   -1    0    0    0    0  0.00000000000E+00  0.00000000000E+00  0.45593999997E+02  0.45594000000E+02  0.51100000000E-03 0.  1.
         11   -1    0    0    0    0 -0.00000000000E+00 -0.00000000000E+00 -0.45593999997E+02  0.45594000000E+02  0.51100000000E-03 0. -1.
    9900012    2    1    2    0    0 -0.18314290050E+02  0.13091574730E+02  0.37105533673E+02  0.47787272147E+02  0.20000005028E+02 0.  0.
         12    1    1    2    0    0  0.18314290050E+02 -0.13091574730E+02 -0.37105533673E+02  0.43400727853E+02  0.00000000000E+00 0. -1.
         11    1    3    3    0    0 -0.38796604163E+01  0.74285973981E+01  0.15805295651E+02  0.17889751120E+02  0.51100000000E-03 0. -1.
        -11    1    3    3    0    0 -0.13404246287E+02  0.98478925804E+01  0.17614630452E+02  0.24226638500E+02  0.51100000000E-03 0.  1.
         12    1    3    3    0    0 -0.10303833466E+01 -0.41849152481E+01  0.36856075706E+01  0.56708825274E+01  0.00000000000E+00 0. -1.
</event>
<event>
 7    1  0.2492468E-009  0.4778727E+02  0.7816164E-02  0.1312668E+00
        -11   -1    0    0    0    0  0.00000000000E+00  0.00000000000E+00  0.45593999997E+02  0.45594000000E+02  0.51100000000E-03 0.  1.
         11   -1    0    0    0    0 -0.00000000000E+00 -0.00000000000E+00 -0.45593999997E+02  0.45594000000E+02  0.51100000000E-03 0. -1.
    9900012    2    1    2    0    0 -0.18972592967E+01  0.41363903701E+02  0.13001974267E+02  0.47787268934E+02  0.19999990379E+02 0.  0.
         12    1    1    2    0    0  0.18972592967E+01 -0.41363903701E+02 -0.13001974267E+02  0.43400731066E+02  0.00000000000E+00 0. -1.
         11    1    3    3    0    0 -0.58209415500E+01  0.42946863857E+01  0.12421323716E+01  0.73396583551E+01  0.51100000000E-03 0.  1.
        -11    1    3    3    0    0 -0.23742909644E+01  0.21162376058E+01  0.11265263480E+01  0.33741341203E+01  0.51100000000E-03 0. -1.
        -12    1    3    3    0    0  0.62979732177E+01  0.34952979709E+02  0.10633315547E+02  0.37073476459E+02  0.00000000000E+00 0.  1.
</event>
<event>
 7    1  0.2492468E-009  0.4778727E+02  0.7816164E-02  0.1312668E+00
        -11   -1    0    0    0    0  0.00000000000E+00  0.00000000000E+00  0.45593999997E+02  0.45594000000E+02  0.51100000000E-03 0. -1.
         11   -1    0    0    0    0 -0.00000000000E+00 -0.00000000000E+00 -0.45593999997E+02  0.45594000000E+02  0.51100000000E-03 0.  1.
    9900012    2    1    2    0    0  0.27825921340E+02  0.26324406699E+01  0.33202580133E+02  0.47787274548E+02  0.20000015974E+02 0.  0.
         12    1    1    2    0    0 -0.27825921340E+02 -0.26324406699E+01 -0.33202580133E+02  0.43400725452E+02  0.00000000000E+00 0. -1.
         11    1    3    3    0    0 -0.38283539174E+00 -0.15804858663E+01  0.38431768600E+01  0.41730692720E+01  0.51100000000E-03 0. -1.
        -11    1    3    3    0    0  0.10277215237E+02  0.89642856416E+01  0.13812805668E+02  0.19410645810E+02  0.51100000000E-03 0.  1.
        -12    1    3    3    0    0  0.17931541494E+02 -0.47513591054E+01  0.15546597605E+02  0.24203559466E+02  0.00000000000E+00 0.  1.
</event>
<event>
 7    1  0.2492468E-009  0.4778727E+02  0.7816164E-02  0.1312668E+00
        -11   -1    0    0    0    0  0.00000000000E+00  0.00000000000E+00  0.45593999997E+02  0.45594000000E+02  0.51100000000E-03 0. -1.
         11   -1    0    0    0    0 -0.00000000000E+00 -0.00000000000E+00 -0.45593999997E+02  0.45594000000E+02  0.51100000000E-03 0.  1.
    9900012    2    1    2    0    0  0.20165696597E+02 -0.29109445148E+02 -0.25091995742E+02  0.47787269979E+02  0.19999995140E+02 0.  0.
         12    1    1    2    0    0 -0.20165696597E+02  0.29109445148E+02  0.25091995742E+02  0.43400730021E+02  0.00000000000E+00 0. -1.
         11    1    3    3    0    0  0.10506855929E+02 -0.16390414517E+02 -0.94521377968E+01  0.21642149124E+02  0.51100000000E-03 0.  1.
        -11    1    3    3    0    0  0.36703339453E+01  0.21744125245E+01 -0.61904121926E+01  0.75180199835E+01  0.51100000000E-03 0. -1.
         12    1    3    3    0    0  0.59885067236E+01 -0.14893443156E+02 -0.94494457521E+01  0.18627100871E+02  0.00000000000E+00 0. -1.
</event>
<event>
 7    1  0.2625065E-009  0.4778728E+02  0.7816164E-02  0.1312668E+00
        -11   -1    0    0    0    0  0.00000000000E+00  0.00000000000E+00  0.45593999997E+02  0.45594000000E+02  0.51100000000E-03 0. -1.
         11   -1    0    0    0    0 -0.00000000000E+00 -0.00000000000E+00 -0.45593999997E+02  0.45594000000E+02  0.51100000000E-03 0.  1.
    9900012    2    1    2    0    0 -0.26692185999E+02 -0.21796639014E+01 -0.34152584346E+02  0.47787277131E+02  0.20000027749E+02 0.  0.
         12    1    1    2    0    0  0.26692185999E+02  0.21796639014E+01  0.34152584346E+02  0.43400722869E+02  0.00000000000E+00 0. -1.
         11    1    3    3    0    0 -0.12013142901E+02  0.21008193589E+01 -0.54269390649E+01  0.13348434822E+02  0.51100000000E-03 0. -1.
        -11    1    3    3    0    0 -0.46673014267E+01  0.36856649084E+01 -0.11879340709E+02  0.13284824589E+02  0.51100000000E-03 0.  1.
         12    1    3    3    0    0 -0.10011741671E+02 -0.79661481687E+01 -0.16846304572E+02  0.21154017719E+02  0.00000000000E+00 0. -1.
</event>
<event>
 7    1  0.2492468E-009  0.4778730E+02  0.7816164E-02  0.1312668E+00
        -11   -1    0    0    0    0  0.00000000000E+00  0.00000000000E+00  0.45593999997E+02  0.45594000000E+02  0.51100000000E-03 0. -1.
         11   -1    0    0    0    0 -0.00000000000E+00 -0.00000000000E+00 -0.45593999997E+02  0.45594000000E+02  0.51100000000E-03 0.  1.
    9900012    2    1    2    0    0  0.31151056125E+02 -0.71753394554E+01 -0.29355533508E+02  0.47787295610E+02  0.20000112005E+02 0.  0.
         12    1    1    2    0    0 -0.31151056125E+02  0.71753394554E+01  0.29355533508E+02  0.43400704390E+02  0.00000000000E+00 0. -1.
         11    1    3    3    0    0  0.74692907349E+00  0.28822827221E+01  0.33229714937E+00  0.29959770339E+01  0.51100000000E-03 0. -1.
        -11    1    3    3    0    0  0.60937014030E+00  0.14693671495E+01 -0.15116518252E+01  0.21944163893E+01  0.51100000000E-03 0.  1.
        -12    1    3    3    0    0  0.29794756911E+02 -0.11526989327E+02 -0.28176178833E+02  0.42596902187E+02  0.00000000000E+00 0.  1.
</event>
<event>
 7    1  0.2492468E-009  0.4778726E+02  0.7816164E-02  0.1312668E+00
        -11   -1    0    0    0    0  0.00000000000E+00  0.00000000000E+00  0.45593999997E+02  0.45594000000E+02  0.51100000000E-03 0.  1.
         11   -1    0    0    0    0 -0.00000000000E+00 -0.00000000000E+00 -0.45593999997E+02  0.45594000000E+02  0.51100000000E-03 0. -1.
    9900012    2    1    2    0    0 -0.48875211638E+01 -0.18734645057E+02  0.38842623326E+02  0.47787260659E+02  0.19999952647E+02 0.  0.
         12    1    1    2    0    0  0.48875211638E+01  0.18734645057E+02 -0.38842623326E+02  0.43400739341E+02  0.00000000000E+00 0. -1.
         11    1    3    3    0    0 -0.89798848680E+01 -0.10640289901E+02  0.13776479449E+02  0.19586870288E+02  0.51100000000E-03 0. -1.
        -11    1    3    3    0    0 -0.32203548470E+00  0.15614871241E+01  0.96324371201E+00  0.18627365895E+01  0.51100000000E-03 0.  1.
        -12    1    3    3    0    0  0.44143991889E+01 -0.96558422804E+01  0.24102900165E+02  0.26337653781E+02  0.00000000000E+00 0.  1.
</event>
<event>
 7    1  0.2492468E-009  0.4778727E+02  0.7816164E-02  0.1312668E+00
        -11   -1    0    0    0    0  0.00000000000E+00  0.00000000000E+00  0.45593999997E+02  0.45594000000E+02  0.51100000000E-03 0. -1.
         11   -1    0    0    0    0 -0.00000000000E+00 -0.00000000000E+00 -0.45593999997E+02  0.45594000000E+02  0.51100000000E-03 0.  1.
    9900012    2    1    2    0    0  0.25268860222E+02 -0.19991562090E+02 -0.29076542961E+02  0.47787271869E+02  0.20000003760E+02 0.  0.
         12    1    1    2    0    0 -0.25268860222E+02  0.19991562090E+02  0.29076542961E+02  0.43400728131E+02  0.00000000000E+00 0. -1.
         11    1    3    3    0    0  0.68880833169E+01 -0.26367448958E+01 -0.56295107475E+01  0.92784431314E+01  0.51100000000E-03 0. -1.
        -11    1    3    3    0    0  0.12883379971E+02 -0.23876610789E+01 -0.16620309877E+02  0.21164052202E+02  0.51100000000E-03 0.  1.
         12    1    3    3    0    0  0.54973969336E+01 -0.14967156115E+02 -0.68267223368E+01  0.17344776536E+02  0.00000000000E+00 0. -1.
</event>
<event>
 7    1  0.2492468E-009  0.4778728E+02  0.7816164E-02  0.1312668E+00
        -11   -1    0    0    0    0  0.00000000000E+00  0.00000000000E+00  0.45593999997E+02  0.45594000000E+02  0.51100000000E-03 0. -1.
         11   -1    0    0    0    0 -0.00000000000E+00 -0.00000000000E+00 -0.45593999997E+02  0.45594000000E+02  0.51100000000E-03 0.  1.
    9900012    2    1    2    0    0 -0.12410482762E+02  0.36060824802E+02  0.20717619095E+02  0.47787275251E+02  0.20000019180E+02 0.  0.
         12    1    1    2    0    0  0.12410482762E+02 -0.36060824802E+02 -0.20717619095E+02  0.43400724749E+02  0.00000000000E+00 0. -1.
         11    1    3    3    0    0 -0.52580743635E+01  0.27672936403E+01  0.40207816366E+01  0.71743951197E+01  0.51100000000E-03 0. -1.
        -11    1    3    3    0    0 -0.81120388259E+01  0.17143384086E+02  0.15311499152E+02  0.24375044582E+02  0.51100000000E-03 0.  1.
        -12    1    3    3    0    0  0.95963042710E+00  0.16150147075E+02  0.13853383063E+01  0.16237835549E+02  0.00000000000E+00 0.  1.
</event>
<event>
 7    1  0.2492468E-009  0.4778727E+02  0.7816164E-02  0.1312668E+00
        -11   -1    0    0    0    0  0.00000000000E+00  0.00000000000E+00  0.45593999997E+02  0.45594000000E+02  0.51100000000E-03 0. -1.
         11   -1    0    0    0    0 -0.00000000000E+00 -0.00000000000E+00 -0.45593999997E+02  0.45594000000E+02  0.51100000000E-03 0.  1.
    9900012    2    1    2    0    0  0.20109148762E+02 -0.11411724479E+02 -0.36728981558E+02  0.47787269524E+02  0.19999993069E+02 0.  0.
         12    1    1    2    0    0 -0.20109148762E+02  0.11411724479E+02  0.36728981558E+02  0.43400730476E+02  0.00000000000E+00 0. -1.
         11    1    3    3    0    0 -0.16499298985E+00  0.16169860486E+01 -0.37304059828E+01  0.40691271332E+01  0.51100000000E-03 0. -1.
        -11    1    3    3    0    0  0.22559147132E+02 -0.12187321839E+02 -0.26954616285E+02  0.37202113814E+02  0.51100000000E-03 0.  1.
        -12    1    3    3    0    0 -0.22850053794E+01 -0.84138868860E+00 -0.60439592904E+01  0.65160285768E+01  0.00000000000E+00 0.  1.
</event>
<event>
 7    1  0.2492468E-009  0.4778727E+02  0.7816164E-02  0.1312668E+00
        -11   -1    0    0    0    0  0.00000000000E+00  0.00000000000E+00  0.45593999997E+02  0.45594000000E+02  0.51100000000E-03 0.  1.
         11   -1    0    0    0    0 -0.00000000000E+00 -0.00000000000E+00 -0.45593999997E+02  0.45594000000E+02  0.51100000000E-03 0. -1.
    9900012    2    1    2    0    0 -0.56470793256E+01  0.11483835360E+02  0.41471134457E+02  0.47787274515E+02  0.20000015825E+02 0.  0.
         12    1    1    2    0    0  0.56470793256E+01 -0.11483835360E+02 -0.41471134457E+02  0.43400725485E+02  0.00000000000E+00 0. -1.
         11    1    3    3    0    0 -0.30121242008E+01  0.87411746319E+01  0.88794385682E+01  0.12818949087E+02  0.51100000000E-03 0. -1.
        -11    1    3    3    0    0 -0.39286727711E+01  0.63991143598E+01  0.27838937908E+02  0.28833827329E+02  0.51100000000E-03 0.  1.
         12    1    3    3    0    0  0.12937176463E+01 -0.36564536320E+01  0.47527579800E+01  0.61344980991E+01  0.00000000000E+00 0. -1.
</event>
<event>
 7    1  0.2492468E-009  0.4778727E+02  0.7816164E-02  0.1312668E+00
        -11   -1    0    0    0    0  0.00000000000E+00  0.00000000000E+00  0.45593999997E+02  0.45594000000E+02  0.51100000000E-03 0.  1.
         11   -1    0    0    0    0 -0.00000000000E+00 -0.00000000000E+00 -0.45593999997E+02  0.45594000000E+02  0.51100000000E-03 0. -1.
    9900012    2    1    2    0    0 -0.98581269110E+01  0.86930716554E+00  0.42257365447E+02  0.47787270793E+02  0.19999998854E+02 0.  0.
         12    1    1    2    0    0  0.98581269110E+01 -0.86930716554E+00 -0.42257365447E+02  0.43400729207E+02  0.00000000000E+00 0. -1.
         11    1    3    3    0    0 -0.25493687968E+01 -0.19972514323E+00 -0.79443858760E+00  0.26777423934E+01  0.51100000000E-03 0. -1.
        -11    1    3    3    0    0  0.20722637043E+01  0.13912709190E+01  0.26857737733E+01  0.36665096008E+01  0.51100000000E-03 0.  1.
        -12    1    3    3    0    0 -0.93810218186E+01 -0.32223861025E+00  0.40366030262E+02  0.41443018799E+02  0.00000000000E+00 0.  1.
</event>
<event>
 7    1  0.2492468E-009  0.4778727E+02  0.7816164E-02  0.1312668E+00
        -11   -1    0    0    0    0  0.00000000000E+00  0.00000000000E+00  0.45593999997E+02  0.45594000000E+02  0.51100000000E-03 0. -1.
         11   -1    0    0    0    0 -0.00000000000E+00 -0.00000000000E+00 -0.45593999997E+02  0.45594000000E+02  0.51100000000E-03 0.  1.
    9900012    2    1    2    0    0 -0.16006237414E+02  0.13005256759E+02  0.38187520970E+02  0.47787273078E+02  0.20000009273E+02 0.  0.
         12    1    1    2    0    0  0.16006237414E+02 -0.13005256759E+02 -0.38187520970E+02  0.43400726922E+02  0.00000000000E+00 0. -1.
         11    1    3    3    0    0 -0.73181033327E+01  0.24057647682E+00  0.70238497260E+01  0.10146279055E+02  0.51100000000E-03 0. -1.
        -11    1    3    3    0    0 -0.99554875880E+01  0.89114081004E+01  0.11702472574E+02  0.17761553762E+02  0.51100000000E-03 0.  1.
         12    1    3    3    0    0  0.12673535072E+01  0.38532721819E+01  0.19461198670E+02  0.19879440261E+02  0.00000000000E+00 0. -1.
</event>
<event>
 7    1  0.2492468E-009  0.4778727E+02  0.7816164E-02  0.1312668E+00
        -11   -1    0    0    0    0  0.00000000000E+00  0.00000000000E+00  0.45593999997E+02  0.45594000000E+02  0.51100000000E-03 0.  1.
         11   -1    0    0    0    0 -0.00000000000E+00 -0.00000000000E+00 -0.45593999997E+02  0.45594000000E+02  0.51100000000E-03 0. -1.
    9900012    2    1    2    0    0 -0.78378202610E+01 -0.27433826206E+02  0.32704390579E+02  0.47787269477E+02  0.19999992855E+02 0.  0.
         12    1    1    2    0    0  0.78378202610E+01  0.27433826206E+02 -0.32704390579E+02  0.43400730523E+02  0.00000000000E+00 0. -1.
         11    1    3    3    0    0 -0.49434797323E+01 -0.20842529789E+02  0.13139584054E+02  0.25129618168E+02  0.51100000000E-03 0.  1.
        -11    1    3    3    0    0  0.15021794142E+01 -0.46628094912E+01  0.38641291126E+01  0.62393773250E+01  0.51100000000E-03 0. -1.
        -12    1    3    3    0    0 -0.43965199428E+01 -0.19284869260E+01  0.15700677412E+02  0.16418273985E+02  0.00000000000E+00 0.  1.
</event>
<event>
 7    1  0.2492468E-009  0.4778727E+02  0.7816164E-02  0.1312668E+00
        -11   -1    0    0    0    0  0.00000000000E+00  0.00000000000E+00  0.45593999997E+02  0.45594000000E+02  0.51100000000E-03 0.  1.
         11   -1    0    0    0    0 -0.00000000000E+00 -0.00000000000E+00 -0.45593999997E+02  0.45594000000E+02  0.51100000000E-03 0. -1.
    9900012    2    1    2    0    0 -0.27635004418E+02  0.60278193561E+01  0.32918013293E+02  0.47787266429E+02  0.19999978954E+02 0.  0.
         12    1    1    2    0    0  0.27635004418E+02 -0.60278193561E+01 -0.32918013293E+02  0.43400733571E+02  0.00000000000E+00 0. -1.
         11    1    3    3    0    0 -0.10831351444E+02 -0.14586723239E+01  0.95946861134E+01  0.14543173689E+02  0.51100000000E-03 0. -1.
        -11    1    3    3    0    0 -0.13852766384E+02 -0.97168160266E+00  0.18303871949E+02  0.22975531119E+02  0.51100000000E-03 0.  1.
        -12    1    3    3    0    0 -0.29508865898E+01  0.84581732826E+01  0.50194552303E+01  0.10268561621E+02  0.00000000000E+00 0.  1.
</event>
<event>
 7    1  0.2492468E-009  0.4778723E+02  0.7816164E-02  0.1312668E+00
        -11   -1    0    0    0    0  0.00000000000E+00  0.00000000000E+00  0.45593999997E+02  0.45594000000E+02  0.51100000000E-03 0.  1.
         11   -1    0    0    0    0 -0.00000000000E+00 -0.00000000000E+00 -0.45593999997E+02  0.45594000000E+02  0.51100000000E-03 0. -1.
    9900012    2    1    2    0    0 -0.39118017095E+02  0.91155532884E+01  0.16441223991E+02  0.47787234805E+02  0.19999834768E+02 0.  0.
         12    1    1    2    0    0  0.39118017095E+02 -0.91155532884E+01 -0.16441223991E+02  0.43400765195E+02  0.00000000000E+00 0. -1.
         11    1    3    3    0    0  0.80266038420E-01  0.49174606605E+00  0.46222070777E+00  0.67963598655E+00  0.51100000000E-03 0. -1.
        -11    1    3    3    0    0 -0.19767330582E+02 -0.38287818629E+01  0.12678760739E+02  0.23794072854E+02  0.51100000000E-03 0.  1.
         12    1    3    3    0    0 -0.19430952552E+02  0.12452589085E+02  0.33002425449E+01  0.23313525964E+02  0.00000000000E+00 0. -1.
</event>
<event>
 7    1  0.2492468E-009  0.4778728E+02  0.7816164E-02  0.1312668E+00
        -11   -1    0    0    0    0  0.00000000000E+00  0.00000000000E+00  0.45593999997E+02  0.45594000000E+02  0.51100000000E-03 0.  1.
         11   -1    0    0    0    0 -0.00000000000E+00 -0.00000000000E+00 -0.45593999997E+02  0.45594000000E+02  0.51100000000E-03 0. -1.
    9900012    2    1    2    0    0 -0.20882407965E+02 -0.26766230214E+02  0.27039172474E+02  0.47787275463E+02  0.20000020144E+02 0.  0.
         12    1    1    2    0    0  0.20882407965E+02  0.26766230214E+02 -0.27039172474E+02  0.43400724537E+02  0.00000000000E+00 0. -1.
         11    1    3    3    0    0 -0.83517548076E+01 -0.15438382680E+02  0.39434909081E+01  0.17990180348E+02  0.51100000000E-03 0. -1.
        -11    1    3    3    0    0 -0.86970852983E+01 -0.29712073557E+01  0.83350517002E+01  0.12407274195E+02  0.51100000000E-03 0.  1.
        -12    1    3    3    0    0 -0.38335678592E+01 -0.83566401785E+01  0.14760629866E+02  0.17389820920E+02  0.00000000000E+00 0.  1.
</event>
<event>
 7    1  0.2492468E-009  0.4778727E+02  0.7816164E-02  0.1312668E+00
        -11   -1    0    0    0    0  0.00000000000E+00  0.00000000000E+00  0.45593999997E+02  0.45594000000E+02  0.51100000000E-03 0.  1.
         11   -1    0    0    0    0 -0.00000000000E+00 -0.00000000000E+00 -0.45593999997E+02  0.45594000000E+02  0.51100000000E-03 0. -1.
    9900012    2    1    2    0    0  0.41526871322E+01  0.41715963154E+02 -0.11231962067E+02  0.47787270004E+02  0.19999995258E+02 0.  0.
         12    1    1    2    0    0 -0.41526871322E+01 -0.41715963154E+02  0.11231962067E+02  0.43400729996E+02  0.00000000000E+00 0. -1.
         11    1    3    3    0    0  0.12197965391E+01  0.11603872023E+02 -0.26978093690E+00  0.11670926765E+02  0.51100000000E-03 0. -1.
        -11    1    3    3    0    0 -0.22497633430E+01  0.22512882049E+02 -0.11313030204E+01  0.22653280999E+02  0.51100000000E-03 0.  1.
         12    1    3    3    0    0  0.51826539361E+01  0.75992090821E+01 -0.98308781092E+01  0.13463062241E+02  0.00000000000E+00 0. -1.
</event>
<event>
 7    1  0.2492468E-009  0.4778727E+02  0.7816164E-02  0.1312668E+00
        -11   -1    0    0    0    0  0.00000000000E+00  0.00000000000E+00  0.45593999997E+02  0.45594000000E+02  0.51100000000E-03 0.  1.
         11   -1    0    0    0    0 -0.00000000000E+00 -0.00000000000E+00 -0.45593999997E+02  0.45594000000E+02  0.51100000000E-03 0. -1.
    9900012    2    1    2    0    0  0.93600831933E+00 -0.23630797446E+02  0.36391378288E+02  0.47787272895E+02  0.20000008439E+02 0.  0.
         12    1    1    2    0    0 -0.93600831933E+00  0.23630797446E+02 -0.36391378288E+02  0.43400727105E+02  0.00000000000E+00 0. -1.
         11    1    3    3    0    0 -0.46030611099E+01 -0.71127400673E+00  0.44396419592E+01  0.64346331116E+01  0.51100000000E-03 0. -1.
        -11    1    3    3    0    0 -0.26602717121E+01 -0.12301493748E+01  0.50320661515E+01  0.58234013326E+01  0.51100000000E-03 0.  1.
        -12    1    3    3    0    0  0.81993411414E+01 -0.21689374064E+02  0.26919670177E+02  0.35529238451E+02  0.00000000000E+00 0.  1.
</event>
<event>
 7    1  0.2492468E-009  0.4778727E+02  0.7816164E-02  0.1312668E+00
        -11   -1    0    0    0    0  0.00000000000E+00  0.00000000000E+00  0.45593999997E+02  0.45594000000E+02  0.51100000000E-03 0. -1.
         11   -1    0    0    0    0 -0.00000000000E+00 -0.00000000000E+00 -0.45593999997E+02  0.45594000000E+02  0.51100000000E-03 0.  1.
    9900012    2    1    2    0    0  0.15919337858E+01 -0.43331775602E+02 -0.18564530119E+01  0.47787269041E+02  0.19999990867E+02 0.  0.
         12    1    1    2    0    0 -0.15919337858E+01  0.43331775602E+02  0.18564530119E+01  0.43400730959E+02  0.00000000000E+00 0. -1.
         11    1    3    3    0    0  0.32324252685E+01 -0.46724556170E+01  0.24556353598E+01  0.61895524790E+01  0.51100000000E-03 0. -1.
        -11    1    3    3    0    0 -0.63348599899E+01 -0.21622418395E+02  0.24761797241E+01  0.22666956007E+02  0.51100000000E-03 0.  1.
         12    1    3    3    0    0  0.46943685073E+01 -0.17036901590E+02 -0.67882680957E+01  0.18930760556E+02  0.00000000000E+00 0. -1.
</event>
<event>
 7    1  0.2492468E-009  0.4778727E+02  0.7816164E-02  0.1312668E+00
        -11   -1    0    0    0    0  0.00000000000E+00  0.00000000000E+00  0.45593999997E+02  0.45594000000E+02  0.51100000000E-03 0.  1.
         11   -1    0    0    0    0 -0.00000000000E+00 -0.00000000000E+00 -0.45593999997E+02  0.45594000000E+02  0.51100000000E-03 0. -1.
    9900012    2    1    2    0    0 -0.19945120110E+02 -0.22185704445E+02  0.31521574907E+02  0.47787274401E+02  0.20000015305E+02 0.  0.
         12    1    1    2    0    0  0.19945120110E+02  0.22185704445E+02 -0.31521574907E+02  0.43400725599E+02  0.00000000000E+00 0. -1.
         11    1    3    3    0    0 -0.22972280131E+01  0.13895296416E+01  0.57874665541E+01  0.63798760603E+01  0.51100000000E-03 0. -1.
        -11    1    3    3    0    0 -0.18486979095E+02 -0.17177332932E+02  0.16532385598E+02  0.30168674756E+02  0.51100000000E-03 0.  1.
        -12    1    3    3    0    0  0.83908699798E+00 -0.63979011545E+01  0.92017227547E+01  0.11238723585E+02  0.00000000000E+00 0.  1.
</event>
<event>
 7    1  0.2492468E-009  0.4778727E+02  0.7816164E-02  0.1312668E+00
        -11   -1    0    0    0    0  0.00000000000E+00  0.00000000000E+00  0.45593999997E+02  0.45594000000E+02  0.51100000000E-03 0.  1.
         11   -1    0    0    0    0 -0.00000000000E+00 -0.00000000000E+00 -0.45593999997E+02  0.45594000000E+02  0.51100000000E-03 0. -1.
    9900012    2    1    2    0    0 -0.32126623758E+01 -0.54973588114E+01  0.42931125514E+02  0.47787266235E+02  0.19999978072E+02 0.  0.
         12    1    1    2    0    0  0.32126623758E+01  0.54973588114E+01 -0.42931125514E+02  0.43400733765E+02  0.00000000000E+00 0. -1.
         11    1    3    3    0    0 -0.20686841681E+01 -0.84212840592E-01 -0.10606314213E+01  0.23262599302E+01  0.51100000000E-03 0. -1.
        -11    1    3    3    0    0 -0.59022283226E+00 -0.57686044270E+01  0.10762569278E+02  0.12225303994E+02  0.51100000000E-03 0.  1.
        -12    1    3    3    0    0 -0.55375537550E+00  0.35545845620E+00  0.33229187657E+02  0.33235702311E+02  0.00000000000E+00 0.  1.
</event>
<event>
 7    1  0.2492468E-009  0.4778727E+02  0.7816164E-02  0.1312668E+00
        -11   -1    0    0    0    0  0.00000000000E+00  0.00000000000E+00  0.45593999997E+02  0.45594000000E+02  0.51100000000E-03 0. -1.
         11   -1    0    0    0    0 -0.00000000000E+00 -0.00000000000E+00 -0.45593999997E+02  0.45594000000E+02  0.51100000000E-03 0.  1.
    9900012    2    1    2    0    0 -0.89934675481E+00  0.41835048868E+02  0.11517088114E+02  0.47787268935E+02  0.19999990381E+02 0.  0.
         12    1    1    2    0    0  0.89934675481E+00 -0.41835048868E+02 -0.11517088114E+02  0.43400731065E+02  0.00000000000E+00 0. -1.
         11    1    3    3    0    0  0.10833486747E+01  0.15190878191E+02 -0.31135318375E+01  0.15544468641E+02  0.51100000000E-03 0.  1.
        -11    1    3    3    0    0 -0.42479251337E+01  0.36103697742E+01  0.24686089529E+01  0.60970212622E+01  0.51100000000E-03 0. -1.
        -12    1    3    3    0    0  0.22652297042E+01  0.23033800903E+02  0.12162010999E+02  0.26145779032E+02  0.00000000000E+00 0.  1.
</event>
<event>
 7    1  0.2492468E-009  0.4778727E+02  0.7816164E-02  0.1312668E+00
        -11   -1    0    0    0    0  0.00000000000E+00  0.00000000000E+00  0.45593999997E+02  0.45594000000E+02  0.51100000000E-03 0.  1.
         11   -1    0    0    0    0 -0.00000000000E+00 -0.00000000000E+00 -0.45593999997E+02  0.45594000000E+02  0.51100000000E-03 0. -1.
    9900012    2    1    2    0    0  0.36144321098E+02 -0.10845803570E+02  0.21437809463E+02  0.47787273309E+02  0.20000010326E+02 0.  0.
         12    1    1    2    0    0 -0.36144321098E+02  0.10845803570E+02 -0.21437809463E+02  0.43400726691E+02  0.00000000000E+00 0. -1.
         11    1    3    3    0    0  0.18806961356E+01 -0.46900959275E+01  0.33577771988E+01  0.60670162141E+01  0.51100000000E-03 0. -1.
        -11    1    3    3    0    0  0.66904169354E+01 -0.48418318420E+01 -0.76892342170E+00  0.82943509598E+01  0.51100000000E-03 0.  1.
         12    1    3    3    0    0  0.27573208027E+02 -0.13138758004E+01  0.18848955686E+02  0.33425906135E+02  0.00000000000E+00 0. -1.
</event>
<event>
 7    1  0.2492468E-009  0.4778727E+02  0.7816164E-02  0.1312668E+00
        -11   -1    0    0    0    0  0.00000000000E+00  0.00000000000E+00  0.45593999997E+02  0.45594000000E+02  0.51100000000E-03 0.  1.
         11   -1    0    0    0    0 -0.00000000000E+00 -0.00000000000E+00 -0.45593999997E+02  0.45594000000E+02  0.51100000000E-03 0. -1.
    9900012    2    1    2    0    0 -0.91443009970E+01 -0.25852269411E+02  0.33640230420E+02  0.47787272159E+02  0.20000005081E+02 0.  0.
         12    1    1    2    0    0  0.91443009970E+01  0.25852269411E+02 -0.33640230420E+02  0.43400727841E+02  0.00000000000E+00 0. -1.
         11    1    3    3    0    0 -0.19808778130E+01 -0.14421034491E+02  0.16263497209E+02  0.21826393528E+02  0.51100000000E-03 0. -1.
        -11    1    3    3    0    0 -0.69902469839E+01 -0.11306960599E+02  0.19624518777E+02  0.23703009269E+02  0.51100000000E-03 0.  1.
         12    1    3    3    0    0 -0.17317620008E+00 -0.12427432095E+00 -0.22477855667E+01  0.22578693622E+01  0.00000000000E+00 0. -1.
</event>
<event>
 7    1  0.2492468E-009  0.4778727E+02  0.7816164E-02  0.1312668E+00
        -11   -1    0    0    0    0  0.00000000000E+00  0.00000000000E+00  0.45593999997E+02  0.45594000000E+02  0.51100000000E-03 0.  1.
         11   -1    0    0    0    0 -0.00000000000E+00 -0.00000000000E+00 -0.45593999997E+02  0.45594000000E+02  0.51100000000E-03 0. -1.
    9900012    2    1    2    0    0  0.37707547215E+02 -0.21486247593E+02  0.32439734319E+00  0.47787272054E+02  0.20000004604E+02 0.  0.
         12    1    1    2    0    0 -0.37707547215E+02  0.21486247593E+02 -0.32439734319E+00  0.43400727946E+02  0.00000000000E+00 0. -1.
         11    1    3    3    0    0  0.60180331659E+01 -0.82115691599E+01 -0.32690882765E+01  0.10692685803E+02  0.51100000000E-03 0. -1.
        -11    1    3    3    0    0  0.31263882719E+02 -0.15319372068E+02  0.36428108254E+01  0.35005479488E+02  0.51100000000E-03 0.  1.
         12    1    3    3    0    0  0.42563133045E+00  0.20446936356E+01 -0.49325205705E-01  0.20891067634E+01  0.00000000000E+00 0. -1.
</event>
<event>
 7    1  0.2492468E-009  0.4778727E+02  0.7816164E-02  0.1312668E+00
        -11   -1    0    0    0    0  0.00000000000E+00  0.00000000000E+00  0.45593999997E+02  0.45594000000E+02  0.51100000000E-03 0. -1.
         11   -1    0    0    0    0 -0.00000000000E+00 -0.00000000000E+00 -0.45593999997E+02  0.45594000000E+02  0.51100000000E-03 0.  1.
    9900012    2    1    2    0    0  0.28037392501E+02  0.71809535697E-01  0.33128882000E+02  0.47787270081E+02  0.19999995610E+02 0.  0.
         12    1    1    2    0    0 -0.28037392501E+02 -0.71809535697E-01 -0.33128882000E+02  0.43400729919E+02  0.00000000000E+00 0. -1.
         11    1    3    3    0    0  0.77887751497E+01 -0.27886045778E+01  0.11789423537E+02  0.14402494277E+02  0.51100000000E-03 0. -1.
        -11    1    3    3    0    0  0.18310767349E+02 -0.24651088502E+01  0.20596640149E+02  0.27669162406E+02  0.51100000000E-03 0.  1.
         12    1    3    3    0    0  0.19378500030E+01  0.53255229636E+01  0.74281831408E+00  0.57156133982E+01  0.00000000000E+00 0. -1.
</event>
<event>
 7    1  0.2492468E-009  0.4778727E+02  0.7816164E-02  0.1312668E+00
        -11   -1    0    0    0    0  0.00000000000E+00  0.00000000000E+00  0.45593999997E+02  0.45594000000E+02  0.51100000000E-03 0. -1.
         11   -1    0    0    0    0 -0.00000000000E+00 -0.00000000000E+00 -0.45593999997E+02  0.45594000000E+02  0.51100000000E-03 0.  1.
    9900012    2    1    2    0    0 -0.95034383211E+00  0.30262310476E+02  0.31095219910E+02  0.47787270858E+02  0.19999999151E+02 0.  0.
         12    1    1    2    0    0  0.95034383211E+00 -0.30262310476E+02 -0.31095219910E+02  0.43400729142E+02  0.00000000000E+00 0. -1.
         11    1    3    3    0    0  0.31224135592E+01  0.23573611934E+01  0.78507195160E+01  0.87715685833E+01  0.51100000000E-03 0. -1.
        -11    1    3    3    0    0  0.27732609140E+01  0.87374059513E+01  0.13825501004E+02  0.16588481459E+02  0.51100000000E-03 0.  1.
        -12    1    3    3    0    0 -0.68460183053E+01  0.19167543331E+02  0.94189993906E+01  0.22427220816E+02  0.00000000000E+00 0.  1.
</event>
<event>
 7    1  0.2784909E-009  0.4778727E+02  0.7816164E-02  0.1312668E+00
        -11   -1    0    0    0    0  0.00000000000E+00  0.00000000000E+00  0.45593999997E+02  0.45594000000E+02  0.51100000000E-03 0. -1.
         11   -1    0    0    0    0 -0.00000000000E+00 -0.00000000000E+00 -0.45593999997E+02  0.45594000000E+02  0.51100000000E-03 0.  1.
    9900012    2    1    2    0    0  0.67063867521E+01  0.13629749232E+01 -0.42857785002E+02  0.47787273517E+02  0.20000011275E+02 0.  0.
         12    1    1    2    0    0 -0.67063867521E+01 -0.13629749232E+01  0.42857785002E+02  0.43400726483E+02  0.00000000000E+00 0. -1.
         11    1    3    3    0    0 -0.39091136936E+01 -0.27444642457E+00 -0.83287028887E+01  0.92045522856E+01  0.51100000000E-03 0. -1.
        -11    1    3    3    0    0  0.41307860294E+01 -0.26310824502E+01 -0.28039803002E+02  0.28464302920E+02  0.51100000000E-03 0.  1.
         12    1    3    3    0    0  0.64847144164E+01  0.42685037979E+01 -0.64892791116E+01  0.10118418311E+02  0.00000000000E+00 0. -1.
</event>
<event>
 7    1  0.2492468E-009  0.4778727E+02  0.7816164E-02  0.1312668E+00
        -11   -1    0    0    0    0  0.00000000000E+00  0.00000000000E+00  0.45593999997E+02  0.45594000000E+02  0.51100000000E-03 0.  1.
         11   -1    0    0    0    0 -0.00000000000E+00 -0.00000000000E+00 -0.45593999997E+02  0.45594000000E+02  0.51100000000E-03 0. -1.
    9900012    2    1    2    0    0  0.99169613767E+01 -0.56296894353E+01  0.41875815030E+02  0.47787269470E+02  0.19999992821E+02 0.  0.
         12    1    1    2    0    0 -0.99169613767E+01  0.56296894353E+01 -0.41875815030E+02  0.43400730530E+02  0.00000000000E+00 0. -1.
         11    1    3    3    0    0  0.29535300992E+01  0.10047348530E+01  0.47062061968E+01  0.56463447645E+01  0.51100000000E-03 0.  1.
        -11    1    3    3    0    0  0.99463052479E+00  0.57730872078E+01  0.83352957801E+01  0.10187982224E+02  0.51100000000E-03 0. -1.
         12    1    3    3    0    0  0.59688007527E+01 -0.12407511496E+02  0.28834313054E+02  0.31952942482E+02  0.00000000000E+00 0. -1.
</event>
<event>
 7    1  0.2492468E-009  0.4778727E+02  0.7816164E-02  0.1312668E+00
        -11   -1    0    0    0    0  0.00000000000E+00  0.00000000000E+00  0.45593999997E+02  0.45594000000E+02  0.51100000000E-03 0.  1.
         11   -1    0    0    0    0 -0.00000000000E+00 -0.00000000000E+00 -0.45593999997E+02  0.45594000000E+02  0.51100000000E-03 0. -1.
    9900012    2    1    2    0    0 -0.32335449670E+02 -0.28943884318E+02  0.54163350516E+00  0.47787272913E+02  0.20000008521E+02 0.  0.
         12    1    1    2    0    0  0.32335449670E+02  0.28943884318E+02 -0.54163350516E+00  0.43400727087E+02  0.00000000000E+00 0. -1.
         11    1    3    3    0    0 -0.28662813169E+01  0.56867151917E+00 -0.34895928259E+01  0.45515068094E+01  0.51100000000E-03 0. -1.
        -11    1    3    3    0    0 -0.88630023969E+01 -0.43591251507E+01  0.41649106770E+01  0.10719200753E+02  0.51100000000E-03 0.  1.
        -12    1    3    3    0    0 -0.20606165956E+02 -0.25153430687E+02 -0.13368434593E+00  0.32516565351E+02  0.00000000000E+00 0.  1.
</event>
<event>
 7    1  0.2492468E-009  0.4778727E+02  0.7816164E-02  0.1312668E+00
        -11   -1    0    0    0    0  0.00000000000E+00  0.00000000000E+00  0.45593999997E+02  0.45594000000E+02  0.51100000000E-03 0.  1.
         11   -1    0    0    0    0 -0.00000000000E+00 -0.00000000000E+00 -0.45593999997E+02  0.45594000000E+02  0.51100000000E-03 0. -1.
    9900012    2    1    2    0    0  0.36886059794E+01  0.20456157118E+02  0.38099382235E+02  0.47787272993E+02  0.20000008882E+02 0.  0.
         12    1    1    2    0    0 -0.36886059794E+01 -0.20456157118E+02 -0.38099382235E+02  0.43400727007E+02  0.00000000000E+00 0. -1.
         11    1    3    3    0    0 -0.49724450700E+01  0.46755558462E+01  0.39490553632E+01  0.78854975092E+01  0.51100000000E-03 0. -1.
        -11    1    3    3    0    0 -0.23159734466E+01  0.26961396844E+01  0.55882814205E+01  0.66228235443E+01  0.51100000000E-03 0.  1.
        -12    1    3    3    0    0  0.10977024496E+02  0.13084461587E+02  0.28562045451E+02  0.33278951939E+02  0.00000000000E+00 0.  1.
</event>
<event>
 7    1  0.2492468E-009  0.4778728E+02  0.7816164E-02  0.1312668E+00
        -11   -1    0    0    0    0  0.00000000000E+00  0.00000000000E+00  0.45593999997E+02  0.45594000000E+02  0.51100000000E-03 0.  1.
         11   -1    0    0    0    0 -0.00000000000E+00 -0.00000000000E+00 -0.45593999997E+02  0.45594000000E+02  0.51100000000E-03 0. -1.
    9900012    2    1    2    0    0  0.10044802528E+02 -0.30576529861E+02  0.29117009135E+02  0.47787280454E+02  0.20000042903E+02 0.  0.
         12    1    1    2    0    0 -0.10044802528E+02  0.30576529861E+02 -0.29117009135E+02  0.43400719546E+02  0.00000000000E+00 0. -1.
         11    1    3    3    0    0 -0.32708319897E+01 -0.14030283225E+02  0.13732846466E+02  0.19903222393E+02  0.51100000000E-03 0. -1.
        -11    1    3    3    0    0  0.16692381541E+01  0.48498789992E+00  0.39021617392E+01  0.42718187904E+01  0.51100000000E-03 0.  1.
        -12    1    3    3    0    0  0.11646396363E+02 -0.17031234535E+02  0.11482000929E+02  0.23612239271E+02  0.00000000000E+00 0.  1.
</event>
<event>
 7    1  0.2492468E-009  0.4778727E+02  0.7816164E-02  0.1312668E+00
        -11   -1    0    0    0    0  0.00000000000E+00  0.00000000000E+00  0.45593999997E+02  0.45594000000E+02  0.51100000000E-03 0.  1.
         11   -1    0    0    0    0 -0.00000000000E+00 -0.00000000000E+00 -0.45593999997E+02  0.45594000000E+02  0.51100000000E-03 0. -1.
    9900012    2    1    2    0    0  0.14452900427E+01  0.93406156637E+01  0.42359027086E+02  0.47787272587E+02  0.20000007035E+02 0.  0.
         12    1    1    2    0    0 -0.14452900427E+01 -0.93406156637E+01 -0.42359027086E+02  0.43400727413E+02  0.00000000000E+00 0. -1.
         11    1    3    3    0    0  0.27784569987E+01  0.33319849936E+01  0.80021562266E+01  0.91025519404E+01  0.51100000000E-03 0. -1.
        -11    1    3    3    0    0 -0.43081268442E+01  0.91995860604E+01  0.11200451706E+02  0.15120927857E+02  0.51100000000E-03 0.  1.
        -12    1    3    3    0    0  0.29749598882E+01 -0.31909553902E+01  0.23156419153E+02  0.23563792790E+02  0.00000000000E+00 0.  1.
</event>
<event>
 7    1  0.2725397E-009  0.4778727E+02  0.7816164E-02  0.1312668E+00
        -11   -1    0    0    0    0  0.00000000000E+00  0.00000000000E+00  0.45593999997E+02  0.45594000000E+02  0.51100000000E-03 0. -1.
         11   -1    0    0    0    0 -0.00000000000E+00 -0.00000000000E+00 -0.45593999997E+02  0.45594000000E+02  0.51100000000E-03 0.  1.
    9900012    2    1    2    0    0 -0.15955716694E+02 -0.16869955197E+02 -0.36666650032E+02  0.47787268346E+02  0.19999987696E+02 0.  0.
         12    1    1    2    0    0  0.15955716694E+02  0.16869955197E+02  0.36666650032E+02  0.43400731654E+02  0.00000000000E+00 0. -1.
         11    1    3    3    0    0 -0.78886127558E+01 -0.27856559876E+01 -0.11816772795E+02  0.14478474023E+02  0.51100000000E-03 0. -1.
        -11    1    3    3    0    0 -0.12427740017E+02 -0.11349478794E+02 -0.20818756609E+02  0.26770880035E+02  0.51100000000E-03 0.  1.
         12    1    3    3    0    0  0.43606360793E+01 -0.27348204151E+01 -0.40311206281E+01  0.65379142880E+01  0.00000000000E+00 0. -1.
</event>
<event>
 7    1  0.2492468E-009  0.4778727E+02  0.7816164E-02  0.1312668E+00
        -11   -1    0    0    0    0  0.00000000000E+00  0.00000000000E+00  0.45593999997E+02  0.45594000000E+02  0.51100000000E-03 0.  1.
         11   -1    0    0    0    0 -0.00000000000E+00 -0.00000000000E+00 -0.45593999997E+02  0.45594000000E+02  0.51100000000E-03 0. -1.
    9900012    2    1    2    0    0 -0.30075610823E+02  0.24936622312E+02  0.18900938886E+02  0.47787274321E+02  0.20000014938E+02 0.  0.
         12    1    1    2    0    0  0.30075610823E+02 -0.24936622312E+02 -0.18900938886E+02  0.43400725679E+02  0.00000000000E+00 0. -1.
         11    1    3    3    0    0 -0.35413146781E+01  0.52375894954E+01  0.23850997003E+00  0.63269376983E+01  0.51100000000E-03 0. -1.
        -11    1    3    3    0    0 -0.28875711271E+02  0.18255372918E+02  0.18068296325E+02  0.38646198703E+02  0.51100000000E-03 0.  1.
         12    1    3    3    0    0  0.23414151264E+01  0.14436598984E+01  0.59413259086E+00  0.28141379199E+01  0.00000000000E+00 0. -1.
</event>
<event>
 7    1  0.2492468E-009  0.4778728E+02  0.7816164E-02  0.1312668E+00
        -11   -1    0    0    0    0  0.00000000000E+00  0.00000000000E+00  0.45593999997E+02  0.45594000000E+02  0.51100000000E-03 0. -1.
         11   -1    0    0    0    0 -0.00000000000E+00 -0.00000000000E+00 -0.45593999997E+02  0.45594000000E+02  0.51100000000E-03 0.  1.
    9900012    2    1    2    0    0 -0.14131890854E+00  0.13674798986E+02 -0.41189831336E+02  0.47787282220E+02  0.20000050953E+02 0.  0.
         12    1    1    2    0    0  0.14131890854E+00 -0.13674798986E+02  0.41189831336E+02  0.43400717780E+02  0.00000000000E+00 0. -1.
         11    1    3    3    0    0 -0.65532778281E+00 -0.14302489308E+01 -0.68570727071E+00  0.17161763398E+01  0.51100000000E-03 0. -1.
        -11    1    3    3    0    0  0.22686125696E+01 -0.29933797662E+01 -0.75815478516E+01  0.84608979135E+01  0.51100000000E-03 0.  1.
         12    1    3    3    0    0 -0.17546036954E+01  0.18098427683E+02 -0.32922576214E+02  0.37610207967E+02  0.00000000000E+00 0. -1.
</event>
<event>
 7    1  0.2492468E-009  0.4778727E+02  0.7816164E-02  0.1312668E+00
        -11   -1    0    0    0    0  0.00000000000E+00  0.00000000000E+00  0.45593999997E+02  0.45594000000E+02  0.51100000000E-03 0.  1.
         11   -1    0    0    0    0 -0.00000000000E+00 -0.00000000000E+00 -0.45593999997E+02  0.45594000000E+02  0.51100000000E-03 0. -1.
    9900012    2    1    2    0    0  0.42281499864E+02  0.55739674610E+01  0.80516351256E+01  0.47787272216E+02  0.20000005340E+02 0.  0.
         12    1    1    2    0    0 -0.42281499864E+02 -0.55739674610E+01 -0.80516351256E+01  0.43400727784E+02  0.00000000000E+00 0. -1.
         11    1    3    3    0    0 -0.40657679024E+00 -0.99131066525E+00 -0.23982314430E+00  0.10979603468E+01  0.51100000000E-03 0. -1.
        -11    1    3    3    0    0  0.28022199685E+02  0.81553977506E+01 -0.10933293166E+01  0.29205300151E+02  0.51100000000E-03 0.  1.
         12    1    3    3    0    0  0.14665876969E+02 -0.15901196244E+01  0.93847875865E+01  0.17484011717E+02  0.00000000000E+00 0. -1.
</event>
<event>
 7    1  0.2492468E-009  0.4778727E+02  0.7816164E-02  0.1312668E+00
        -11   -1    0    0    0    0  0.00000000000E+00  0.00000000000E+00  0.45593999997E+02  0.45594000000E+02  0.51100000000E-03 0. -1.
         11   -1    0    0    0    0 -0.00000000000E+00 -0.00000000000E+00 -0.45593999997E+02  0.45594000000E+02  0.51100000000E-03 0.  1.
    9900012    2    1    2    0    0 -0.10394451264E+02  0.35786147553E+02 -0.22247031331E+02  0.47787269858E+02  0.19999994591E+02 0.  0.
         12    1    1    2    0    0  0.10394451264E+02 -0.35786147553E+02  0.22247031331E+02  0.43400730142E+02  0.00000000000E+00 0. -1.
         11    1    3    3    0    0 -0.62664996002E+01  0.88807043676E+01  0.23864916864E+00  0.10871654933E+02  0.51100000000E-03 0. -1.
        -11    1    3    3    0    0  0.18582423206E+01  0.62444084510E+00 -0.32722800223E+01  0.38145520965E+01  0.51100000000E-03 0.  1.
        -12    1    3    3    0    0 -0.59861939845E+01  0.26281002341E+02 -0.19213400478E+02  0.33101062828E+02  0.00000000000E+00 0.  1.
</event>
<event>
 7    1  0.2492468E-009  0.4778727E+02  0.7816164E-02  0.1312668E+00
        -11   -1    0    0    0    0  0.00000000000E+00  0.00000000000E+00  0.45593999997E+02  0.45594000000E+02  0.51100000000E-03 0. -1.
         11   -1    0    0    0    0 -0.00000000000E+00 -0.00000000000E+00 -0.45593999997E+02  0.45594000000E+02  0.51100000000E-03 0.  1.
    9900012    2    1    2    0    0 -0.92604976049E+00  0.19783957136E+02 -0.38618137882E+02  0.47787273029E+02  0.20000009048E+02 0.  0.
         12    1    1    2    0    0  0.92604976049E+00 -0.19783957136E+02  0.38618137882E+02  0.43400726971E+02  0.00000000000E+00 0. -1.
         11    1    3    3    0    0  0.14989202025E+01  0.10793317648E+02 -0.73673460946E+01  0.13153716447E+02  0.51100000000E-03 0. -1.
        -11    1    3    3    0    0  0.60179997316E+00  0.10674918394E+02 -0.27611749281E+02  0.29609538067E+02  0.51100000000E-03 0.  1.
        -12    1    3    3    0    0 -0.30267699361E+01 -0.16842789050E+01 -0.36390425061E+01  0.50240185148E+01  0.00000000000E+00 0.  1.
</event>
<event>
 7    1  0.2492468E-009  0.4778727E+02  0.7816164E-02  0.1312668E+00
        -11   -1    0    0    0    0  0.00000000000E+00  0.00000000000E+00  0.45593999997E+02  0.45594000000E+02  0.51100000000E-03 0. -1.
         11   -1    0    0    0    0 -0.00000000000E+00 -0.00000000000E+00 -0.45593999997E+02  0.45594000000E+02  0.51100000000E-03 0.  1.
    9900012    2    1    2    0    0 -0.15253109326E+02  0.38651489864E+02  0.12531085582E+02  0.47787272833E+02  0.20000008153E+02 0.  0.
         12    1    1    2    0    0  0.15253109326E+02 -0.38651489864E+02 -0.12531085582E+02  0.43400727167E+02  0.00000000000E+00 0. -1.
         11    1    3    3    0    0 -0.12299496179E+02  0.16071928626E+02  0.75817185673E+01  0.21611731830E+02  0.51100000000E-03 0.  1.
        -11    1    3    3    0    0 -0.60961264227E+01  0.18898401751E+02  0.92142628689E+00  0.19878666272E+02  0.51100000000E-03 0. -1.
         12    1    3    3    0    0  0.31425132758E+01  0.36811594867E+01  0.40279407280E+01  0.62968747298E+01  0.00000000000E+00 0. -1.
</event>
<event>
 7    1  0.2492468E-009  0.4778727E+02  0.7816164E-02  0.1312668E+00
        -11   -1    0    0    0    0  0.00000000000E+00  0.00000000000E+00  0.45593999997E+02  0.45594000000E+02  0.51100000000E-03 0.  1.
         11   -1    0    0    0    0 -0.00000000000E+00 -0.00000000000E+00 -0.45593999997E+02  0.45594000000E+02  0.51100000000E-03 0. -1.
    9900012    2    1    2    0    0 -0.31063664962E+02  0.21368406115E+02  0.21495657846E+02  0.47787269972E+02  0.19999995109E+02 0.  0.
         12    1    1    2    0    0  0.31063664962E+02 -0.21368406115E+02 -0.21495657846E+02  0.43400730028E+02  0.00000000000E+00 0. -1.
         11    1    3    3    0    0  0.11625156884E+01  0.38254838815E+01  0.77453328513E+00  0.40725510094E+01  0.51100000000E-03 0. -1.
        -11    1    3    3    0    0 -0.14207127275E+01 -0.10233932687E+01 -0.66059970219E+00  0.18714033943E+01  0.51100000000E-03 0.  1.
        -12    1    3    3    0    0 -0.30805467922E+02  0.18566315502E+02  0.21381724263E+02  0.41843315568E+02  0.00000000000E+00 0.  1.
</event>
<event>
 7    1  0.2492468E-009  0.4778727E+02  0.7816164E-02  0.1312668E+00
        -11   -1    0    0    0    0  0.00000000000E+00  0.00000000000E+00  0.45593999997E+02  0.45594000000E+02  0.51100000000E-03 0. -1.
         11   -1    0    0    0    0 -0.00000000000E+00 -0.00000000000E+00 -0.45593999997E+02  0.45594000000E+02  0.51100000000E-03 0.  1.
    9900012    2    1    2    0    0  0.80338188180E+01  0.38193263954E+02 -0.18983040707E+02  0.47787268546E+02  0.19999988607E+02 0.  0.
         12    1    1    2    0    0 -0.80338188180E+01 -0.38193263954E+02  0.18983040707E+02  0.43400731454E+02  0.00000000000E+00 0. -1.
         11    1    3    3    0    0  0.31223668634E+00  0.33989376243E+01  0.85475446286E+00  0.35186466397E+01  0.51100000000E-03 0. -1.
        -11    1    3    3    0    0  0.12733511932E+02  0.30195820875E+02 -0.16601073196E+02  0.36735889209E+02  0.51100000000E-03 0.  1.
         12    1    3    3    0    0 -0.50119298008E+01  0.45985054548E+01 -0.32367219741E+01  0.75327326970E+01  0.00000000000E+00 0. -1.
</event>
<event>
 7    1  0.2492468E-009  0.4778726E+02  0.7816164E-02  0.1312668E+00
        -11   -1    0    0    0    0  0.00000000000E+00  0.00000000000E+00  0.45593999997E+02  0.45594000000E+02  0.51100000000E-03 0.  1.
         11   -1    0    0    0    0 -0.00000000000E+00 -0.00000000000E+00 -0.45593999997E+02  0.45594000000E+02  0.51100000000E-03 0. -1.
    9900012    2    1    2    0    0 -0.88408073461E+01  0.17136799507E+02  0.38881803765E+02  0.47787257658E+02  0.19999938964E+02 0.  0.
         12    1    1    2    0    0  0.88408073461E+01 -0.17136799507E+02 -0.38881803765E+02  0.43400742342E+02  0.00000000000E+00 0. -1.
         11    1    3    3    0    0 -0.30404931814E+01  0.16799766760E+01  0.51895649658E+00  0.35122978981E+01  0.51100000000E-03 0. -1.
        -11    1    3    3    0    0 -0.32010119170E+01  0.90727703158E+01  0.63478991723E+01  0.11526381161E+02  0.51100000000E-03 0.  1.
        -12    1    3    3    0    0 -0.25993022477E+01  0.63840525153E+01  0.32014948096E+02  0.32748578599E+02  0.00000000000E+00 0.  1.
</event>
<event>
 7    1  0.2492468E-009  0.4778727E+02  0.7816164E-02  0.1312668E+00
        -11   -1    0    0    0    0  0.00000000000E+00  0.00000000000E+00  0.45593999997E+02  0.45594000000E+02  0.51100000000E-03 0.  1.
         11   -1    0    0    0    0 -0.00000000000E+00 -0.00000000000E+00 -0.45593999997E+02  0.45594000000E+02  0.51100000000E-03 0. -1.
    9900012    2    1    2    0    0 -0.39123958257E+02  0.71231663081E-01 -0.18786541620E+02  0.47787270402E+02  0.19999997069E+02 0.  0.
         12    1    1    2    0    0  0.39123958257E+02 -0.71231663081E-01  0.18786541620E+02  0.43400729598E+02  0.00000000000E+00 0. -1.
         11    1    3    3    0    0 -0.19586726398E+01  0.23602819041E+01 -0.12690353145E+01  0.33193041541E+01  0.51100000000E-03 0. -1.
        -11    1    3    3    0    0 -0.36912511599E+02 -0.53019221441E+01 -0.14007544558E+02  0.39835351082E+02  0.51100000000E-03 0.  1.
        -12    1    3    3    0    0 -0.25277401773E+00  0.30128719030E+01 -0.35099617469E+01  0.46326151656E+01  0.00000000000E+00 0.  1.
</event>
<event>
 7    1  0.2492468E-009  0.4778727E+02  0.7816164E-02  0.1312668E+00
        -11   -1    0    0    0    0  0.00000000000E+00  0.00000000000E+00  0.45593999997E+02  0.45594000000E+02  0.51100000000E-03 0.  1.
         11   -1    0    0    0    0 -0.00000000000E+00 -0.00000000000E+00 -0.45593999997E+02  0.45594000000E+02  0.51100000000E-03 0. -1.
    9900012    2    1    2    0    0  0.20984189558E+02 -0.34048807262E+02  0.16851286315E+02  0.47787270308E+02  0.19999996641E+02 0.  0.
         12    1    1    2    0    0 -0.20984189558E+02  0.34048807262E+02 -0.16851286315E+02  0.43400729692E+02  0.00000000000E+00 0. -1.
         11    1    3    3    0    0  0.17880022878E+01  0.74314480369E+00  0.17069455719E+01  0.25812554749E+01  0.51100000000E-03 0. -1.
        -11    1    3    3    0    0  0.20503341299E+01 -0.56172245581E+01  0.90111713277E+01  0.10814725643E+02  0.51100000000E-03 0.  1.
        -12    1    3    3    0    0  0.17145853140E+02 -0.29174727507E+02  0.61331694156E+01  0.34391289189E+02  0.00000000000E+00 0.  1.
</event>
<event>
 7    1  0.2492468E-009  0.4778727E+02  0.7816164E-02  0.1312668E+00
        -11   -1    0    0    0    0  0.00000000000E+00  0.00000000000E+00  0.45593999997E+02  0.45594000000E+02  0.51100000000E-03 0.  1.
         11   -1    0    0    0    0 -0.00000000000E+00 -0.00000000000E+00 -0.45593999997E+02  0.45594000000E+02  0.51100000000E-03 0. -1.
    9900012    2    1    2    0    0 -0.29929139646E+02 -0.19463150401E+02  0.24679048407E+02  0.47787273580E+02  0.20000011560E+02 0.  0.
         12    1    1    2    0    0  0.29929139646E+02  0.19463150401E+02 -0.24679048407E+02  0.43400726420E+02  0.00000000000E+00 0. -1.
         11    1    3    3    0    0 -0.11098903797E+02 -0.13914204557E+02  0.96643475452E+01  0.20253156981E+02  0.51100000000E-03 0. -1.
        -11    1    3    3    0    0 -0.28943958262E+01 -0.54601986947E+01  0.89825822271E+00  0.62448510855E+01  0.51100000000E-03 0.  1.
        -12    1    3    3    0    0 -0.15935840023E+02 -0.88747149049E-01  0.14116442640E+02  0.21289265513E+02  0.00000000000E+00 0.  1.
</event>
<event>
 7    1  0.2492468E-009  0.4778728E+02  0.7816164E-02  0.1312668E+00
        -11   -1    0    0    0    0  0.00000000000E+00  0.00000000000E+00  0.45593999997E+02  0.45594000000E+02  0.51100000000E-03 0. -1.
         11   -1    0    0    0    0 -0.00000000000E+00 -0.00000000000E+00 -0.45593999997E+02  0.45594000000E+02  0.51100000000E-03 0.  1.
    9900012    2    1    2    0    0 -0.22727564973E+02  0.35256530761E+02 -0.11138093167E+02  0.47787282376E+02  0.20000051664E+02 0.  0.
         12    1    1    2    0    0  0.22727564973E+02 -0.35256530761E+02  0.11138093167E+02  0.43400717624E+02  0.00000000000E+00 0. -1.
         11    1    3    3    0    0 -0.48416016845E+01  0.53023799895E+01 -0.61935403857E+00  0.72069369437E+01  0.51100000000E-03 0. -1.
        -11    1    3    3    0    0 -0.20160619127E+02  0.29876142306E+02 -0.75243429511E+01  0.36819155066E+02  0.51100000000E-03 0.  1.
         12    1    3    3    0    0  0.22746558381E+01  0.78008465376E-01 -0.29943961778E+01  0.37611903663E+01  0.00000000000E+00 0. -1.
</event>
<event>
 7    1  0.2492468E-009  0.4778727E+02  0.7816164E-02  0.1312668E+00
        -11   -1    0    0    0    0  0.00000000000E+00  0.00000000000E+00  0.45593999997E+02  0.45594000000E+02  0.51100000000E-03 0. -1.
         11   -1    0    0    0    0 -0.00000000000E+00 -0.00000000000E+00 -0.45593999997E+02  0.45594000000E+02  0.51100000000E-03 0.  1.
    9900012    2    1    2    0    0  0.54298517812E+01  0.34960178246E+02 -0.25138133490E+02  0.47787272947E+02  0.20000008675E+02 0.  0.
         12    1    1    2    0    0 -0.54298517812E+01 -0.34960178246E+02  0.25138133490E+02  0.43400727053E+02  0.00000000000E+00 0. -1.
         11    1    3    3    0    0 -0.38395881902E+01  0.99516827206E+01 -0.54993671800E+01  0.12000894387E+02  0.51100000000E-03 0. -1.
        -11    1    3    3    0    0  0.10920173460E+02  0.22684009440E+02 -0.12518029582E+02  0.28116108150E+02  0.51100000000E-03 0.  1.
         12    1    3    3    0    0 -0.16507334889E+01  0.23244860862E+01 -0.71207367277E+01  0.76702704099E+01  0.00000000000E+00 0. -1.
</event>
<event>
 7    1  0.2492468E-009  0.4778729E+02  0.7816164E-02  0.1312668E+00
        -11   -1    0    0    0    0  0.00000000000E+00  0.00000000000E+00  0.45593999997E+02  0.45594000000E+02  0.51100000000E-03 0. -1.
         11   -1    0    0    0    0 -0.00000000000E+00 -0.00000000000E+00 -0.45593999997E+02  0.45594000000E+02  0.51100000000E-03 0.  1.
    9900012    2    1    2    0    0 -0.35682136454E+02  0.16215473105E+01 -0.24653139402E+02  0.47787290789E+02  0.20000090024E+02 0.  0.
         12    1    1    2    0    0  0.35682136454E+02 -0.16215473105E+01  0.24653139402E+02  0.43400709211E+02  0.00000000000E+00 0. -1.
         11    1    3    3    0    0 -0.85167680671E+01  0.39120634199E+01 -0.90471647213E+01  0.13026540917E+02  0.51100000000E-03 0. -1.
        -11    1    3    3    0    0 -0.13600022906E+02 -0.22167357380E+01 -0.16093209746E+02  0.21186456536E+02  0.51100000000E-03 0.  1.
         12    1    3    3    0    0 -0.13565345481E+02 -0.73780371369E-01  0.48723506453E+00  0.13574293336E+02  0.00000000000E+00 0. -1.
</event>
<event>
 7    1  0.2492468E-009  0.4778727E+02  0.7816164E-02  0.1312668E+00
        -11   -1    0    0    0    0  0.00000000000E+00  0.00000000000E+00  0.45593999997E+02  0.45594000000E+02  0.51100000000E-03 0.  1.
         11   -1    0    0    0    0 -0.00000000000E+00 -0.00000000000E+00 -0.45593999997E+02  0.45594000000E+02  0.51100000000E-03 0. -1.
    9900012    2    1    2    0    0  0.23686766216E+01  0.94805708646E+01  0.42286301134E+02  0.47787272858E+02  0.20000008267E+02 0.  0.
         12    1    1    2    0    0 -0.23686766216E+01 -0.94805708646E+01 -0.42286301134E+02  0.43400727142E+02  0.00000000000E+00 0. -1.
         11    1    3    3    0    0  0.32093713469E+01 -0.15113015863E+01  0.27610548624E+01  0.44952776490E+01  0.51100000000E-03 0. -1.
        -11    1    3    3    0    0  0.55886294989E+01  0.87014941023E+01  0.28576018146E+02  0.30389761312E+02  0.51100000000E-03 0.  1.
         12    1    3    3    0    0 -0.64293242242E+01  0.22903783486E+01  0.10949228126E+02  0.12902233896E+02  0.00000000000E+00 0. -1.
</event>
<event>
 7    1  0.2492468E-009  0.4778727E+02  0.7816164E-02  0.1312668E+00
        -11   -1    0    0    0    0  0.00000000000E+00  0.00000000000E+00  0.45593999997E+02  0.45594000000E+02  0.51100000000E-03 0.  1.
         11   -1    0    0    0    0 -0.00000000000E+00 -0.00000000000E+00 -0.45593999997E+02  0.45594000000E+02  0.51100000000E-03 0. -1.
    9900012    2    1    2    0    0 -0.29410152869E+02 -0.17866468469E+02 -0.26447215701E+02  0.47787274135E+02  0.20000014091E+02 0.  0.
         12    1    1    2    0    0  0.29410152869E+02  0.17866468469E+02  0.26447215701E+02  0.43400725865E+02  0.00000000000E+00 0. -1.
         11    1    3    3    0    0 -0.47499643968E+01 -0.50210587294E+01 -0.23837675998E+01  0.73113296169E+01  0.51100000000E-03 0. -1.
        -11    1    3    3    0    0 -0.20005295472E+02 -0.15927684926E+02 -0.14484590001E+02  0.29388881261E+02  0.51100000000E-03 0.  1.
         12    1    3    3    0    0 -0.46548929996E+01  0.30822751865E+01 -0.95788580998E+01  0.11087063257E+02  0.00000000000E+00 0. -1.
</event>
<event>
 7    1  0.2492468E-009  0.4778727E+02  0.7816164E-02  0.1312668E+00
        -11   -1    0    0    0    0  0.00000000000E+00  0.00000000000E+00  0.45593999997E+02  0.45594000000E+02  0.51100000000E-03 0. -1.
         11   -1    0    0    0    0 -0.00000000000E+00 -0.00000000000E+00 -0.45593999997E+02  0.45594000000E+02  0.51100000000E-03 0.  1.
    9900012    2    1    2    0    0 -0.36639594621E+02 -0.21640370335E+02  0.85356665483E+01  0.47787272752E+02  0.20000007785E+02 0.  0.
         12    1    1    2    0    0  0.36639594621E+02  0.21640370335E+02 -0.85356665483E+01  0.43400727248E+02  0.00000000000E+00 0. -1.
         11    1    3    3    0    0 -0.87577240430E+01 -0.86495198601E+00  0.18892777558E+01  0.90008467964E+01  0.51100000000E-03 0. -1.
        -11    1    3    3    0    0 -0.21243504724E+02 -0.19287868967E+02  0.10977703019E+02  0.30721626684E+02  0.51100000000E-03 0.  1.
        -12    1    3    3    0    0 -0.66383658537E+01 -0.14875493823E+01 -0.43313142260E+01  0.80647992720E+01  0.00000000000E+00 0.  1.
</event>
<event>
 7    1  0.2492468E-009  0.4778726E+02  0.7816164E-02  0.1312668E+00
        -11   -1    0    0    0    0  0.00000000000E+00  0.00000000000E+00  0.45593999997E+02  0.45594000000E+02  0.51100000000E-03 0. -1.
         11   -1    0    0    0    0 -0.00000000000E+00 -0.00000000000E+00 -0.45593999997E+02  0.45594000000E+02  0.51100000000E-03 0.  1.
    9900012    2    1    2    0    0  0.39745359423E+02  0.13816991819E+02  0.10631160946E+02  0.47787257591E+02  0.19999938662E+02 0.  0.
         12    1    1    2    0    0 -0.39745359423E+02 -0.13816991819E+02 -0.10631160946E+02  0.43400742409E+02  0.00000000000E+00 0. -1.
         11    1    3    3    0    0  0.10245765896E+02 -0.20857832613E+01  0.42333215264E+01  0.11280391040E+02  0.51100000000E-03 0. -1.
        -11    1    3    3    0    0  0.17351768344E+02  0.31296310783E+01  0.67403777048E+01  0.18876205848E+02  0.51100000000E-03 0.  1.
        -12    1    3    3    0    0  0.12147825182E+02  0.12773144002E+02 -0.34253828531E+00  0.17630660703E+02  0.00000000000E+00 0.  1.
</event>
<event>
 7    1  0.2492468E-009  0.4778727E+02  0.7816164E-02  0.1312668E+00
        -11   -1    0    0    0    0  0.00000000000E+00  0.00000000000E+00  0.45593999997E+02  0.45594000000E+02  0.51100000000E-03 0.  1.
         11   -1    0    0    0    0 -0.00000000000E+00 -0.00000000000E+00 -0.45593999997E+02  0.45594000000E+02  0.51100000000E-03 0. -1.
    9900012    2    1    2    0    0  0.13560212305E+02 -0.20723305182E+02  0.35641113460E+02  0.47787266088E+02  0.19999977400E+02 0.  0.
         12    1    1    2    0    0 -0.13560212305E+02  0.20723305182E+02 -0.35641113460E+02  0.43400733912E+02  0.00000000000E+00 0. -1.
         11    1    3    3    0    0  0.11002802645E+02 -0.78493948230E+01  0.73848233179E+01  0.15401632408E+02  0.51100000000E-03 0. -1.
        -11    1    3    3    0    0  0.21211337535E+01 -0.65237758162E+01  0.56097948972E+01  0.88616397100E+01  0.51100000000E-03 0.  1.
        -12    1    3    3    0    0  0.43627590593E+00 -0.63501345431E+01  0.22646495245E+02  0.23523993970E+02  0.00000000000E+00 0.  1.
</event>
<event>
 7    1  0.2492468E-009  0.4778727E+02  0.7816164E-02  0.1312668E+00
        -11   -1    0    0    0    0  0.00000000000E+00  0.00000000000E+00  0.45593999997E+02  0.45594000000E+02  0.51100000000E-03 0. -1.
         11   -1    0    0    0    0 -0.00000000000E+00 -0.00000000000E+00 -0.45593999997E+02  0.45594000000E+02  0.51100000000E-03 0.  1.
    9900012    2    1    2    0    0  0.12606038023E+02 -0.13075240442E+02 -0.39417628710E+02  0.47787267743E+02  0.19999984949E+02 0.  0.
         12    1    1    2    0    0 -0.12606038023E+02  0.13075240442E+02  0.39417628710E+02  0.43400732257E+02  0.00000000000E+00 0. -1.
         11    1    3    3    0    0  0.49509537648E+01 -0.56174527261E+01 -0.95765343529E+01  0.12156386337E+02  0.51100000000E-03 0. -1.
        -11    1    3    3    0    0  0.62414968675E+01 -0.99866956450E+01 -0.96287095248E+01  0.15211917053E+02  0.51100000000E-03 0.  1.
         12    1    3    3    0    0  0.14135873910E+01  0.25289079292E+01 -0.20212384833E+02  0.20418964353E+02  0.00000000000E+00 0. -1.
</event>
<event>
 7    1  0.2492468E-009  0.4778728E+02  0.7816164E-02  0.1312668E+00
        -11   -1    0    0    0    0  0.00000000000E+00  0.00000000000E+00  0.45593999997E+02  0.45594000000E+02  0.51100000000E-03 0. -1.
         11   -1    0    0    0    0 -0.00000000000E+00 -0.00000000000E+00 -0.45593999997E+02  0.45594000000E+02  0.51100000000E-03 0.  1.
    9900012    2    1    2    0    0  0.20814438602E+02 -0.18313792455E+02  0.33391410022E+02  0.47787284434E+02  0.20000061049E+02 0.  0.
         12    1    1    2    0    0 -0.20814438602E+02  0.18313792455E+02 -0.33391410022E+02  0.43400715566E+02  0.00000000000E+00 0. -1.
         11    1    3    3    0    0  0.84498294640E+01 -0.45665220523E+01  0.14976532082E+02  0.17791831134E+02  0.51100000000E-03 0. -1.
        -11    1    3    3    0    0  0.11141626053E+02 -0.13701001861E+01  0.92589085430E+01  0.14551302117E+02  0.51100000000E-03 0.  1.
         12    1    3    3    0    0  0.12229830848E+01 -0.12377170217E+02  0.91559693962E+01  0.15444151183E+02  0.00000000000E+00 0. -1.
</event>
<event>
 7    1  0.2492468E-009  0.4778728E+02  0.7816164E-02  0.1312668E+00
        -11   -1    0    0    0    0  0.00000000000E+00  0.00000000000E+00  0.45593999997E+02  0.45594000000E+02  0.51100000000E-03 0.  1.
         11   -1    0    0    0    0 -0.00000000000E+00 -0.00000000000E+00 -0.45593999997E+02  0.45594000000E+02  0.51100000000E-03 0. -1.
    9900012    2    1    2    0    0 -0.15365521165E+02  0.36495196580E+02 -0.17765811870E+02  0.47787277823E+02  0.20000030906E+02 0.  0.
         12    1    1    2    0    0  0.15365521165E+02 -0.36495196580E+02  0.17765811870E+02  0.43400722177E+02  0.00000000000E+00 0. -1.
         11    1    3    3    0    0 -0.44468657784E+01  0.63452137971E+01 -0.50599051603E+01  0.92541338802E+01  0.51100000000E-03 0. -1.
        -11    1    3    3    0    0 -0.67774273302E+01  0.94882253517E+01  0.32460206088E+01  0.12103577636E+02  0.51100000000E-03 0.  1.
         12    1    3    3    0    0 -0.41412280565E+01  0.20661757431E+02 -0.15951927319E+02  0.26429566306E+02  0.00000000000E+00 0. -1.
</event>
<event>
 7    1  0.2492468E-009  0.4778727E+02  0.7816164E-02  0.1312668E+00
        -11   -1    0    0    0    0  0.00000000000E+00  0.00000000000E+00  0.45593999997E+02  0.45594000000E+02  0.51100000000E-03 0.  1.
         11   -1    0    0    0    0 -0.00000000000E+00 -0.00000000000E+00 -0.45593999997E+02  0.45594000000E+02  0.51100000000E-03 0. -1.
    9900012    2    1    2    0    0  0.26728679862E+02  0.23035314909E+01  0.34115905601E+02  0.47787267293E+02  0.19999982896E+02 0.  0.
         12    1    1    2    0    0 -0.26728679862E+02 -0.23035314909E+01 -0.34115905601E+02  0.43400732707E+02  0.00000000000E+00 0. -1.
         11    1    3    3    0    0  0.35241277032E+01  0.51608644141E+01  0.69416182744E+01  0.93402388673E+01  0.51100000000E-03 0. -1.
        -11    1    3    3    0    0  0.24107092054E+01  0.25930512066E+01  0.10970406672E+02  0.11527586749E+02  0.51100000000E-03 0.  1.
         12    1    3    3    0    0  0.20793842954E+02 -0.54503841298E+01  0.16203880654E+02  0.26919441677E+02  0.00000000000E+00 0. -1.
</event>
<event>
 7    1  0.2492468E-009  0.4778727E+02  0.7816164E-02  0.1312668E+00
        -11   -1    0    0    0    0  0.00000000000E+00  0.00000000000E+00  0.45593999997E+02  0.45594000000E+02  0.51100000000E-03 0.  1.
         11   -1    0    0    0    0 -0.00000000000E+00 -0.00000000000E+00 -0.45593999997E+02  0.45594000000E+02  0.51100000000E-03 0. -1.
    9900012    2    1    2    0    0  0.12238727521E+01 -0.38409080153E+02  0.20170968627E+02  0.47787270996E+02  0.19999999781E+02 0.  0.
         12    1    1    2    0    0 -0.12238727521E+01  0.38409080153E+02 -0.20170968627E+02  0.43400729004E+02  0.00000000000E+00 0. -1.
         11    1    3    3    0    0  0.13337285965E+01 -0.25709814715E+01 -0.20453133153E+01  0.35457135410E+01  0.51100000000E-03 0. -1.
        -11    1    3    3    0    0  0.30168544293E+01 -0.12735588974E+01  0.52937425779E+00  0.33171675084E+01  0.51100000000E-03 0.  1.
         12    1    3    3    0    0 -0.31267102737E+01 -0.34564539784E+02  0.21686907685E+02  0.40924389947E+02  0.00000000000E+00 0. -1.
</event>
<event>
 7    1  0.2492468E-009  0.4778727E+02  0.7816164E-02  0.1312668E+00
        -11   -1    0    0    0    0  0.00000000000E+00  0.00000000000E+00  0.45593999997E+02  0.45594000000E+02  0.51100000000E-03 0. -1.
         11   -1    0    0    0    0 -0.00000000000E+00 -0.00000000000E+00 -0.45593999997E+02  0.45594000000E+02  0.51100000000E-03 0.  1.
    9900012    2    1    2    0    0  0.19328002404E+01 -0.19984185050E+02 -0.38477525550E+02  0.47787270268E+02  0.19999996458E+02 0.  0.
         12    1    1    2    0    0 -0.19328002404E+01  0.19984185050E+02  0.38477525550E+02  0.43400729732E+02  0.00000000000E+00 0. -1.
         11    1    3    3    0    0  0.63782904791E+00  0.42998161625E+00  0.26094084631E-01  0.76966957004E+00  0.51100000000E-03 0. -1.
        -11    1    3    3    0    0  0.69689082795E+01 -0.18263169724E+02 -0.34783946452E+02  0.39900275463E+02  0.51100000000E-03 0.  1.
        -12    1    3    3    0    0 -0.56739370870E+01 -0.21509969420E+01 -0.37196731826E+01  0.71173252348E+01  0.00000000000E+00 0.  1.
</event>
<event>
 7    1  0.2492468E-009  0.4778727E+02  0.7816164E-02  0.1312668E+00
        -11   -1    0    0    0    0  0.00000000000E+00  0.00000000000E+00  0.45593999997E+02  0.45594000000E+02  0.51100000000E-03 0.  1.
         11   -1    0    0    0    0 -0.00000000000E+00 -0.00000000000E+00 -0.45593999997E+02  0.45594000000E+02  0.51100000000E-03 0. -1.
    9900012    2    1    2    0    0 -0.60238979563E+01  0.11573969768E+02  0.41392982578E+02  0.47787272708E+02  0.20000007583E+02 0.  0.
         12    1    1    2    0    0  0.60238979563E+01 -0.11573969768E+02 -0.41392982578E+02  0.43400727292E+02  0.00000000000E+00 0. -1.
         11    1    3    3    0    0  0.51185002561E+01  0.23476198876E+01  0.35484478070E+01  0.66559631991E+01  0.51100000000E-03 0. -1.
        -11    1    3    3    0    0 -0.28659944485E+01 -0.70221566941E+00  0.10125033205E+02  0.10546247137E+02  0.51100000000E-03 0.  1.
        -12    1    3    3    0    0 -0.82764037639E+01  0.99285655501E+01  0.27719501567E+02  0.30585062371E+02  0.00000000000E+00 0.  1.
</event>
<event>
 7    1  0.2492468E-009  0.4778727E+02  0.7816164E-02  0.1312668E+00
        -11   -1    0    0    0    0  0.00000000000E+00  0.00000000000E+00  0.45593999997E+02  0.45594000000E+02  0.51100000000E-03 0.  1.
         11   -1    0    0    0    0 -0.00000000000E+00 -0.00000000000E+00 -0.45593999997E+02  0.45594000000E+02  0.51100000000E-03 0. -1.
    9900012    2    1    2    0    0 -0.22553121992E+02 -0.21567989513E+01  0.37017946484E+02  0.47787268956E+02  0.19999990476E+02 0.  0.
         12    1    1    2    0    0  0.22553121992E+02  0.21567989513E+01 -0.37017946484E+02  0.43400731044E+02  0.00000000000E+00 0. -1.
         11    1    3    3    0    0 -0.67014225625E+01 -0.15309681055E+01  0.19263080046E+01  0.71388787978E+01  0.51100000000E-03 0. -1.
        -11    1    3    3    0    0 -0.10040285142E+02  0.15628426840E+01  0.82234677271E+01  0.13071925058E+02  0.51100000000E-03 0.  1.
        -12    1    3    3    0    0 -0.58114142870E+01 -0.21886735299E+01  0.26868170752E+02  0.27576465100E+02  0.00000000000E+00 0.  1.
</event>
<event>
 7    1  0.2492468E-009  0.4778727E+02  0.7816164E-02  0.1312668E+00
        -11   -1    0    0    0    0  0.00000000000E+00  0.00000000000E+00  0.45593999997E+02  0.45594000000E+02  0.51100000000E-03 0. -1.
         11   -1    0    0    0    0 -0.00000000000E+00 -0.00000000000E+00 -0.45593999997E+02  0.45594000000E+02  0.51100000000E-03 0.  1.
    9900012    2    1    2    0    0  0.37048188921E+02 -0.97801916312E+01 -0.20381426959E+02  0.47787274020E+02  0.20000013568E+02 0.  0.
         12    1    1    2    0    0 -0.37048188921E+02  0.97801916312E+01  0.20381426959E+02  0.43400725980E+02  0.00000000000E+00 0. -1.
         11    1    3    3    0    0  0.12357205447E+02 -0.57707760485E+00 -0.23770740260E+01  0.12596984807E+02  0.51100000000E-03 0. -1.
        -11    1    3    3    0    0  0.20729406654E+02 -0.90036997705E+01 -0.72610467837E+01  0.23738106716E+02  0.51100000000E-03 0.  1.
         12    1    3    3    0    0  0.39615768191E+01 -0.19941425584E+00 -0.10743306150E+02  0.11452182498E+02  0.00000000000E+00 0. -1.
</event>
<event>
 7    1  0.2492468E-009  0.4778727E+02  0.7816164E-02  0.1312668E+00
        -11   -1    0    0    0    0  0.00000000000E+00  0.00000000000E+00  0.45593999997E+02  0.45594000000E+02  0.51100000000E-03 0.  1.
         11   -1    0    0    0    0 -0.00000000000E+00 -0.00000000000E+00 -0.45593999997E+02  0.45594000000E+02  0.51100000000E-03 0. -1.
    9900012    2    1    2    0    0  0.44105813250E+01 -0.37586270282E+02  0.21247178350E+02  0.47787268103E+02  0.19999986590E+02 0.  0.
         12    1    1    2    0    0 -0.44105813250E+01  0.37586270282E+02 -0.21247178350E+02  0.43400731897E+02  0.00000000000E+00 0. -1.
         11    1    3    3    0    0  0.34362630288E+00 -0.36990932173E+01 -0.19059172179E+01  0.41753910438E+01  0.51100000000E-03 0. -1.
        -11    1    3    3    0    0  0.25087647662E+01 -0.78653359247E+01 -0.68932347505E+00  0.82844780749E+01  0.51100000000E-03 0.  1.
        -12    1    3    3    0    0  0.15581902560E+01 -0.26021841140E+02  0.23842419043E+02  0.35327398985E+02  0.00000000000E+00 0.  1.
</event>
<event>
 7    1  0.2492468E-009  0.4778727E+02  0.7816164E-02  0.1312668E+00
        -11   -1    0    0    0    0  0.00000000000E+00  0.00000000000E+00  0.45593999997E+02  0.45594000000E+02  0.51100000000E-03 0.  1.
         11   -1    0    0    0    0 -0.00000000000E+00 -0.00000000000E+00 -0.45593999997E+02  0.45594000000E+02  0.51100000000E-03 0. -1.
    9900012    2    1    2    0    0  0.45966432829E-01 -0.34225829285E+01  0.43265542231E+02  0.47787270382E+02  0.19999996982E+02 0.  0.
         12    1    1    2    0    0 -0.45966432829E-01  0.34225829285E+01 -0.43265542231E+02  0.43400729618E+02  0.00000000000E+00 0. -1.
         11    1    3    3    0    0  0.10534205549E+01 -0.72716005095E+01  0.25726015601E+02  0.26754695809E+02  0.51100000000E-03 0. -1.
        -11    1    3    3    0    0 -0.32377265177E+01  0.67302687505E+01  0.14405917272E+02  0.16226824803E+02  0.51100000000E-03 0.  1.
         12    1    3    3    0    0  0.22302723956E+01 -0.28812511695E+01  0.31336093572E+01  0.48057497712E+01  0.00000000000E+00 0. -1.
</event>
<event>
 7    1  0.2492468E-009  0.4778727E+02  0.7816164E-02  0.1312668E+00
        -11   -1    0    0    0    0  0.00000000000E+00  0.00000000000E+00  0.45593999997E+02  0.45594000000E+02  0.51100000000E-03 0.  1.
         11   -1    0    0    0    0 -0.00000000000E+00 -0.00000000000E+00 -0.45593999997E+02  0.45594000000E+02  0.51100000000E-03 0. -1.
    9900012    2    1    2    0    0 -0.11477970737E+02 -0.50669666963E+01  0.41547628617E+02  0.47787269506E+02  0.19999992987E+02 0.  0.
         12    1    1    2    0    0  0.11477970737E+02  0.50669666963E+01 -0.41547628617E+02  0.43400730494E+02  0.00000000000E+00 0. -1.
         11    1    3    3    0    0  0.13071270942E+01 -0.30675670128E+01  0.11065712354E+02  0.11557185591E+02  0.51100000000E-03 0. -1.
        -11    1    3    3    0    0 -0.29821128116E+01  0.61286062812E+01  0.11636256038E+02  0.13485372320E+02  0.51100000000E-03 0.  1.
         12    1    3    3    0    0 -0.98029850192E+01 -0.81280059647E+01  0.18845660225E+02  0.22744711595E+02  0.00000000000E+00 0. -1.
</event>
<event>
 7    1  0.2492468E-009  0.4778725E+02  0.7816164E-02  0.1312668E+00
        -11   -1    0    0    0    0  0.00000000000E+00  0.00000000000E+00  0.45593999997E+02  0.45594000000E+02  0.51100000000E-03 0.  1.
         11   -1    0    0    0    0 -0.00000000000E+00 -0.00000000000E+00 -0.45593999997E+02  0.45594000000E+02  0.51100000000E-03 0. -1.
    9900012    2    1    2    0    0  0.34195733721E+02 -0.24148477496E+02  0.11451099527E+02  0.47787252881E+02  0.19999917186E+02 0.  0.
         12    1    1    2    0    0 -0.34195733721E+02  0.24148477496E+02 -0.11451099527E+02  0.43400747119E+02  0.00000000000E+00 0. -1.
         11    1    3    3    0    0  0.17957927133E+02 -0.87394118966E+01  0.75789266169E+01  0.21361287324E+02  0.51100000000E-03 0. -1.
        -11    1    3    3    0    0  0.18279610818E+02 -0.11772060887E+02  0.19382248966E+01  0.21828474642E+02  0.51100000000E-03 0.  1.
         12    1    3    3    0    0 -0.20418042303E+01 -0.36370047126E+01  0.19339480135E+01  0.45974909150E+01  0.00000000000E+00 0. -1.
</event>
<event>
 7    1  0.2492468E-009  0.4778728E+02  0.7816164E-02  0.1312668E+00
        -11   -1    0    0    0    0  0.00000000000E+00  0.00000000000E+00  0.45593999997E+02  0.45594000000E+02  0.51100000000E-03 0.  1.
         11   -1    0    0    0    0 -0.00000000000E+00 -0.00000000000E+00 -0.45593999997E+02  0.45594000000E+02  0.51100000000E-03 0. -1.
    9900012    2    1    2    0    0  0.32262864049E+02 -0.21861537131E+02  0.19099832768E+02  0.47787276341E+02  0.20000024147E+02 0.  0.
         12    1    1    2    0    0 -0.32262864049E+02  0.21861537131E+02 -0.19099832768E+02  0.43400723659E+02  0.00000000000E+00 0. -1.
         11    1    3    3    0    0  0.61062310714E+01 -0.59280763695E+01  0.26014772458E+01  0.88992039791E+01  0.51100000000E-03 0. -1.
        -11    1    3    3    0    0  0.25233476577E+02 -0.12105880105E+02  0.73617240717E+01  0.28939171634E+02  0.51100000000E-03 0.  1.
         12    1    3    3    0    0  0.92315640054E+00 -0.38275806566E+01  0.91366314502E+01  0.99489007272E+01  0.00000000000E+00 0. -1.
</event>
<event>
 7    1  0.2492468E-009  0.4778726E+02  0.7816164E-02  0.1312668E+00
        -11   -1    0    0    0    0  0.00000000000E+00  0.00000000000E+00  0.45593999997E+02  0.45594000000E+02  0.51100000000E-03 0. -1.
         11   -1    0    0    0    0 -0.00000000000E+00 -0.00000000000E+00 -0.45593999997E+02  0.45594000000E+02  0.51100000000E-03 0.  1.
    9900012    2    1    2    0    0  0.33862088882E+02  0.24934854224E+02  0.10734798311E+02  0.47787263677E+02  0.19999966408E+02 0.  0.
         12    1    1    2    0    0 -0.33862088882E+02 -0.24934854224E+02 -0.10734798311E+02  0.43400736323E+02  0.00000000000E+00 0. -1.
         11    1    3    3    0    0  0.66166288720E+00  0.53664001493E+01  0.40211862322E+01  0.67383964942E+01  0.51100000000E-03 0. -1.
        -11    1    3    3    0    0  0.22039611789E+02  0.11143735180E+02  0.10065642533E+02  0.26669167243E+02  0.51100000000E-03 0.  1.
         12    1    3    3    0    0  0.11160814205E+02  0.84247188949E+01 -0.33520304542E+01  0.14379699939E+02  0.00000000000E+00 0. -1.
</event>
<event>
 7    1  0.2492468E-009  0.4778727E+02  0.7816164E-02  0.1312668E+00
        -11   -1    0    0    0    0  0.00000000000E+00  0.00000000000E+00  0.45593999997E+02  0.45594000000E+02  0.51100000000E-03 0.  1.
         11   -1    0    0    0    0 -0.00000000000E+00 -0.00000000000E+00 -0.45593999997E+02  0.45594000000E+02  0.51100000000E-03 0. -1.
    9900012    2    1    2    0    0 -0.24403107702E+01 -0.12562255566E+02  0.41471170757E+02  0.47787269758E+02  0.19999994136E+02 0.  0.
         12    1    1    2    0    0  0.24403107702E+01  0.12562255566E+02 -0.41471170757E+02  0.43400730242E+02  0.00000000000E+00 0. -1.
         11    1    3    3    0    0  0.28742658512E+01 -0.11026211773E+02  0.88795504351E+01  0.14445939445E+02  0.51100000000E-03 0. -1.
        -11    1    3    3    0    0 -0.22130295820E+01 -0.24546283345E+01  0.10326837054E+02  0.10842797794E+02  0.51100000000E-03 0.  1.
         12    1    3    3    0    0 -0.31015470394E+01  0.91858454135E+00  0.22264783268E+02  0.22498532520E+02  0.00000000000E+00 0. -1.
</event>
<event>
 7    1  0.2492468E-009  0.4778727E+02  0.7816164E-02  0.1312668E+00
        -11   -1    0    0    0    0  0.00000000000E+00  0.00000000000E+00  0.45593999997E+02  0.45594000000E+02  0.51100000000E-03 0.  1.
         11   -1    0    0    0    0 -0.00000000000E+00 -0.00000000000E+00 -0.45593999997E+02  0.45594000000E+02  0.51100000000E-03 0. -1.
    9900012    2    1    2    0    0  0.35313375805E+02  0.80374038429E+01  0.23916286937E+02  0.47787272447E+02  0.20000006396E+02 0.  0.
         12    1    1    2    0    0 -0.35313375805E+02 -0.80374038429E+01 -0.23916286937E+02  0.43400727553E+02  0.00000000000E+00 0. -1.
         11    1    3    3    0    0  0.17541915392E+01  0.26801029073E+01  0.55954466144E+01  0.64474151895E+01  0.51100000000E-03 0. -1.
        -11    1    3    3    0    0  0.11239111791E+01 -0.30575822098E+01  0.24617803661E+00  0.32668928961E+01  0.51100000000E-03 0.  1.
        -12    1    3    3    0    0  0.32435273086E+02  0.84148831454E+01  0.18074662286E+02  0.38072964362E+02  0.00000000000E+00 0.  1.
</event>
<event>
 7    1  0.2492468E-009  0.4778727E+02  0.7816164E-02  0.1312668E+00
        -11   -1    0    0    0    0  0.00000000000E+00  0.00000000000E+00  0.45593999997E+02  0.45594000000E+02  0.51100000000E-03 0.  1.
         11   -1    0    0    0    0 -0.00000000000E+00 -0.00000000000E+00 -0.45593999997E+02  0.45594000000E+02  0.51100000000E-03 0. -1.
    9900012    2    1    2    0    0  0.31146075587E+02  0.11874992510E+02  0.27794418130E+02  0.47787272463E+02  0.20000006467E+02 0.  0.
         12    1    1    2    0    0 -0.31146075587E+02 -0.11874992510E+02 -0.27794418130E+02  0.43400727537E+02  0.00000000000E+00 0. -1.
         11    1    3    3    0    0 -0.81555914129E+00  0.30708093607E+01  0.26835198365E+01  0.41588803562E+01  0.51100000000E-03 0. -1.
        -11    1    3    3    0    0  0.16917748918E+02  0.99465836530E+01  0.19107846553E+02  0.27390774998E+02  0.51100000000E-03 0.  1.
         12    1    3    3    0    0  0.15043885810E+02 -0.11424005039E+01  0.60030517404E+01  0.16237617109E+02  0.00000000000E+00 0. -1.
</event>
<event>
 7    1  0.2492468E-009  0.4778727E+02  0.7816164E-02  0.1312668E+00
        -11   -1    0    0    0    0  0.00000000000E+00  0.00000000000E+00  0.45593999997E+02  0.45594000000E+02  0.51100000000E-03 0.  1.
         11   -1    0    0    0    0 -0.00000000000E+00 -0.00000000000E+00 -0.45593999997E+02  0.45594000000E+02  0.51100000000E-03 0. -1.
    9900012    2    1    2    0    0 -0.78876398702E+01 -0.17622556486E+02  0.38869703910E+02  0.47787271414E+02  0.20000001683E+02 0.  0.
         12    1    1    2    0    0  0.78876398702E+01  0.17622556486E+02 -0.38869703910E+02  0.43400728586E+02  0.00000000000E+00 0. -1.
         11    1    3    3    0    0 -0.82034602612E+01 -0.77822094451E+01  0.14101238774E+02  0.18074968307E+02  0.51100000000E-03 0. -1.
        -11    1    3    3    0    0 -0.21348658020E+01 -0.17456415217E+00 -0.78566987427E+00  0.22815350201E+01  0.51100000000E-03 0.  1.
        -12    1    3    3    0    0  0.24506861929E+01 -0.96657828884E+01  0.25554135010E+02  0.27430768086E+02  0.00000000000E+00 0.  1.
</event>
<event>
 7    1  0.2492468E-009  0.4778728E+02  0.7816164E-02  0.1312668E+00
        -11   -1    0    0    0    0  0.00000000000E+00  0.00000000000E+00  0.45593999997E+02  0.45594000000E+02  0.51100000000E-03 0.  1.
         11   -1    0    0    0    0 -0.00000000000E+00 -0.00000000000E+00 -0.45593999997E+02  0.45594000000E+02  0.51100000000E-03 0. -1.
    9900012    2    1    2    0    0  0.39001938633E+02  0.60311206802E+01  0.18058151528E+02  0.47787280301E+02  0.20000042206E+02 0.  0.
         12    1    1    2    0    0 -0.39001938633E+02 -0.60311206802E+01 -0.18058151528E+02  0.43400719699E+02  0.00000000000E+00 0. -1.
         11    1    3    3    0    0  0.93742503606E+01  0.16104717593E+01  0.95621446112E+01  0.13487208716E+02  0.51100000000E-03 0. -1.
        -11    1    3    3    0    0  0.64549444168E+01  0.18342855094E+01  0.86940529462E+01  0.10982598401E+02  0.51100000000E-03 0.  1.
         12    1    3    3    0    0  0.23172743855E+02  0.25863634115E+01 -0.19804602928E+00  0.23317473184E+02  0.00000000000E+00 0. -1.
</event>
<event>
 7    1  0.2492468E-009  0.4778729E+02  0.7816164E-02  0.1312668E+00
        -11   -1    0    0    0    0  0.00000000000E+00  0.00000000000E+00  0.45593999997E+02  0.45594000000E+02  0.51100000000E-03 0.  1.
         11   -1    0    0    0    0 -0.00000000000E+00 -0.00000000000E+00 -0.45593999997E+02  0.45594000000E+02  0.51100000000E-03 0. -1.
    9900012    2    1    2    0    0  0.41185801638E+02  0.11683353353E+02 -0.71309385230E+01  0.47787293942E+02  0.20000104397E+02 0.  0.
         12    1    1    2    0    0 -0.41185801638E+02 -0.11683353353E+02  0.71309385230E+01  0.43400706058E+02  0.00000000000E+00 0. -1.
         11    1    3    3    0    0  0.36905066907E+01  0.35149908866E+01  0.37061566383E+01  0.63016345384E+01  0.51100000000E-03 0. -1.
        -11    1    3    3    0    0  0.11317032581E+02 -0.27325386934E+01 -0.22587964624E+01  0.11859348881E+02  0.51100000000E-03 0.  1.
        -12    1    3    3    0    0  0.26178262366E+02  0.10900901160E+02 -0.85782986990E+01  0.29626310522E+02  0.00000000000E+00 0.  1.
</event>
<event>
 7    1  0.2560849E-009  0.4778727E+02  0.7816164E-02  0.1312668E+00
        -11   -1    0    0    0    0  0.00000000000E+00  0.00000000000E+00  0.45593999997E+02  0.45594000000E+02  0.51100000000E-03 0.  1.
         11   -1    0    0    0    0 -0.00000000000E+00 -0.00000000000E+00 -0.45593999997E+02  0.45594000000E+02  0.51100000000E-03 0. -1.
    9900012    2    1    2    0    0  0.71427213023E+01  0.39945700264E+02 -0.15393043600E+02  0.47787271568E+02  0.20000002386E+02 0.  0.
         12    1    1    2    0    0 -0.71427213023E+01 -0.39945700264E+02  0.15393043600E+02  0.43400728432E+02  0.00000000000E+00 0. -1.
         11    1    3    3    0    0  0.63213123981E+01  0.13202309692E+02 -0.49754996680E+00  0.14646075510E+02  0.51100000000E-03 0. -1.
        -11    1    3    3    0    0  0.36094531658E+01  0.25396262147E+02 -0.10393458319E+02  0.27677107133E+02  0.51100000000E-03 0.  1.
         12    1    3    3    0    0 -0.27880442616E+01  0.13471284255E+01 -0.45020353142E+01  0.54640889240E+01  0.00000000000E+00 0. -1.
</event>
<event>
 7    1  0.2492468E-009  0.4778727E+02  0.7816164E-02  0.1312668E+00
        -11   -1    0    0    0    0  0.00000000000E+00  0.00000000000E+00  0.45593999997E+02  0.45594000000E+02  0.51100000000E-03 0. -1.
         11   -1    0    0    0    0 -0.00000000000E+00 -0.00000000000E+00 -0.45593999997E+02  0.45594000000E+02  0.51100000000E-03 0.  1.
    9900012    2    1    2    0    0 -0.39935955604E+02 -0.81228398682E+01 -0.14925215361E+02  0.47787272689E+02  0.20000007498E+02 0.  0.
         12    1    1    2    0    0  0.39935955604E+02  0.81228398682E+01  0.14925215361E+02  0.43400727311E+02  0.00000000000E+00 0. -1.
         11    1    3    3    0    0 -0.10963285291E+02 -0.91277235607E+01 -0.37339437659E+01  0.14746229962E+02  0.51100000000E-03 0. -1.
        -11    1    3    3    0    0 -0.15236418114E+02  0.13563355854E+00 -0.11787712491E+02  0.19264397199E+02  0.51100000000E-03 0.  1.
         12    1    3    3    0    0 -0.13736252199E+02  0.86925013386E+00  0.59644089598E+00  0.13776645528E+02  0.00000000000E+00 0. -1.
</event>
<event>
 7    1  0.2492468E-009  0.4778727E+02  0.7816164E-02  0.1312668E+00
        -11   -1    0    0    0    0  0.00000000000E+00  0.00000000000E+00  0.45593999997E+02  0.45594000000E+02  0.51100000000E-03 0. -1.
         11   -1    0    0    0    0 -0.00000000000E+00 -0.00000000000E+00 -0.45593999997E+02  0.45594000000E+02  0.51100000000E-03 0.  1.
    9900012    2    1    2    0    0 -0.26114876585E+02  0.31719074626E+02  0.13983461790E+02  0.47787266391E+02  0.19999978782E+02 0.  0.
         12    1    1    2    0    0  0.26114876585E+02 -0.31719074626E+02 -0.13983461790E+02  0.43400733609E+02  0.00000000000E+00 0. -1.
         11    1    3    3    0    0 -0.11819896542E+02  0.28758691428E+01  0.61397129555E+01  0.13626322065E+02  0.51100000000E-03 0. -1.
        -11    1    3    3    0    0 -0.11492756231E+00  0.51219444109E+01  0.34521365040E+01  0.61777641260E+01  0.51100000000E-03 0.  1.
        -12    1    3    3    0    0 -0.14180052481E+02  0.23721261072E+02  0.43916123302E+01  0.27983180200E+02  0.00000000000E+00 0.  1.
</event>
<event>
 7    1  0.2492468E-009  0.4778727E+02  0.7816164E-02  0.1312668E+00
        -11   -1    0    0    0    0  0.00000000000E+00  0.00000000000E+00  0.45593999997E+02  0.45594000000E+02  0.51100000000E-03 0. -1.
         11   -1    0    0    0    0 -0.00000000000E+00 -0.00000000000E+00 -0.45593999997E+02  0.45594000000E+02  0.51100000000E-03 0.  1.
    9900012    2    1    2    0    0  0.12901794479E+02  0.38029328221E+02 -0.16460170619E+02  0.47787270484E+02  0.19999997444E+02 0.  0.
         12    1    1    2    0    0 -0.12901794479E+02 -0.38029328221E+02  0.16460170619E+02  0.43400729516E+02  0.00000000000E+00 0. -1.
         11    1    3    3    0    0  0.26003698834E+01  0.58111909026E+01  0.17948576976E+01  0.66146335993E+01  0.51100000000E-03 0. -1.
        -11    1    3    3    0    0  0.84048824957E+01  0.15396651448E+02 -0.16622183891E+02  0.24166007596E+02  0.51100000000E-03 0.  1.
         12    1    3    3    0    0  0.18965420999E+01  0.16821485871E+02 -0.16328444256E+01  0.17006629289E+02  0.00000000000E+00 0. -1.
</event>
<event>
 7    1  0.2492468E-009  0.4778727E+02  0.7816164E-02  0.1312668E+00
        -11   -1    0    0    0    0  0.00000000000E+00  0.00000000000E+00  0.45593999997E+02  0.45594000000E+02  0.51100000000E-03 0.  1.
         11   -1    0    0    0    0 -0.00000000000E+00 -0.00000000000E+00 -0.45593999997E+02  0.45594000000E+02  0.51100000000E-03 0. -1.
    9900012    2    1    2    0    0  0.19440643218E+02 -0.78842175598E+01  0.37993734401E+02  0.47787270179E+02  0.19999996053E+02 0.  0.
         12    1    1    2    0    0 -0.19440643218E+02  0.78842175598E+01 -0.37993734401E+02  0.43400729821E+02  0.00000000000E+00 0. -1.
         11    1    3    3    0    0  0.35929023851E+01  0.19435957984E+01  0.79176069121E+01  0.89092654945E+01  0.51100000000E-03 0.  1.
        -11    1    3    3    0    0  0.63037975568E+01  0.11250592148E-01  0.22181135962E+02  0.23059505265E+02  0.51100000000E-03 0. -1.
        -12    1    3    3    0    0  0.95439432764E+01 -0.98390639503E+01  0.78949915267E+01  0.15818499420E+02  0.00000000000E+00 0.  1.
</event>
<event>
 7    1  0.2492468E-009  0.4778727E+02  0.7816164E-02  0.1312668E+00
        -11   -1    0    0    0    0  0.00000000000E+00  0.00000000000E+00  0.45593999997E+02  0.45594000000E+02  0.51100000000E-03 0.  1.
         11   -1    0    0    0    0 -0.00000000000E+00 -0.00000000000E+00 -0.45593999997E+02  0.45594000000E+02  0.51100000000E-03 0. -1.
    9900012    2    1    2    0    0  0.33212247938E+02 -0.15143790593E+02  0.23478409522E+02  0.47787268205E+02  0.19999987055E+02 0.  0.
         12    1    1    2    0    0 -0.33212247938E+02  0.15143790593E+02 -0.23478409522E+02  0.43400731795E+02  0.00000000000E+00 0. -1.
         11    1    3    3    0    0  0.56964157361E+01 -0.61504922472E+01  0.16919211845E+01  0.85522105141E+01  0.51100000000E-03 0. -1.
        -11    1    3    3    0    0  0.18148035634E+02 -0.12789624007E+02  0.17438893283E+02  0.28231908876E+02  0.51100000000E-03 0.  1.
         12    1    3    3    0    0  0.93677965685E+01  0.37963256618E+01  0.43475950549E+01  0.11003148815E+02  0.00000000000E+00 0. -1.
</event>
<event>
 7    1  0.2492468E-009  0.4778728E+02  0.7816164E-02  0.1312668E+00
        -11   -1    0    0    0    0  0.00000000000E+00  0.00000000000E+00  0.45593999997E+02  0.45594000000E+02  0.51100000000E-03 0. -1.
         11   -1    0    0    0    0 -0.00000000000E+00 -0.00000000000E+00 -0.45593999997E+02  0.45594000000E+02  0.51100000000E-03 0.  1.
    9900012    2    1    2    0    0  0.27355549187E+02  0.31500811734E+02 -0.11958080112E+02  0.47787275453E+02  0.20000020102E+02 0.  0.
         12    1    1    2    0    0 -0.27355549187E+02 -0.31500811734E+02  0.11958080112E+02  0.43400724547E+02  0.00000000000E+00 0. -1.
         11    1    3    3    0    0 -0.10638260430E+01  0.36240499452E+01 -0.53096014155E+01  0.65159290441E+01  0.51100000000E-03 0. -1.
        -11    1    3    3    0    0  0.89941530817E+01  0.13337717617E+02 -0.54244663577E+01  0.16976876521E+02  0.51100000000E-03 0.  1.
        -12    1    3    3    0    0  0.19425222148E+02  0.14539044172E+02 -0.12240123387E+01  0.24294469888E+02  0.00000000000E+00 0.  1.
</event>
<event>
 7    1  0.2492468E-009  0.4778721E+02  0.7816164E-02  0.1312668E+00
        -11   -1    0    0    0    0  0.00000000000E+00  0.00000000000E+00  0.45593999997E+02  0.45594000000E+02  0.51100000000E-03 0.  1.
         11   -1    0    0    0    0 -0.00000000000E+00 -0.00000000000E+00 -0.45593999997E+02  0.45594000000E+02  0.51100000000E-03 0. -1.
    9900012    2    1    2    0    0 -0.12666408209E+02  0.14481182234E+02  0.38903543467E+02  0.47787213945E+02  0.19999739661E+02 0.  0.
         12    1    1    2    0    0  0.12666408209E+02 -0.14481182234E+02 -0.38903543467E+02  0.43400786055E+02  0.00000000000E+00 0. -1.
         11    1    3    3    0    0  0.38925281397E+01  0.57930542983E+01  0.55085577172E+01  0.88913138403E+01  0.51100000000E-03 0.  1.
        -11    1    3    3    0    0 -0.63497585480E+00 -0.47922498238E+00  0.50780594838E+01  0.51399940955E+01  0.51100000000E-03 0. -1.
        -12    1    3    3    0    0 -0.15923960494E+02  0.91673529183E+01  0.28316926267E+02  0.33755906010E+02  0.00000000000E+00 0.  1.
</event>
<event>
 7    1  0.2492468E-009  0.4778727E+02  0.7816164E-02  0.1312668E+00
        -11   -1    0    0    0    0  0.00000000000E+00  0.00000000000E+00  0.45593999997E+02  0.45594000000E+02  0.51100000000E-03 0.  1.
         11   -1    0    0    0    0 -0.00000000000E+00 -0.00000000000E+00 -0.45593999997E+02  0.45594000000E+02  0.51100000000E-03 0. -1.
    9900012    2    1    2    0    0 -0.33865306558E+02 -0.18846579060E+02 -0.19533833974E+02  0.47787271892E+02  0.20000003865E+02 0.  0.
         12    1    1    2    0    0  0.33865306558E+02  0.18846579060E+02  0.19533833974E+02  0.43400728108E+02  0.00000000000E+00 0. -1.
         11    1    3    3    0    0  0.10533901313E+01 -0.36391786402E+01  0.11735402017E+01  0.39661629833E+01  0.51100000000E-03 0. -1.
        -11    1    3    3    0    0 -0.10820614593E+02 -0.52299235162E+01 -0.32976333932E+01  0.12462430999E+02  0.51100000000E-03 0.  1.
         12    1    3    3    0    0 -0.24098082097E+02 -0.99774769038E+01 -0.17409740783E+02  0.31358677910E+02  0.00000000000E+00 0. -1.
</event>
<event>
 7    1  0.2492468E-009  0.4778727E+02  0.7816164E-02  0.1312668E+00
        -11   -1    0    0    0    0  0.00000000000E+00  0.00000000000E+00  0.45593999997E+02  0.45594000000E+02  0.51100000000E-03 0.  1.
         11   -1    0    0    0    0 -0.00000000000E+00 -0.00000000000E+00 -0.45593999997E+02  0.45594000000E+02  0.51100000000E-03 0. -1.
    9900012    2    1    2    0    0  0.69103301766E+01  0.35026358657E+02  0.24678432727E+02  0.47787268373E+02  0.19999987820E+02 0.  0.
         12    1    1    2    0    0 -0.69103301766E+01 -0.35026358657E+02 -0.24678432727E+02  0.43400731627E+02  0.00000000000E+00 0. -1.
         11    1    3    3    0    0  0.69580504305E+00 -0.19516550852E+01  0.19815134081E+01  0.28669666683E+01  0.51100000000E-03 0. -1.
        -11    1    3    3    0    0  0.32477842349E+01  0.22390946448E+02  0.79896244271E+01  0.23994513624E+02  0.51100000000E-03 0.  1.
        -12    1    3    3    0    0  0.29667408987E+01  0.14587067294E+02  0.14707294892E+02  0.20925788081E+02  0.00000000000E+00 0.  1.
</event>
<event>
 7    1  0.2492468E-009  0.4778727E+02  0.7816164E-02  0.1312668E+00
        -11   -1    0    0    0    0  0.00000000000E+00  0.00000000000E+00  0.45593999997E+02  0.45594000000E+02  0.51100000000E-03 0.  1.
         11   -1    0    0    0    0 -0.00000000000E+00 -0.00000000000E+00 -0.45593999997E+02  0.45594000000E+02  0.51100000000E-03 0. -1.
    9900012    2    1    2    0    0 -0.36143759707E+01 -0.18243448754E+02  0.39213978880E+02  0.47787271024E+02  0.19999999905E+02 0.  0.
         12    1    1    2    0    0  0.36143759707E+01  0.18243448754E+02 -0.39213978880E+02  0.43400728976E+02  0.00000000000E+00 0. -1.
         11    1    3    3    0    0 -0.30629084748E+01  0.10896078033E+01  0.69780801491E+01  0.76981982514E+01  0.51100000000E-03 0. -1.
        -11    1    3    3    0    0  0.29489077315E+01 -0.12982201434E+02  0.29452608068E+02  0.32321660433E+02  0.51100000000E-03 0.  1.
         12    1    3    3    0    0 -0.35003752274E+01 -0.63508551234E+01  0.27832906628E+01  0.77674123390E+01  0.00000000000E+00 0. -1.
</event>
<event>
 7    1  0.2492468E-009  0.4778727E+02  0.7816164E-02  0.1312668E+00
        -11   -1    0    0    0    0  0.00000000000E+00  0.00000000000E+00  0.45593999997E+02  0.45594000000E+02  0.51100000000E-03 0. -1.
         11   -1    0    0    0    0 -0.00000000000E+00 -0.00000000000E+00 -0.45593999997E+02  0.45594000000E+02  0.51100000000E-03 0.  1.
    9900012    2    1    2    0    0  0.36626047589E+02  0.86875931056E+01 -0.21602816950E+02  0.47787270327E+02  0.19999996727E+02 0.  0.
         12    1    1    2    0    0 -0.36626047589E+02 -0.86875931056E+01  0.21602816950E+02  0.43400729673E+02  0.00000000000E+00 0. -1.
         11    1    3    3    0    0  0.12850748451E+02 -0.21493819240E+01  0.11601634441E+01  0.13080808762E+02  0.51100000000E-03 0. -1.
        -11    1    3    3    0    0  0.13436711303E+02  0.53513881016E+01 -0.11725498046E+02  0.18619072746E+02  0.51100000000E-03 0.  1.
        -12    1    3    3    0    0  0.10338587836E+02  0.54855869279E+01 -0.11037482349E+02  0.16087388818E+02  0.00000000000E+00 0.  1.
</event>
<event>
 7    1  0.2492468E-009  0.4778728E+02  0.7816164E-02  0.1312668E+00
        -11   -1    0    0    0    0  0.00000000000E+00  0.00000000000E+00  0.45593999997E+02  0.45594000000E+02  0.51100000000E-03 0. -1.
         11   -1    0    0    0    0 -0.00000000000E+00 -0.00000000000E+00 -0.45593999997E+02  0.45594000000E+02  0.51100000000E-03 0.  1.
    9900012    2    1    2    0    0  0.11384266178E+02  0.26207010467E+02 -0.32668240018E+02  0.47787276274E+02  0.20000023845E+02 0.  0.
         12    1    1    2    0    0 -0.11384266178E+02 -0.26207010467E+02  0.32668240018E+02  0.43400723726E+02  0.00000000000E+00 0. -1.
         11    1    3    3    0    0 -0.20234394833E+00 -0.16263219146E+01 -0.57015881926E+00  0.17352081672E+01  0.51100000000E-03 0. -1.
        -11    1    3    3    0    0 -0.22111314260E+01  0.10712257009E+02 -0.90415322135E+01  0.14191224663E+02  0.51100000000E-03 0.  1.
         12    1    3    3    0    0  0.13797741552E+02  0.17121075373E+02 -0.23056548985E+02  0.31860843444E+02  0.00000000000E+00 0. -1.
</event>
<event>
 7    1  0.2492468E-009  0.4778729E+02  0.7816164E-02  0.1312668E+00
        -11   -1    0    0    0    0  0.00000000000E+00  0.00000000000E+00  0.45593999997E+02  0.45594000000E+02  0.51100000000E-03 0.  1.
         11   -1    0    0    0    0 -0.00000000000E+00 -0.00000000000E+00 -0.45593999997E+02  0.45594000000E+02  0.51100000000E-03 0. -1.
    9900012    2    1    2    0    0 -0.23025265523E+02  0.36035649375E+02  0.74088384689E+01  0.47787288419E+02  0.20000079218E+02 0.  0.
         12    1    1    2    0    0  0.23025265523E+02 -0.36035649375E+02 -0.74088384689E+01  0.43400711581E+02  0.00000000000E+00 0. -1.
         11    1    3    3    0    0 -0.45689638024E+01  0.50828467437E+01  0.52854801056E+01  0.86398530922E+01  0.51100000000E-03 0. -1.
        -11    1    3    3    0    0 -0.32542641197E+01  0.11445594922E+02  0.71896528643E+01  0.13902625171E+02  0.51100000000E-03 0.  1.
         12    1    3    3    0    0 -0.15202037601E+02  0.19507207709E+02 -0.50662945010E+01  0.25244810156E+02  0.00000000000E+00 0. -1.
</event>
<event>
 7    1  0.2492468E-009  0.4778727E+02  0.7816164E-02  0.1312668E+00
        -11   -1    0    0    0    0  0.00000000000E+00  0.00000000000E+00  0.45593999997E+02  0.45594000000E+02  0.51100000000E-03 0. -1.
         11   -1    0    0    0    0 -0.00000000000E+00 -0.00000000000E+00 -0.45593999997E+02  0.45594000000E+02  0.51100000000E-03 0.  1.
    9900012    2    1    2    0    0 -0.25309419011E+01 -0.42309799107E+02 -0.93326613667E+01  0.47787270333E+02  0.19999996758E+02 0.  0.
         12    1    1    2    0    0  0.25309419011E+01  0.42309799107E+02  0.93326613667E+01  0.43400729667E+02  0.00000000000E+00 0. -1.
         11    1    3    3    0    0 -0.36558159815E+01 -0.78788924518E+01  0.49264014312E+01  0.99855579754E+01  0.51100000000E-03 0. -1.
        -11    1    3    3    0    0 -0.75366412110E+00 -0.12307656512E+02 -0.21672439489E+01  0.12519719048E+02  0.51100000000E-03 0.  1.
         12    1    3    3    0    0  0.18785382015E+01 -0.22123250143E+02 -0.12091818849E+02  0.25281993310E+02  0.00000000000E+00 0. -1.
</event>
<event>
 7    1  0.2492468E-009  0.4778727E+02  0.7816164E-02  0.1312668E+00
        -11   -1    0    0    0    0  0.00000000000E+00  0.00000000000E+00  0.45593999997E+02  0.45594000000E+02  0.51100000000E-03 0. -1.
         11   -1    0    0    0    0 -0.00000000000E+00 -0.00000000000E+00 -0.45593999997E+02  0.45594000000E+02  0.51100000000E-03 0.  1.
    9900012    2    1    2    0    0 -0.33358227703E+02 -0.26028495948E+01 -0.27641946044E+02  0.47787270022E+02  0.19999995340E+02 0.  0.
         12    1    1    2    0    0  0.33358227703E+02  0.26028495948E+01  0.27641946044E+02  0.43400729978E+02  0.00000000000E+00 0. -1.
         11    1    3    3    0    0 -0.93547915310E+00 -0.16196133443E+00 -0.53596378565E+01  0.54430755032E+01  0.51100000000E-03 0. -1.
        -11    1    3    3    0    0 -0.35056292181E+01  0.14269653458E+01 -0.99949795808E+01  0.10687622907E+02  0.51100000000E-03 0.  1.
         12    1    3    3    0    0 -0.28917119332E+02 -0.38678536061E+01 -0.12287328607E+02  0.31656571612E+02  0.00000000000E+00 0. -1.
</event>
<event>
 7    1  0.2492468E-009  0.4778727E+02  0.7816164E-02  0.1312668E+00
        -11   -1    0    0    0    0  0.00000000000E+00  0.00000000000E+00  0.45593999997E+02  0.45594000000E+02  0.51100000000E-03 0.  1.
         11   -1    0    0    0    0 -0.00000000000E+00 -0.00000000000E+00 -0.45593999997E+02  0.45594000000E+02  0.51100000000E-03 0. -1.
    9900012    2    1    2    0    0 -0.28587097666E+02 -0.82771727242E+01  0.31589389236E+02  0.47787271278E+02  0.20000001065E+02 0.  0.
         12    1    1    2    0    0  0.28587097666E+02  0.82771727242E+01 -0.31589389236E+02  0.43400728722E+02  0.00000000000E+00 0. -1.
         11    1    3    3    0    0 -0.10057719082E+02 -0.26412405058E+01  0.74192552018E+01  0.12774161912E+02  0.51100000000E-03 0. -1.
        -11    1    3    3    0    0 -0.13908028800E+02  0.40151849038E+01  0.15791607719E+02  0.21422648052E+02  0.51100000000E-03 0.  1.
         12    1    3    3    0    0 -0.46213497838E+01 -0.96511171222E+01  0.83785263151E+01  0.13590461315E+02  0.00000000000E+00 0. -1.
</event>
<event>
 7    1  0.2492468E-009  0.4778727E+02  0.7816164E-02  0.1312668E+00
        -11   -1    0    0    0    0  0.00000000000E+00  0.00000000000E+00  0.45593999997E+02  0.45594000000E+02  0.51100000000E-03 0.  1.
         11   -1    0    0    0    0 -0.00000000000E+00 -0.00000000000E+00 -0.45593999997E+02  0.45594000000E+02  0.51100000000E-03 0. -1.
    9900012    2    1    2    0    0 -0.22608591521E+02 -0.22732015855E+01  0.36977126408E+02  0.47787265750E+02  0.19999975862E+02 0.  0.
         12    1    1    2    0    0  0.22608591521E+02  0.22732015855E+01 -0.36977126408E+02  0.43400734250E+02  0.00000000000E+00 0. -1.
         11    1    3    3    0    0 -0.10607193482E+02  0.19453392706E+01  0.12153335583E+02  0.16248091103E+02  0.51100000000E-03 0. -1.
        -11    1    3    3    0    0 -0.81606842070E+01 -0.20237015473E+01  0.25690586282E+02  0.27031432785E+02  0.51100000000E-03 0.  1.
         12    1    3    3    0    0 -0.38407138325E+01 -0.21948393088E+01 -0.86679545631E+00  0.45077418624E+01  0.00000000000E+00 0. -1.
</event>
<event>
 7    1  0.2492468E-009  0.4778727E+02  0.7816164E-02  0.1312668E+00
        -11   -1    0    0    0    0  0.00000000000E+00  0.00000000000E+00  0.45593999997E+02  0.45594000000E+02  0.51100000000E-03 0.  1.
         11   -1    0    0    0    0 -0.00000000000E+00 -0.00000000000E+00 -0.45593999997E+02  0.45594000000E+02  0.51100000000E-03 0. -1.
    9900012    2    1    2    0    0 -0.87883092399E+01  0.35340285718E+02  0.23610439542E+02  0.47787273862E+02  0.20000012848E+02 0.  0.
         12    1    1    2    0    0  0.87883092399E+01 -0.35340285718E+02 -0.23610439542E+02  0.43400726138E+02  0.00000000000E+00 0. -1.
         11    1    3    3    0    0 -0.52243348296E+00  0.47364456919E+00 -0.12260995587E+01  0.14144243744E+01  0.51100000000E-03 0. -1.
        -11    1    3    3    0    0 -0.37711234391E+01  0.12201739855E+02  0.45142840676E+00  0.12779186803E+02  0.51100000000E-03 0.  1.
        -12    1    3    3    0    0 -0.44947523179E+01  0.22664901294E+02  0.24385110694E+02  0.33593662685E+02  0.00000000000E+00 0.  1.
</event>
<event>
 7    1  0.2492468E-009  0.4778727E+02  0.7816164E-02  0.1312668E+00
        -11   -1    0    0    0    0  0.00000000000E+00  0.00000000000E+00  0.45593999997E+02  0.45594000000E+02  0.51100000000E-03 0.  1.
         11   -1    0    0    0    0 -0.00000000000E+00 -0.00000000000E+00 -0.45593999997E+02  0.45594000000E+02  0.51100000000E-03 0. -1.
    9900012    2    1    2    0    0 -0.39712738152E+01 -0.16084726066E+02  0.40114011522E+02  0.47787270182E+02  0.19999996068E+02 0.  0.
         12    1    1    2    0    0  0.39712738152E+01  0.16084726066E+02 -0.40114011522E+02  0.43400729818E+02  0.00000000000E+00 0. -1.
         11    1    3    3    0    0  0.50753486884E+00  0.21664846909E+01  0.65542560315E+01  0.69216703148E+01  0.51100000000E-03 0. -1.
        -11    1    3    3    0    0 -0.67159668598E+01 -0.32499691166E+01  0.16055548353E+02  0.17704438520E+02  0.51100000000E-03 0.  1.
        -12    1    3    3    0    0  0.22371581758E+01 -0.15001241640E+02  0.17504207138E+02  0.23161161348E+02  0.00000000000E+00 0.  1.
</event>
<event>
 7    1  0.2492468E-009  0.4778729E+02  0.7816164E-02  0.1312668E+00
        -11   -1    0    0    0    0  0.00000000000E+00  0.00000000000E+00  0.45593999997E+02  0.45594000000E+02  0.51100000000E-03 0. -1.
         11   -1    0    0    0    0 -0.00000000000E+00 -0.00000000000E+00 -0.45593999997E+02  0.45594000000E+02  0.51100000000E-03 0.  1.
    9900012    2    1    2    0    0 -0.30607781052E+02  0.24118953736E+02 -0.19106590759E+02  0.47787285712E+02  0.20000066876E+02 0.  0.
         12    1    1    2    0    0  0.30607781052E+02 -0.24118953736E+02  0.19106590759E+02  0.43400714288E+02  0.00000000000E+00 0. -1.
         11    1    3    3    0    0  0.88860694644E+00 -0.16523867019E+01 -0.57691266972E+00  0.19628633696E+01  0.51100000000E-03 0. -1.
        -11    1    3    3    0    0 -0.95878124140E+01  0.25011649332E+01 -0.52624824517E+01  0.11219433797E+02  0.51100000000E-03 0.  1.
        -12    1    3    3    0    0 -0.21908575584E+02  0.23270175505E+02 -0.13267195638E+02  0.34604988546E+02  0.00000000000E+00 0.  1.
</event>
<event>
 7    1  0.2492468E-009  0.4778727E+02  0.7816164E-02  0.1312668E+00
        -11   -1    0    0    0    0  0.00000000000E+00  0.00000000000E+00  0.45593999997E+02  0.45594000000E+02  0.51100000000E-03 0. -1.
         11   -1    0    0    0    0 -0.00000000000E+00 -0.00000000000E+00 -0.45593999997E+02  0.45594000000E+02  0.51100000000E-03 0.  1.
    9900012    2    1    2    0    0 -0.40676526982E+02  0.11011113648E+02 -0.10382611953E+02  0.47787273024E+02  0.20000009026E+02 0.  0.
         12    1    1    2    0    0  0.40676526982E+02 -0.11011113648E+02  0.10382611953E+02  0.43400726976E+02  0.00000000000E+00 0. -1.
         11    1    3    3    0    0 -0.45780628393E+01  0.12330627913E+01 -0.73330097393E+00  0.47975862460E+01  0.51100000000E-03 0. -1.
        -11    1    3    3    0    0 -0.17846648358E+02 -0.12897532464E+01 -0.11955990026E+02  0.21520037612E+02  0.51100000000E-03 0.  1.
         12    1    3    3    0    0 -0.18251815784E+02  0.11067804103E+02  0.23066790469E+01  0.21469649166E+02  0.00000000000E+00 0. -1.
</event>
<event>
 7    1  0.2492468E-009  0.4778727E+02  0.7816164E-02  0.1312668E+00
        -11   -1    0    0    0    0  0.00000000000E+00  0.00000000000E+00  0.45593999997E+02  0.45594000000E+02  0.51100000000E-03 0.  1.
         11   -1    0    0    0    0 -0.00000000000E+00 -0.00000000000E+00 -0.45593999997E+02  0.45594000000E+02  0.51100000000E-03 0. -1.
    9900012    2    1    2    0    0  0.12617312515E+02  0.13485582625E+02  0.39275509327E+02  0.47787272509E+02  0.20000006679E+02 0.  0.
         12    1    1    2    0    0 -0.12617312515E+02 -0.13485582625E+02 -0.39275509327E+02  0.43400727491E+02  0.00000000000E+00 0. -1.
         11    1    3    3    0    0  0.77729652580E+01  0.98663318953E+01  0.12324080600E+02  0.17596774047E+02  0.51100000000E-03 0. -1.
        -11    1    3    3    0    0  0.39478858541E+00 -0.66359317595E+00 -0.11683854698E+01  0.14004780604E+01  0.51100000000E-03 0.  1.
        -12    1    3    3    0    0  0.44495586717E+01  0.42828439055E+01  0.28119814196E+02  0.28790020402E+02  0.00000000000E+00 0.  1.
</event>
<event>
 7    1  0.2492468E-009  0.4778727E+02  0.7816164E-02  0.1312668E+00
        -11   -1    0    0    0    0  0.00000000000E+00  0.00000000000E+00  0.45593999997E+02  0.45594000000E+02  0.51100000000E-03 0.  1.
         11   -1    0    0    0    0 -0.00000000000E+00 -0.00000000000E+00 -0.45593999997E+02  0.45594000000E+02  0.51100000000E-03 0. -1.
    9900012    2    1    2    0    0  0.14770187772E+02  0.16734857651E+02  0.37221083851E+02  0.47787274309E+02  0.20000014886E+02 0.  0.
         12    1    1    2    0    0 -0.14770187772E+02 -0.16734857651E+02 -0.37221083851E+02  0.43400725691E+02  0.00000000000E+00 0. -1.
         11    1    3    3    0    0 -0.50896454479E+00 -0.71198880267E+00 -0.71570658287E+00  0.11305791157E+01  0.51100000000E-03 0. -1.
        -11    1    3    3    0    0 -0.26165219060E+01  0.20371042597E+01  0.69120213637E+01  0.76662911660E+01  0.51100000000E-03 0.  1.
         12    1    3    3    0    0  0.17895674223E+02  0.15409742194E+02  0.31024769070E+02  0.38990404028E+02  0.00000000000E+00 0. -1.
</event>
<event>
 7    1  0.2492468E-009  0.4778727E+02  0.7816164E-02  0.1312668E+00
        -11   -1    0    0    0    0  0.00000000000E+00  0.00000000000E+00  0.45593999997E+02  0.45594000000E+02  0.51100000000E-03 0.  1.
         11   -1    0    0    0    0 -0.00000000000E+00 -0.00000000000E+00 -0.45593999997E+02  0.45594000000E+02  0.51100000000E-03 0. -1.
    9900012    2    1    2    0    0  0.41217654636E+02 -0.12141796411E+02 -0.61077981874E+01  0.47787268757E+02  0.19999989570E+02 0.  0.
         12    1    1    2    0    0 -0.41217654636E+02  0.12141796411E+02  0.61077981874E+01  0.43400731243E+02  0.00000000000E+00 0. -1.
         11    1    3    3    0    0  0.11992397247E+01 -0.33030722338E+01 -0.29715108126E+01  0.46019929236E+01  0.51100000000E-03 0. -1.
        -11    1    3    3    0    0  0.27828686471E+02 -0.33235389437E+01 -0.76727962734E+01  0.29057761523E+02  0.51100000000E-03 0.  1.
        -12    1    3    3    0    0  0.12189728440E+02 -0.55151852332E+01  0.45365088986E+01  0.14127514311E+02  0.00000000000E+00 0.  1.
</event>
<event>
 7    1  0.2492468E-009  0.4778727E+02  0.7816164E-02  0.1312668E+00
        -11   -1    0    0    0    0  0.00000000000E+00  0.00000000000E+00  0.45593999997E+02  0.45594000000E+02  0.51100000000E-03 0.  1.
         11   -1    0    0    0    0 -0.00000000000E+00 -0.00000000000E+00 -0.45593999997E+02  0.45594000000E+02  0.51100000000E-03 0. -1.
    9900012    2    1    2    0    0 -0.16793134959E+02  0.88560336214E+01  0.39027996133E+02  0.47787271948E+02  0.20000004121E+02 0.  0.
         12    1    1    2    0    0  0.16793134959E+02 -0.88560336214E+01 -0.39027996133E+02  0.43400728052E+02  0.00000000000E+00 0. -1.
         11    1    3    3    0    0 -0.51165993842E+01  0.95854734648E+01  0.30455401087E+02  0.32335620397E+02  0.51100000000E-03 0.  1.
        -11    1    3    3    0    0 -0.10812891061E+01  0.10309088988E+01 -0.29586413805E+00  0.15229888831E+01  0.51100000000E-03 0. -1.
        -12    1    3    3    0    0 -0.10595246469E+02 -0.17603487422E+01  0.88684591837E+01  0.13928662668E+02  0.00000000000E+00 0.  1.
</event>
<event>
 7    1  0.2492468E-009  0.4778727E+02  0.7816164E-02  0.1312668E+00
        -11   -1    0    0    0    0  0.00000000000E+00  0.00000000000E+00  0.45593999997E+02  0.45594000000E+02  0.51100000000E-03 0.  1.
         11   -1    0    0    0    0 -0.00000000000E+00 -0.00000000000E+00 -0.45593999997E+02  0.45594000000E+02  0.51100000000E-03 0. -1.
    9900012    2    1    2    0    0  0.18547828208E+02 -0.32081996470E+02  0.22590861415E+02  0.47787269036E+02  0.19999990844E+02 0.  0.
         12    1    1    2    0    0 -0.18547828208E+02  0.32081996470E+02 -0.22590861415E+02  0.43400730964E+02  0.00000000000E+00 0. -1.
         11    1    3    3    0    0  0.24389720927E+01 -0.30273915880E+01 -0.16646081171E+01  0.42290194065E+01  0.51100000000E-03 0. -1.
        -11    1    3    3    0    0  0.37459925547E+01 -0.13047598992E+01  0.84018772481E+01  0.92912001468E+01  0.51100000000E-03 0.  1.
        -12    1    3    3    0    0  0.12362863560E+02 -0.27749844983E+02  0.15853592284E+02  0.34267049483E+02  0.00000000000E+00 0.  1.
</event>
<event>
 7    1  0.2492468E-009  0.4778727E+02  0.7816164E-02  0.1312668E+00
        -11   -1    0    0    0    0  0.00000000000E+00  0.00000000000E+00  0.45593999997E+02  0.45594000000E+02  0.51100000000E-03 0. -1.
         11   -1    0    0    0    0 -0.00000000000E+00 -0.00000000000E+00 -0.45593999997E+02  0.45594000000E+02  0.51100000000E-03 0.  1.
    9900012    2    1    2    0    0  0.65199499825E+01  0.27651068154E+02 -0.32810543468E+02  0.47787273272E+02  0.20000010157E+02 0.  0.
         12    1    1    2    0    0 -0.65199499825E+01 -0.27651068154E+02  0.32810543468E+02  0.43400726728E+02  0.00000000000E+00 0. -1.
         11    1    3    3    0    0  0.60194491065E+01  0.46964353924E+01 -0.10114210560E+02  0.12672313461E+02  0.51100000000E-03 0.  1.
        -11    1    3    3    0    0  0.46604458189E+01  0.45588326926E+01 -0.14005532007E+01  0.66681526887E+01  0.51100000000E-03 0. -1.
        -12    1    3    3    0    0 -0.41599449430E+01  0.18395800069E+02 -0.21295779707E+02  0.28446807122E+02  0.00000000000E+00 0.  1.
</event>
<event>
 7    1  0.2492468E-009  0.4778727E+02  0.7816164E-02  0.1312668E+00
        -11   -1    0    0    0    0  0.00000000000E+00  0.00000000000E+00  0.45593999997E+02  0.45594000000E+02  0.51100000000E-03 0.  1.
         11   -1    0    0    0    0 -0.00000000000E+00 -0.00000000000E+00 -0.45593999997E+02  0.45594000000E+02  0.51100000000E-03 0. -1.
    9900012    2    1    2    0    0  0.12729726917E+02  0.38596269048E+02  0.15228436581E+02  0.47787271752E+02  0.20000003226E+02 0.  0.
         12    1    1    2    0    0 -0.12729726917E+02 -0.38596269048E+02 -0.15228436581E+02  0.43400728248E+02  0.00000000000E+00 0. -1.
         11    1    3    3    0    0  0.19136044420E+01  0.14934742876E+02  0.76486870732E+01  0.16888186431E+02  0.51100000000E-03 0.  1.
        -11    1    3    3    0    0  0.31739121256E+00  0.16820875351E+02  0.73681914690E+01  0.18366622731E+02  0.51100000000E-03 0. -1.
        -12    1    3    3    0    0  0.10498731262E+02  0.68406508210E+01  0.21155803861E+00  0.12532462590E+02  0.00000000000E+00 0.  1.
</event>
<event>
 7    1  0.2492468E-009  0.4778727E+02  0.7816164E-02  0.1312668E+00
        -11   -1    0    0    0    0  0.00000000000E+00  0.00000000000E+00  0.45593999997E+02  0.45594000000E+02  0.51100000000E-03 0.  1.
         11   -1    0    0    0    0 -0.00000000000E+00 -0.00000000000E+00 -0.45593999997E+02  0.45594000000E+02  0.51100000000E-03 0. -1.
    9900012    2    1    2    0    0  0.12264200622E+01 -0.40106743224E+02  0.16539902690E+02  0.47787270292E+02  0.19999996568E+02 0.  0.
         12    1    1    2    0    0 -0.12264200622E+01  0.40106743224E+02 -0.16539902690E+02  0.43400729708E+02  0.00000000000E+00 0. -1.
         11    1    3    3    0    0 -0.40684636641E+01 -0.24445623983E+02  0.43709455678E+01  0.25164381453E+02  0.51100000000E-03 0. -1.
        -11    1    3    3    0    0 -0.16838087343E+01 -0.50670826810E+01  0.46019915207E+00  0.53593210644E+01  0.51100000000E-03 0.  1.
        -12    1    3    3    0    0  0.69786924606E+01 -0.10594036560E+02  0.11708757970E+02  0.17263567774E+02  0.00000000000E+00 0.  1.
</event>
<event>
 7    1  0.2492468E-009  0.4778727E+02  0.7816164E-02  0.1312668E+00
        -11   -1    0    0    0    0  0.00000000000E+00  0.00000000000E+00  0.45593999997E+02  0.45594000000E+02  0.51100000000E-03 0.  1.
         11   -1    0    0    0    0 -0.00000000000E+00 -0.00000000000E+00 -0.45593999997E+02  0.45594000000E+02  0.51100000000E-03 0. -1.
    9900012    2    1    2    0    0  0.56178177921E+01 -0.17376306727E+02  0.39371659297E+02  0.47787268807E+02  0.19999989800E+02 0.  0.
         12    1    1    2    0    0 -0.56178177921E+01  0.17376306727E+02 -0.39371659297E+02  0.43400731193E+02  0.00000000000E+00 0. -1.
         11    1    3    3    0    0 -0.26632487824E+01 -0.53692515566E-01  0.64115526893E+01  0.69428945773E+01  0.51100000000E-03 0. -1.
        -11    1    3    3    0    0  0.75503027408E+00 -0.48120621707E+01  0.22146976786E+02  0.22676300273E+02  0.51100000000E-03 0.  1.
         12    1    3    3    0    0  0.75260363005E+01 -0.12510552041E+02  0.10813129823E+02  0.18168073957E+02  0.00000000000E+00 0. -1.
</event>
<event>
 7    1  0.2492468E-009  0.4778727E+02  0.7816164E-02  0.1312668E+00
        -11   -1    0    0    0    0  0.00000000000E+00  0.00000000000E+00  0.45593999997E+02  0.45594000000E+02  0.51100000000E-03 0.  1.
         11   -1    0    0    0    0 -0.00000000000E+00 -0.00000000000E+00 -0.45593999997E+02  0.45594000000E+02  0.51100000000E-03 0. -1.
    9900012    2    1    2    0    0 -0.13261266010E+02 -0.14103106160E+02  0.38844107433E+02  0.47787268879E+02  0.19999990129E+02 0.  0.
         12    1    1    2    0    0  0.13261266010E+02  0.14103106160E+02 -0.38844107433E+02  0.43400731121E+02  0.00000000000E+00 0. -1.
         11    1    3    3    0    0 -0.42596125314E+01 -0.29765111915E+01  0.31618921209E+01  0.60828841709E+01  0.51100000000E-03 0. -1.
        -11    1    3    3    0    0 -0.94422405438E+01 -0.77670280361E+01  0.36261216331E+02  0.38266936656E+02  0.51100000000E-03 0.  1.
        -12    1    3    3    0    0  0.44058706537E+00 -0.33595669322E+01 -0.57900101857E+00  0.34374480525E+01  0.00000000000E+00 0.  1.
</event>
<event>
 7    1  0.2492468E-009  0.4778724E+02  0.7816164E-02  0.1312668E+00
        -11   -1    0    0    0    0  0.00000000000E+00  0.00000000000E+00  0.45593999997E+02  0.45594000000E+02  0.51100000000E-03 0. -1.
         11   -1    0    0    0    0 -0.00000000000E+00 -0.00000000000E+00 -0.45593999997E+02  0.45594000000E+02  0.51100000000E-03 0.  1.
    9900012    2    1    2    0    0 -0.30598447014E+02 -0.15381859417E+02 -0.26660068504E+02  0.47787241811E+02  0.19999866712E+02 0.  0.
         12    1    1    2    0    0  0.30598447014E+02  0.15381859417E+02  0.26660068504E+02  0.43400758189E+02  0.00000000000E+00 0. -1.
         11    1    3    3    0    0 -0.24304052412E+00 -0.41140090530E+01 -0.27588936602E+00  0.41304060803E+01  0.51100000000E-03 0. -1.
        -11    1    3    3    0    0 -0.15309120719E+01  0.23926583518E+01 -0.15825066633E+01  0.32515893592E+01  0.51100000000E-03 0.  1.
        -12    1    3    3    0    0 -0.28824494418E+02 -0.13660508715E+02 -0.24801672474E+02  0.40405246371E+02  0.00000000000E+00 0.  1.
</event>
<event>
 7    1  0.2492468E-009  0.4778727E+02  0.7816164E-02  0.1312668E+00
        -11   -1    0    0    0    0  0.00000000000E+00  0.00000000000E+00  0.45593999997E+02  0.45594000000E+02  0.51100000000E-03 0.  1.
         11   -1    0    0    0    0 -0.00000000000E+00 -0.00000000000E+00 -0.45593999997E+02  0.45594000000E+02  0.51100000000E-03 0. -1.
    9900012    2    1    2    0    0  0.22784376852E+02  0.14779372980E+02  0.33853586926E+02  0.47787273716E+02  0.20000012181E+02 0.  0.
         12    1    1    2    0    0 -0.22784376852E+02 -0.14779372980E+02 -0.33853586926E+02  0.43400726284E+02  0.00000000000E+00 0. -1.
         11    1    3    3    0    0  0.70413910481E+01 -0.13368819592E+01  0.26418584560E+01  0.76385769374E+01  0.51100000000E-03 0. -1.
        -11    1    3    3    0    0  0.13121820006E+02  0.53462220070E+01  0.17565763359E+02  0.22568125591E+02  0.51100000000E-03 0.  1.
         12    1    3    3    0    0  0.26211657978E+01  0.10770032932E+02  0.13645965111E+02  0.17580571188E+02  0.00000000000E+00 0. -1.
</event>
<event>
 7    1  0.2492468E-009  0.4778727E+02  0.7816164E-02  0.1312668E+00
        -11   -1    0    0    0    0  0.00000000000E+00  0.00000000000E+00  0.45593999997E+02  0.45594000000E+02  0.51100000000E-03 0.  1.
         11   -1    0    0    0    0 -0.00000000000E+00 -0.00000000000E+00 -0.45593999997E+02  0.45594000000E+02  0.51100000000E-03 0. -1.
    9900012    2    1    2    0    0  0.31620890457E+02 -0.28880465420E+02 -0.70471019083E+01  0.47787266810E+02  0.19999980692E+02 0.  0.
         12    1    1    2    0    0 -0.31620890457E+02  0.28880465420E+02  0.70471019083E+01  0.43400733190E+02  0.00000000000E+00 0. -1.
         11    1    3    3    0    0  0.83353714029E+01 -0.40870593025E+01  0.20153419383E+01  0.94996880767E+01  0.51100000000E-03 0. -1.
        -11    1    3    3    0    0  0.34244221162E+01 -0.85959456535E+00  0.32872706178E+01  0.48240769089E+01  0.51100000000E-03 0.  1.
        -12    1    3    3    0    0  0.19861096938E+02 -0.23933811552E+02 -0.12349714464E+02  0.33463501824E+02  0.00000000000E+00 0.  1.
</event>
<event>
 7    1  0.2492468E-009  0.4778728E+02  0.7816164E-02  0.1312668E+00
        -11   -1    0    0    0    0  0.00000000000E+00  0.00000000000E+00  0.45593999997E+02  0.45594000000E+02  0.51100000000E-03 0. -1.
         11   -1    0    0    0    0 -0.00000000000E+00 -0.00000000000E+00 -0.45593999997E+02  0.45594000000E+02  0.51100000000E-03 0.  1.
    9900012    2    1    2    0    0 -0.29740935343E+02  0.18897559048E+02 -0.25337346398E+02  0.47787284620E+02  0.20000061895E+02 0.  0.
         12    1    1    2    0    0  0.29740935343E+02 -0.18897559048E+02  0.25337346398E+02  0.43400715380E+02  0.00000000000E+00 0. -1.
         11    1    3    3    0    0 -0.20057293931E+02  0.15241383729E+01 -0.10727843468E+02  0.22797031897E+02  0.51100000000E-03 0.  1.
        -11    1    3    3    0    0 -0.37367796583E+01  0.47995899990E+01 -0.64436492308E+01  0.88611625673E+01  0.51100000000E-03 0. -1.
        -12    1    3    3    0    0 -0.59468617535E+01  0.12573830676E+02 -0.81658536998E+01  0.16129090155E+02  0.00000000000E+00 0.  1.
</event>
<event>
 7    1  0.2492468E-009  0.4778727E+02  0.7816164E-02  0.1312668E+00
        -11   -1    0    0    0    0  0.00000000000E+00  0.00000000000E+00  0.45593999997E+02  0.45594000000E+02  0.51100000000E-03 0.  1.
         11   -1    0    0    0    0 -0.00000000000E+00 -0.00000000000E+00 -0.45593999997E+02  0.45594000000E+02  0.51100000000E-03 0. -1.
    9900012    2    1    2    0    0 -0.32123970437E+02 -0.13422476230E+02  0.25913529963E+02  0.47787269822E+02  0.19999994427E+02 0.  0.
         12    1    1    2    0    0  0.32123970437E+02  0.13422476230E+02 -0.25913529963E+02  0.43400730178E+02  0.00000000000E+00 0. -1.
         11    1    3    3    0    0 -0.10153617578E+02 -0.11719634442E+02  0.78051955252E+01  0.17359921049E+02  0.51100000000E-03 0. -1.
        -11    1    3    3    0    0 -0.13720356179E+02 -0.58889880266E+01  0.13327541052E+02  0.20013787858E+02  0.51100000000E-03 0.  1.
        -12    1    3    3    0    0 -0.82499966797E+01  0.41861462382E+01  0.47807933865E+01  0.10413560916E+02  0.00000000000E+00 0.  1.
</event>
<event>
 7    1  0.2492468E-009  0.4778728E+02  0.7816164E-02  0.1312668E+00
        -11   -1    0    0    0    0  0.00000000000E+00  0.00000000000E+00  0.45593999997E+02  0.45594000000E+02  0.51100000000E-03 0.  1.
         11   -1    0    0    0    0 -0.00000000000E+00 -0.00000000000E+00 -0.45593999997E+02  0.45594000000E+02  0.51100000000E-03 0. -1.
    9900012    2    1    2    0    0 -0.41020866791E+02  0.13280955848E+02  0.49525282747E+01  0.47787276079E+02  0.20000022956E+02 0.  0.
         12    1    1    2    0    0  0.41020866791E+02 -0.13280955848E+02 -0.49525282747E+01  0.43400723921E+02  0.00000000000E+00 0. -1.
         11    1    3    3    0    0 -0.14892001754E+02  0.11147077961E+02 -0.20581571336E+01  0.18715370003E+02  0.51100000000E-03 0. -1.
        -11    1    3    3    0    0 -0.62456836482E+01 -0.34802751749E+01 -0.29959961660E+00  0.71561609623E+01  0.51100000000E-03 0.  1.
        -12    1    3    3    0    0 -0.19883181389E+02  0.56141530619E+01  0.73102850249E+01  0.21915745114E+02  0.00000000000E+00 0.  1.
</event>
<event>
 7    1  0.2492468E-009  0.4778727E+02  0.7816164E-02  0.1312668E+00
        -11   -1    0    0    0    0  0.00000000000E+00  0.00000000000E+00  0.45593999997E+02  0.45594000000E+02  0.51100000000E-03 0.  1.
         11   -1    0    0    0    0 -0.00000000000E+00 -0.00000000000E+00 -0.45593999997E+02  0.45594000000E+02  0.51100000000E-03 0. -1.
    9900012    2    1    2    0    0  0.34425158170E+02  0.19388106440E+02  0.17961997752E+02  0.47787267868E+02  0.19999985518E+02 0.  0.
         12    1    1    2    0    0 -0.34425158170E+02 -0.19388106440E+02 -0.17961997752E+02  0.43400732132E+02  0.00000000000E+00 0. -1.
         11    1    3    3    0    0 -0.65301008078E+00  0.11545274705E+01 -0.56762972910E+00  0.14427611085E+01  0.51100000000E-03 0. -1.
        -11    1    3    3    0    0  0.34116506358E+02  0.19304883430E+02  0.14053728817E+02  0.41642788382E+02  0.51100000000E-03 0.  1.
        -12    1    3    3    0    0  0.96166189268E+00 -0.10713044611E+01  0.44758986648E+01  0.47017183776E+01  0.00000000000E+00 0.  1.
</event>
<event>
 7    1  0.2492468E-009  0.4778727E+02  0.7816164E-02  0.1312668E+00
        -11   -1    0    0    0    0  0.00000000000E+00  0.00000000000E+00  0.45593999997E+02  0.45594000000E+02  0.51100000000E-03 0.  1.
         11   -1    0    0    0    0 -0.00000000000E+00 -0.00000000000E+00 -0.45593999997E+02  0.45594000000E+02  0.51100000000E-03 0. -1.
    9900012    2    1    2    0    0 -0.38452204320E+02  0.75156941886E+01  0.18669910646E+02  0.47787271438E+02  0.20000001795E+02 0.  0.
         12    1    1    2    0    0  0.38452204320E+02 -0.75156941886E+01 -0.18669910646E+02  0.43400728562E+02  0.00000000000E+00 0. -1.
         11    1    3    3    0    0 -0.17239013310E+01 -0.15037542937E+01  0.66065140239E+00  0.23810865821E+01  0.51100000000E-03 0. -1.
        -11    1    3    3    0    0 -0.31089344392E+02  0.13085013390E+02  0.18438095927E+02  0.38441231663E+02  0.51100000000E-03 0.  1.
        -12    1    3    3    0    0 -0.56389585970E+01 -0.40655649074E+01 -0.42883668356E+00  0.69649531927E+01  0.00000000000E+00 0.  1.
</event>
<event>
 7    1  0.2492468E-009  0.4778727E+02  0.7816164E-02  0.1312668E+00
        -11   -1    0    0    0    0  0.00000000000E+00  0.00000000000E+00  0.45593999997E+02  0.45594000000E+02  0.51100000000E-03 0.  1.
         11   -1    0    0    0    0 -0.00000000000E+00 -0.00000000000E+00 -0.45593999997E+02  0.45594000000E+02  0.51100000000E-03 0. -1.
    9900012    2    1    2    0    0  0.23651248171E+01  0.38231191662E+02 -0.20406009019E+02  0.47787273792E+02  0.20000012528E+02 0.  0.
         12    1    1    2    0    0 -0.23651248171E+01 -0.38231191662E+02  0.20406009019E+02  0.43400726208E+02  0.00000000000E+00 0. -1.
         11    1    3    3    0    0 -0.47448867635E+01  0.70571336588E+01 -0.76308291420E+01  0.11425700833E+02  0.51100000000E-03 0. -1.
        -11    1    3    3    0    0  0.56667778782E+01  0.10634934932E+02 -0.98522323292E+01  0.15565368439E+02  0.51100000000E-03 0.  1.
        -12    1    3    3    0    0  0.14432337023E+01  0.20539123071E+02 -0.29229475476E+01  0.20796204520E+02  0.00000000000E+00 0.  1.
</event>
<event>
 7    1  0.2492468E-009  0.4778727E+02  0.7816164E-02  0.1312668E+00
        -11   -1    0    0    0    0  0.00000000000E+00  0.00000000000E+00  0.45593999997E+02  0.45594000000E+02  0.51100000000E-03 0.  1.
         11   -1    0    0    0    0 -0.00000000000E+00 -0.00000000000E+00 -0.45593999997E+02  0.45594000000E+02  0.51100000000E-03 0. -1.
    9900012    2    1    2    0    0  0.36691317008E+02 -0.82595928670E+01  0.21659865845E+02  0.47787269517E+02  0.19999993034E+02 0.  0.
         12    1    1    2    0    0 -0.36691317008E+02  0.82595928670E+01 -0.21659865845E+02  0.43400730483E+02  0.00000000000E+00 0. -1.
         11    1    3    3    0    0  0.11254799772E+02 -0.44460194793E+01  0.25547955433E+01  0.12367885334E+02  0.51100000000E-03 0. -1.
        -11    1    3    3    0    0  0.85671611234E+01 -0.87454812570E+01  0.74695780434E+01  0.14341348909E+02  0.51100000000E-03 0.  1.
        -12    1    3    3    0    0  0.16869356112E+02  0.49319078693E+01  0.11635492258E+02  0.21078035273E+02  0.00000000000E+00 0.  1.
</event>
<event>
 7    1  0.2492468E-009  0.4778727E+02  0.7816164E-02  0.1312668E+00
        -11   -1    0    0    0    0  0.00000000000E+00  0.00000000000E+00  0.45593999997E+02  0.45594000000E+02  0.51100000000E-03 0.  1.
         11   -1    0    0    0    0 -0.00000000000E+00 -0.00000000000E+00 -0.45593999997E+02  0.45594000000E+02  0.51100000000E-03 0. -1.
    9900012    2    1    2    0    0 -0.18918051662E+02  0.13541975698E+02  0.36638034428E+02  0.47787270153E+02  0.19999995935E+02 0.  0.
         12    1    1    2    0    0  0.18918051662E+02 -0.13541975698E+02 -0.36638034428E+02  0.43400729847E+02  0.00000000000E+00 0. -1.
         11    1    3    3    0    0  0.81856120376E+00  0.28388530887E+01  0.50756875578E+01  0.58729663501E+01  0.51100000000E-03 0. -1.
        -11    1    3    3    0    0 -0.15528203451E+02  0.13358293651E+02  0.17309079040E+02  0.26817407204E+02  0.51100000000E-03 0.  1.
         12    1    3    3    0    0 -0.42084094148E+01 -0.26551710412E+01  0.14253267831E+02  0.15096896599E+02  0.00000000000E+00 0. -1.
</event>
<event>
 7    1  0.2492468E-009  0.4778727E+02  0.7816164E-02  0.1312668E+00
        -11   -1    0    0    0    0  0.00000000000E+00  0.00000000000E+00  0.45593999997E+02  0.45594000000E+02  0.51100000000E-03 0.  1.
         11   -1    0    0    0    0 -0.00000000000E+00 -0.00000000000E+00 -0.45593999997E+02  0.45594000000E+02  0.51100000000E-03 0. -1.
    9900012    2    1    2    0    0 -0.25596344624E+02  0.11060240978E+02  0.33258407002E+02  0.47787269305E+02  0.19999992068E+02 0.  0.
         12    1    1    2    0    0  0.25596344624E+02 -0.11060240978E+02 -0.33258407002E+02  0.43400730695E+02  0.00000000000E+00 0. -1.
         11    1    3    3    0    0  0.32639940442E+00  0.36488599898E+01  0.98479304575E+01  0.10507257033E+02  0.51100000000E-03 0. -1.
        -11    1    3    3    0    0  0.39641286316E+00  0.19953938599E+01  0.25524860232E+01  0.32640350755E+01  0.51100000000E-03 0.  1.
        -12    1    3    3    0    0 -0.26319156891E+02  0.54159871287E+01  0.20857990521E+02  0.34015977196E+02  0.00000000000E+00 0.  1.
</event>
<event>
 7    1  0.2492468E-009  0.4778727E+02  0.7816164E-02  0.1312668E+00
        -11   -1    0    0    0    0  0.00000000000E+00  0.00000000000E+00  0.45593999997E+02  0.45594000000E+02  0.51100000000E-03 0.  1.
         11   -1    0    0    0    0 -0.00000000000E+00 -0.00000000000E+00 -0.45593999997E+02  0.45594000000E+02  0.51100000000E-03 0. -1.
    9900012    2    1    2    0    0  0.92697109843E+01 -0.17237210079E+02  0.38737247429E+02  0.47787270843E+02  0.19999999081E+02 0.  0.
         12    1    1    2    0    0 -0.92697109843E+01  0.17237210079E+02 -0.38737247429E+02  0.43400729157E+02  0.00000000000E+00 0. -1.
         11    1    3    3    0    0 -0.76637058658E+00 -0.19244868753E+01 -0.74265034334E+00  0.22005688816E+01  0.51100000000E-03 0. -1.
        -11    1    3    3    0    0 -0.78172133748E+00 -0.49179076695E+01  0.22825608532E+01  0.54778634891E+01  0.51100000000E-03 0.  1.
        -12    1    3    3    0    0  0.10817802908E+02 -0.10394815534E+02  0.37197336919E+02  0.40108838472E+02  0.00000000000E+00 0.  1.
</event>
<event>
 7    1  0.2492468E-009  0.4778727E+02  0.7816164E-02  0.1312668E+00
        -11   -1    0    0    0    0  0.00000000000E+00  0.00000000000E+00  0.45593999997E+02  0.45594000000E+02  0.51100000000E-03 0.  1.
         11   -1    0    0    0    0 -0.00000000000E+00 -0.00000000000E+00 -0.45593999997E+02  0.45594000000E+02  0.51100000000E-03 0. -1.
    9900012    2    1    2    0    0  0.10195826013E+02 -0.22909645281E+02  0.35423393289E+02  0.47787268358E+02  0.19999987749E+02 0.  0.
         12    1    1    2    0    0 -0.10195826013E+02  0.22909645281E+02 -0.35423393289E+02  0.43400731642E+02  0.00000000000E+00 0. -1.
         11    1    3    3    0    0  0.38742484200E+00  0.52110264694E+00 -0.77687059478E+00  0.10125088439E+01  0.51100000000E-03 0. -1.
        -11    1    3    3    0    0  0.75125200872E+00  0.72474314350E+00  0.98263169005E+01  0.98816059573E+01  0.51100000000E-03 0.  1.
        -12    1    3    3    0    0  0.90571491619E+01 -0.24155491072E+02  0.26373946983E+02  0.36893153556E+02  0.00000000000E+00 0.  1.
</event>
<event>
 7    1  0.2492468E-009  0.4778726E+02  0.7816164E-02  0.1312668E+00
        -11   -1    0    0    0    0  0.00000000000E+00  0.00000000000E+00  0.45593999997E+02  0.45594000000E+02  0.51100000000E-03 0. -1.
         11   -1    0    0    0    0 -0.00000000000E+00 -0.00000000000E+00 -0.45593999997E+02  0.45594000000E+02  0.51100000000E-03 0.  1.
    9900012    2    1    2    0    0 -0.28478938276E-01  0.37150642149E+02 -0.22437753823E+02  0.47787264755E+02  0.19999971325E+02 0.  0.
         12    1    1    2    0    0  0.28478938276E-01 -0.37150642149E+02  0.22437753823E+02  0.43400735245E+02  0.00000000000E+00 0. -1.
         11    1    3    3    0    0  0.23855126120E+01  0.12805427188E+02 -0.61289877435E+01  0.14395628743E+02  0.51100000000E-03 0. -1.
        -11    1    3    3    0    0  0.36554710071E+01  0.16908800781E+02 -0.16334724455E+02  0.23792713915E+02  0.51100000000E-03 0.  1.
         12    1    3    3    0    0 -0.60694625574E+01  0.74364141797E+01  0.25958375581E-01  0.95989220971E+01  0.00000000000E+00 0. -1.
</event>
<event>
 7    1  0.2492468E-009  0.4778727E+02  0.7816164E-02  0.1312668E+00
        -11   -1    0    0    0    0  0.00000000000E+00  0.00000000000E+00  0.45593999997E+02  0.45594000000E+02  0.51100000000E-03 0.  1.
         11   -1    0    0    0    0 -0.00000000000E+00 -0.00000000000E+00 -0.45593999997E+02  0.45594000000E+02  0.51100000000E-03 0. -1.
    9900012    2    1    2    0    0 -0.21395557281E+02 -0.36064499293E+02 -0.11189521202E+02  0.47787269990E+02  0.19999995194E+02 0.  0.
         12    1    1    2    0    0  0.21395557281E+02  0.36064499293E+02  0.11189521202E+02  0.43400730010E+02  0.00000000000E+00 0. -1.
         11    1    3    3    0    0 -0.75159312819E-01 -0.20098527529E+01  0.26403703759E+01  0.33191434127E+01  0.51100000000E-03 0. -1.
        -11    1    3    3    0    0 -0.81671232408E+01 -0.13645473530E+02  0.11401258594E+01  0.15943673890E+02  0.51100000000E-03 0.  1.
        -12    1    3    3    0    0 -0.13153274727E+02 -0.20409173011E+02 -0.14970017438E+02  0.28524452687E+02  0.00000000000E+00 0.  1.
</event>
<event>
 7    1  0.2492468E-009  0.4778727E+02  0.7816164E-02  0.1312668E+00
        -11   -1    0    0    0    0  0.00000000000E+00  0.00000000000E+00  0.45593999997E+02  0.45594000000E+02  0.51100000000E-03 0.  1.
         11   -1    0    0    0    0 -0.00000000000E+00 -0.00000000000E+00 -0.45593999997E+02  0.45594000000E+02  0.51100000000E-03 0. -1.
    9900012    2    1    2    0    0  0.27917894626E+01 -0.67679601117E+01  0.42778784704E+02  0.47787265061E+02  0.19999972719E+02 0.  0.
         12    1    1    2    0    0 -0.27917894626E+01  0.67679601117E+01 -0.42778784704E+02  0.43400734939E+02  0.00000000000E+00 0. -1.
         11    1    3    3    0    0  0.30629106423E+01  0.53707314446E+00  0.29938809934E+00  0.31240202721E+01  0.51100000000E-03 0. -1.
        -11    1    3    3    0    0  0.56325283640E+01 -0.37449988133E+01  0.24183839463E+02  0.25111919148E+02  0.51100000000E-03 0.  1.
        -12    1    3    3    0    0 -0.59036495437E+01 -0.35600344428E+01  0.18295557142E+02  0.19551325641E+02  0.00000000000E+00 0.  1.
</event>
<event>
 7    1  0.2492468E-009  0.4778727E+02  0.7816164E-02  0.1312668E+00
        -11   -1    0    0    0    0  0.00000000000E+00  0.00000000000E+00  0.45593999997E+02  0.45594000000E+02  0.51100000000E-03 0. -1.
         11   -1    0    0    0    0 -0.00000000000E+00 -0.00000000000E+00 -0.45593999997E+02  0.45594000000E+02  0.51100000000E-03 0.  1.
    9900012    2    1    2    0    0  0.35764860299E+02 -0.47234081122E+01 -0.24128563920E+02  0.47787269439E+02  0.19999992678E+02 0.  0.
         12    1    1    2    0    0 -0.35764860299E+02  0.47234081122E+01  0.24128563920E+02  0.43400730561E+02  0.00000000000E+00 0. -1.
         11    1    3    3    0    0  0.83555955548E+01  0.36394876233E+01 -0.17129867268E+01  0.92734120486E+01  0.51100000000E-03 0. -1.
        -11    1    3    3    0    0  0.19857565797E+01 -0.14021937207E+01 -0.82268598715E+01  0.85784963735E+01  0.51100000000E-03 0.  1.
        -12    1    3    3    0    0  0.25423508165E+02 -0.69607020147E+01 -0.14188717322E+02  0.29935361016E+02  0.00000000000E+00 0.  1.
</event>
<event>
 7    1  0.2492468E-009  0.4778727E+02  0.7816164E-02  0.1312668E+00
        -11   -1    0    0    0    0  0.00000000000E+00  0.00000000000E+00  0.45593999997E+02  0.45594000000E+02  0.51100000000E-03 0.  1.
         11   -1    0    0    0    0 -0.00000000000E+00 -0.00000000000E+00 -0.45593999997E+02  0.45594000000E+02  0.51100000000E-03 0. -1.
    9900012    2    1    2    0    0  0.33510299642E+01  0.17327408913E+02  0.39650410154E+02  0.47787268130E+02  0.19999986714E+02 0.  0.
         12    1    1    2    0    0 -0.33510299642E+01 -0.17327408913E+02 -0.39650410154E+02  0.43400731870E+02  0.00000000000E+00 0. -1.
         11    1    3    3    0    0  0.17362428462E+01  0.53554466963E+01  0.21694606355E+02  0.22413194634E+02  0.51100000000E-03 0. -1.
        -11    1    3    3    0    0  0.27945247956E+01  0.86690603943E+00  0.12697956322E+02  0.13030694147E+02  0.51100000000E-03 0.  1.
         12    1    3    3    0    0 -0.11797376776E+01  0.11105056178E+02  0.52578474763E+01  0.12343379350E+02  0.00000000000E+00 0. -1.
</event>
<event>
 7    1  0.2492468E-009  0.4778727E+02  0.7816164E-02  0.1312668E+00
        -11   -1    0    0    0    0  0.00000000000E+00  0.00000000000E+00  0.45593999997E+02  0.45594000000E+02  0.51100000000E-03 0. -1.
         11   -1    0    0    0    0 -0.00000000000E+00 -0.00000000000E+00 -0.45593999997E+02  0.45594000000E+02  0.51100000000E-03 0.  1.
    9900012    2    1    2    0    0 -0.51617680466E-01 -0.12295773483E+02 -0.41622524920E+02  0.47787270851E+02  0.19999999117E+02 0.  0.
         12    1    1    2    0    0  0.51617680466E-01  0.12295773483E+02  0.41622524920E+02  0.43400729149E+02  0.00000000000E+00 0. -1.
         11    1    3    3    0    0  0.49275842774E+01 -0.32185299727E+01 -0.20626456981E+02  0.21449726102E+02  0.51100000000E-03 0. -1.
        -11    1    3    3    0    0  0.18397616208E+01 -0.21983506576E+01  0.35853970182E+00  0.28889478039E+01  0.51100000000E-03 0.  1.
        -12    1    3    3    0    0 -0.68189635787E+01 -0.68788928530E+01 -0.21354607642E+02  0.23448596945E+02  0.00000000000E+00 0.  1.
</event>
<event>
 7    1  0.2492468E-009  0.4778727E+02  0.7816164E-02  0.1312668E+00
        -11   -1    0    0    0    0  0.00000000000E+00  0.00000000000E+00  0.45593999997E+02  0.45594000000E+02  0.51100000000E-03 0.  1.
         11   -1    0    0    0    0 -0.00000000000E+00 -0.00000000000E+00 -0.45593999997E+02  0.45594000000E+02  0.51100000000E-03 0. -1.
    9900012    2    1    2    0    0  0.11094245672E+02 -0.35707587292E+02  0.22034268029E+02  0.47787273683E+02  0.20000012029E+02 0.  0.
         12    1    1    2    0    0 -0.11094245672E+02  0.35707587292E+02 -0.22034268029E+02  0.43400726317E+02  0.00000000000E+00 0. -1.
         11    1    3    3    0    0 -0.85167808394E+00 -0.22547481321E+01 -0.66357987689E+00  0.24999166410E+01  0.51100000000E-03 0. -1.
        -11    1    3    3    0    0  0.14914291815E+02 -0.19145901472E+02  0.11379203320E+02  0.26804624824E+02  0.51100000000E-03 0.  1.
        -12    1    3    3    0    0 -0.29683680589E+01 -0.14306937689E+02  0.11318644586E+02  0.18482732218E+02  0.00000000000E+00 0.  1.
</event>
<event>
 7    1  0.2492468E-009  0.4778728E+02  0.7816164E-02  0.1312668E+00
        -11   -1    0    0    0    0  0.00000000000E+00  0.00000000000E+00  0.45593999997E+02  0.45594000000E+02  0.51100000000E-03 0.  1.
         11   -1    0    0    0    0 -0.00000000000E+00 -0.00000000000E+00 -0.45593999997E+02  0.45594000000E+02  0.51100000000E-03 0. -1.
    9900012    2    1    2    0    0  0.38203992543E+02  0.90139080090E+01  0.18515596217E+02  0.47787275500E+02  0.20000020315E+02 0.  0.
         12    1    1    2    0    0 -0.38203992543E+02 -0.90139080090E+01 -0.18515596217E+02  0.43400724500E+02  0.00000000000E+00 0. -1.
         11    1    3    3    0    0  0.36672362015E+01 -0.44348989003E+01  0.53580235867E+01  0.78629108242E+01  0.51100000000E-03 0. -1.
        -11    1    3    3    0    0  0.71568815418E+01  0.16585472208E+01  0.54097756038E+01  0.91234535474E+01  0.51100000000E-03 0.  1.
        -12    1    3    3    0    0  0.27379874800E+02  0.11790259688E+02  0.77477970269E+01  0.30800911129E+02  0.00000000000E+00 0.  1.
</event>
<event>
 7    1  0.2492468E-009  0.4778727E+02  0.7816164E-02  0.1312668E+00
        -11   -1    0    0    0    0  0.00000000000E+00  0.00000000000E+00  0.45593999997E+02  0.45594000000E+02  0.51100000000E-03 0.  1.
         11   -1    0    0    0    0 -0.00000000000E+00 -0.00000000000E+00 -0.45593999997E+02  0.45594000000E+02  0.51100000000E-03 0. -1.
    9900012    2    1    2    0    0 -0.29130472727E+02 -0.79169286501E+01  0.31182703822E+02  0.47787271686E+02  0.20000002924E+02 0.  0.
         12    1    1    2    0    0  0.29130472727E+02  0.79169286501E+01 -0.31182703822E+02  0.43400728314E+02  0.00000000000E+00 0. -1.
         11    1    3    3    0    0 -0.45548398091E+01 -0.21684630436E+01  0.17181089010E+01  0.53292303492E+01  0.51100000000E-03 0. -1.
        -11    1    3    3    0    0 -0.23586304509E+02 -0.31343481372E+01  0.15920766686E+02  0.28628809105E+02  0.51100000000E-03 0.  1.
         12    1    3    3    0    0 -0.98932840870E+00 -0.26141174693E+01  0.13543828235E+02  0.13829232231E+02  0.00000000000E+00 0. -1.
</event>
<event>
 7    1  0.2492468E-009  0.4778728E+02  0.7816164E-02  0.1312668E+00
        -11   -1    0    0    0    0  0.00000000000E+00  0.00000000000E+00  0.45593999997E+02  0.45594000000E+02  0.51100000000E-03 0.  1.
         11   -1    0    0    0    0 -0.00000000000E+00 -0.00000000000E+00 -0.45593999997E+02  0.45594000000E+02  0.51100000000E-03 0. -1.
    9900012    2    1    2    0    0 -0.40412310841E+01  0.37550476314E+02  0.21383465382E+02  0.47787280976E+02  0.20000045280E+02 0.  0.
         12    1    1    2    0    0  0.40412310841E+01 -0.37550476314E+02 -0.21383465382E+02  0.43400719024E+02  0.00000000000E+00 0. -1.
         11    1    3    3    0    0 -0.35741287144E+01  0.58813323902E+01  0.31466495885E+01  0.75674216643E+01  0.51100000000E-03 0. -1.
        -11    1    3    3    0    0  0.94646114108E-01  0.33245096205E+02  0.19095745493E+02  0.38339181992E+02  0.51100000000E-03 0.  1.
         12    1    3    3    0    0 -0.56174848379E+00 -0.15759522813E+01 -0.85892969955E+00  0.18806773197E+01  0.00000000000E+00 0. -1.
</event>
<event>
 7    1  0.2492468E-009  0.4778727E+02  0.7816164E-02  0.1312668E+00
        -11   -1    0    0    0    0  0.00000000000E+00  0.00000000000E+00  0.45593999997E+02  0.45594000000E+02  0.51100000000E-03 0.  1.
         11   -1    0    0    0    0 -0.00000000000E+00 -0.00000000000E+00 -0.45593999997E+02  0.45594000000E+02  0.51100000000E-03 0. -1.
    9900012    2    1    2    0    0  0.25602565001E+02  0.33263549306E+02  0.11030330639E+02  0.47787271422E+02  0.20000001723E+02 0.  0.
         12    1    1    2    0    0 -0.25602565001E+02 -0.33263549306E+02 -0.11030330639E+02  0.43400728578E+02  0.00000000000E+00 0. -1.
         11    1    3    3    0    0  0.12018857867E+02  0.10687679443E+02  0.13602473079E+02  0.21064346902E+02  0.51100000000E-03 0. -1.
        -11    1    3    3    0    0  0.10643505039E+01  0.28967146903E+01  0.71701196388E+00  0.31682652051E+01  0.51100000000E-03 0.  1.
         12    1    3    3    0    0  0.12519356631E+02  0.19679155173E+02 -0.32891544038E+01  0.23554659315E+02  0.00000000000E+00 0. -1.
</event>
<event>
 7    1  0.2492468E-009  0.4778727E+02  0.7816164E-02  0.1312668E+00
        -11   -1    0    0    0    0  0.00000000000E+00  0.00000000000E+00  0.45593999997E+02  0.45594000000E+02  0.51100000000E-03 0.  1.
         11   -1    0    0    0    0 -0.00000000000E+00 -0.00000000000E+00 -0.45593999997E+02  0.45594000000E+02  0.51100000000E-03 0. -1.
    9900012    2    1    2    0    0  0.22534340011E+02 -0.21916860866E+02  0.29924538310E+02  0.47787271169E+02  0.20000000570E+02 0.  0.
         12    1    1    2    0    0 -0.22534340011E+02  0.21916860866E+02 -0.29924538310E+02  0.43400728831E+02  0.00000000000E+00 0. -1.
         11    1    3    3    0    0  0.53047835654E+01 -0.42912916501E+01  0.16803447127E+02  0.18135924248E+02  0.51100000000E-03 0. -1.
        -11    1    3    3    0    0  0.12391747032E+02 -0.91126363250E+01  0.12534737479E+02  0.19842257413E+02  0.51100000000E-03 0.  1.
        -12    1    3    3    0    0  0.48378094129E+01 -0.85129328912E+01  0.58635370360E+00  0.98090895088E+01  0.00000000000E+00 0.  1.
</event>
<event>
 7    1  0.2492468E-009  0.4778727E+02  0.7816164E-02  0.1312668E+00
        -11   -1    0    0    0    0  0.00000000000E+00  0.00000000000E+00  0.45593999997E+02  0.45594000000E+02  0.51100000000E-03 0. -1.
         11   -1    0    0    0    0 -0.00000000000E+00 -0.00000000000E+00 -0.45593999997E+02  0.45594000000E+02  0.51100000000E-03 0.  1.
    9900012    2    1    2    0    0  0.46716976865E+01 -0.19821036519E+02 -0.38326556201E+02  0.47787272377E+02  0.20000006075E+02 0.  0.
         12    1    1    2    0    0 -0.46716976865E+01  0.19821036519E+02  0.38326556201E+02  0.43400727623E+02  0.00000000000E+00 0. -1.
         11    1    3    3    0    0  0.38109557923E+01 -0.56198716457E+01 -0.95662156142E+01  0.11731104927E+02  0.51100000000E-03 0. -1.
        -11    1    3    3    0    0  0.84686729799E+01 -0.58704022258E+01 -0.11559663988E+02  0.15485666796E+02  0.51100000000E-03 0.  1.
         12    1    3    3    0    0 -0.76079310857E+01 -0.83307626475E+01 -0.17200676599E+02  0.20570500654E+02  0.00000000000E+00 0. -1.
</event>
<event>
 7    1  0.2492468E-009  0.4778727E+02  0.7816164E-02  0.1312668E+00
        -11   -1    0    0    0    0  0.00000000000E+00  0.00000000000E+00  0.45593999997E+02  0.45594000000E+02  0.51100000000E-03 0. -1.
         11   -1    0    0    0    0 -0.00000000000E+00 -0.00000000000E+00 -0.45593999997E+02  0.45594000000E+02  0.51100000000E-03 0.  1.
    9900012    2    1    2    0    0  0.84692132595E+01 -0.13229868660E+02 -0.40458202455E+02  0.47787272542E+02  0.20000006829E+02 0.  0.
         12    1    1    2    0    0 -0.84692132595E+01  0.13229868660E+02  0.40458202455E+02  0.43400727458E+02  0.00000000000E+00 0. -1.
         11    1    3    3    0    0  0.17402908477E+01 -0.17443150591E+00  0.76713571088E+00  0.19098523621E+01  0.51100000000E-03 0. -1.
        -11    1    3    3    0    0  0.15760812173E+01  0.27428298092E+01 -0.39112447516E+01  0.50304058618E+01  0.51100000000E-03 0.  1.
         12    1    3    3    0    0  0.51528411945E+01 -0.15798266963E+02 -0.37314093414E+02  0.40847014318E+02  0.00000000000E+00 0. -1.
</event>
<event>
 7    1  0.2492468E-009  0.4778727E+02  0.7816164E-02  0.1312668E+00
        -11   -1    0    0    0    0  0.00000000000E+00  0.00000000000E+00  0.45593999997E+02  0.45594000000E+02  0.51100000000E-03 0.  1.
         11   -1    0    0    0    0 -0.00000000000E+00 -0.00000000000E+00 -0.45593999997E+02  0.45594000000E+02  0.51100000000E-03 0. -1.
    9900012    2    1    2    0    0  0.24051622935E+02  0.32814442239E+02  0.15111423716E+02  0.47787270606E+02  0.19999997999E+02 0.  0.
         12    1    1    2    0    0 -0.24051622935E+02 -0.32814442239E+02 -0.15111423716E+02  0.43400729394E+02  0.00000000000E+00 0. -1.
         11    1    3    3    0    0  0.19086789494E+01  0.12667544431E+01  0.45667129639E+01  0.51090693582E+01  0.51100000000E-03 0. -1.
        -11    1    3    3    0    0 -0.17551254595E+01  0.61263641389E+01  0.61721602116E+00  0.64026368646E+01  0.51100000000E-03 0.  1.
         12    1    3    3    0    0  0.23898069445E+02  0.25421323657E+02  0.99274947311E+01  0.36275564383E+02  0.00000000000E+00 0. -1.
</event>
<event>
 7    1  0.2492468E-009  0.4778727E+02  0.7816164E-02  0.1312668E+00
        -11   -1    0    0    0    0  0.00000000000E+00  0.00000000000E+00  0.45593999997E+02  0.45594000000E+02  0.51100000000E-03 0.  1.
         11   -1    0    0    0    0 -0.00000000000E+00 -0.00000000000E+00 -0.45593999997E+02  0.45594000000E+02  0.51100000000E-03 0. -1.
    9900012    2    1    2    0    0  0.43782615726E+01  0.35583099096E+02  0.24460114972E+02  0.47787270282E+02  0.19999996522E+02 0.  0.
         12    1    1    2    0    0 -0.43782615726E+01 -0.35583099096E+02 -0.24460114972E+02  0.43400729718E+02  0.00000000000E+00 0. -1.
         11    1    3    3    0    0  0.11742063437E+02  0.17171014371E+02  0.12178626254E+02  0.24104744886E+02  0.51100000000E-03 0. -1.
        -11    1    3    3    0    0 -0.17393479522E+01  0.48749924892E+01  0.12186667276E+01  0.53175212198E+01  0.51100000000E-03 0.  1.
         12    1    3    3    0    0 -0.56244539126E+01  0.13537092236E+02  0.11062821990E+02  0.18365004176E+02  0.00000000000E+00 0. -1.
</event>
<event>
 7    1  0.2492468E-009  0.4778726E+02  0.7816164E-02  0.1312668E+00
        -11   -1    0    0    0    0  0.00000000000E+00  0.00000000000E+00  0.45593999997E+02  0.45594000000E+02  0.51100000000E-03 0.  1.
         11   -1    0    0    0    0 -0.00000000000E+00 -0.00000000000E+00 -0.45593999997E+02  0.45594000000E+02  0.51100000000E-03 0. -1.
    9900012    2    1    2    0    0  0.38822234125E+02  0.98714535918E+01  0.16703675992E+02  0.47787259798E+02  0.19999948724E+02 0.  0.
         12    1    1    2    0    0 -0.38822234125E+02 -0.98714535918E+01 -0.16703675992E+02  0.43400740202E+02  0.00000000000E+00 0. -1.
         11    1    3    3    0    0  0.61177442964E+01  0.70453549147E+01  0.60832082546E+01  0.11138637443E+02  0.51100000000E-03 0. -1.
        -11    1    3    3    0    0  0.30428099258E+01 -0.22443267747E+01  0.46101834130E+01  0.59623389939E+01  0.51100000000E-03 0.  1.
        -12    1    3    3    0    0  0.29661679902E+02  0.50704254519E+01  0.60102843240E+01  0.30686283361E+02  0.00000000000E+00 0.  1.
</event>
<event>
 7    1  0.2492468E-009  0.4778727E+02  0.7816164E-02  0.1312668E+00
        -11   -1    0    0    0    0  0.00000000000E+00  0.00000000000E+00  0.45593999997E+02  0.45594000000E+02  0.51100000000E-03 0.  1.
         11   -1    0    0    0    0 -0.00000000000E+00 -0.00000000000E+00 -0.45593999997E+02  0.45594000000E+02  0.51100000000E-03 0. -1.
    9900012    2    1    2    0    0  0.86127711471E+01 -0.21015216359E+02  0.36983841843E+02  0.47787266102E+02  0.19999977463E+02 0.  0.
         12    1    1    2    0    0 -0.86127711471E+01  0.21015216359E+02 -0.36983841843E+02  0.43400733898E+02  0.00000000000E+00 0. -1.
         11    1    3    3    0    0 -0.95286034354E+00 -0.80583003040E+01  0.14372013675E+02  0.16504512230E+02  0.51100000000E-03 0. -1.
        -11    1    3    3    0    0  0.11536072632E+02 -0.13391443574E+02  0.23213963309E+02  0.29177042783E+02  0.51100000000E-03 0.  1.
         12    1    3    3    0    0 -0.19704411417E+01  0.43452751980E+00 -0.60213514089E+00  0.21057110881E+01  0.00000000000E+00 0. -1.
</event>
<event>
 7    1  0.2492468E-009  0.4778727E+02  0.7816164E-02  0.1312668E+00
        -11   -1    0    0    0    0  0.00000000000E+00  0.00000000000E+00  0.45593999997E+02  0.45594000000E+02  0.51100000000E-03 0.  1.
         11   -1    0    0    0    0 -0.00000000000E+00 -0.00000000000E+00 -0.45593999997E+02  0.45594000000E+02  0.51100000000E-03 0. -1.
    9900012    2    1    2    0    0 -0.75933724888E+01  0.33687828167E+02  0.26288668129E+02  0.47787272537E+02  0.20000006804E+02 0.  0.
         12    1    1    2    0    0  0.75933724888E+01 -0.33687828167E+02 -0.26288668129E+02  0.43400727463E+02  0.00000000000E+00 0. -1.
         11    1    3    3    0    0  0.18067580705E+01  0.13879915379E+02  0.95514119729E+01  0.16945379801E+02  0.51100000000E-03 0. -1.
        -11    1    3    3    0    0  0.17781467565E+01  0.10033070437E+02  0.10804463566E+02  0.14851287537E+02  0.51100000000E-03 0.  1.
         12    1    3    3    0    0 -0.11178277316E+02  0.97748423506E+01  0.59327925902E+01  0.15990605199E+02  0.00000000000E+00 0. -1.
</event>
<event>
 7    1  0.2492468E-009  0.4778727E+02  0.7816164E-02  0.1312668E+00
        -11   -1    0    0    0    0  0.00000000000E+00  0.00000000000E+00  0.45593999997E+02  0.45594000000E+02  0.51100000000E-03 0. -1.
         11   -1    0    0    0    0 -0.00000000000E+00 -0.00000000000E+00 -0.45593999997E+02  0.45594000000E+02  0.51100000000E-03 0.  1.
    9900012    2    1    2    0    0 -0.65156365581E+01  0.34218824282E+02 -0.25889023152E+02  0.47787274490E+02  0.20000015710E+02 0.  0.
         12    1    1    2    0    0  0.65156365581E+01 -0.34218824282E+02  0.25889023152E+02  0.43400725510E+02  0.00000000000E+00 0. -1.
         11    1    3    3    0    0 -0.92823835564E+01  0.12198726968E+02 -0.76135968120E+01  0.17115444511E+02  0.51100000000E-03 0. -1.
        -11    1    3    3    0    0 -0.15929868318E+01  0.15262045972E+02 -0.71114521720E+01  0.16912729127E+02  0.51100000000E-03 0.  1.
         12    1    3    3    0    0  0.43597338300E+01  0.67580513424E+01 -0.11163974168E+02  0.13759100852E+02  0.00000000000E+00 0. -1.
</event>
<event>
 7    1  0.2492468E-009  0.4778727E+02  0.7816164E-02  0.1312668E+00
        -11   -1    0    0    0    0  0.00000000000E+00  0.00000000000E+00  0.45593999997E+02  0.45594000000E+02  0.51100000000E-03 0.  1.
         11   -1    0    0    0    0 -0.00000000000E+00 -0.00000000000E+00 -0.45593999997E+02  0.45594000000E+02  0.51100000000E-03 0. -1.
    9900012    2    1    2    0    0  0.19297703996E+02  0.24463168662E+02  0.30212174446E+02  0.47787268609E+02  0.19999988897E+02 0.  0.
         12    1    1    2    0    0 -0.19297703996E+02 -0.24463168662E+02 -0.30212174446E+02  0.43400731391E+02  0.00000000000E+00 0. -1.
         11    1    3    3    0    0  0.90762713097E+00 -0.60305070572E+00  0.54917016676E+01  0.55987717072E+01  0.51100000000E-03 0. -1.
        -11    1    3    3    0    0 -0.18422974041E+01  0.82957031551E+00  0.38327849417E+01  0.43327228511E+01  0.51100000000E-03 0.  1.
         12    1    3    3    0    0  0.20232374269E+02  0.24236649052E+02  0.20887687836E+02  0.37855774051E+02  0.00000000000E+00 0. -1.
</event>
<event>
 7    1  0.2492468E-009  0.4778727E+02  0.7816164E-02  0.1312668E+00
        -11   -1    0    0    0    0  0.00000000000E+00  0.00000000000E+00  0.45593999997E+02  0.45594000000E+02  0.51100000000E-03 0.  1.
         11   -1    0    0    0    0 -0.00000000000E+00 -0.00000000000E+00 -0.45593999997E+02  0.45594000000E+02  0.51100000000E-03 0. -1.
    9900012    2    1    2    0    0  0.19347593292E+02 -0.33840893014E+02  0.19081097191E+02  0.47787266410E+02  0.19999978868E+02 0.  0.
         12    1    1    2    0    0 -0.19347593292E+02  0.33840893014E+02 -0.19081097191E+02  0.43400733590E+02  0.00000000000E+00 0. -1.
         11    1    3    3    0    0  0.17941414149E+02 -0.16533879825E+02  0.11737112985E+02  0.27074403875E+02  0.51100000000E-03 0.  1.
        -11    1    3    3    0    0 -0.29919688551E+00  0.33101171451E+00 -0.10233711188E+01  0.11164122174E+01  0.51100000000E-03 0. -1.
        -12    1    3    3    0    0  0.17053760288E+01 -0.17638024904E+02  0.83673553243E+01  0.19596450317E+02  0.00000000000E+00 0.  1.
</event>
<event>
 7    1  0.2492468E-009  0.4778727E+02  0.7816164E-02  0.1312668E+00
        -11   -1    0    0    0    0  0.00000000000E+00  0.00000000000E+00  0.45593999997E+02  0.45594000000E+02  0.51100000000E-03 0.  1.
         11   -1    0    0    0    0 -0.00000000000E+00 -0.00000000000E+00 -0.45593999997E+02  0.45594000000E+02  0.51100000000E-03 0. -1.
    9900012    2    1    2    0    0  0.16031702885E+02  0.10166059705E+02  0.39028952418E+02  0.47787269659E+02  0.19999993681E+02 0.  0.
         12    1    1    2    0    0 -0.16031702885E+02 -0.10166059705E+02 -0.39028952418E+02  0.43400730341E+02  0.00000000000E+00 0. -1.
         11    1    3    3    0    0 -0.39982209318E+00  0.52603344616E+01  0.48274126420E+00  0.52975480879E+01  0.51100000000E-03 0. -1.
        -11    1    3    3    0    0  0.22232687880E+01 -0.84007730200E+00  0.34111754754E+01  0.41574959245E+01  0.51100000000E-03 0.  1.
         12    1    3    3    0    0  0.14208256190E+02  0.57458025456E+01  0.35135035678E+02  0.38332225646E+02  0.00000000000E+00 0. -1.
</event>
<event>
 7    1  0.2492468E-009  0.4778727E+02  0.7816164E-02  0.1312668E+00
        -11   -1    0    0    0    0  0.00000000000E+00  0.00000000000E+00  0.45593999997E+02  0.45594000000E+02  0.51100000000E-03 0.  1.
         11   -1    0    0    0    0 -0.00000000000E+00 -0.00000000000E+00 -0.45593999997E+02  0.45594000000E+02  0.51100000000E-03 0. -1.
    9900012    2    1    2    0    0  0.25334867082E+01 -0.83383307614E+01  0.42516782760E+02  0.47787272689E+02  0.20000007500E+02 0.  0.
         12    1    1    2    0    0 -0.25334867082E+01  0.83383307614E+01 -0.42516782760E+02  0.43400727311E+02  0.00000000000E+00 0. -1.
         11    1    3    3    0    0 -0.46814155857E+01 -0.42244014473E+01  0.22181139582E+02  0.23060012421E+02  0.51100000000E-03 0. -1.
        -11    1    3    3    0    0  0.24462641486E+01 -0.76318508156E+01  0.13305973656E+02  0.15533135239E+02  0.51100000000E-03 0.  1.
         12    1    3    3    0    0  0.47686381453E+01  0.35179215015E+01  0.70296695223E+01  0.91941250287E+01  0.00000000000E+00 0. -1.
</event>
<event>
 7    1  0.2492468E-009  0.4778727E+02  0.7816164E-02  0.1312668E+00
        -11   -1    0    0    0    0  0.00000000000E+00  0.00000000000E+00  0.45593999997E+02  0.45594000000E+02  0.51100000000E-03 0.  1.
         11   -1    0    0    0    0 -0.00000000000E+00 -0.00000000000E+00 -0.45593999997E+02  0.45594000000E+02  0.51100000000E-03 0. -1.
    9900012    2    1    2    0    0  0.42755046195E+02  0.26089510970E+01  0.69873002756E+01  0.47787274590E+02  0.20000016166E+02 0.  0.
         12    1    1    2    0    0 -0.42755046195E+02 -0.26089510970E+01 -0.69873002756E+01  0.43400725410E+02  0.00000000000E+00 0. -1.
         11    1    3    3    0    0  0.18680858765E+01  0.15511689787E+01 -0.17100078463E+01  0.29698479991E+01  0.51100000000E-03 0.  1.
        -11    1    3    3    0    0 -0.46265276660E+00 -0.14738980191E+01 -0.15006036843E+01  0.21536561080E+01  0.51100000000E-03 0. -1.
        -12    1    3    3    0    0  0.41349613085E+02  0.25316801375E+01  0.10197911806E+02  0.42663770483E+02  0.00000000000E+00 0.  1.
</event>
<event>
 7    1  0.2492468E-009  0.4778728E+02  0.7816164E-02  0.1312668E+00
        -11   -1    0    0    0    0  0.00000000000E+00  0.00000000000E+00  0.45593999997E+02  0.45594000000E+02  0.51100000000E-03 0.  1.
         11   -1    0    0    0    0 -0.00000000000E+00 -0.00000000000E+00 -0.45593999997E+02  0.45594000000E+02  0.51100000000E-03 0. -1.
    9900012    2    1    2    0    0 -0.23460123015E+02 -0.84386119957E+01  0.35525134318E+02  0.47787277511E+02  0.20000029483E+02 0.  0.
         12    1    1    2    0    0  0.23460123015E+02  0.84386119957E+01 -0.35525134318E+02  0.43400722489E+02  0.00000000000E+00 0. -1.
         11    1    3    3    0    0 -0.18967560673E+01  0.32442938583E+00 -0.11399359489E+01  0.22366028333E+01  0.51100000000E-03 0. -1.
        -11    1    3    3    0    0  0.27716554536E+00  0.17067670216E+01  0.72195139046E+01  0.74236955544E+01  0.51100000000E-03 0.  1.
         12    1    3    3    0    0 -0.21840532493E+02 -0.10469808403E+02  0.29445556362E+02  0.38126979123E+02  0.00000000000E+00 0. -1.
</event>
<event>
 7    1  0.2492468E-009  0.4778727E+02  0.7816164E-02  0.1312668E+00
        -11   -1    0    0    0    0  0.00000000000E+00  0.00000000000E+00  0.45593999997E+02  0.45594000000E+02  0.51100000000E-03 0.  1.
         11   -1    0    0    0    0 -0.00000000000E+00 -0.00000000000E+00 -0.45593999997E+02  0.45594000000E+02  0.51100000000E-03 0. -1.
    9900012    2    1    2    0    0  0.27323772390E+01  0.27548586923E+02  0.33425037558E+02  0.47787266567E+02  0.19999979585E+02 0.  0.
         12    1    1    2    0    0 -0.27323772390E+01 -0.27548586923E+02 -0.33425037558E+02  0.43400733433E+02  0.00000000000E+00 0. -1.
         11    1    3    3    0    0  0.11369822078E+01  0.11360084216E+02  0.39364489043E+01  0.12076418019E+02  0.51100000000E-03 0. -1.
        -11    1    3    3    0    0 -0.27187317873E+01  0.63425720240E+01  0.38319068383E+01  0.78932396827E+01  0.51100000000E-03 0.  1.
        -12    1    3    3    0    0  0.43141268185E+01  0.98459306830E+01  0.25656681815E+02  0.27817608865E+02  0.00000000000E+00 0.  1.
</event>
<event>
 7    1  0.2492468E-009  0.4778727E+02  0.7816164E-02  0.1312668E+00
        -11   -1    0    0    0    0  0.00000000000E+00  0.00000000000E+00  0.45593999997E+02  0.45594000000E+02  0.51100000000E-03 0. -1.
         11   -1    0    0    0    0 -0.00000000000E+00 -0.00000000000E+00 -0.45593999997E+02  0.45594000000E+02  0.51100000000E-03 0.  1.
    9900012    2    1    2    0    0 -0.21159506857E+02  0.34176429698E+02  0.16366741885E+02  0.47787270545E+02  0.19999997722E+02 0.  0.
         12    1    1    2    0    0  0.21159506857E+02 -0.34176429698E+02 -0.16366741885E+02  0.43400729455E+02  0.00000000000E+00 0. -1.
         11    1    3    3    0    0 -0.78502011931E-01  0.11114485320E+02  0.46303818210E+01  0.12040696930E+02  0.51100000000E-03 0. -1.
        -11    1    3    3    0    0 -0.12094732941E+02  0.14038062333E+02  0.13450154973E+02  0.22896646655E+02  0.51100000000E-03 0.  1.
         12    1    3    3    0    0 -0.89862719041E+01  0.90238820443E+01 -0.17137949085E+01  0.12849926960E+02  0.00000000000E+00 0. -1.
</event>
<event>
 7    1  0.2705763E-009  0.4778725E+02  0.7816164E-02  0.1312668E+00
        -11   -1    0    0    0    0  0.00000000000E+00  0.00000000000E+00  0.45593999997E+02  0.45594000000E+02  0.51100000000E-03 0.  1.
         11   -1    0    0    0    0 -0.00000000000E+00 -0.00000000000E+00 -0.45593999997E+02  0.45594000000E+02  0.51100000000E-03 0. -1.
    9900012    2    1    2    0    0  0.29903553271E+02  0.23167436775E+02  0.21276091428E+02  0.47787254714E+02  0.19999925541E+02 0.  0.
         12    1    1    2    0    0 -0.29903553271E+02 -0.23167436775E+02 -0.21276091428E+02  0.43400745286E+02  0.00000000000E+00 0. -1.
         11    1    3    3    0    0  0.22113763215E+01  0.38374435663E+01  0.75439089804E+01  0.87479552654E+01  0.51100000000E-03 0. -1.
        -11    1    3    3    0    0  0.20291760581E+02  0.19624952870E+02  0.14236199394E+02  0.31615877278E+02  0.51100000000E-03 0.  1.
         12    1    3    3    0    0  0.74004163687E+01 -0.29495966170E+00 -0.50401694601E+00  0.74234221700E+01  0.00000000000E+00 0. -1.
</event>
<event>
 7    1  0.2492468E-009  0.4778727E+02  0.7816164E-02  0.1312668E+00
        -11   -1    0    0    0    0  0.00000000000E+00  0.00000000000E+00  0.45593999997E+02  0.45594000000E+02  0.51100000000E-03 0.  1.
         11   -1    0    0    0    0 -0.00000000000E+00 -0.00000000000E+00 -0.45593999997E+02  0.45594000000E+02  0.51100000000E-03 0. -1.
    9900012    2    1    2    0    0 -0.11248980233E+02 -0.37380691138E+02  0.18967539383E+02  0.47787272167E+02  0.20000005117E+02 0.  0.
         12    1    1    2    0    0  0.11248980233E+02  0.37380691138E+02 -0.18967539383E+02  0.43400727833E+02  0.00000000000E+00 0. -1.
         11    1    3    3    0    0 -0.99932358945E+00 -0.29320976347E+01 -0.48297092541E+00  0.31351404038E+01  0.51100000000E-03 0. -1.
        -11    1    3    3    0    0 -0.12933364354E+02 -0.15975740594E+02  0.15045086262E+02  0.25472550362E+02  0.51100000000E-03 0.  1.
        -12    1    3    3    0    0  0.26837077111E+01 -0.18472852909E+02  0.44054240458E+01  0.19179581401E+02  0.00000000000E+00 0.  1.
</event>
<event>
 7    1  0.2492468E-009  0.4778727E+02  0.7816164E-02  0.1312668E+00
        -11   -1    0    0    0    0  0.00000000000E+00  0.00000000000E+00  0.45593999997E+02  0.45594000000E+02  0.51100000000E-03 0.  1.
         11   -1    0    0    0    0 -0.00000000000E+00 -0.00000000000E+00 -0.45593999997E+02  0.45594000000E+02  0.51100000000E-03 0. -1.
    9900012    2    1    2    0    0  0.34011174222E+02  0.25580974361E+02 -0.85133438633E+01  0.47787271378E+02  0.20000001520E+02 0.  0.
         12    1    1    2    0    0 -0.34011174222E+02 -0.25580974361E+02  0.85133438633E+01  0.43400728622E+02  0.00000000000E+00 0. -1.
         11    1    3    3    0    0  0.55036577185E+00  0.40817448292E+01 -0.65293849731E+00  0.41701165782E+01  0.51100000000E-03 0. -1.
        -11    1    3    3    0    0  0.28173889895E+02  0.23921425587E+02 -0.56160467966E+01  0.37383721803E+02  0.51100000000E-03 0.  1.
         12    1    3    3    0    0  0.52869185548E+01 -0.24221960554E+01 -0.22443585693E+01  0.62334329967E+01  0.00000000000E+00 0. -1.
</event>
<event>
 7    1  0.2492468E-009  0.4778728E+02  0.7816164E-02  0.1312668E+00
        -11   -1    0    0    0    0  0.00000000000E+00  0.00000000000E+00  0.45593999997E+02  0.45594000000E+02  0.51100000000E-03 0.  1.
         11   -1    0    0    0    0 -0.00000000000E+00 -0.00000000000E+00 -0.45593999997E+02  0.45594000000E+02  0.51100000000E-03 0. -1.
    9900012    2    1    2    0    0  0.34290454084E+02  0.20460435307E+02  0.17004643659E+02  0.47787279266E+02  0.20000037486E+02 0.  0.
         12    1    1    2    0    0 -0.34290454084E+02 -0.20460435307E+02 -0.17004643659E+02  0.43400720734E+02  0.00000000000E+00 0. -1.
         11    1    3    3    0    0  0.15473121906E+02 -0.66736146626E+00  0.88662480152E+01  0.17845818193E+02  0.51100000000E-03 0. -1.
        -11    1    3    3    0    0  0.89429787424E+01  0.70792639071E+01  0.51380924465E+01  0.12509709849E+02  0.51100000000E-03 0.  1.
         12    1    3    3    0    0  0.98743534352E+01  0.14048532866E+02  0.30003031977E+01  0.17431751224E+02  0.00000000000E+00 0. -1.
</event>
<event>
 7    1  0.2492468E-009  0.4778727E+02  0.7816164E-02  0.1312668E+00
        -11   -1    0    0    0    0  0.00000000000E+00  0.00000000000E+00  0.45593999997E+02  0.45594000000E+02  0.51100000000E-03 0. -1.
         11   -1    0    0    0    0 -0.00000000000E+00 -0.00000000000E+00 -0.45593999997E+02  0.45594000000E+02  0.51100000000E-03 0.  1.
    9900012    2    1    2    0    0  0.31754006461E+02 -0.26899354932E+02 -0.12317917775E+02  0.47787270508E+02  0.19999997556E+02 0.  0.
         12    1    1    2    0    0 -0.31754006461E+02  0.26899354932E+02  0.12317917775E+02  0.43400729492E+02  0.00000000000E+00 0. -1.
         11    1    3    3    0    0  0.14277240165E+02 -0.55886121040E+01  0.74361413778E-01  0.15332243862E+02  0.51100000000E-03 0. -1.
        -11    1    3    3    0    0  0.55071824378E+01  0.31601138497E-01 -0.18339224894E+01  0.58045955064E+01  0.51100000000E-03 0.  1.
        -12    1    3    3    0    0  0.11969583858E+02 -0.21342343966E+02 -0.10558356700E+02  0.26650431140E+02  0.00000000000E+00 0.  1.
</event>
<event>
 7    1  0.2492468E-009  0.4778727E+02  0.7816164E-02  0.1312668E+00
        -11   -1    0    0    0    0  0.00000000000E+00  0.00000000000E+00  0.45593999997E+02  0.45594000000E+02  0.51100000000E-03 0.  1.
         11   -1    0    0    0    0 -0.00000000000E+00 -0.00000000000E+00 -0.45593999997E+02  0.45594000000E+02  0.51100000000E-03 0. -1.
    9900012    2    1    2    0    0  0.14999950318E+01  0.42993767734E+02 -0.57366556324E+01  0.47787271124E+02  0.20000000364E+02 0.  0.
         12    1    1    2    0    0 -0.14999950318E+01 -0.42993767734E+02  0.57366556324E+01  0.43400728876E+02  0.00000000000E+00 0. -1.
         11    1    3    3    0    0 -0.28168185364E+01  0.98954474048E+01 -0.57179815314E+01  0.11770711918E+02  0.51100000000E-03 0. -1.
        -11    1    3    3    0    0  0.50216238327E+01  0.24655532614E+02 -0.57212658392E+01  0.25803970188E+02  0.51100000000E-03 0.  1.
         12    1    3    3    0    0 -0.70481026444E+00  0.84427877153E+01  0.57025917382E+01  0.10212589018E+02  0.00000000000E+00 0. -1.
</event>
<event>
 7    1  0.2492468E-009  0.4778728E+02  0.7816164E-02  0.1312668E+00
        -11   -1    0    0    0    0  0.00000000000E+00  0.00000000000E+00  0.45593999997E+02  0.45594000000E+02  0.51100000000E-03 0.  1.
         11   -1    0    0    0    0 -0.00000000000E+00 -0.00000000000E+00 -0.45593999997E+02  0.45594000000E+02  0.51100000000E-03 0. -1.
    9900012    2    1    2    0    0 -0.23370107963E+02  0.36044825264E+02  0.61831492786E+01  0.47787277547E+02  0.20000029646E+02 0.  0.
         12    1    1    2    0    0  0.23370107963E+02 -0.36044825264E+02 -0.61831492786E+01  0.43400722453E+02  0.00000000000E+00 0. -1.
         11    1    3    3    0    0 -0.79789553026E+01  0.47998326546E+01 -0.18051174851E+01  0.94847546426E+01  0.51100000000E-03 0. -1.
        -11    1    3    3    0    0 -0.35777164900E+01  0.26992701968E+01 -0.31328510656E+01  0.54681688835E+01  0.51100000000E-03 0.  1.
        -12    1    3    3    0    0 -0.11813436170E+02  0.28545722412E+02  0.11121117829E+02  0.32834354021E+02  0.00000000000E+00 0.  1.
</event>
<event>
 7    1  0.2492468E-009  0.4778726E+02  0.7816164E-02  0.1312668E+00
        -11   -1    0    0    0    0  0.00000000000E+00  0.00000000000E+00  0.45593999997E+02  0.45594000000E+02  0.51100000000E-03 0.  1.
         11   -1    0    0    0    0 -0.00000000000E+00 -0.00000000000E+00 -0.45593999997E+02  0.45594000000E+02  0.51100000000E-03 0. -1.
    9900012    2    1    2    0    0 -0.93777212905E+01  0.37085835342E+01  0.42212897783E+02  0.47787262821E+02  0.19999962507E+02 0.  0.
         12    1    1    2    0    0  0.93777212905E+01 -0.37085835342E+01 -0.42212897783E+02  0.43400737179E+02  0.00000000000E+00 0. -1.
         11    1    3    3    0    0 -0.93215364195E-01  0.22598251082E+01  0.63698713627E+00  0.23497343460E+01  0.51100000000E-03 0. -1.
        -11    1    3    3    0    0  0.67169185779E+00 -0.89476336646E+00  0.29876515255E+02  0.29897457007E+02  0.51100000000E-03 0.  1.
         12    1    3    3    0    0 -0.99561977841E+01  0.23435217925E+01  0.11699395391E+02  0.15540071468E+02  0.00000000000E+00 0. -1.
</event>
<event>
 7    1  0.2492468E-009  0.4778727E+02  0.7816164E-02  0.1312668E+00
        -11   -1    0    0    0    0  0.00000000000E+00  0.00000000000E+00  0.45593999997E+02  0.45594000000E+02  0.51100000000E-03 0.  1.
         11   -1    0    0    0    0 -0.00000000000E+00 -0.00000000000E+00 -0.45593999997E+02  0.45594000000E+02  0.51100000000E-03 0. -1.
    9900012    2    1    2    0    0 -0.54126082368E+01 -0.28405169609E+02  0.32364692171E+02  0.47787270884E+02  0.19999999269E+02 0.  0.
         12    1    1    2    0    0  0.54126082368E+01  0.28405169609E+02 -0.32364692171E+02  0.43400729116E+02  0.00000000000E+00 0. -1.
         11    1    3    3    0    0 -0.63059363303E+01 -0.14352302314E+02  0.92218165657E+01  0.18187779297E+02  0.51100000000E-03 0. -1.
        -11    1    3    3    0    0 -0.16834021040E+01 -0.91984465225E+01  0.49213194059E+01  0.10567149380E+02  0.51100000000E-03 0.  1.
         12    1    3    3    0    0  0.25767301975E+01 -0.48544207724E+01  0.18221556200E+02  0.19032342207E+02  0.00000000000E+00 0. -1.
</event>
<event>
 7    1  0.2492468E-009  0.4778728E+02  0.7816164E-02  0.1312668E+00
        -11   -1    0    0    0    0  0.00000000000E+00  0.00000000000E+00  0.45593999997E+02  0.45594000000E+02  0.51100000000E-03 0.  1.
         11   -1    0    0    0    0 -0.00000000000E+00 -0.00000000000E+00 -0.45593999997E+02  0.45594000000E+02  0.51100000000E-03 0. -1.
    9900012    2    1    2    0    0  0.37530636689E+02  0.20085496038E+02  0.84644247565E+01  0.47787281944E+02  0.20000049693E+02 0.  0.
         12    1    1    2    0    0 -0.37530636689E+02 -0.20085496038E+02 -0.84644247565E+01  0.43400718056E+02  0.00000000000E+00 0. -1.
         11    1    3    3    0    0  0.28739728541E+01 -0.12216339139E+01  0.15829859837E+01  0.35011361400E+01  0.51100000000E-03 0. -1.
        -11    1    3    3    0    0  0.31669645054E+02  0.12631081035E+02  0.26996401325E+01  0.34202319849E+02  0.51100000000E-03 0.  1.
        -12    1    3    3    0    0  0.29870187804E+01  0.86760489170E+01  0.41817986404E+01  0.10083825954E+02  0.00000000000E+00 0.  1.
</event>
<event>
 7    1  0.2492468E-009  0.4778727E+02  0.7816164E-02  0.1312668E+00
        -11   -1    0    0    0    0  0.00000000000E+00  0.00000000000E+00  0.45593999997E+02  0.45594000000E+02  0.51100000000E-03 0. -1.
         11   -1    0    0    0    0 -0.00000000000E+00 -0.00000000000E+00 -0.45593999997E+02  0.45594000000E+02  0.51100000000E-03 0.  1.
    9900012    2    1    2    0    0  0.10927373009E+02 -0.39789847212E+02 -0.13453021665E+02  0.47787271735E+02  0.20000003150E+02 0.  0.
         12    1    1    2    0    0 -0.10927373009E+02  0.39789847212E+02  0.13453021665E+02  0.43400728265E+02  0.00000000000E+00 0. -1.
         11    1    3    3    0    0  0.95126033039E+01 -0.38479691675E+02 -0.93400865418E+01  0.40723623486E+02  0.51100000000E-03 0. -1.
        -11    1    3    3    0    0 -0.18067255729E+01 -0.11710084622E+01 -0.47955851404E+00  0.22057866497E+01  0.51100000000E-03 0.  1.
        -12    1    3    3    0    0  0.32214952781E+01 -0.13914707477E+00 -0.36333766089E+01  0.48578615992E+01  0.00000000000E+00 0.  1.
</event>
<event>
 7    1  0.2492468E-009  0.4778726E+02  0.7816164E-02  0.1312668E+00
        -11   -1    0    0    0    0  0.00000000000E+00  0.00000000000E+00  0.45593999997E+02  0.45594000000E+02  0.51100000000E-03 0.  1.
         11   -1    0    0    0    0 -0.00000000000E+00 -0.00000000000E+00 -0.45593999997E+02  0.45594000000E+02  0.51100000000E-03 0. -1.
    9900012    2    1    2    0    0  0.11754131716E+02  0.96875396319E+01  0.40640077353E+02  0.47787263557E+02  0.19999965861E+02 0.  0.
         12    1    1    2    0    0 -0.11754131716E+02 -0.96875396319E+01 -0.40640077353E+02  0.43400736443E+02  0.00000000000E+00 0. -1.
         11    1    3    3    0    0  0.12337913933E+02  0.66708454258E+00  0.16604247718E+02  0.20697105221E+02  0.51100000000E-03 0. -1.
        -11    1    3    3    0    0  0.58408401705E+00  0.20677050772E+01  0.11463904915E+00  0.21516739525E+01  0.51100000000E-03 0.  1.
        -12    1    3    3    0    0 -0.11678662333E+01  0.69527500121E+01  0.23921190586E+02  0.24938484383E+02  0.00000000000E+00 0.  1.
</event>
<event>
 7    1  0.2492468E-009  0.4778727E+02  0.7816164E-02  0.1312668E+00
        -11   -1    0    0    0    0  0.00000000000E+00  0.00000000000E+00  0.45593999997E+02  0.45594000000E+02  0.51100000000E-03 0.  1.
         11   -1    0    0    0    0 -0.00000000000E+00 -0.00000000000E+00 -0.45593999997E+02  0.45594000000E+02  0.51100000000E-03 0. -1.
    9900012    2    1    2    0    0 -0.14210121948E+02  0.14303240947E+02  0.38433225717E+02  0.47787272974E+02  0.20000008800E+02 0.  0.
         12    1    1    2    0    0  0.14210121948E+02 -0.14303240947E+02 -0.38433225717E+02  0.43400727026E+02  0.00000000000E+00 0. -1.
         11    1    3    3    0    0  0.63651140566E+00 -0.22170596309E+00  0.71030760412E+00  0.97920245975E+00  0.51100000000E-03 0. -1.
        -11    1    3    3    0    0 -0.14334765247E+01  0.11506562995E+02  0.80830600504E+01  0.14134769434E+02  0.51100000000E-03 0.  1.
         12    1    3    3    0    0 -0.13413156829E+02  0.30183839149E+01  0.29639858062E+02  0.32673301081E+02  0.00000000000E+00 0. -1.
</event>
<event>
 7    1  0.2492468E-009  0.4778727E+02  0.7816164E-02  0.1312668E+00
        -11   -1    0    0    0    0  0.00000000000E+00  0.00000000000E+00  0.45593999997E+02  0.45594000000E+02  0.51100000000E-03 0.  1.
         11   -1    0    0    0    0 -0.00000000000E+00 -0.00000000000E+00 -0.45593999997E+02  0.45594000000E+02  0.51100000000E-03 0. -1.
    9900012    2    1    2    0    0  0.37641239726E+02 -0.33198575434E+01  0.21348041002E+02  0.47787271471E+02  0.20000001947E+02 0.  0.
         12    1    1    2    0    0 -0.37641239726E+02  0.33198575434E+01 -0.21348041002E+02  0.43400728529E+02  0.00000000000E+00 0. -1.
         11    1    3    3    0    0  0.10727514596E+02 -0.68300457151E+01  0.39167075053E+00  0.12723305393E+02  0.51100000000E-03 0. -1.
        -11    1    3    3    0    0  0.12730541556E+02 -0.83606238458E+00  0.63702335164E+01  0.14259928609E+02  0.51100000000E-03 0.  1.
        -12    1    3    3    0    0  0.14183183573E+02  0.43462505563E+01  0.14586136735E+02  0.20804037469E+02  0.00000000000E+00 0.  1.
</event>
<event>
 7    1  0.2492468E-009  0.4778727E+02  0.7816164E-02  0.1312668E+00
        -11   -1    0    0    0    0  0.00000000000E+00  0.00000000000E+00  0.45593999997E+02  0.45594000000E+02  0.51100000000E-03 0.  1.
         11   -1    0    0    0    0 -0.00000000000E+00 -0.00000000000E+00 -0.45593999997E+02  0.45594000000E+02  0.51100000000E-03 0. -1.
    9900012    2    1    2    0    0 -0.42181546728E+01  0.34370272887E+02  0.26163231326E+02  0.47787272350E+02  0.20000005950E+02 0.  0.
         12    1    1    2    0    0  0.42181546728E+01 -0.34370272887E+02 -0.26163231326E+02  0.43400727650E+02  0.00000000000E+00 0. -1.
         11    1    3    3    0    0 -0.36343516466E+01  0.14892353934E+01  0.63445411835E+01  0.74618722207E+01  0.51100000000E-03 0. -1.
        -11    1    3    3    0    0  0.22324687711E+01  0.71310331854E+01  0.10307121433E+02  0.12730762099E+02  0.51100000000E-03 0.  1.
         12    1    3    3    0    0 -0.28162717973E+01  0.25750004308E+02  0.95115687090E+01  0.27594638030E+02  0.00000000000E+00 0. -1.
</event>
<event>
 7    1  0.2492468E-009  0.4778727E+02  0.7816164E-02  0.1312668E+00
        -11   -1    0    0    0    0  0.00000000000E+00  0.00000000000E+00  0.45593999997E+02  0.45594000000E+02  0.51100000000E-03 0.  1.
         11   -1    0    0    0    0 -0.00000000000E+00 -0.00000000000E+00 -0.45593999997E+02  0.45594000000E+02  0.51100000000E-03 0. -1.
    9900012    2    1    2    0    0 -0.55240226055E+01 -0.12856394383E+02  0.41083108071E+02  0.47787268773E+02  0.19999989644E+02 0.  0.
         12    1    1    2    0    0  0.55240226055E+01  0.12856394383E+02 -0.41083108071E+02  0.43400731227E+02  0.00000000000E+00 0. -1.
         11    1    3    3    0    0 -0.32891749739E+01 -0.80232581961E+01  0.13507252188E+02  0.16051081148E+02  0.51100000000E-03 0. -1.
        -11    1    3    3    0    0 -0.63587108845E+01 -0.55208241269E+01  0.25895538540E+02  0.27230343730E+02  0.51100000000E-03 0.  1.
         12    1    3    3    0    0  0.41238632528E+01  0.68768793952E+00  0.16803173431E+01  0.45058438947E+01  0.00000000000E+00 0. -1.
</event>
<event>
 7    1  0.2492468E-009  0.4778727E+02  0.7816164E-02  0.1312668E+00
        -11   -1    0    0    0    0  0.00000000000E+00  0.00000000000E+00  0.45593999997E+02  0.45594000000E+02  0.51100000000E-03 0. -1.
         11   -1    0    0    0    0 -0.00000000000E+00 -0.00000000000E+00 -0.45593999997E+02  0.45594000000E+02  0.51100000000E-03 0.  1.
    9900012    2    1    2    0    0  0.10310335583E+02 -0.30657716351E+02  0.28938290096E+02  0.47787271603E+02  0.20000002546E+02 0.  0.
         12    1    1    2    0    0 -0.10310335583E+02  0.30657716351E+02 -0.28938290096E+02  0.43400728397E+02  0.00000000000E+00 0. -1.
         11    1    3    3    0    0  0.84288489684E+01 -0.91737392486E+01  0.66083182641E+01  0.14102228805E+02  0.51100000000E-03 0. -1.
        -11    1    3    3    0    0  0.33447126186E+01 -0.16149621277E+02  0.80114324084E+01  0.18335223462E+02  0.51100000000E-03 0.  1.
        -12    1    3    3    0    0 -0.14632260044E+01 -0.53343558256E+01  0.14318539424E+02  0.15349819336E+02  0.00000000000E+00 0.  1.
</event>
<event>
 7    1  0.2492468E-009  0.4778727E+02  0.7816164E-02  0.1312668E+00
        -11   -1    0    0    0    0  0.00000000000E+00  0.00000000000E+00  0.45593999997E+02  0.45594000000E+02  0.51100000000E-03 0.  1.
         11   -1    0    0    0    0 -0.00000000000E+00 -0.00000000000E+00 -0.45593999997E+02  0.45594000000E+02  0.51100000000E-03 0. -1.
    9900012    2    1    2    0    0 -0.27071452730E+02 -0.77054449557E+00  0.33914094094E+02  0.47787273394E+02  0.20000010714E+02 0.  0.
         12    1    1    2    0    0  0.27071452730E+02  0.77054449557E+00 -0.33914094094E+02  0.43400726606E+02  0.00000000000E+00 0. -1.
         11    1    3    3    0    0 -0.82168176565E+01 -0.52849672938E+01  0.12293882989E+02  0.15703073931E+02  0.51100000000E-03 0. -1.
        -11    1    3    3    0    0 -0.11155510859E+02 -0.13599622622E+01  0.18961463738E+02  0.22041597656E+02  0.51100000000E-03 0.  1.
        -12    1    3    3    0    0 -0.76991242137E+01  0.58743850603E+01  0.26587473674E+01  0.10042601807E+02  0.00000000000E+00 0.  1.
</event>
<event>
 7    1  0.2492468E-009  0.4778727E+02  0.7816164E-02  0.1312668E+00
        -11   -1    0    0    0    0  0.00000000000E+00  0.00000000000E+00  0.45593999997E+02  0.45594000000E+02  0.51100000000E-03 0.  1.
         11   -1    0    0    0    0 -0.00000000000E+00 -0.00000000000E+00 -0.45593999997E+02  0.45594000000E+02  0.51100000000E-03 0. -1.
    9900012    2    1    2    0    0  0.11645867922E+02  0.99168678759E+01  0.40615920354E+02  0.47787268504E+02  0.19999988418E+02 0.  0.
         12    1    1    2    0    0 -0.11645867922E+02 -0.99168678759E+01 -0.40615920354E+02  0.43400731496E+02  0.00000000000E+00 0. -1.
         11    1    3    3    0    0  0.68060233155E+00  0.15020948376E+00 -0.86783263660E+00  0.11130661117E+01  0.51100000000E-03 0. -1.
        -11    1    3    3    0    0  0.91739728647E+01  0.30719968840E+01  0.82168865637E+01  0.12693154377E+02  0.51100000000E-03 0.  1.
        -12    1    3    3    0    0  0.17912927260E+01  0.66946615081E+01  0.33266866427E+02  0.33981048016E+02  0.00000000000E+00 0.  1.
</event>
<event>
 7    1  0.2492468E-009  0.4778728E+02  0.7816164E-02  0.1312668E+00
        -11   -1    0    0    0    0  0.00000000000E+00  0.00000000000E+00  0.45593999997E+02  0.45594000000E+02  0.51100000000E-03 0.  1.
         11   -1    0    0    0    0 -0.00000000000E+00 -0.00000000000E+00 -0.45593999997E+02  0.45594000000E+02  0.51100000000E-03 0. -1.
    9900012    2    1    2    0    0  0.36494146184E+02 -0.12484466510E+02  0.19898178311E+02  0.47787284455E+02  0.20000061146E+02 0.  0.
         12    1    1    2    0    0 -0.36494146184E+02  0.12484466510E+02 -0.19898178311E+02  0.43400715545E+02  0.00000000000E+00 0. -1.
         11    1    3    3    0    0  0.13163345588E+02  0.17348436251E+01  0.88847835977E+01  0.15975691826E+02  0.51100000000E-03 0. -1.
        -11    1    3    3    0    0  0.18414660587E+02 -0.72562330081E+01  0.12131694310E+02  0.23214879907E+02  0.51100000000E-03 0.  1.
        -12    1    3    3    0    0  0.49161400085E+01 -0.69630771266E+01 -0.11182995966E+01  0.85967127230E+01  0.00000000000E+00 0.  1.
</event>
<event>
 7    1  0.2492468E-009  0.4778726E+02  0.7816164E-02  0.1312668E+00
        -11   -1    0    0    0    0  0.00000000000E+00  0.00000000000E+00  0.45593999997E+02  0.45594000000E+02  0.51100000000E-03 0.  1.
         11   -1    0    0    0    0 -0.00000000000E+00 -0.00000000000E+00 -0.45593999997E+02  0.45594000000E+02  0.51100000000E-03 0. -1.
    9900012    2    1    2    0    0 -0.83954904360E+01  0.88277045243E+01  0.41655868988E+02  0.47787262127E+02  0.19999959341E+02 0.  0.
         12    1    1    2    0    0  0.83954904360E+01 -0.88277045243E+01 -0.41655868988E+02  0.43400737873E+02  0.00000000000E+00 0. -1.
         11    1    3    3    0    0 -0.55795143298E+01  0.98606389403E+00  0.10748503269E+02  0.12150457808E+02  0.51100000000E-03 0. -1.
        -11    1    3    3    0    0 -0.88541655705E-01  0.50288994951E+01  0.31297864466E+02  0.31699432016E+02  0.51100000000E-03 0.  1.
         12    1    3    3    0    0 -0.27274344505E+01  0.28127411352E+01 -0.39049874758E+00  0.39373723024E+01  0.00000000000E+00 0. -1.
</event>
<event>
 7    1  0.2492468E-009  0.4778724E+02  0.7816164E-02  0.1312668E+00
        -11   -1    0    0    0    0  0.00000000000E+00  0.00000000000E+00  0.45593999997E+02  0.45594000000E+02  0.51100000000E-03 0. -1.
         11   -1    0    0    0    0 -0.00000000000E+00 -0.00000000000E+00 -0.45593999997E+02  0.45594000000E+02  0.51100000000E-03 0.  1.
    9900012    2    1    2    0    0 -0.79278082673E+01  0.42302460941E+02  0.55926702971E+01  0.47787236106E+02  0.19999840699E+02 0.  0.
         12    1    1    2    0    0  0.79278082673E+01 -0.42302460941E+02 -0.55926702971E+01  0.43400763894E+02  0.00000000000E+00 0. -1.
         11    1    3    3    0    0 -0.15745550863E+01  0.11995032370E+01  0.28033013758E+01  0.34316950039E+01  0.51100000000E-03 0. -1.
        -11    1    3    3    0    0 -0.77775736191E+01  0.18868116971E+02  0.72031782814E+01  0.21642140999E+02  0.51100000000E-03 0.  1.
         12    1    3    3    0    0  0.14243204380E+01  0.22234840733E+02 -0.44138093601E+01  0.22713400102E+02  0.00000000000E+00 0. -1.
</event>
<event>
 7    1  0.2492468E-009  0.4778727E+02  0.7816164E-02  0.1312668E+00
        -11   -1    0    0    0    0  0.00000000000E+00  0.00000000000E+00  0.45593999997E+02  0.45594000000E+02  0.51100000000E-03 0.  1.
         11   -1    0    0    0    0 -0.00000000000E+00 -0.00000000000E+00 -0.45593999997E+02  0.45594000000E+02  0.51100000000E-03 0. -1.
    9900012    2    1    2    0    0 -0.28966393599E+02 -0.64839249515E+01  0.31662757609E+02  0.47787268896E+02  0.19999990206E+02 0.  0.
         12    1    1    2    0    0  0.28966393599E+02  0.64839249515E+01 -0.31662757609E+02  0.43400731104E+02  0.00000000000E+00 0. -1.
         11    1    3    3    0    0  0.22725987731E+01 -0.14431213962E+01  0.50361343225E+01  0.57105125622E+01  0.51100000000E-03 0. -1.
        -11    1    3    3    0    0 -0.83580457409E+01 -0.42494501792E+01  0.52100176558E+01  0.10726557680E+02  0.51100000000E-03 0.  1.
        -12    1    3    3    0    0 -0.22880946631E+02 -0.79135337614E+00  0.21416605631E+02  0.31350198654E+02  0.00000000000E+00 0.  1.
</event>
<event>
 7    1  0.2492468E-009  0.4778727E+02  0.7816164E-02  0.1312668E+00
        -11   -1    0    0    0    0  0.00000000000E+00  0.00000000000E+00  0.45593999997E+02  0.45594000000E+02  0.51100000000E-03 0. -1.
         11   -1    0    0    0    0 -0.00000000000E+00 -0.00000000000E+00 -0.45593999997E+02  0.45594000000E+02  0.51100000000E-03 0.  1.
    9900012    2    1    2    0    0 -0.26979923195E+02 -0.33652145950E+02 -0.48208064554E+01  0.47787270081E+02  0.19999995607E+02 0.  0.
         12    1    1    2    0    0  0.26979923195E+02  0.33652145950E+02  0.48208064554E+01  0.43400729919E+02  0.00000000000E+00 0. -1.
         11    1    3    3    0    0 -0.92421527594E+01 -0.13057938433E+02 -0.32751545759E+01  0.16329537088E+02  0.51100000000E-03 0. -1.
        -11    1    3    3    0    0 -0.11100094929E+02 -0.19028320616E+02  0.43359730016E+01  0.22451943236E+02  0.51100000000E-03 0.  1.
         12    1    3    3    0    0 -0.66376755065E+01 -0.15658869002E+01 -0.58816248812E+01  0.90057897575E+01  0.00000000000E+00 0. -1.
</event>
<event>
 7    1  0.2492468E-009  0.4778727E+02  0.7816164E-02  0.1312668E+00
        -11   -1    0    0    0    0  0.00000000000E+00  0.00000000000E+00  0.45593999997E+02  0.45594000000E+02  0.51100000000E-03 0. -1.
         11   -1    0    0    0    0 -0.00000000000E+00 -0.00000000000E+00 -0.45593999997E+02  0.45594000000E+02  0.51100000000E-03 0.  1.
    9900012    2    1    2    0    0 -0.20459787409E+02  0.27557788586E+02 -0.26562921228E+02  0.47787269629E+02  0.19999993545E+02 0.  0.
         12    1    1    2    0    0  0.20459787409E+02 -0.27557788586E+02  0.26562921228E+02  0.43400730371E+02  0.00000000000E+00 0. -1.
         11    1    3    3    0    0 -0.72344251527E+00 -0.13744320903E+01  0.79175010863E+00  0.17433591538E+01  0.51100000000E-03 0. -1.
        -11    1    3    3    0    0 -0.49196202565E+00  0.70188593312E+01 -0.95935954777E+01  0.11897205025E+02  0.51100000000E-03 0.  1.
        -12    1    3    3    0    0 -0.19244382868E+02  0.21913361346E+02 -0.17761075859E+02  0.34146705450E+02  0.00000000000E+00 0.  1.
</event>
<event>
 7    1  0.2492468E-009  0.4778727E+02  0.7816164E-02  0.1312668E+00
        -11   -1    0    0    0    0  0.00000000000E+00  0.00000000000E+00  0.45593999997E+02  0.45594000000E+02  0.51100000000E-03 0.  1.
         11   -1    0    0    0    0 -0.00000000000E+00 -0.00000000000E+00 -0.45593999997E+02  0.45594000000E+02  0.51100000000E-03 0. -1.
    9900012    2    1    2    0    0  0.25681192472E+01  0.41229893637E+02 -0.13308796488E+02  0.47787269249E+02  0.19999991813E+02 0.  0.
         12    1    1    2    0    0 -0.25681192472E+01 -0.41229893637E+02  0.13308796488E+02  0.43400730751E+02  0.00000000000E+00 0. -1.
         11    1    3    3    0    0  0.22126830471E+01  0.10618781064E+02 -0.71586008066E+01  0.12996154944E+02  0.51100000000E-03 0. -1.
        -11    1    3    3    0    0  0.67680091006E+01  0.73887608739E+01 -0.32062317946E+01  0.10520439963E+02  0.51100000000E-03 0.  1.
         12    1    3    3    0    0 -0.64125729005E+01  0.23222351699E+02 -0.29439638864E+01  0.24270674342E+02  0.00000000000E+00 0. -1.
</event>
<event>
 7    1  0.2492468E-009  0.4778727E+02  0.7816164E-02  0.1312668E+00
        -11   -1    0    0    0    0  0.00000000000E+00  0.00000000000E+00  0.45593999997E+02  0.45594000000E+02  0.51100000000E-03 0. -1.
         11   -1    0    0    0    0 -0.00000000000E+00 -0.00000000000E+00 -0.45593999997E+02  0.45594000000E+02  0.51100000000E-03 0.  1.
    9900012    2    1    2    0    0 -0.41794111227E+02  0.26002169940E+01 -0.11406770920E+02  0.47787270923E+02  0.19999999444E+02 0.  0.
         12    1    1    2    0    0  0.41794111227E+02 -0.26002169940E+01  0.11406770920E+02  0.43400729077E+02  0.00000000000E+00 0. -1.
         11    1    3    3    0    0 -0.10750377392E+02 -0.57689817054E+01 -0.16218379466E+01  0.12307807383E+02  0.51100000000E-03 0. -1.
        -11    1    3    3    0    0 -0.20143271849E+02  0.97608151457E+00 -0.95315025076E+01  0.22305911239E+02  0.51100000000E-03 0.  1.
         12    1    3    3    0    0 -0.10900461986E+02  0.73931171849E+01 -0.25343046538E+00  0.13173552301E+02  0.00000000000E+00 0. -1.
</event>
<event>
 7    1  0.2492468E-009  0.4778726E+02  0.7816164E-02  0.1312668E+00
        -11   -1    0    0    0    0  0.00000000000E+00  0.00000000000E+00  0.45593999997E+02  0.45594000000E+02  0.51100000000E-03 0.  1.
         11   -1    0    0    0    0 -0.00000000000E+00 -0.00000000000E+00 -0.45593999997E+02  0.45594000000E+02  0.51100000000E-03 0. -1.
    9900012    2    1    2    0    0 -0.22830551263E+02 -0.15768036188E+02  0.33373029818E+02  0.47787260888E+02  0.19999953694E+02 0.  0.
         12    1    1    2    0    0  0.22830551263E+02  0.15768036188E+02 -0.33373029818E+02  0.43400739112E+02  0.00000000000E+00 0. -1.
         11    1    3    3    0    0  0.16846004527E+01  0.10803227863E+01  0.32159612977E+01  0.37877939935E+01  0.51100000000E-03 0. -1.
        -11    1    3    3    0    0 -0.67436380991E+01 -0.95769695112E+01  0.17295274378E+02  0.20888310508E+02  0.51100000000E-03 0.  1.
        -12    1    3    3    0    0 -0.17771513616E+02 -0.72713894633E+01  0.12861794143E+02  0.23111156386E+02  0.00000000000E+00 0.  1.
</event>
<event>
 7    1  0.2492468E-009  0.4778727E+02  0.7816164E-02  0.1312668E+00
        -11   -1    0    0    0    0  0.00000000000E+00  0.00000000000E+00  0.45593999997E+02  0.45594000000E+02  0.51100000000E-03 0. -1.
         11   -1    0    0    0    0 -0.00000000000E+00 -0.00000000000E+00 -0.45593999997E+02  0.45594000000E+02  0.51100000000E-03 0.  1.
    9900012    2    1    2    0    0  0.39967486565E+02 -0.87588292698E+01 -0.14474329608E+02  0.47787270858E+02  0.19999999149E+02 0.  0.
         12    1    1    2    0    0 -0.39967486565E+02  0.87588292698E+01  0.14474329608E+02  0.43400729142E+02  0.00000000000E+00 0. -1.
         11    1    3    3    0    0  0.63193598160E+01 -0.60725038590E-01  0.25383844864E+01  0.68103885407E+01  0.51100000000E-03 0. -1.
        -11    1    3    3    0    0  0.19461265282E+02 -0.48080955127E+01 -0.23108063220E+01  0.20179158926E+02  0.51100000000E-03 0.  1.
         12    1    3    3    0    0  0.14186861466E+02 -0.38900087186E+01 -0.14701907772E+02  0.20797723391E+02  0.00000000000E+00 0. -1.
</event>
<event>
 7    1  0.2492468E-009  0.4778726E+02  0.7816164E-02  0.1312668E+00
        -11   -1    0    0    0    0  0.00000000000E+00  0.00000000000E+00  0.45593999997E+02  0.45594000000E+02  0.51100000000E-03 0.  1.
         11   -1    0    0    0    0 -0.00000000000E+00 -0.00000000000E+00 -0.45593999997E+02  0.45594000000E+02  0.51100000000E-03 0. -1.
    9900012    2    1    2    0    0 -0.23183409665E+02 -0.34155905583E+01  0.36530638463E+02  0.47787259349E+02  0.19999946676E+02 0.  0.
         12    1    1    2    0    0  0.23183409665E+02  0.34155905583E+01 -0.36530638463E+02  0.43400740651E+02  0.00000000000E+00 0. -1.
         11    1    3    3    0    0  0.99844161628E-01 -0.82456347086E+00  0.10368928688E+02  0.10402141903E+02  0.51100000000E-03 0. -1.
        -11    1    3    3    0    0 -0.13106031505E+02  0.27786203562E+01  0.20677002215E+02  0.24637922269E+02  0.51100000000E-03 0.  1.
         12    1    3    3    0    0 -0.10177222322E+02 -0.53696474437E+01  0.54847075596E+01  0.12747195177E+02  0.00000000000E+00 0. -1.
</event>
<event>
 7    1  0.2492468E-009  0.4778725E+02  0.7816164E-02  0.1312668E+00
        -11   -1    0    0    0    0  0.00000000000E+00  0.00000000000E+00  0.45593999997E+02  0.45594000000E+02  0.51100000000E-03 0.  1.
         11   -1    0    0    0    0 -0.00000000000E+00 -0.00000000000E+00 -0.45593999997E+02  0.45594000000E+02  0.51100000000E-03 0. -1.
    9900012    2    1    2    0    0  0.19957289092E+02 -0.45907016324E+01  0.38265618539E+02  0.47787245496E+02  0.19999883512E+02 0.  0.
         12    1    1    2    0    0 -0.19957289092E+02  0.45907016324E+01 -0.38265618539E+02  0.43400754504E+02  0.00000000000E+00 0. -1.
         11    1    3    3    0    0  0.33700681215E+01 -0.32023679027E+00 -0.28583915567E+00  0.33972952520E+01  0.51100000000E-03 0. -1.
        -11    1    3    3    0    0  0.13691893290E+02 -0.89680573962E+01  0.30741869551E+02  0.34827525595E+02  0.51100000000E-03 0.  1.
         12    1    3    3    0    0  0.28953276810E+01  0.46975925540E+01  0.78095881437E+01  0.95624246485E+01  0.00000000000E+00 0. -1.
</event>
<event>
 7    1  0.2492468E-009  0.4778727E+02  0.7816164E-02  0.1312668E+00
        -11   -1    0    0    0    0  0.00000000000E+00  0.00000000000E+00  0.45593999997E+02  0.45594000000E+02  0.51100000000E-03 0.  1.
         11   -1    0    0    0    0 -0.00000000000E+00 -0.00000000000E+00 -0.45593999997E+02  0.45594000000E+02  0.51100000000E-03 0. -1.
    9900012    2    1    2    0    0  0.32711356533E+02 -0.28451792316E+02 -0.20213933540E+01  0.47787270014E+02  0.19999995303E+02 0.  0.
         12    1    1    2    0    0 -0.32711356533E+02  0.28451792316E+02  0.20213933540E+01  0.43400729986E+02  0.00000000000E+00 0. -1.
         11    1    3    3    0    0  0.72012400916E+01 -0.10066516627E+02  0.26136328055E+01  0.12650047137E+02  0.51100000000E-03 0. -1.
        -11    1    3    3    0    0  0.13677162689E+02 -0.13264596474E+02  0.41959364003E+01  0.19509489521E+02  0.51100000000E-03 0.  1.
         12    1    3    3    0    0  0.11832953752E+02 -0.51206792147E+01 -0.88309625597E+01  0.15627733356E+02  0.00000000000E+00 0. -1.
</event>
<event>
 7    1  0.2492468E-009  0.4778727E+02  0.7816164E-02  0.1312668E+00
        -11   -1    0    0    0    0  0.00000000000E+00  0.00000000000E+00  0.45593999997E+02  0.45594000000E+02  0.51100000000E-03 0.  1.
         11   -1    0    0    0    0 -0.00000000000E+00 -0.00000000000E+00 -0.45593999997E+02  0.45594000000E+02  0.51100000000E-03 0. -1.
    9900012    2    1    2    0    0  0.19128664869E+02  0.95077680772E+01  0.37779886856E+02  0.47787270463E+02  0.19999997350E+02 0.  0.
         12    1    1    2    0    0 -0.19128664869E+02 -0.95077680772E+01 -0.37779886856E+02  0.43400729537E+02  0.00000000000E+00 0. -1.
         11    1    3    3    0    0  0.53236992340E+01 -0.14912176361E+00  0.18671976114E+01  0.56436192302E+01  0.51100000000E-03 0. -1.
        -11    1    3    3    0    0  0.90028641904E+01 -0.18361365299E+01  0.19342832294E+02  0.21414203753E+02  0.51100000000E-03 0.  1.
         12    1    3    3    0    0  0.48021014446E+01  0.11493026371E+02  0.16569856951E+02  0.20729447480E+02  0.00000000000E+00 0. -1.
</event>
<event>
 7    1  0.2492468E-009  0.4778727E+02  0.7816164E-02  0.1312668E+00
        -11   -1    0    0    0    0  0.00000000000E+00  0.00000000000E+00  0.45593999997E+02  0.45594000000E+02  0.51100000000E-03 0.  1.
         11   -1    0    0    0    0 -0.00000000000E+00 -0.00000000000E+00 -0.45593999997E+02  0.45594000000E+02  0.51100000000E-03 0. -1.
    9900012    2    1    2    0    0 -0.30795375225E+02  0.18083588994E+02  0.24662764193E+02  0.47787271160E+02  0.20000000529E+02 0.  0.
         12    1    1    2    0    0  0.30795375225E+02 -0.18083588994E+02 -0.24662764193E+02  0.43400728840E+02  0.00000000000E+00 0. -1.
         11    1    3    3    0    0 -0.23175550291E+02  0.11514320497E+02  0.20226762702E+02  0.32845207222E+02  0.51100000000E-03 0. -1.
        -11    1    3    3    0    0 -0.66012330125E+01  0.22030111106E+01  0.69219963874E+01  0.98154760194E+01  0.51100000000E-03 0.  1.
         12    1    3    3    0    0 -0.10185919220E+01  0.43662573864E+01 -0.24859948964E+01  0.51265879192E+01  0.00000000000E+00 0. -1.
</event>
<event>
 7    1  0.2492468E-009  0.4778733E+02  0.7816164E-02  0.1312667E+00
        -11   -1    0    0    0    0  0.00000000000E+00  0.00000000000E+00  0.45593999997E+02  0.45594000000E+02  0.51100000000E-03 0.  1.
         11   -1    0    0    0    0 -0.00000000000E+00 -0.00000000000E+00 -0.45593999997E+02  0.45594000000E+02  0.51100000000E-03 0. -1.
    9900012    2    1    2    0    0 -0.42489907957E+02 -0.88398453599E+01  0.28745802780E+00  0.47787334380E+02  0.20000288770E+02 0.  0.
         12    1    1    2    0    0  0.42489907957E+02  0.88398453599E+01 -0.28745802780E+00  0.43400665620E+02  0.00000000000E+00 0. -1.
         11    1    3    3    0    0 -0.25995866332E+00 -0.15147016244E+01  0.35215754606E+00  0.15766783806E+01  0.51100000000E-03 0. -1.
        -11    1    3    3    0    0 -0.33927981331E+02  0.11524081468E+01 -0.27041224330E+01  0.34055076569E+02  0.51100000000E-03 0.  1.
        -12    1    3    3    0    0 -0.83019679624E+01 -0.84775518823E+01  0.26394229148E+01  0.12155579430E+02  0.00000000000E+00 0.  1.
</event>
<event>
 7    1  0.2492468E-009  0.4778728E+02  0.7816164E-02  0.1312668E+00
        -11   -1    0    0    0    0  0.00000000000E+00  0.00000000000E+00  0.45593999997E+02  0.45594000000E+02  0.51100000000E-03 0. -1.
         11   -1    0    0    0    0 -0.00000000000E+00 -0.00000000000E+00 -0.45593999997E+02  0.45594000000E+02  0.51100000000E-03 0.  1.
    9900012    2    1    2    0    0 -0.50482766178E+01  0.30842766383E+02 -0.30114134612E+02  0.47787280670E+02  0.20000043887E+02 0.  0.
         12    1    1    2    0    0  0.50482766178E+01 -0.30842766383E+02  0.30114134612E+02  0.43400719330E+02  0.00000000000E+00 0. -1.
         11    1    3    3    0    0 -0.41477749089E+01  0.85825756863E+01 -0.16151445082E+02  0.18754567993E+02  0.51100000000E-03 0. -1.
        -11    1    3    3    0    0 -0.63132656308E+01  0.11659523322E+02 -0.95423690318E+01  0.16335807725E+02  0.51100000000E-03 0.  1.
         12    1    3    3    0    0  0.54127639219E+01  0.10600667375E+02 -0.44203204974E+01  0.12696904952E+02  0.00000000000E+00 0. -1.
</event>
<event>
 7    1  0.2492468E-009  0.4778727E+02  0.7816164E-02  0.1312668E+00
        -11   -1    0    0    0    0  0.00000000000E+00  0.00000000000E+00  0.45593999997E+02  0.45594000000E+02  0.51100000000E-03 0.  1.
         11   -1    0    0    0    0 -0.00000000000E+00 -0.00000000000E+00 -0.45593999997E+02  0.45594000000E+02  0.51100000000E-03 0. -1.
    9900012    2    1    2    0    0 -0.42781979283E+02  0.68241286949E+01  0.25994023956E+01  0.47787269861E+02  0.19999994603E+02 0.  0.
         12    1    1    2    0    0  0.42781979283E+02 -0.68241286949E+01 -0.25994023956E+01  0.43400730139E+02  0.00000000000E+00 0. -1.
         11    1    3    3    0    0 -0.15750089255E+02 -0.21347395268E+01 -0.30279512458E+01  0.16179954060E+02  0.51100000000E-03 0. -1.
        -11    1    3    3    0    0 -0.25327318508E+02  0.43862272896E+01  0.25327358383E+01  0.25828797953E+02  0.51100000000E-03 0.  1.
        -12    1    3    3    0    0 -0.17045715200E+01  0.45726409321E+01  0.30946178031E+01  0.57785178470E+01  0.00000000000E+00 0.  1.
</event>
<event>
 7    1  0.2492468E-009  0.4778728E+02  0.7816164E-02  0.1312668E+00
        -11   -1    0    0    0    0  0.00000000000E+00  0.00000000000E+00  0.45593999997E+02  0.45594000000E+02  0.51100000000E-03 0. -1.
         11   -1    0    0    0    0 -0.00000000000E+00 -0.00000000000E+00 -0.45593999997E+02  0.45594000000E+02  0.51100000000E-03 0.  1.
    9900012    2    1    2    0    0 -0.21658558644E+02  0.36141474539E+02 -0.10407861286E+02  0.47787275110E+02  0.20000018537E+02 0.  0.
         12    1    1    2    0    0  0.21658558644E+02 -0.36141474539E+02  0.10407861286E+02  0.43400724890E+02  0.00000000000E+00 0. -1.
         11    1    3    3    0    0  0.16305114495E+01  0.77550919332E+01 -0.33647848651E+01  0.86094016011E+01  0.51100000000E-03 0. -1.
        -11    1    3    3    0    0 -0.45173140287E+01  0.98599315559E+00 -0.34526128725E+01  0.57705150936E+01  0.51100000000E-03 0.  1.
         12    1    3    3    0    0 -0.18771756065E+02  0.27400389451E+02 -0.35904635484E+01  0.33407358415E+02  0.00000000000E+00 0. -1.
</event>
<event>
 7    1  0.2492468E-009  0.4778727E+02  0.7816164E-02  0.1312668E+00
        -11   -1    0    0    0    0  0.00000000000E+00  0.00000000000E+00  0.45593999997E+02  0.45594000000E+02  0.51100000000E-03 0.  1.
         11   -1    0    0    0    0 -0.00000000000E+00 -0.00000000000E+00 -0.45593999997E+02  0.45594000000E+02  0.51100000000E-03 0. -1.
    9900012    2    1    2    0    0  0.26209130119E+01  0.21732540980E+02  0.37476003466E+02  0.47787270072E+02  0.19999995567E+02 0.  0.
         12    1    1    2    0    0 -0.26209130119E+01 -0.21732540980E+02 -0.37476003466E+02  0.43400729928E+02  0.00000000000E+00 0. -1.
         11    1    3    3    0    0  0.16040636030E+01  0.29717611623E+01  0.19869339476E+02  0.20154280834E+02  0.51100000000E-03 0. -1.
        -11    1    3    3    0    0 -0.28250449730E+00  0.40788517552E+01  0.10503824800E+02  0.11271520577E+02  0.51100000000E-03 0.  1.
        -12    1    3    3    0    0  0.12993539062E+01  0.14681928062E+02  0.71028391908E+01  0.16361468662E+02  0.00000000000E+00 0.  1.
</event>
<event>
 7    1  0.2492468E-009  0.4778727E+02  0.7816164E-02  0.1312668E+00
        -11   -1    0    0    0    0  0.00000000000E+00  0.00000000000E+00  0.45593999997E+02  0.45594000000E+02  0.51100000000E-03 0.  1.
         11   -1    0    0    0    0 -0.00000000000E+00 -0.00000000000E+00 -0.45593999997E+02  0.45594000000E+02  0.51100000000E-03 0. -1.
    9900012    2    1    2    0    0 -0.41466843721E+02  0.10049788746E+02 -0.79451952982E+01  0.47787268321E+02  0.19999987581E+02 0.  0.
         12    1    1    2    0    0  0.41466843721E+02 -0.10049788746E+02  0.79451952982E+01  0.43400731679E+02  0.00000000000E+00 0. -1.
         11    1    3    3    0    0  0.14125640626E+01  0.17103031691E+00  0.78385436242E+00  0.16245050085E+01  0.51100000000E-03 0. -1.
        -11    1    3    3    0    0 -0.13852958144E+02  0.75473906414E+01 -0.61388102844E+01  0.16927863031E+02  0.51100000000E-03 0.  1.
        -12    1    3    3    0    0 -0.29026449639E+02  0.23313677875E+01 -0.25902393762E+01  0.29234900281E+02  0.00000000000E+00 0.  1.
</event>
<event>
 7    1  0.2492468E-009  0.4778727E+02  0.7816164E-02  0.1312668E+00
        -11   -1    0    0    0    0  0.00000000000E+00  0.00000000000E+00  0.45593999997E+02  0.45594000000E+02  0.51100000000E-03 0. -1.
         11   -1    0    0    0    0 -0.00000000000E+00 -0.00000000000E+00 -0.45593999997E+02  0.45594000000E+02  0.51100000000E-03 0.  1.
    9900012    2    1    2    0    0  0.29672061624E+02 -0.31284309871E+02 -0.49481388628E+01  0.47787270014E+02  0.19999995300E+02 0.  0.
         12    1    1    2    0    0 -0.29672061624E+02  0.31284309871E+02  0.49481388628E+01  0.43400729986E+02  0.00000000000E+00 0. -1.
         11    1    3    3    0    0  0.42889172162E+01 -0.56144557270E+01 -0.51327396887E+01  0.87328083096E+01  0.51100000000E-03 0. -1.
        -11    1    3    3    0    0  0.82695166109E+01 -0.18606055572E+02  0.19614156861E+01  0.20455252643E+02  0.51100000000E-03 0.  1.
         12    1    3    3    0    0  0.17113627797E+02 -0.70637985717E+01 -0.17768148601E+01  0.18599209061E+02  0.00000000000E+00 0. -1.
</event>
<event>
 7    1  0.2492468E-009  0.4778727E+02  0.7816164E-02  0.1312668E+00
        -11   -1    0    0    0    0  0.00000000000E+00  0.00000000000E+00  0.45593999997E+02  0.45594000000E+02  0.51100000000E-03 0.  1.
         11   -1    0    0    0    0 -0.00000000000E+00 -0.00000000000E+00 -0.45593999997E+02  0.45594000000E+02  0.51100000000E-03 0. -1.
    9900012    2    1    2    0    0  0.14089647685E+02  0.40177253711E+02  0.84198400699E+01  0.47787267352E+02  0.19999983163E+02 0.  0.
         12    1    1    2    0    0 -0.14089647685E+02 -0.40177253711E+02 -0.84198400699E+01  0.43400732648E+02  0.00000000000E+00 0. -1.
         11    1    3    3    0    0  0.23106919463E+01  0.14010040652E+02  0.54823430650E+01  0.15220927110E+02  0.51100000000E-03 0. -1.
        -11    1    3    3    0    0  0.27588761898E+01  0.20893344720E+02 -0.16826009482E+01  0.21141769028E+02  0.51100000000E-03 0.  1.
        -12    1    3    3    0    0  0.90200795485E+01  0.52738683377E+01  0.46200979531E+01  0.11424571213E+02  0.00000000000E+00 0.  1.
</event>
<event>
 7    1  0.2492468E-009  0.4778728E+02  0.7816164E-02  0.1312668E+00
        -11   -1    0    0    0    0  0.00000000000E+00  0.00000000000E+00  0.45593999997E+02  0.45594000000E+02  0.51100000000E-03 0.  1.
         11   -1    0    0    0    0 -0.00000000000E+00 -0.00000000000E+00 -0.45593999997E+02  0.45594000000E+02  0.51100000000E-03 0. -1.
    9900012    2    1    2    0    0 -0.10979991260E+02  0.23110637442E+02  0.35056534347E+02  0.47787281441E+02  0.20000047402E+02 0.  0.
         12    1    1    2    0    0  0.10979991260E+02 -0.23110637442E+02 -0.35056534347E+02  0.43400718559E+02  0.00000000000E+00 0. -1.
         11    1    3    3    0    0 -0.42729484574E+00  0.19473109907E+02  0.19017572667E+02  0.27222282431E+02  0.51100000000E-03 0.  1.
        -11    1    3    3    0    0 -0.27148229452E+01  0.32193862070E+01  0.24499499330E+01  0.48720597399E+01  0.51100000000E-03 0. -1.
        -12    1    3    3    0    0 -0.78378734692E+01  0.41814132755E+00  0.13589011746E+02  0.15692939270E+02  0.00000000000E+00 0.  1.
</event>
<event>
 7    1  0.2492468E-009  0.4778727E+02  0.7816164E-02  0.1312668E+00
        -11   -1    0    0    0    0  0.00000000000E+00  0.00000000000E+00  0.45593999997E+02  0.45594000000E+02  0.51100000000E-03 0.  1.
         11   -1    0    0    0    0 -0.00000000000E+00 -0.00000000000E+00 -0.45593999997E+02  0.45594000000E+02  0.51100000000E-03 0. -1.
    9900012    2    1    2    0    0 -0.29782123595E+02 -0.50978950592E+00  0.31565622310E+02  0.47787270939E+02  0.19999999521E+02 0.  0.
         12    1    1    2    0    0  0.29782123595E+02  0.50978950592E+00 -0.31565622310E+02  0.43400729061E+02  0.00000000000E+00 0. -1.
         11    1    3    3    0    0 -0.75045689714E+00 -0.21425235735E+01  0.96128827633E+00  0.24652927268E+01  0.51100000000E-03 0. -1.
        -11    1    3    3    0    0 -0.24356493221E+02 -0.52135137835E+01  0.20554821136E+02  0.32294274418E+02  0.51100000000E-03 0.  1.
         12    1    3    3    0    0 -0.46751734776E+01  0.68462478511E+01  0.10049512897E+02  0.13027703794E+02  0.00000000000E+00 0. -1.
</event>
<event>
 7    1  0.2492468E-009  0.4778727E+02  0.7816164E-02  0.1312668E+00
        -11   -1    0    0    0    0  0.00000000000E+00  0.00000000000E+00  0.45593999997E+02  0.45594000000E+02  0.51100000000E-03 0. -1.
         11   -1    0    0    0    0 -0.00000000000E+00 -0.00000000000E+00 -0.45593999997E+02  0.45594000000E+02  0.51100000000E-03 0.  1.
    9900012    2    1    2    0    0 -0.84899792832E+01 -0.42377354295E+02  0.39627373913E+01  0.47787271977E+02  0.20000004251E+02 0.  0.
         12    1    1    2    0    0  0.84899792832E+01  0.42377354295E+02 -0.39627373913E+01  0.43400728023E+02  0.00000000000E+00 0. -1.
         11    1    3    3    0    0 -0.32523993543E+00 -0.24808281247E+01  0.24240565892E+01  0.34837249904E+01  0.51100000000E-03 0. -1.
        -11    1    3    3    0    0 -0.85091360292E+01 -0.89418152765E+01 -0.37453471904E+01  0.12899189209E+02  0.51100000000E-03 0.  1.
        -12    1    3    3    0    0  0.34439668143E+00 -0.30954710894E+02  0.52840279925E+01  0.31404357778E+02  0.00000000000E+00 0.  1.
</event>
<event>
 7    1  0.2492468E-009  0.4778725E+02  0.7816164E-02  0.1312668E+00
        -11   -1    0    0    0    0  0.00000000000E+00  0.00000000000E+00  0.45593999997E+02  0.45594000000E+02  0.51100000000E-03 0.  1.
         11   -1    0    0    0    0 -0.00000000000E+00 -0.00000000000E+00 -0.45593999997E+02  0.45594000000E+02  0.51100000000E-03 0. -1.
    9900012    2    1    2    0    0 -0.41623440680E+02 -0.12199930760E+02 -0.15087746980E+01  0.47787245102E+02  0.19999881718E+02 0.  0.
         12    1    1    2    0    0  0.41623440680E+02  0.12199930760E+02  0.15087746980E+01  0.43400754898E+02  0.00000000000E+00 0. -1.
         11    1    3    3    0    0  0.27678466396E+00 -0.20490413071E+01 -0.36131269480E+01  0.41629156407E+01  0.51100000000E-03 0. -1.
        -11    1    3    3    0    0 -0.40621046006E+01 -0.20500085470E+01  0.18930634424E+01  0.49281759594E+01  0.51100000000E-03 0.  1.
        -12    1    3    3    0    0 -0.37838120744E+02 -0.81008809062E+01  0.21128880760E+00  0.38696153502E+02  0.00000000000E+00 0.  1.
</event>
<event>
 7    1  0.2600908E-009  0.4778727E+02  0.7816164E-02  0.1312668E+00
        -11   -1    0    0    0    0  0.00000000000E+00  0.00000000000E+00  0.45593999997E+02  0.45594000000E+02  0.51100000000E-03 0. -1.
         11   -1    0    0    0    0 -0.00000000000E+00 -0.00000000000E+00 -0.45593999997E+02  0.45594000000E+02  0.51100000000E-03 0.  1.
    9900012    2    1    2    0    0 -0.26552163902E+02 -0.29997077538E+02  0.16696745186E+02  0.47787269954E+02  0.19999995028E+02 0.  0.
         12    1    1    2    0    0  0.26552163902E+02  0.29997077538E+02 -0.16696745186E+02  0.43400730046E+02  0.00000000000E+00 0. -1.
         11    1    3    3    0    0 -0.96959543470E+01 -0.14638866539E+02  0.82504790274E+01  0.19400472898E+02  0.51100000000E-03 0. -1.
        -11    1    3    3    0    0 -0.14318577029E+02 -0.13210874783E+02  0.12497720991E+02  0.23146098827E+02  0.51100000000E-03 0.  1.
         12    1    3    3    0    0 -0.25376325263E+01 -0.21473362161E+01 -0.40514548325E+01  0.52406982286E+01  0.00000000000E+00 0. -1.
</event>
<event>
 7    1  0.2492468E-009  0.4778727E+02  0.7816164E-02  0.1312668E+00
        -11   -1    0    0    0    0  0.00000000000E+00  0.00000000000E+00  0.45593999997E+02  0.45594000000E+02  0.51100000000E-03 0. -1.
         11   -1    0    0    0    0 -0.00000000000E+00 -0.00000000000E+00 -0.45593999997E+02  0.45594000000E+02  0.51100000000E-03 0.  1.
    9900012    2    1    2    0    0 -0.29562633417E+02  0.22073472037E+02 -0.22856852506E+02  0.47787272255E+02  0.20000005520E+02 0.  0.
         12    1    1    2    0    0  0.29562633417E+02 -0.22073472037E+02  0.22856852506E+02  0.43400727745E+02  0.00000000000E+00 0. -1.
         11    1    3    3    0    0 -0.33215894743E+01  0.64385746798E+00  0.16758830293E+01  0.37757242039E+01  0.51100000000E-03 0. -1.
        -11    1    3    3    0    0 -0.18327580622E+02  0.63104722915E+01 -0.14595024573E+02  0.24263903531E+02  0.51100000000E-03 0.  1.
        -12    1    3    3    0    0 -0.79134633204E+01  0.15119142277E+02 -0.99377109624E+01  0.19747644520E+02  0.00000000000E+00 0.  1.
</event>
<event>
 7    1  0.2492468E-009  0.4778727E+02  0.7816164E-02  0.1312668E+00
        -11   -1    0    0    0    0  0.00000000000E+00  0.00000000000E+00  0.45593999997E+02  0.45594000000E+02  0.51100000000E-03 0.  1.
         11   -1    0    0    0    0 -0.00000000000E+00 -0.00000000000E+00 -0.45593999997E+02  0.45594000000E+02  0.51100000000E-03 0. -1.
    9900012    2    1    2    0    0 -0.56960890027E+01 -0.21412078886E+02  0.37318902033E+02  0.47787274187E+02  0.20000014328E+02 0.  0.
         12    1    1    2    0    0  0.56960890027E+01  0.21412078886E+02 -0.37318902033E+02  0.43400725813E+02  0.00000000000E+00 0. -1.
         11    1    3    3    0    0 -0.32004371134E+01 -0.17371050465E+01  0.44461739732E+01  0.57470683761E+01  0.51100000000E-03 0. -1.
        -11    1    3    3    0    0 -0.98890067466E+01 -0.10520752220E+02  0.18227735288E+02  0.23253580707E+02  0.51100000000E-03 0.  1.
         12    1    3    3    0    0  0.73933548573E+01 -0.91542216191E+01  0.14644992772E+02  0.18786625104E+02  0.00000000000E+00 0. -1.
</event>
<event>
 7    1  0.2492468E-009  0.4778727E+02  0.7816164E-02  0.1312668E+00
        -11   -1    0    0    0    0  0.00000000000E+00  0.00000000000E+00  0.45593999997E+02  0.45594000000E+02  0.51100000000E-03 0.  1.
         11   -1    0    0    0    0 -0.00000000000E+00 -0.00000000000E+00 -0.45593999997E+02  0.45594000000E+02  0.51100000000E-03 0. -1.
    9900012    2    1    2    0    0  0.24980280506E+02  0.97411792189E+01  0.34127968972E+02  0.47787271286E+02  0.20000001103E+02 0.  0.
         12    1    1    2    0    0 -0.24980280506E+02 -0.97411792189E+01 -0.34127968972E+02  0.43400728714E+02  0.00000000000E+00 0. -1.
         11    1    3    3    0    0  0.29306598627E+01 -0.24496829132E+01  0.87120072569E+00  0.39177422799E+01  0.51100000000E-03 0. -1.
        -11    1    3    3    0    0  0.96236485316E+00  0.60799388877E+01  0.42042622986E+01  0.74543695056E+01  0.51100000000E-03 0.  1.
        -12    1    3    3    0    0  0.21087255790E+02  0.61109232444E+01  0.29052505948E+02  0.36415159501E+02  0.00000000000E+00 0.  1.
</event>
<event>
 7    1  0.2492468E-009  0.4778727E+02  0.7816164E-02  0.1312668E+00
        -11   -1    0    0    0    0  0.00000000000E+00  0.00000000000E+00  0.45593999997E+02  0.45594000000E+02  0.51100000000E-03 0.  1.
         11   -1    0    0    0    0 -0.00000000000E+00 -0.00000000000E+00 -0.45593999997E+02  0.45594000000E+02  0.51100000000E-03 0. -1.
    9900012    2    1    2    0    0 -0.36632432159E+02 -0.14173990791E+02 -0.18460397316E+02  0.47787269938E+02  0.19999994957E+02 0.  0.
         12    1    1    2    0    0  0.36632432159E+02  0.14173990791E+02  0.18460397316E+02  0.43400730062E+02  0.00000000000E+00 0. -1.
         11    1    3    3    0    0 -0.17991227754E+02 -0.15655490625E+01 -0.14737154322E+02  0.23309202855E+02  0.51100000000E-03 0. -1.
        -11    1    3    3    0    0 -0.65747035876E+00  0.10159602568E+01  0.82196766897E+00  0.14628990485E+01  0.51100000000E-03 0.  1.
        -12    1    3    3    0    0 -0.17983734046E+02 -0.13624401985E+02 -0.45452106625E+01  0.23015168035E+02  0.00000000000E+00 0.  1.
</event>
<event>
 7    1  0.2492468E-009  0.4778730E+02  0.7816164E-02  0.1312668E+00
        -11   -1    0    0    0    0  0.00000000000E+00  0.00000000000E+00  0.45593999997E+02  0.45594000000E+02  0.51100000000E-03 0. -1.
         11   -1    0    0    0    0 -0.00000000000E+00 -0.00000000000E+00 -0.45593999997E+02  0.45594000000E+02  0.51100000000E-03 0.  1.
    9900012    2    1    2    0    0 -0.22455280294E+02  0.14345863976E+02 -0.34257510921E+02  0.47787303222E+02  0.20000146712E+02 0.  0.
         12    1    1    2    0    0  0.22455280294E+02 -0.14345863976E+02  0.34257510921E+02  0.43400696778E+02  0.00000000000E+00 0. -1.
         11    1    3    3    0    0 -0.97322401467E+01  0.29946334611E+01 -0.24212374989E+02  0.26266393561E+02  0.51100000000E-03 0. -1.
        -11    1    3    3    0    0 -0.20991865332E+01 -0.12145516408E+01 -0.43111467369E+00  0.24632458084E+01  0.51100000000E-03 0.  1.
        -12    1    3    3    0    0 -0.10623853614E+02  0.12565782155E+02 -0.96140212588E+01  0.19057663853E+02  0.00000000000E+00 0.  1.
</event>
<event>
 7    1  0.2492468E-009  0.4778726E+02  0.7816164E-02  0.1312668E+00
        -11   -1    0    0    0    0  0.00000000000E+00  0.00000000000E+00  0.45593999997E+02  0.45594000000E+02  0.51100000000E-03 0.  1.
         11   -1    0    0    0    0 -0.00000000000E+00 -0.00000000000E+00 -0.45593999997E+02  0.45594000000E+02  0.51100000000E-03 0. -1.
    9900012    2    1    2    0    0  0.56184864803E+01  0.30790733584E+02  0.30066380918E+02  0.47787263526E+02  0.19999965722E+02 0.  0.
         12    1    1    2    0    0 -0.56184864803E+01 -0.30790733584E+02 -0.30066380918E+02  0.43400736474E+02  0.00000000000E+00 0. -1.
         11    1    3    3    0    0  0.77240566335E+01  0.21649186985E+01  0.80306118440E+01  0.11350711462E+02  0.51100000000E-03 0. -1.
        -11    1    3    3    0    0 -0.54825983780E+00  0.53605857851E+01  0.63794326948E+01  0.83506664751E+01  0.51100000000E-03 0.  1.
         12    1    3    3    0    0 -0.15573103153E+01  0.23265229101E+02  0.15656336379E+02  0.28085885589E+02  0.00000000000E+00 0. -1.
</event>
<event>
 7    1  0.2492468E-009  0.4778727E+02  0.7816164E-02  0.1312668E+00
        -11   -1    0    0    0    0  0.00000000000E+00  0.00000000000E+00  0.45593999997E+02  0.45594000000E+02  0.51100000000E-03 0.  1.
         11   -1    0    0    0    0 -0.00000000000E+00 -0.00000000000E+00 -0.45593999997E+02  0.45594000000E+02  0.51100000000E-03 0. -1.
    9900012    2    1    2    0    0  0.21935922312E+01 -0.43161875702E+02 -0.39829967661E+01  0.47787267008E+02  0.19999981597E+02 0.  0.
         12    1    1    2    0    0 -0.21935922312E+01  0.43161875702E+02  0.39829967661E+01  0.43400732992E+02  0.00000000000E+00 0. -1.
         11    1    3    3    0    0  0.11626190730E+01  0.75710441401E+00  0.16342643349E+01  0.21437608029E+01  0.51100000000E-03 0. -1.
        -11    1    3    3    0    0  0.48806677963E+01 -0.10229314607E+02 -0.23729491675E+01  0.11579753170E+02  0.51100000000E-03 0.  1.
        -12    1    3    3    0    0 -0.38496946381E+01 -0.33689665509E+02 -0.32443119335E+01  0.34063753035E+02  0.00000000000E+00 0.  1.
</event>
<event>
 7    1  0.2492468E-009  0.4778727E+02  0.7816164E-02  0.1312668E+00
        -11   -1    0    0    0    0  0.00000000000E+00  0.00000000000E+00  0.45593999997E+02  0.45594000000E+02  0.51100000000E-03 0. -1.
         11   -1    0    0    0    0 -0.00000000000E+00 -0.00000000000E+00 -0.45593999997E+02  0.45594000000E+02  0.51100000000E-03 0.  1.
    9900012    2    1    2    0    0 -0.14319336013E+02 -0.40786605351E+02 -0.38771901766E+01  0.47787272315E+02  0.20000005793E+02 0.  0.
         12    1    1    2    0    0  0.14319336013E+02  0.40786605351E+02  0.38771901766E+01  0.43400727685E+02  0.00000000000E+00 0. -1.
         11    1    3    3    0    0 -0.21727754153E+01 -0.28885501136E+01  0.32730192567E+01  0.48762003732E+01  0.51100000000E-03 0. -1.
        -11    1    3    3    0    0 -0.48036014806E+01 -0.16530913549E+02  0.40632987675E+01  0.17687738326E+02  0.51100000000E-03 0.  1.
        -12    1    3    3    0    0 -0.73429591171E+01 -0.21367141688E+02 -0.11213508201E+02  0.25223333616E+02  0.00000000000E+00 0.  1.
</event>
<event>
 7    1  0.2492468E-009  0.4778727E+02  0.7816164E-02  0.1312668E+00
        -11   -1    0    0    0    0  0.00000000000E+00  0.00000000000E+00  0.45593999997E+02  0.45594000000E+02  0.51100000000E-03 0. -1.
         11   -1    0    0    0    0 -0.00000000000E+00 -0.00000000000E+00 -0.45593999997E+02  0.45594000000E+02  0.51100000000E-03 0.  1.
    9900012    2    1    2    0    0  0.19928528811E+01 -0.33187044399E+02  0.27897526205E+02  0.47787270203E+02  0.19999996164E+02 0.  0.
         12    1    1    2    0    0 -0.19928528811E+01  0.33187044399E+02 -0.27897526205E+02  0.43400729797E+02  0.00000000000E+00 0. -1.
         11    1    3    3    0    0 -0.16925568414E+01 -0.47205077156E+01  0.91654862897E+01  0.10447683042E+02  0.51100000000E-03 0. -1.
        -11    1    3    3    0    0  0.16887110209E+01 -0.26730145314E+02  0.10628957632E+02  0.28815397863E+02  0.51100000000E-03 0.  1.
        -12    1    3    3    0    0  0.19966987016E+01 -0.17363913694E+01  0.81030822838E+01  0.85241892982E+01  0.00000000000E+00 0.  1.
</event>
<event>
 7    1  0.2492468E-009  0.4778727E+02  0.7816164E-02  0.1312668E+00
        -11   -1    0    0    0    0  0.00000000000E+00  0.00000000000E+00  0.45593999997E+02  0.45594000000E+02  0.51100000000E-03 0.  1.
         11   -1    0    0    0    0 -0.00000000000E+00 -0.00000000000E+00 -0.45593999997E+02  0.45594000000E+02  0.51100000000E-03 0. -1.
    9900012    2    1    2    0    0 -0.37172574396E+02  0.15628187025E+02  0.16049387396E+02  0.47787270136E+02  0.19999995858E+02 0.  0.
         12    1    1    2    0    0  0.37172574396E+02 -0.15628187025E+02 -0.16049387396E+02  0.43400729864E+02  0.00000000000E+00 0. -1.
         11    1    3    3    0    0 -0.33403028011E+02  0.11562030700E+02  0.14333753319E+02  0.38143142486E+02  0.51100000000E-03 0.  1.
        -11    1    3    3    0    0 -0.28408130867E+01 -0.68003642350E+00 -0.20044435093E+01  0.35426632036E+01  0.51100000000E-03 0. -1.
        -12    1    3    3    0    0 -0.92873329859E+00  0.47461927483E+01  0.37200775865E+01  0.61014644467E+01  0.00000000000E+00 0.  1.
</event>
<event>
 7    1  0.2492468E-009  0.4778727E+02  0.7816164E-02  0.1312668E+00
        -11   -1    0    0    0    0  0.00000000000E+00  0.00000000000E+00  0.45593999997E+02  0.45594000000E+02  0.51100000000E-03 0.  1.
         11   -1    0    0    0    0 -0.00000000000E+00 -0.00000000000E+00 -0.45593999997E+02  0.45594000000E+02  0.51100000000E-03 0. -1.
    9900012    2    1    2    0    0 -0.27610741432E+02  0.18066960661E+02  0.28193178383E+02  0.47787269392E+02  0.19999992466E+02 0.  0.
         12    1    1    2    0    0  0.27610741432E+02 -0.18066960661E+02 -0.28193178383E+02  0.43400730608E+02  0.00000000000E+00 0. -1.
         11    1    3    3    0    0 -0.62764195818E+01 -0.83562758342E+00  0.62639746067E+01  0.89066881813E+01  0.51100000000E-03 0. -1.
        -11    1    3    3    0    0 -0.10782539370E+02  0.20563034465E+01  0.13206948659E+02  0.17173090353E+02  0.51100000000E-03 0.  1.
         12    1    3    3    0    0 -0.10551782481E+02  0.16846284798E+02  0.87222551178E+01  0.21707490858E+02  0.00000000000E+00 0. -1.
</event>
<event>
 7    1  0.2492468E-009  0.4778727E+02  0.7816164E-02  0.1312668E+00
        -11   -1    0    0    0    0  0.00000000000E+00  0.00000000000E+00  0.45593999997E+02  0.45594000000E+02  0.51100000000E-03 0. -1.
         11   -1    0    0    0    0 -0.00000000000E+00 -0.00000000000E+00 -0.45593999997E+02  0.45594000000E+02  0.51100000000E-03 0.  1.
    9900012    2    1    2    0    0  0.26796969392E+01 -0.15316187879E+01 -0.43290841440E+02  0.47787267467E+02  0.19999983689E+02 0.  0.
         12    1    1    2    0    0 -0.26796969392E+01  0.15316187879E+01  0.43290841440E+02  0.43400732533E+02  0.00000000000E+00 0. -1.
         11    1    3    3    0    0 -0.69933461944E+01 -0.27206443559E+01 -0.91986099812E+01  0.11871108733E+02  0.51100000000E-03 0. -1.
        -11    1    3    3    0    0  0.40334195476E+00  0.96007247000E+00 -0.10739670047E+02  0.10790038780E+02  0.51100000000E-03 0.  1.
         12    1    3    3    0    0  0.92697011788E+01  0.22895309798E+00 -0.23352561412E+02  0.25126119954E+02  0.00000000000E+00 0. -1.
</event>
<event>
 7    1  0.2492468E-009  0.4778727E+02  0.7816164E-02  0.1312668E+00
        -11   -1    0    0    0    0  0.00000000000E+00  0.00000000000E+00  0.45593999997E+02  0.45594000000E+02  0.51100000000E-03 0. -1.
         11   -1    0    0    0    0 -0.00000000000E+00 -0.00000000000E+00 -0.45593999997E+02  0.45594000000E+02  0.51100000000E-03 0.  1.
    9900012    2    1    2    0    0 -0.38951184675E+01 -0.35824192776E+02 -0.24188393289E+02  0.47787272980E+02  0.20000008824E+02 0.  0.
         12    1    1    2    0    0  0.38951184675E+01  0.35824192776E+02  0.24188393289E+02  0.43400727020E+02  0.00000000000E+00 0. -1.
         11    1    3    3    0    0  0.79019851780E+00  0.50441300361E+00 -0.94238219220E+00  0.13292594303E+01  0.51100000000E-03 0. -1.
        -11    1    3    3    0    0 -0.54282702013E+01 -0.25688106690E+02 -0.72607989083E+01  0.27240854314E+02  0.51100000000E-03 0.  1.
        -12    1    3    3    0    0  0.74295321603E+00 -0.10640499090E+02 -0.15985212189E+02  0.19217159235E+02  0.00000000000E+00 0.  1.
</event>
<event>
 7    1  0.2492468E-009  0.4778726E+02  0.7816164E-02  0.1312668E+00
        -11   -1    0    0    0    0  0.00000000000E+00  0.00000000000E+00  0.45593999997E+02  0.45594000000E+02  0.51100000000E-03 0. -1.
         11   -1    0    0    0    0 -0.00000000000E+00 -0.00000000000E+00 -0.45593999997E+02  0.45594000000E+02  0.51100000000E-03 0.  1.
    9900012    2    1    2    0    0  0.28299648563E+02  0.30533845871E+02 -0.12265320824E+02  0.47787263285E+02  0.19999964623E+02 0.  0.
         12    1    1    2    0    0 -0.28299648563E+02 -0.30533845871E+02  0.12265320824E+02  0.43400736715E+02  0.00000000000E+00 0. -1.
         11    1    3    3    0    0  0.91606154897E+01  0.16189075987E+02 -0.64567045067E+01  0.19689898192E+02  0.51100000000E-03 0. -1.
        -11    1    3    3    0    0  0.14646179949E+02  0.15839362497E+02 -0.78285838003E+01  0.22949568972E+02  0.51100000000E-03 0.  1.
         12    1    3    3    0    0  0.44928531244E+01 -0.14945926130E+01  0.20199674835E+01  0.51477961217E+01  0.00000000000E+00 0. -1.
</event>
<event>
 7    1  0.2492468E-009  0.4778728E+02  0.7816164E-02  0.1312668E+00
        -11   -1    0    0    0    0  0.00000000000E+00  0.00000000000E+00  0.45593999997E+02  0.45594000000E+02  0.51100000000E-03 0.  1.
         11   -1    0    0    0    0 -0.00000000000E+00 -0.00000000000E+00 -0.45593999997E+02  0.45594000000E+02  0.51100000000E-03 0. -1.
    9900012    2    1    2    0    0 -0.32662018364E+02  0.63864787639E+01  0.27857281289E+02  0.47787277938E+02  0.20000031432E+02 0.  0.
         12    1    1    2    0    0  0.32662018364E+02 -0.63864787639E+01 -0.27857281289E+02  0.43400722062E+02  0.00000000000E+00 0. -1.
         11    1    3    3    0    0 -0.86307521831E+01 -0.47310421583E+01  0.58855914955E+01  0.11467904371E+02  0.51100000000E-03 0. -1.
        -11    1    3    3    0    0 -0.53468720649E+01 -0.14756709837E+01  0.82392022171E+01  0.99323259695E+01  0.51100000000E-03 0.  1.
        -12    1    3    3    0    0 -0.18684394116E+02  0.12593191906E+02  0.13732487577E+02  0.26387047598E+02  0.00000000000E+00 0.  1.
</event>
<event>
 7    1  0.2492468E-009  0.4778728E+02  0.7816164E-02  0.1312668E+00
        -11   -1    0    0    0    0  0.00000000000E+00  0.00000000000E+00  0.45593999997E+02  0.45594000000E+02  0.51100000000E-03 0. -1.
         11   -1    0    0    0    0 -0.00000000000E+00 -0.00000000000E+00 -0.45593999997E+02  0.45594000000E+02  0.51100000000E-03 0.  1.
    9900012    2    1    2    0    0 -0.31029597043E+02 -0.29023829766E+02 -0.88545932510E+01  0.47787281013E+02  0.20000045451E+02 0.  0.
         12    1    1    2    0    0  0.31029597043E+02  0.29023829766E+02  0.88545932510E+01  0.43400718987E+02  0.00000000000E+00 0. -1.
         11    1    3    3    0    0 -0.61510506400E+01 -0.57746096658E+01 -0.35922801351E+00  0.84445595382E+01  0.51100000000E-03 0.  1.
        -11    1    3    3    0    0 -0.34474730109E+01 -0.93799261966E+01  0.41911080311E+01  0.10836672571E+02  0.51100000000E-03 0. -1.
         12    1    3    3    0    0 -0.21431073392E+02 -0.13869293904E+02 -0.12686473269E+02  0.28506048904E+02  0.00000000000E+00 0. -1.
</event>
<event>
 7    1  0.2492468E-009  0.4778726E+02  0.7816164E-02  0.1312668E+00
        -11   -1    0    0    0    0  0.00000000000E+00  0.00000000000E+00  0.45593999997E+02  0.45594000000E+02  0.51100000000E-03 0.  1.
         11   -1    0    0    0    0 -0.00000000000E+00 -0.00000000000E+00 -0.45593999997E+02  0.45594000000E+02  0.51100000000E-03 0. -1.
    9900012    2    1    2    0    0  0.37587040675E+02  0.17764365182E+02 -0.12460566540E+02  0.47787262500E+02  0.19999961044E+02 0.  0.
         12    1    1    2    0    0 -0.37587040675E+02 -0.17764365182E+02  0.12460566540E+02  0.43400737500E+02  0.00000000000E+00 0. -1.
         11    1    3    3    0    0  0.14804582975E+02  0.38770217208E+01 -0.12710383231E+02  0.19893738126E+02  0.51100000000E-03 0. -1.
        -11    1    3    3    0    0  0.13369988021E+02  0.80514030164E+01 -0.38656487438E+01  0.16078709857E+02  0.51100000000E-03 0.  1.
         12    1    3    3    0    0  0.94124696792E+01  0.58359404453E+01  0.41154654342E+01  0.11814814518E+02  0.00000000000E+00 0. -1.
</event>
<event>
 7    1  0.2492468E-009  0.4778727E+02  0.7816164E-02  0.1312668E+00
        -11   -1    0    0    0    0  0.00000000000E+00  0.00000000000E+00  0.45593999997E+02  0.45594000000E+02  0.51100000000E-03 0.  1.
         11   -1    0    0    0    0 -0.00000000000E+00 -0.00000000000E+00 -0.45593999997E+02  0.45594000000E+02  0.51100000000E-03 0. -1.
    9900012    2    1    2    0    0 -0.27728607876E+02  0.59826264533E+01  0.32847465406E+02  0.47787268467E+02  0.19999988248E+02 0.  0.
         12    1    1    2    0    0  0.27728607876E+02 -0.59826264533E+01 -0.32847465406E+02  0.43400731533E+02  0.00000000000E+00 0. -1.
         11    1    3    3    0    0  0.16755435908E+01 -0.60068864488E+00  0.60546079775E+01  0.63108280911E+01  0.51100000000E-03 0. -1.
        -11    1    3    3    0    0 -0.13434893696E+02 -0.40962328596E+00  0.16307428238E+02  0.21132826972E+02  0.51100000000E-03 0.  1.
        -12    1    3    3    0    0 -0.15969257771E+02  0.69929383842E+01  0.10485429191E+02  0.20343613404E+02  0.00000000000E+00 0.  1.
</event>
<event>
 7    1  0.2492468E-009  0.4778727E+02  0.7816164E-02  0.1312668E+00
        -11   -1    0    0    0    0  0.00000000000E+00  0.00000000000E+00  0.45593999997E+02  0.45594000000E+02  0.51100000000E-03 0.  1.
         11   -1    0    0    0    0 -0.00000000000E+00 -0.00000000000E+00 -0.45593999997E+02  0.45594000000E+02  0.51100000000E-03 0. -1.
    9900012    2    1    2    0    0 -0.95925879909E+01 -0.42109806595E+02 -0.42860121034E+01  0.47787268951E+02  0.19999990456E+02 0.  0.
         12    1    1    2    0    0  0.95925879909E+01  0.42109806595E+02  0.42860121034E+01  0.43400731049E+02  0.00000000000E+00 0. -1.
         11    1    3    3    0    0  0.35159390144E+01 -0.16190866054E+02 -0.65732607527E+00  0.16581255940E+02  0.51100000000E-03 0. -1.
        -11    1    3    3    0    0 -0.55317062157E+01 -0.21305521788E+02 -0.37786496731E+01  0.22333903061E+02  0.51100000000E-03 0.  1.
         12    1    3    3    0    0 -0.75768207897E+01 -0.46134187530E+01  0.14996364491E+00  0.88721099500E+01  0.00000000000E+00 0. -1.
</event>
<event>
 7    1  0.2492468E-009  0.4778727E+02  0.7816164E-02  0.1312668E+00
        -11   -1    0    0    0    0  0.00000000000E+00  0.00000000000E+00  0.45593999997E+02  0.45594000000E+02  0.51100000000E-03 0.  1.
         11   -1    0    0    0    0 -0.00000000000E+00 -0.00000000000E+00 -0.45593999997E+02  0.45594000000E+02  0.51100000000E-03 0. -1.
    9900012    2    1    2    0    0 -0.26823294751E+02  0.30601817979E+02 -0.15088494544E+02  0.47787273364E+02  0.20000010575E+02 0.  0.
         12    1    1    2    0    0  0.26823294751E+02 -0.30601817979E+02  0.15088494544E+02  0.43400726636E+02  0.00000000000E+00 0. -1.
         11    1    3    3    0    0 -0.15400861029E+02  0.14399329397E+02 -0.66418721888E+01  0.22105240871E+02  0.51100000000E-03 0. -1.
        -11    1    3    3    0    0 -0.67162199684E+01  0.15456480863E+02 -0.10523557539E+01  0.16885433493E+02  0.51100000000E-03 0.  1.
         12    1    3    3    0    0 -0.47062137534E+01  0.74600771930E+00 -0.73942666009E+01  0.87965990005E+01  0.00000000000E+00 0. -1.
</event>
<event>
 7    1  0.2492468E-009  0.4778727E+02  0.7816164E-02  0.1312668E+00
        -11   -1    0    0    0    0  0.00000000000E+00  0.00000000000E+00  0.45593999997E+02  0.45594000000E+02  0.51100000000E-03 0. -1.
         11   -1    0    0    0    0 -0.00000000000E+00 -0.00000000000E+00 -0.45593999997E+02  0.45594000000E+02  0.51100000000E-03 0.  1.
    9900012    2    1    2    0    0 -0.22646294633E+02 -0.29746971890E+02 -0.22042820963E+02  0.47787274738E+02  0.20000016842E+02 0.  0.
         12    1    1    2    0    0  0.22646294633E+02  0.29746971890E+02  0.22042820963E+02  0.43400725262E+02  0.00000000000E+00 0. -1.
         11    1    3    3    0    0 -0.50317754743E+01 -0.52373674422E+01 -0.32791501630E+01  0.79687896321E+01  0.51100000000E-03 0. -1.
        -11    1    3    3    0    0 -0.15587556344E+02 -0.26777999457E+02 -0.13627028228E+02  0.33848619858E+02  0.51100000000E-03 0.  1.
         12    1    3    3    0    0 -0.20269628147E+01  0.22683950095E+01 -0.51366425716E+01  0.59698652481E+01  0.00000000000E+00 0. -1.
</event>
<event>
 7    1  0.2492468E-009  0.4778727E+02  0.7816164E-02  0.1312668E+00
        -11   -1    0    0    0    0  0.00000000000E+00  0.00000000000E+00  0.45593999997E+02  0.45594000000E+02  0.51100000000E-03 0.  1.
         11   -1    0    0    0    0 -0.00000000000E+00 -0.00000000000E+00 -0.45593999997E+02  0.45594000000E+02  0.51100000000E-03 0. -1.
    9900012    2    1    2    0    0 -0.87379274756E+01  0.38644880715E+02  0.17715672851E+02  0.47787271359E+02  0.20000001433E+02 0.  0.
         12    1    1    2    0    0  0.87379274756E+01 -0.38644880715E+02 -0.17715672851E+02  0.43400728641E+02  0.00000000000E+00 0. -1.
         11    1    3    3    0    0 -0.40960602034E+01  0.62561610186E+01  0.73528612364E+01  0.10487222154E+02  0.51100000000E-03 0. -1.
        -11    1    3    3    0    0  0.25842398143E+01  0.17570117262E+02  0.10840868041E+02  0.20806531093E+02  0.51100000000E-03 0.  1.
         12    1    3    3    0    0 -0.72261070866E+01  0.14818602435E+02 -0.47805642650E+00  0.16493518111E+02  0.00000000000E+00 0. -1.
</event>
<event>
 7    1  0.2492468E-009  0.4778728E+02  0.7816164E-02  0.1312668E+00
        -11   -1    0    0    0    0  0.00000000000E+00  0.00000000000E+00  0.45593999997E+02  0.45594000000E+02  0.51100000000E-03 0. -1.
         11   -1    0    0    0    0 -0.00000000000E+00 -0.00000000000E+00 -0.45593999997E+02  0.45594000000E+02  0.51100000000E-03 0.  1.
    9900012    2    1    2    0    0  0.11345213643E+02 -0.39950069910E+02  0.12605590288E+02  0.47787275755E+02  0.20000021479E+02 0.  0.
         12    1    1    2    0    0 -0.11345213643E+02  0.39950069910E+02 -0.12605590288E+02  0.43400724245E+02  0.00000000000E+00 0. -1.
         11    1    3    3    0    0  0.64775413083E+01 -0.20672600205E+01  0.90345515695E-01  0.68000197034E+01  0.51100000000E-03 0. -1.
        -11    1    3    3    0    0 -0.16489557998E+01 -0.66012288834E+01  0.40471710315E+00  0.68160893623E+01  0.51100000000E-03 0.  1.
        -12    1    3    3    0    0  0.65166281344E+01 -0.31281581006E+02  0.12110527670E+02  0.34171166690E+02  0.00000000000E+00 0.  1.
</event>
<event>
 7    1  0.2492468E-009  0.4778727E+02  0.7816164E-02  0.1312668E+00
        -11   -1    0    0    0    0  0.00000000000E+00  0.00000000000E+00  0.45593999997E+02  0.45594000000E+02  0.51100000000E-03 0.  1.
         11   -1    0    0    0    0 -0.00000000000E+00 -0.00000000000E+00 -0.45593999997E+02  0.45594000000E+02  0.51100000000E-03 0. -1.
    9900012    2    1    2    0    0 -0.86543712422E+01  0.21967822820E+02  0.36416202542E+02  0.47787272027E+02  0.20000004480E+02 0.  0.
         12    1    1    2    0    0  0.86543712422E+01 -0.21967822820E+02 -0.36416202542E+02  0.43400727973E+02  0.00000000000E+00 0. -1.
         11    1    3    3    0    0 -0.73093416833E+01  0.16335824269E+02  0.20249439457E+02  0.27024533835E+02  0.51100000000E-03 0. -1.
        -11    1    3    3    0    0 -0.47375387312E+01  0.49901488441E+01  0.15869803569E+02  0.17297298179E+02  0.51100000000E-03 0.  1.
         12    1    3    3    0    0  0.33925091723E+01  0.64184970665E+00  0.29695951499E+00  0.34654400130E+01  0.00000000000E+00 0. -1.
</event>
<event>
 7    1  0.2492468E-009  0.4778727E+02  0.7816164E-02  0.1312668E+00
        -11   -1    0    0    0    0  0.00000000000E+00  0.00000000000E+00  0.45593999997E+02  0.45594000000E+02  0.51100000000E-03 0.  1.
         11   -1    0    0    0    0 -0.00000000000E+00 -0.00000000000E+00 -0.45593999997E+02  0.45594000000E+02  0.51100000000E-03 0. -1.
    9900012    2    1    2    0    0  0.21866469044E+02 -0.28218674242E+02  0.24681713963E+02  0.47787273640E+02  0.20000011834E+02 0.  0.
         12    1    1    2    0    0 -0.21866469044E+02  0.28218674242E+02 -0.24681713963E+02  0.43400726360E+02  0.00000000000E+00 0. -1.
         11    1    3    3    0    0  0.24764327039E+01 -0.14270352546E+02  0.44288215933E+01  0.15145631109E+02  0.51100000000E-03 0. -1.
        -11    1    3    3    0    0  0.53658361169E+00 -0.30562510310E+01  0.55824719662E+01  0.63869073777E+01  0.51100000000E-03 0.  1.
        -12    1    3    3    0    0  0.18853452729E+02 -0.10892070665E+02  0.14670420403E+02  0.26254735154E+02  0.00000000000E+00 0.  1.
</event>
<event>
 7    1  0.2492468E-009  0.4778731E+02  0.7816164E-02  0.1312668E+00
        -11   -1    0    0    0    0  0.00000000000E+00  0.00000000000E+00  0.45593999997E+02  0.45594000000E+02  0.51100000000E-03 0.  1.
         11   -1    0    0    0    0 -0.00000000000E+00 -0.00000000000E+00 -0.45593999997E+02  0.45594000000E+02  0.51100000000E-03 0. -1.
    9900012    2    1    2    0    0  0.17032768727E+02  0.83832819022E+00  0.39909925346E+02  0.47787307082E+02  0.20000164307E+02 0.  0.
         12    1    1    2    0    0 -0.17032768727E+02 -0.83832819022E+00 -0.39909925346E+02  0.43400692918E+02  0.00000000000E+00 0. -1.
         11    1    3    3    0    0  0.52735079284E+01  0.26939454599E+01  0.24911086341E+02  0.25605262174E+02  0.51100000000E-03 0. -1.
        -11    1    3    3    0    0  0.13289608396E+01  0.39972337439E+01  0.53855475786E+01  0.68372609647E+01  0.51100000000E-03 0.  1.
        -12    1    3    3    0    0  0.10430299959E+02 -0.58528510137E+01  0.96132914264E+01  0.15344783943E+02  0.00000000000E+00 0.  1.
</event>
<event>
 7    1  0.2492468E-009  0.4778727E+02  0.7816164E-02  0.1312668E+00
        -11   -1    0    0    0    0  0.00000000000E+00  0.00000000000E+00  0.45593999997E+02  0.45594000000E+02  0.51100000000E-03 0.  1.
         11   -1    0    0    0    0 -0.00000000000E+00 -0.00000000000E+00 -0.45593999997E+02  0.45594000000E+02  0.51100000000E-03 0. -1.
    9900012    2    1    2    0    0  0.32386302323E+02  0.10965192520E+02  0.26730418999E+02  0.47787270455E+02  0.19999997313E+02 0.  0.
         12    1    1    2    0    0 -0.32386302323E+02 -0.10965192520E+02 -0.26730418999E+02  0.43400729545E+02  0.00000000000E+00 0. -1.
         11    1    3    3    0    0  0.17771013875E+02  0.35628494752E+00  0.10817181953E+02  0.20807385679E+02  0.51100000000E-03 0. -1.
        -11    1    3    3    0    0  0.77675853364E+01  0.28099473608E+01  0.34258084387E+00  0.82673180672E+01  0.51100000000E-03 0.  1.
        -12    1    3    3    0    0  0.68477031116E+01  0.77989602121E+01  0.15570656202E+02  0.18712566709E+02  0.00000000000E+00 0.  1.
</event>
<event>
 7    1  0.2492468E-009  0.4778730E+02  0.7816164E-02  0.1312668E+00
        -11   -1    0    0    0    0  0.00000000000E+00  0.00000000000E+00  0.45593999997E+02  0.45594000000E+02  0.51100000000E-03 0. -1.
         11   -1    0    0    0    0 -0.00000000000E+00 -0.00000000000E+00 -0.45593999997E+02  0.45594000000E+02  0.51100000000E-03 0.  1.
    9900012    2    1    2    0    0 -0.36250445469E+02  0.44315090158E+01 -0.23449677246E+02  0.47787303787E+02  0.20000149284E+02 0.  0.
         12    1    1    2    0    0  0.36250445469E+02 -0.44315090158E+01  0.23449677246E+02  0.43400696213E+02  0.00000000000E+00 0. -1.
         11    1    3    3    0    0 -0.17490529613E+02  0.38155662369E+01 -0.14044940958E+02  0.22753846678E+02  0.51100000000E-03 0.  1.
        -11    1    3    3    0    0 -0.43200515431E+01  0.46694526524E+01 -0.76251397597E+01  0.99302260813E+01  0.51100000000E-03 0. -1.
         12    1    3    3    0    0 -0.14439864313E+02 -0.40535098736E+01 -0.17795965277E+01  0.15103231028E+02  0.00000000000E+00 0. -1.
</event>
<event>
 7    1  0.2492468E-009  0.4778727E+02  0.7816164E-02  0.1312668E+00
        -11   -1    0    0    0    0  0.00000000000E+00  0.00000000000E+00  0.45593999997E+02  0.45594000000E+02  0.51100000000E-03 0.  1.
         11   -1    0    0    0    0 -0.00000000000E+00 -0.00000000000E+00 -0.45593999997E+02  0.45594000000E+02  0.51100000000E-03 0. -1.
    9900012    2    1    2    0    0 -0.15765819824E+02 -0.30242582293E+02  0.26841170405E+02  0.47787270891E+02  0.19999999301E+02 0.  0.
         12    1    1    2    0    0  0.15765819824E+02  0.30242582293E+02 -0.26841170405E+02  0.43400729109E+02  0.00000000000E+00 0. -1.
         11    1    3    3    0    0 -0.13405613880E+01 -0.11266159539E+02  0.27572673079E+00  0.11348985906E+02  0.51100000000E-03 0. -1.
        -11    1    3    3    0    0 -0.58418088580E+00 -0.28553737608E+01  0.68852166487E+01  0.74766727347E+01  0.51100000000E-03 0.  1.
        -12    1    3    3    0    0 -0.13841077550E+02 -0.16121048993E+02  0.19680227026E+02  0.28961612251E+02  0.00000000000E+00 0.  1.
</event>
<event>
 7    1  0.2492468E-009  0.4778727E+02  0.7816164E-02  0.1312668E+00
        -11   -1    0    0    0    0  0.00000000000E+00  0.00000000000E+00  0.45593999997E+02  0.45594000000E+02  0.51100000000E-03 0.  1.
         11   -1    0    0    0    0 -0.00000000000E+00 -0.00000000000E+00 -0.45593999997E+02  0.45594000000E+02  0.51100000000E-03 0. -1.
    9900012    2    1    2    0    0 -0.62581756391E+01  0.26773188821E+02  0.33580569903E+02  0.47787273312E+02  0.20000010340E+02 0.  0.
         12    1    1    2    0    0  0.62581756391E+01 -0.26773188821E+02 -0.33580569903E+02  0.43400726688E+02  0.00000000000E+00 0. -1.
         11    1    3    3    0    0 -0.24136844510E+01  0.28097493311E+01 -0.50415096819E+00  0.37382793358E+01  0.51100000000E-03 0. -1.
        -11    1    3    3    0    0 -0.13117346131E+01  0.85329378832E+01  0.28031871877E+01  0.90768681430E+01  0.51100000000E-03 0.  1.
        -12    1    3    3    0    0 -0.25327565750E+01  0.15430501607E+02  0.31281533684E+02  0.34972125834E+02  0.00000000000E+00 0.  1.
</event>
<event>
 7    1  0.2492468E-009  0.4778727E+02  0.7816164E-02  0.1312668E+00
        -11   -1    0    0    0    0  0.00000000000E+00  0.00000000000E+00  0.45593999997E+02  0.45594000000E+02  0.51100000000E-03 0. -1.
         11   -1    0    0    0    0 -0.00000000000E+00 -0.00000000000E+00 -0.45593999997E+02  0.45594000000E+02  0.51100000000E-03 0.  1.
    9900012    2    1    2    0    0  0.13070445092E+02 -0.32944440869E+02 -0.25048967012E+02  0.47787268815E+02  0.19999989833E+02 0.  0.
         12    1    1    2    0    0 -0.13070445092E+02  0.32944440869E+02  0.25048967012E+02  0.43400731185E+02  0.00000000000E+00 0. -1.
         11    1    3    3    0    0 -0.38921051033E+01 -0.44205957976E+01  0.19836868651E+00  0.58931739952E+01  0.51100000000E-03 0. -1.
        -11    1    3    3    0    0  0.20615971861E+01 -0.63942813846E+01 -0.43295401858E+01  0.79926175853E+01  0.51100000000E-03 0.  1.
        -12    1    3    3    0    0  0.14900953009E+02 -0.22129563687E+02 -0.20917795513E+02  0.33901477234E+02  0.00000000000E+00 0.  1.
</event>
<event>
 7    1  0.2492468E-009  0.4778727E+02  0.7816164E-02  0.1312668E+00
        -11   -1    0    0    0    0  0.00000000000E+00  0.00000000000E+00  0.45593999997E+02  0.45594000000E+02  0.51100000000E-03 0.  1.
         11   -1    0    0    0    0 -0.00000000000E+00 -0.00000000000E+00 -0.45593999997E+02  0.45594000000E+02  0.51100000000E-03 0. -1.
    9900012    2    1    2    0    0  0.36418135737E+02  0.84971049192E+01  0.22025936298E+02  0.47787271062E+02  0.20000000081E+02 0.  0.
         12    1    1    2    0    0 -0.36418135737E+02 -0.84971049192E+01 -0.22025936298E+02  0.43400728938E+02  0.00000000000E+00 0. -1.
         11    1    3    3    0    0  0.17925476169E+02  0.49880540769E-01  0.13679590972E+02  0.22548977657E+02  0.51100000000E-03 0. -1.
        -11    1    3    3    0    0  0.16688303574E+02  0.22211383639E+01  0.36314279510E+01  0.17222665329E+02  0.51100000000E-03 0.  1.
         12    1    3    3    0    0  0.18043559942E+01  0.62260860145E+01  0.47149173745E+01  0.80156280766E+01  0.00000000000E+00 0. -1.
</event>
<event>
 7    1  0.2492468E-009  0.4778727E+02  0.7816164E-02  0.1312668E+00
        -11   -1    0    0    0    0  0.00000000000E+00  0.00000000000E+00  0.45593999997E+02  0.45594000000E+02  0.51100000000E-03 0. -1.
         11   -1    0    0    0    0 -0.00000000000E+00 -0.00000000000E+00 -0.45593999997E+02  0.45594000000E+02  0.51100000000E-03 0.  1.
    9900012    2    1    2    0    0 -0.40294653908E+02 -0.16074318983E+02  0.12571303781E+01  0.47787271422E+02  0.20000001721E+02 0.  0.
         12    1    1    2    0    0  0.40294653908E+02  0.16074318983E+02 -0.12571303781E+01  0.43400728578E+02  0.00000000000E+00 0. -1.
         11    1    3    3    0    0  0.97403825563E+00 -0.33334902829E+01 -0.17490755013E+01  0.38884667107E+01  0.51100000000E-03 0. -1.
        -11    1    3    3    0    0 -0.19628198231E+02 -0.23229656914E+01  0.18898048499E+01  0.19855319137E+02  0.51100000000E-03 0.  1.
         12    1    3    3    0    0 -0.21640493933E+02 -0.10417863009E+02  0.11164010295E+01  0.24043485575E+02  0.00000000000E+00 0. -1.
</event>
<event>
 7    1  0.2492468E-009  0.4778725E+02  0.7816164E-02  0.1312668E+00
        -11   -1    0    0    0    0  0.00000000000E+00  0.00000000000E+00  0.45593999997E+02  0.45594000000E+02  0.51100000000E-03 0.  1.
         11   -1    0    0    0    0 -0.00000000000E+00 -0.00000000000E+00 -0.45593999997E+02  0.45594000000E+02  0.51100000000E-03 0. -1.
    9900012    2    1    2    0    0  0.29204399368E+02  0.28688240837E+02  0.14412243735E+02  0.47787252607E+02  0.19999915936E+02 0.  0.
         12    1    1    2    0    0 -0.29204399368E+02 -0.28688240837E+02 -0.14412243735E+02  0.43400747393E+02  0.00000000000E+00 0. -1.
         11    1    3    3    0    0 -0.27951979038E+00  0.58222294402E+01 -0.90516502167E+00  0.58987974152E+01  0.51100000000E-03 0. -1.
        -11    1    3    3    0    0  0.32150813786E+01  0.45710739487E+01 -0.14185834329E+01  0.57657475259E+01  0.51100000000E-03 0.  1.
        -12    1    3    3    0    0  0.26268837780E+02  0.18294937448E+02  0.16735992189E+02  0.36122707666E+02  0.00000000000E+00 0.  1.
</event>
<event>
 7    1  0.2492468E-009  0.4778727E+02  0.7816164E-02  0.1312668E+00
        -11   -1    0    0    0    0  0.00000000000E+00  0.00000000000E+00  0.45593999997E+02  0.45594000000E+02  0.51100000000E-03 0.  1.
         11   -1    0    0    0    0 -0.00000000000E+00 -0.00000000000E+00 -0.45593999997E+02  0.45594000000E+02  0.51100000000E-03 0. -1.
    9900012    2    1    2    0    0  0.33844151697E+02  0.26638456213E+02  0.53469066258E+01  0.47787270006E+02  0.19999995267E+02 0.  0.
         12    1    1    2    0    0 -0.33844151697E+02 -0.26638456213E+02 -0.53469066258E+01  0.43400729994E+02  0.00000000000E+00 0. -1.
         11    1    3    3    0    0  0.33344946176E+01  0.62302570948E+00  0.97411370257E+00  0.35292935775E+01  0.51100000000E-03 0. -1.
        -11    1    3    3    0    0 -0.38439296172E-01  0.85734284266E+01 -0.11498003010E+01  0.86502712998E+01  0.51100000000E-03 0.  1.
        -12    1    3    3    0    0  0.30548096376E+02  0.17442002077E+02  0.55225932242E+01  0.35607705129E+02  0.00000000000E+00 0.  1.
</event>
<event>
 7    1  0.2492468E-009  0.4778727E+02  0.7816164E-02  0.1312668E+00
        -11   -1    0    0    0    0  0.00000000000E+00  0.00000000000E+00  0.45593999997E+02  0.45594000000E+02  0.51100000000E-03 0. -1.
         11   -1    0    0    0    0 -0.00000000000E+00 -0.00000000000E+00 -0.45593999997E+02  0.45594000000E+02  0.51100000000E-03 0.  1.
    9900012    2    1    2    0    0  0.24946111729E+02  0.32124098215E+02 -0.15144544167E+02  0.47787269654E+02  0.19999993660E+02 0.  0.
         12    1    1    2    0    0 -0.24946111729E+02 -0.32124098215E+02  0.15144544167E+02  0.43400730346E+02  0.00000000000E+00 0. -1.
         11    1    3    3    0    0  0.14706985771E+02  0.28754123609E+02 -0.12555657998E+02  0.34651689757E+02  0.51100000000E-03 0. -1.
        -11    1    3    3    0    0  0.71128271059E+01  0.20176651589E+01 -0.50323256227E+01  0.89435777833E+01  0.51100000000E-03 0.  1.
        -12    1    3    3    0    0  0.31262988525E+01  0.13523094476E+01  0.24434394541E+01  0.41920021139E+01  0.00000000000E+00 0.  1.
</event>
<event>
 7    1  0.2492468E-009  0.4778727E+02  0.7816164E-02  0.1312668E+00
        -11   -1    0    0    0    0  0.00000000000E+00  0.00000000000E+00  0.45593999997E+02  0.45594000000E+02  0.51100000000E-03 0. -1.
         11   -1    0    0    0    0 -0.00000000000E+00 -0.00000000000E+00 -0.45593999997E+02  0.45594000000E+02  0.51100000000E-03 0.  1.
    9900012    2    1    2    0    0 -0.23512571130E+02 -0.28782206901E+02 -0.22413539791E+02  0.47787271882E+02  0.20000003819E+02 0.  0.
         12    1    1    2    0    0  0.23512571130E+02  0.28782206901E+02  0.22413539791E+02  0.43400728118E+02  0.00000000000E+00 0. -1.
         11    1    3    3    0    0 -0.11683520847E+02 -0.18814298286E+02 -0.10168152610E+02  0.24369526199E+02  0.51100000000E-03 0. -1.
        -11    1    3    3    0    0 -0.61378361658E+01 -0.10589393927E+02 -0.12745658149E+02  0.17670882786E+02  0.51100000000E-03 0.  1.
        -12    1    3    3    0    0 -0.56912141168E+01  0.62148531193E+00  0.50027096840E+00  0.57468628971E+01  0.00000000000E+00 0.  1.
</event>
<event>
 7    1  0.2492468E-009  0.4778727E+02  0.7816164E-02  0.1312668E+00
        -11   -1    0    0    0    0  0.00000000000E+00  0.00000000000E+00  0.45593999997E+02  0.45594000000E+02  0.51100000000E-03 0. -1.
         11   -1    0    0    0    0 -0.00000000000E+00 -0.00000000000E+00 -0.45593999997E+02  0.45594000000E+02  0.51100000000E-03 0.  1.
    9900012    2    1    2    0    0 -0.18554552156E+02  0.37343926562E+02 -0.12032568965E+02  0.47787274514E+02  0.20000015820E+02 0.  0.
         12    1    1    2    0    0  0.18554552156E+02 -0.37343926562E+02  0.12032568965E+02  0.43400725486E+02  0.00000000000E+00 0. -1.
         11    1    3    3    0    0 -0.15148177597E+01  0.13736037391E+02 -0.22454954811E+01  0.14000558784E+02  0.51100000000E-03 0. -1.
        -11    1    3    3    0    0 -0.25885563864E+01  0.95149398223E+01 -0.93616737958E+01  0.13596898194E+02  0.51100000000E-03 0.  1.
         12    1    3    3    0    0 -0.14451178010E+02  0.14092949349E+02 -0.42539968828E+00  0.20189817536E+02  0.00000000000E+00 0. -1.
</event>
<event>
 7    1  0.2492468E-009  0.4778727E+02  0.7816164E-02  0.1312668E+00
        -11   -1    0    0    0    0  0.00000000000E+00  0.00000000000E+00  0.45593999997E+02  0.45594000000E+02  0.51100000000E-03 0. -1.
         11   -1    0    0    0    0 -0.00000000000E+00 -0.00000000000E+00 -0.45593999997E+02  0.45594000000E+02  0.51100000000E-03 0.  1.
    9900012    2    1    2    0    0 -0.38384005224E+02 -0.95564215706E+01 -0.17859622625E+02  0.47787272234E+02  0.20000005425E+02 0.  0.
         12    1    1    2    0    0  0.38384005224E+02  0.95564215706E+01  0.17859622625E+02  0.43400727766E+02  0.00000000000E+00 0. -1.
         11    1    3    3    0    0 -0.76422145232E+01  0.60559752083E+01 -0.38492360502E+01  0.10483076694E+02  0.51100000000E-03 0. -1.
        -11    1    3    3    0    0 -0.82571460176E+01 -0.39723403636E+01 -0.25423717189E+01  0.95091325860E+01  0.51100000000E-03 0.  1.
         12    1    3    3    0    0 -0.22484644683E+02 -0.11640056415E+02 -0.11468014856E+02  0.27795062954E+02  0.00000000000E+00 0. -1.
</event>
<event>
 7    1  0.2492468E-009  0.4778727E+02  0.7816164E-02  0.1312668E+00
        -11   -1    0    0    0    0  0.00000000000E+00  0.00000000000E+00  0.45593999997E+02  0.45594000000E+02  0.51100000000E-03 0.  1.
         11   -1    0    0    0    0 -0.00000000000E+00 -0.00000000000E+00 -0.45593999997E+02  0.45594000000E+02  0.51100000000E-03 0. -1.
    9900012    2    1    2    0    0  0.36244934583E+02  0.21684855451E+02  0.99847480790E+01  0.47787269211E+02  0.19999991641E+02 0.  0.
         12    1    1    2    0    0 -0.36244934583E+02 -0.21684855451E+02 -0.99847480790E+01  0.43400730789E+02  0.00000000000E+00 0. -1.
         11    1    3    3    0    0  0.37003354679E+01  0.20263430974E+00 -0.25355375960E+01  0.44902666291E+01  0.51100000000E-03 0. -1.
        -11    1    3    3    0    0  0.93522375991E+01  0.63229535179E+01 -0.28070754417E+01  0.11632874198E+02  0.51100000000E-03 0.  1.
        -12    1    3    3    0    0  0.23192361516E+02  0.15159267623E+02  0.15327361117E+02  0.31664128384E+02  0.00000000000E+00 0.  1.
</event>
<event>
 7    1  0.2492468E-009  0.4778727E+02  0.7816164E-02  0.1312668E+00
        -11   -1    0    0    0    0  0.00000000000E+00  0.00000000000E+00  0.45593999997E+02  0.45594000000E+02  0.51100000000E-03 0.  1.
         11   -1    0    0    0    0 -0.00000000000E+00 -0.00000000000E+00 -0.45593999997E+02  0.45594000000E+02  0.51100000000E-03 0. -1.
    9900012    2    1    2    0    0  0.11451613063E+02  0.30299896340E+02  0.28885984374E+02  0.47787271282E+02  0.20000001083E+02 0.  0.
         12    1    1    2    0    0 -0.11451613063E+02 -0.30299896340E+02 -0.28885984374E+02  0.43400728718E+02  0.00000000000E+00 0. -1.
         11    1    3    3    0    0  0.81629047424E+00  0.21778978298E+01  0.66267803192E+01  0.70230895448E+01  0.51100000000E-03 0. -1.
        -11    1    3    3    0    0 -0.33927275405E+01  0.11858143134E+02  0.10937368000E+02  0.16484907576E+02  0.51100000000E-03 0.  1.
         12    1    3    3    0    0  0.14028050130E+02  0.16263855376E+02  0.11321836055E+02  0.24279274161E+02  0.00000000000E+00 0. -1.
</event>
<event>
 7    1  0.2492468E-009  0.4778727E+02  0.7816164E-02  0.1312668E+00
        -11   -1    0    0    0    0  0.00000000000E+00  0.00000000000E+00  0.45593999997E+02  0.45594000000E+02  0.51100000000E-03 0.  1.
         11   -1    0    0    0    0 -0.00000000000E+00 -0.00000000000E+00 -0.45593999997E+02  0.45594000000E+02  0.51100000000E-03 0. -1.
    9900012    2    1    2    0    0 -0.17053605014E+02 -0.50026134585E+01  0.39595096673E+02  0.47787271136E+02  0.20000000416E+02 0.  0.
         12    1    1    2    0    0  0.17053605014E+02  0.50026134585E+01 -0.39595096673E+02  0.43400728864E+02  0.00000000000E+00 0. -1.
         11    1    3    3    0    0 -0.47883214930E+01 -0.82664391628E+01  0.19866018741E+02  0.22043609959E+02  0.51100000000E-03 0. -1.
        -11    1    3    3    0    0 -0.94422557548E+01 -0.27735357770E+01  0.12539468207E+02  0.15940105320E+02  0.51100000000E-03 0.  1.
         12    1    3    3    0    0 -0.28230277662E+01  0.60373614813E+01  0.71896097251E+01  0.98035558561E+01  0.00000000000E+00 0. -1.
</event>
<event>
 7    1  0.2492468E-009  0.4778727E+02  0.7816164E-02  0.1312668E+00
        -11   -1    0    0    0    0  0.00000000000E+00  0.00000000000E+00  0.45593999997E+02  0.45594000000E+02  0.51100000000E-03 0.  1.
         11   -1    0    0    0    0 -0.00000000000E+00 -0.00000000000E+00 -0.45593999997E+02  0.45594000000E+02  0.51100000000E-03 0. -1.
    9900012    2    1    2    0    0 -0.19456658045E+02  0.22511559869E+02  0.31595748332E+02  0.47787272095E+02  0.20000004790E+02 0.  0.
         12    1    1    2    0    0  0.19456658045E+02 -0.22511559869E+02 -0.31595748332E+02  0.43400727905E+02  0.00000000000E+00 0. -1.
         11    1    3    3    0    0 -0.69258595890E+01  0.74748382459E+01  0.10178251773E+02  0.14402692361E+02  0.51100000000E-03 0. -1.
        -11    1    3    3    0    0 -0.15723488812E+02  0.13109122332E+02  0.13193823941E+02  0.24354756808E+02  0.51100000000E-03 0.  1.
         12    1    3    3    0    0  0.31926903558E+01  0.19275992914E+01  0.82236726183E+01  0.90298229257E+01  0.00000000000E+00 0. -1.
</event>
<event>
 7    1  0.2492468E-009  0.4778727E+02  0.7816164E-02  0.1312668E+00
        -11   -1    0    0    0    0  0.00000000000E+00  0.00000000000E+00  0.45593999997E+02  0.45594000000E+02  0.51100000000E-03 0.  1.
         11   -1    0    0    0    0 -0.00000000000E+00 -0.00000000000E+00 -0.45593999997E+02  0.45594000000E+02  0.51100000000E-03 0. -1.
    9900012    2    1    2    0    0 -0.21973495712E+02 -0.71247815099E+01  0.36742704969E+02  0.47787269663E+02  0.19999993700E+02 0.  0.
         12    1    1    2    0    0  0.21973495712E+02  0.71247815099E+01 -0.36742704969E+02  0.43400730337E+02  0.00000000000E+00 0. -1.
         11    1    3    3    0    0 -0.88821146864E+01 -0.88003484940E+01  0.15172676855E+02  0.19660829538E+02  0.51100000000E-03 0.  1.
        -11    1    3    3    0    0  0.22601717049E+01 -0.45317032203E+00  0.14272818793E+01  0.27112493984E+01  0.51100000000E-03 0. -1.
        -12    1    3    3    0    0 -0.15351552731E+02  0.21287373061E+01  0.20142746234E+02  0.25415190726E+02  0.00000000000E+00 0.  1.
</event>
<event>
 7    1  0.2492468E-009  0.4778725E+02  0.7816164E-02  0.1312668E+00
        -11   -1    0    0    0    0  0.00000000000E+00  0.00000000000E+00  0.45593999997E+02  0.45594000000E+02  0.51100000000E-03 0.  1.
         11   -1    0    0    0    0 -0.00000000000E+00 -0.00000000000E+00 -0.45593999997E+02  0.45594000000E+02  0.51100000000E-03 0. -1.
    9900012    2    1    2    0    0  0.23822863623E+02  0.30839907202E+02  0.19104868534E+02  0.47787254509E+02  0.19999924608E+02 0.  0.
         12    1    1    2    0    0 -0.23822863623E+02 -0.30839907202E+02 -0.19104868534E+02  0.43400745491E+02  0.00000000000E+00 0. -1.
         11    1    3    3    0    0  0.16806189266E+02  0.25400668530E+02  0.13851517150E+02  0.33459026989E+02  0.51100000000E-03 0.  1.
        -11    1    3    3    0    0  0.77596014850E+01  0.47081691653E+01  0.75501046074E+01  0.11806030321E+02  0.51100000000E-03 0. -1.
        -12    1    3    3    0    0 -0.74292712796E+00  0.73106950718E+00 -0.22967532234E+01  0.25221971991E+01  0.00000000000E+00 0.  1.
</event>
<event>
 7    1  0.2492468E-009  0.4778727E+02  0.7816164E-02  0.1312668E+00
        -11   -1    0    0    0    0  0.00000000000E+00  0.00000000000E+00  0.45593999997E+02  0.45594000000E+02  0.51100000000E-03 0.  1.
         11   -1    0    0    0    0 -0.00000000000E+00 -0.00000000000E+00 -0.45593999997E+02  0.45594000000E+02  0.51100000000E-03 0. -1.
    9900012    2    1    2    0    0  0.19732461009E+02  0.35766551723E+02  0.14663108388E+02  0.47787274347E+02  0.20000015057E+02 0.  0.
         12    1    1    2    0    0 -0.19732461009E+02 -0.35766551723E+02 -0.14663108388E+02  0.43400725653E+02  0.00000000000E+00 0. -1.
         11    1    3    3    0    0  0.54767232937E+01  0.77536453184E+01  0.87739781166E+01  0.12926569770E+02  0.51100000000E-03 0. -1.
        -11    1    3    3    0    0 -0.27765444067E+01  0.34018724620E+01  0.13109815352E+01  0.45826420258E+01  0.51100000000E-03 0.  1.
        -12    1    3    3    0    0  0.17032282122E+02  0.24611033943E+02  0.45781487364E+01  0.30278062551E+02  0.00000000000E+00 0.  1.
</event>
<event>
 7    1  0.2492468E-009  0.4778728E+02  0.7816164E-02  0.1312668E+00
        -11   -1    0    0    0    0  0.00000000000E+00  0.00000000000E+00  0.45593999997E+02  0.45594000000E+02  0.51100000000E-03 0.  1.
         11   -1    0    0    0    0 -0.00000000000E+00 -0.00000000000E+00 -0.45593999997E+02  0.45594000000E+02  0.51100000000E-03 0. -1.
    9900012    2    1    2    0    0 -0.34460034847E+02 -0.24707628002E+02 -0.92553491798E+01  0.47787281440E+02  0.20000047396E+02 0.  0.
         12    1    1    2    0    0  0.34460034847E+02  0.24707628002E+02  0.92553491798E+01  0.43400718560E+02  0.00000000000E+00 0. -1.
         11    1    3    3    0    0 -0.12411059528E+02 -0.52100451403E+01 -0.38326790701E+01  0.13995299143E+02  0.51100000000E-03 0. -1.
        -11    1    3    3    0    0 -0.14049416534E+02 -0.14939453790E+02 -0.10750185113E+02  0.23154694227E+02  0.51100000000E-03 0.  1.
         12    1    3    3    0    0 -0.79995587845E+01 -0.45581290713E+01  0.53275150037E+01  0.10637288070E+02  0.00000000000E+00 0. -1.
</event>
<event>
 7    1  0.2492468E-009  0.4778727E+02  0.7816164E-02  0.1312668E+00
        -11   -1    0    0    0    0  0.00000000000E+00  0.00000000000E+00  0.45593999997E+02  0.45594000000E+02  0.51100000000E-03 0.  1.
         11   -1    0    0    0    0 -0.00000000000E+00 -0.00000000000E+00 -0.45593999997E+02  0.45594000000E+02  0.51100000000E-03 0. -1.
    9900012    2    1    2    0    0  0.91447607889E+01 -0.39938339728E+02  0.14315231293E+02  0.47787268704E+02  0.19999989327E+02 0.  0.
         12    1    1    2    0    0 -0.91447607889E+01  0.39938339728E+02 -0.14315231293E+02  0.43400731296E+02  0.00000000000E+00 0. -1.
         11    1    3    3    0    0  0.16113475768E+01  0.16096405033E+01  0.16171397788E+01  0.27932999997E+01  0.51100000000E-03 0. -1.
        -11    1    3    3    0    0 -0.56283754647E+00 -0.13249808632E+01  0.22225934855E+01  0.26480714594E+01  0.51100000000E-03 0.  1.
        -12    1    3    3    0    0  0.80962507585E+01 -0.40222999368E+02  0.10475498028E+02  0.42345897244E+02  0.00000000000E+00 0.  1.
</event>
<event>
 7    1  0.2492468E-009  0.4778727E+02  0.7816164E-02  0.1312668E+00
        -11   -1    0    0    0    0  0.00000000000E+00  0.00000000000E+00  0.45593999997E+02  0.45594000000E+02  0.51100000000E-03 0.  1.
         11   -1    0    0    0    0 -0.00000000000E+00 -0.00000000000E+00 -0.45593999997E+02  0.45594000000E+02  0.51100000000E-03 0. -1.
    9900012    2    1    2    0    0  0.42884561695E+02  0.60846590244E+01 -0.27412551934E+01  0.47787272042E+02  0.20000004550E+02 0.  0.
         12    1    1    2    0    0 -0.42884561695E+02 -0.60846590244E+01  0.27412551934E+01  0.43400727958E+02  0.00000000000E+00 0. -1.
         11    1    3    3    0    0  0.25485175676E+02  0.90463610722E+00 -0.34908333234E+01  0.25739045500E+02  0.51100000000E-03 0. -1.
        -11    1    3    3    0    0  0.17351087316E+02  0.90842206231E+00  0.22512707553E+01  0.17520093663E+02  0.51100000000E-03 0.  1.
         12    1    3    3    0    0  0.48298703327E-01  0.42716008549E+01 -0.15016926253E+01  0.45281328789E+01  0.00000000000E+00 0. -1.
</event>
<event>
 7    1  0.2492468E-009  0.4778727E+02  0.7816164E-02  0.1312668E+00
        -11   -1    0    0    0    0  0.00000000000E+00  0.00000000000E+00  0.45593999997E+02  0.45594000000E+02  0.51100000000E-03 0.  1.
         11   -1    0    0    0    0 -0.00000000000E+00 -0.00000000000E+00 -0.45593999997E+02  0.45594000000E+02  0.51100000000E-03 0. -1.
    9900012    2    1    2    0    0 -0.11212351498E+02 -0.40084111708E+02  0.12295141500E+02  0.47787270259E+02  0.19999996417E+02 0.  0.
         12    1    1    2    0    0  0.11212351498E+02  0.40084111708E+02 -0.12295141500E+02  0.43400729741E+02  0.00000000000E+00 0. -1.
         11    1    3    3    0    0 -0.79063464297E+00 -0.18834677642E+01 -0.17247746032E+01  0.26734624834E+01  0.51100000000E-03 0. -1.
        -11    1    3    3    0    0 -0.37313913487E+01 -0.17069447105E+02  0.14853892638E+02  0.22933107784E+02  0.51100000000E-03 0.  1.
        -12    1    3    3    0    0 -0.66903255066E+01 -0.21131196839E+02 -0.83397653461E+00  0.22180699991E+02  0.00000000000E+00 0.  1.
</event>
<event>
 7    1  0.2492468E-009  0.4778727E+02  0.7816164E-02  0.1312668E+00
        -11   -1    0    0    0    0  0.00000000000E+00  0.00000000000E+00  0.45593999997E+02  0.45594000000E+02  0.51100000000E-03 0. -1.
         11   -1    0    0    0    0 -0.00000000000E+00 -0.00000000000E+00 -0.45593999997E+02  0.45594000000E+02  0.51100000000E-03 0.  1.
    9900012    2    1    2    0    0 -0.38104174443E+02  0.15695364429E+02 -0.13614354542E+02  0.47787271618E+02  0.20000002613E+02 0.  0.
         12    1    1    2    0    0  0.38104174443E+02 -0.15695364429E+02  0.13614354542E+02  0.43400728382E+02  0.00000000000E+00 0. -1.
         11    1    3    3    0    0 -0.10834303937E+02  0.89663771821E+01 -0.41296222163E+01  0.14657143019E+02  0.51100000000E-03 0. -1.
        -11    1    3    3    0    0 -0.16109247634E+02  0.94961343846E+01 -0.79390806104E+00  0.18716696233E+02  0.51100000000E-03 0.  1.
        -12    1    3    3    0    0 -0.11160622872E+02 -0.27671471380E+01 -0.86908242646E+01  0.14413432366E+02  0.00000000000E+00 0.  1.
</event>
<event>
 7    1  0.2492468E-009  0.4778727E+02  0.7816164E-02  0.1312668E+00
        -11   -1    0    0    0    0  0.00000000000E+00  0.00000000000E+00  0.45593999997E+02  0.45594000000E+02  0.51100000000E-03 0. -1.
         11   -1    0    0    0    0 -0.00000000000E+00 -0.00000000000E+00 -0.45593999997E+02  0.45594000000E+02  0.51100000000E-03 0.  1.
    9900012    2    1    2    0    0  0.16165369477E+02 -0.26596169619E+01 -0.40189927100E+02  0.47787274511E+02  0.20000015805E+02 0.  0.
         12    1    1    2    0    0 -0.16165369477E+02  0.26596169619E+01  0.40189927100E+02  0.43400725489E+02  0.00000000000E+00 0. -1.
         11    1    3    3    0    0 -0.25796131209E+00 -0.49845687148E+01 -0.44112972749E+01  0.66612321098E+01  0.51100000000E-03 0. -1.
        -11    1    3    3    0    0  0.41061009595E+01 -0.45843825270E+01 -0.10602165649E+02  0.12258978137E+02  0.51100000000E-03 0.  1.
        -12    1    3    3    0    0  0.12317229829E+02  0.69093342799E+01 -0.25176464175E+02  0.28867064264E+02  0.00000000000E+00 0.  1.
</event>
<event>
 7    1  0.2492468E-009  0.4778727E+02  0.7816164E-02  0.1312668E+00
        -11   -1    0    0    0    0  0.00000000000E+00  0.00000000000E+00  0.45593999997E+02  0.45594000000E+02  0.51100000000E-03 0.  1.
         11   -1    0    0    0    0 -0.00000000000E+00 -0.00000000000E+00 -0.45593999997E+02  0.45594000000E+02  0.51100000000E-03 0. -1.
    9900012    2    1    2    0    0 -0.20385833269E+02  0.44665996669E+01  0.38053788258E+02  0.47787268308E+02  0.19999987521E+02 0.  0.
         12    1    1    2    0    0  0.20385833269E+02 -0.44665996669E+01 -0.38053788258E+02  0.43400731692E+02  0.00000000000E+00 0. -1.
         11    1    3    3    0    0 -0.11446993744E+01 -0.43083083789E+01  0.98473566074E+01  0.10809361228E+02  0.51100000000E-03 0.  1.
        -11    1    3    3    0    0 -0.48614619561E+01  0.10515690122E+01  0.74162718951E+00  0.50288786909E+01  0.51100000000E-03 0. -1.
        -12    1    3    3    0    0 -0.14379671939E+02  0.77233390337E+01  0.27464804461E+02  0.31949028389E+02  0.00000000000E+00 0.  1.
</event>
<event>
 7    1  0.2492468E-009  0.4778725E+02  0.7816164E-02  0.1312668E+00
        -11   -1    0    0    0    0  0.00000000000E+00  0.00000000000E+00  0.45593999997E+02  0.45594000000E+02  0.51100000000E-03 0.  1.
         11   -1    0    0    0    0 -0.00000000000E+00 -0.00000000000E+00 -0.45593999997E+02  0.45594000000E+02  0.51100000000E-03 0. -1.
    9900012    2    1    2    0    0  0.17825013924E+02  0.15672138727E+02  0.36335631452E+02  0.47787249238E+02  0.19999900577E+02 0.  0.
         12    1    1    2    0    0 -0.17825013924E+02 -0.15672138727E+02 -0.36335631452E+02  0.43400750762E+02  0.00000000000E+00 0. -1.
         11    1    3    3    0    0  0.94045652523E+01  0.12859349440E+02  0.11345783556E+02  0.19558515291E+02  0.51100000000E-03 0. -1.
        -11    1    3    3    0    0  0.18996330811E+01 -0.10036685502E+00 -0.32134026726E+00  0.19292327949E+01  0.51100000000E-03 0.  1.
        -12    1    3    3    0    0  0.65208155903E+01  0.29131561418E+01  0.25311188163E+02  0.26299501153E+02  0.00000000000E+00 0.  1.
</event>
<event>
 7    1  0.2492468E-009  0.4778725E+02  0.7816164E-02  0.1312668E+00
        -11   -1    0    0    0    0  0.00000000000E+00  0.00000000000E+00  0.45593999997E+02  0.45594000000E+02  0.51100000000E-03 0.  1.
         11   -1    0    0    0    0 -0.00000000000E+00 -0.00000000000E+00 -0.45593999997E+02  0.45594000000E+02  0.51100000000E-03 0. -1.
    9900012    2    1    2    0    0 -0.29356245441E+02  0.77577606170E+01  0.31010531028E+02  0.47787250803E+02  0.19999907710E+02 0.  0.
         12    1    1    2    0    0  0.29356245441E+02 -0.77577606170E+01 -0.31010531028E+02  0.43400749197E+02  0.00000000000E+00 0. -1.
         11    1    3    3    0    0 -0.11041770217E+02  0.83579286703E+01  0.89093842497E+01  0.16466717619E+02  0.51100000000E-03 0. -1.
        -11    1    3    3    0    0 -0.69332171864E+01  0.48384649236E+01  0.13918115080E+02  0.16284783420E+02  0.51100000000E-03 0.  1.
        -12    1    3    3    0    0 -0.11381258038E+02 -0.54386329768E+01  0.81830316984E+01  0.15035749764E+02  0.00000000000E+00 0.  1.
</event>
<event>
 7    1  0.2492468E-009  0.4778728E+02  0.7816164E-02  0.1312668E+00
        -11   -1    0    0    0    0  0.00000000000E+00  0.00000000000E+00  0.45593999997E+02  0.45594000000E+02  0.51100000000E-03 0.  1.
         11   -1    0    0    0    0 -0.00000000000E+00 -0.00000000000E+00 -0.45593999997E+02  0.45594000000E+02  0.51100000000E-03 0. -1.
    9900012    2    1    2    0    0  0.42029965890E+01  0.35292168139E+02  0.24908237414E+02  0.47787278769E+02  0.20000035220E+02 0.  0.
         12    1    1    2    0    0 -0.42029965890E+01 -0.35292168139E+02 -0.24908237414E+02  0.43400721231E+02  0.00000000000E+00 0. -1.
         11    1    3    3    0    0  0.11301659378E+01  0.85200085803E+01  0.23098878747E+01  0.88996294029E+01  0.51100000000E-03 0. -1.
        -11    1    3    3    0    0  0.64280979999E+01  0.27045758446E+02  0.22038110414E+02  0.35474946155E+02  0.51100000000E-03 0.  1.
         12    1    3    3    0    0 -0.33552673486E+01 -0.27359888704E+00  0.56023912548E+00  0.34127032114E+01  0.00000000000E+00 0. -1.
</event>
<event>
 7    1  0.2492468E-009  0.4778727E+02  0.7816164E-02  0.1312668E+00
        -11   -1    0    0    0    0  0.00000000000E+00  0.00000000000E+00  0.45593999997E+02  0.45594000000E+02  0.51100000000E-03 0.  1.
         11   -1    0    0    0    0 -0.00000000000E+00 -0.00000000000E+00 -0.45593999997E+02  0.45594000000E+02  0.51100000000E-03 0. -1.
    9900012    2    1    2    0    0  0.64934666121E+01 -0.40798645573E+02 -0.13301464426E+02  0.47787267920E+02  0.19999985755E+02 0.  0.
         12    1    1    2    0    0 -0.64934666121E+01  0.40798645573E+02  0.13301464426E+02  0.43400732080E+02  0.00000000000E+00 0. -1.
         11    1    3    3    0    0  0.63231415829E+01 -0.25426970192E+02 -0.67070284369E+01  0.27046204232E+02  0.51100000000E-03 0. -1.
        -11    1    3    3    0    0 -0.53980747467E+01 -0.10831243895E+02 -0.60652850081E+01  0.13536718132E+02  0.51100000000E-03 0.  1.
         12    1    3    3    0    0  0.55683997759E+01 -0.45404314852E+01 -0.52915098073E+00  0.72043455565E+01  0.00000000000E+00 0. -1.
</event>
<event>
 7    1  0.2492468E-009  0.4778727E+02  0.7816164E-02  0.1312668E+00
        -11   -1    0    0    0    0  0.00000000000E+00  0.00000000000E+00  0.45593999997E+02  0.45594000000E+02  0.51100000000E-03 0.  1.
         11   -1    0    0    0    0 -0.00000000000E+00 -0.00000000000E+00 -0.45593999997E+02  0.45594000000E+02  0.51100000000E-03 0. -1.
    9900012    2    1    2    0    0 -0.68406787794E+01 -0.75581460767E+01  0.42186523673E+02  0.47787271459E+02  0.20000001889E+02 0.  0.
         12    1    1    2    0    0  0.68406787794E+01  0.75581460767E+01 -0.42186523673E+02  0.43400728541E+02  0.00000000000E+00 0. -1.
         11    1    3    3    0    0  0.44261070601E+01  0.28478322334E+01  0.80093249439E+01  0.95838331817E+01  0.51100000000E-03 0. -1.
        -11    1    3    3    0    0 -0.41407940134E+00 -0.46599231191E+01  0.75664790765E+01  0.88959513883E+01  0.51100000000E-03 0.  1.
         12    1    3    3    0    0 -0.10852706438E+02 -0.57460551910E+01  0.26610719653E+02  0.29307486889E+02  0.00000000000E+00 0. -1.
</event>
<event>
 7    1  0.2492468E-009  0.4778729E+02  0.7816164E-02  0.1312668E+00
        -11   -1    0    0    0    0  0.00000000000E+00  0.00000000000E+00  0.45593999997E+02  0.45594000000E+02  0.51100000000E-03 0.  1.
         11   -1    0    0    0    0 -0.00000000000E+00 -0.00000000000E+00 -0.45593999997E+02  0.45594000000E+02  0.51100000000E-03 0. -1.
    9900012    2    1    2    0    0  0.35446148682E+02 -0.24076703044E+02 -0.68923304162E+01  0.47787293734E+02  0.20000103448E+02 0.  0.
         12    1    1    2    0    0 -0.35446148682E+02  0.24076703044E+02  0.68923304162E+01  0.43400706266E+02  0.00000000000E+00 0. -1.
         11    1    3    3    0    0  0.77799231323E+01 -0.76323209281E+01 -0.15041729705E-01  0.10898612444E+02  0.51100000000E-03 0. -1.
        -11    1    3    3    0    0  0.21258746928E+02 -0.10616820926E+02  0.27706626672E+01  0.23923373077E+02  0.51100000000E-03 0.  1.
         12    1    3    3    0    0  0.64074786226E+01 -0.58275611895E+01 -0.96479513538E+01  0.12965308212E+02  0.00000000000E+00 0. -1.
</event>
<event>
 7    1  0.2492468E-009  0.4778727E+02  0.7816164E-02  0.1312668E+00
        -11   -1    0    0    0    0  0.00000000000E+00  0.00000000000E+00  0.45593999997E+02  0.45594000000E+02  0.51100000000E-03 0.  1.
         11   -1    0    0    0    0 -0.00000000000E+00 -0.00000000000E+00 -0.45593999997E+02  0.45594000000E+02  0.51100000000E-03 0. -1.
    9900012    2    1    2    0    0  0.75771578630E+01  0.37674578647E+02  0.20170181296E+02  0.47787269464E+02  0.19999992795E+02 0.  0.
         12    1    1    2    0    0 -0.75771578630E+01 -0.37674578647E+02 -0.20170181296E+02  0.43400730536E+02  0.00000000000E+00 0. -1.
         11    1    3    3    0    0  0.78029849902E+01  0.59849927224E+01  0.60033153207E+01  0.11521567070E+02  0.51100000000E-03 0. -1.
        -11    1    3    3    0    0  0.47380987046E+01  0.21170664483E+02  0.10237122830E+02  0.23988440926E+02  0.51100000000E-03 0.  1.
         12    1    3    3    0    0 -0.49639258318E+01  0.10518921442E+02  0.39297431448E+01  0.12277261468E+02  0.00000000000E+00 0. -1.
</event>
<event>
 7    1  0.2492468E-009  0.4778727E+02  0.7816164E-02  0.1312668E+00
        -11   -1    0    0    0    0  0.00000000000E+00  0.00000000000E+00  0.45593999997E+02  0.45594000000E+02  0.51100000000E-03 0. -1.
         11   -1    0    0    0    0 -0.00000000000E+00 -0.00000000000E+00 -0.45593999997E+02  0.45594000000E+02  0.51100000000E-03 0.  1.
    9900012    2    1    2    0    0 -0.31081286686E+02 -0.29660278391E+02 -0.61518303553E+01  0.47787268290E+02  0.19999987441E+02 0.  0.
         12    1    1    2    0    0  0.31081286686E+02  0.29660278391E+02  0.61518303553E+01  0.43400731710E+02  0.00000000000E+00 0. -1.
         11    1    3    3    0    0 -0.77354117301E+01  0.47672654805E+00 -0.11793871222E+01  0.78393122837E+01  0.51100000000E-03 0. -1.
        -11    1    3    3    0    0 -0.10539689694E+02 -0.14884508421E+02  0.30232170801E+01  0.18487116908E+02  0.51100000000E-03 0.  1.
         12    1    3    3    0    0 -0.12806185261E+02 -0.15252496518E+02 -0.79956603131E+01  0.21460839099E+02  0.00000000000E+00 0. -1.
</event>
<event>
 7    1  0.2492468E-009  0.4778727E+02  0.7816164E-02  0.1312668E+00
        -11   -1    0    0    0    0  0.00000000000E+00  0.00000000000E+00  0.45593999997E+02  0.45594000000E+02  0.51100000000E-03 0. -1.
         11   -1    0    0    0    0 -0.00000000000E+00 -0.00000000000E+00 -0.45593999997E+02  0.45594000000E+02  0.51100000000E-03 0.  1.
    9900012    2    1    2    0    0 -0.16224915903E+02 -0.31728136460E+02 -0.24772985899E+02  0.47787269941E+02  0.19999994969E+02 0.  0.
         12    1    1    2    0    0  0.16224915903E+02  0.31728136460E+02  0.24772985899E+02  0.43400730059E+02  0.00000000000E+00 0. -1.
         11    1    3    3    0    0  0.14009563243E+01 -0.34103241874E+01 -0.31040970312E+01  0.48195859082E+01  0.51100000000E-03 0. -1.
        -11    1    3    3    0    0 -0.11449587289E+02 -0.19211850541E+02 -0.22761751762E+02  0.31910587488E+02  0.51100000000E-03 0.  1.
         12    1    3    3    0    0 -0.61762849388E+01 -0.91059617314E+01  0.10928628937E+01  0.11057096545E+02  0.00000000000E+00 0. -1.
</event>
<event>
 7    1  0.2492468E-009  0.4778727E+02  0.7816164E-02  0.1312668E+00
        -11   -1    0    0    0    0  0.00000000000E+00  0.00000000000E+00  0.45593999997E+02  0.45594000000E+02  0.51100000000E-03 0.  1.
         11   -1    0    0    0    0 -0.00000000000E+00 -0.00000000000E+00 -0.45593999997E+02  0.45594000000E+02  0.51100000000E-03 0. -1.
    9900012    2    1    2    0    0 -0.19872400505E+02 -0.34096407543E+02  0.18059509099E+02  0.47787272148E+02  0.20000005032E+02 0.  0.
         12    1    1    2    0    0  0.19872400505E+02  0.34096407543E+02 -0.18059509099E+02  0.43400727852E+02  0.00000000000E+00 0. -1.
         11    1    3    3    0    0 -0.11100915945E+02 -0.60447910701E+01  0.44192453509E+01  0.13390278698E+02  0.51100000000E-03 0. -1.
        -11    1    3    3    0    0 -0.30598316710E+00  0.10985146309E+01  0.56546051013E-01  0.11417345619E+01  0.51100000000E-03 0.  1.
        -12    1    3    3    0    0 -0.84655013938E+01 -0.29150131104E+02  0.13583717697E+02  0.33255258888E+02  0.00000000000E+00 0.  1.
</event>
<event>
 7    1  0.2492468E-009  0.4778727E+02  0.7816164E-02  0.1312668E+00
        -11   -1    0    0    0    0  0.00000000000E+00  0.00000000000E+00  0.45593999997E+02  0.45594000000E+02  0.51100000000E-03 0. -1.
         11   -1    0    0    0    0 -0.00000000000E+00 -0.00000000000E+00 -0.45593999997E+02  0.45594000000E+02  0.51100000000E-03 0.  1.
    9900012    2    1    2    0    0 -0.36015691925E+02  0.22340926719E+02 -0.93475281008E+01  0.47787270132E+02  0.19999995840E+02 0.  0.
         12    1    1    2    0    0  0.36015691925E+02 -0.22340926719E+02  0.93475281008E+01  0.43400729868E+02  0.00000000000E+00 0. -1.
         11    1    3    3    0    0 -0.46607806443E+01  0.27668104280E+01  0.35602839692E+01  0.64848853776E+01  0.51100000000E-03 0. -1.
        -11    1    3    3    0    0 -0.29777991143E+02  0.13084167720E+02 -0.11300561551E+02  0.34432933262E+02  0.51100000000E-03 0.  1.
         12    1    3    3    0    0 -0.15769201380E+01  0.64899485711E+01 -0.16072505187E+01  0.68694514924E+01  0.00000000000E+00 0. -1.
</event>
<event>
 7    1  0.2492468E-009  0.4778727E+02  0.7816164E-02  0.1312668E+00
        -11   -1    0    0    0    0  0.00000000000E+00  0.00000000000E+00  0.45593999997E+02  0.45594000000E+02  0.51100000000E-03 0.  1.
         11   -1    0    0    0    0 -0.00000000000E+00 -0.00000000000E+00 -0.45593999997E+02  0.45594000000E+02  0.51100000000E-03 0. -1.
    9900012    2    1    2    0    0 -0.20889429383E+02 -0.19688711344E+02  0.32551646296E+02  0.47787270848E+02  0.19999999104E+02 0.  0.
         12    1    1    2    0    0  0.20889429383E+02  0.19688711344E+02 -0.32551646296E+02  0.43400729152E+02  0.00000000000E+00 0. -1.
         11    1    3    3    0    0  0.10523673210E+01  0.47375016407E+00  0.48958975159E+00  0.12536405315E+01  0.51100000000E-03 0. -1.
        -11    1    3    3    0    0 -0.81586880692E+01 -0.17776100473E+02  0.16308847447E+02  0.25466300170E+02  0.51100000000E-03 0.  1.
         12    1    3    3    0    0 -0.13783108635E+02 -0.23863610350E+01  0.15753209098E+02  0.21067330147E+02  0.00000000000E+00 0. -1.
</event>
<event>
 7    1  0.2492468E-009  0.4778727E+02  0.7816164E-02  0.1312668E+00
        -11   -1    0    0    0    0  0.00000000000E+00  0.00000000000E+00  0.45593999997E+02  0.45594000000E+02  0.51100000000E-03 0.  1.
         11   -1    0    0    0    0 -0.00000000000E+00 -0.00000000000E+00 -0.45593999997E+02  0.45594000000E+02  0.51100000000E-03 0. -1.
    9900012    2    1    2    0    0  0.13125020272E+02  0.28363139186E+02  0.30114609423E+02  0.47787268182E+02  0.19999986948E+02 0.  0.
         12    1    1    2    0    0 -0.13125020272E+02 -0.28363139186E+02 -0.30114609423E+02  0.43400731818E+02  0.00000000000E+00 0. -1.
         11    1    3    3    0    0  0.63166957276E+01  0.17562985335E+02  0.66683055423E+01  0.19819823356E+02  0.51100000000E-03 0. -1.
        -11    1    3    3    0    0  0.14659423627E+01  0.82514608736E+01  0.87118874511E+01  0.12088530795E+02  0.51100000000E-03 0.  1.
        -12    1    3    3    0    0  0.53423821815E+01  0.25486929774E+01  0.14734416430E+02  0.15878914031E+02  0.00000000000E+00 0.  1.
</event>
<event>
 7    1  0.2492468E-009  0.4778727E+02  0.7816164E-02  0.1312668E+00
        -11   -1    0    0    0    0  0.00000000000E+00  0.00000000000E+00  0.45593999997E+02  0.45594000000E+02  0.51100000000E-03 0. -1.
         11   -1    0    0    0    0 -0.00000000000E+00 -0.00000000000E+00 -0.45593999997E+02  0.45594000000E+02  0.51100000000E-03 0.  1.
    9900012    2    1    2    0    0  0.42403046914E+02  0.69239950013E+01  0.61370338110E+01  0.47787270993E+02  0.19999999765E+02 0.  0.
         12    1    1    2    0    0 -0.42403046914E+02 -0.69239950013E+01 -0.61370338110E+01  0.43400729007E+02  0.00000000000E+00 0. -1.
         11    1    3    3    0    0  0.13214123404E+02 -0.15206784116E+00  0.15847476980E+01  0.13309680969E+02  0.51100000000E-03 0. -1.
        -11    1    3    3    0    0  0.18107490251E+02  0.16477985188E+00 -0.44108591614E+01  0.18637704644E+02  0.51100000000E-03 0.  1.
         12    1    3    3    0    0  0.11081433259E+02  0.69112829906E+01  0.89631452743E+01  0.15839885380E+02  0.00000000000E+00 0. -1.
</event>
<event>
 7    1  0.2492468E-009  0.4778727E+02  0.7816164E-02  0.1312668E+00
        -11   -1    0    0    0    0  0.00000000000E+00  0.00000000000E+00  0.45593999997E+02  0.45594000000E+02  0.51100000000E-03 0.  1.
         11   -1    0    0    0    0 -0.00000000000E+00 -0.00000000000E+00 -0.45593999997E+02  0.45594000000E+02  0.51100000000E-03 0. -1.
    9900012    2    1    2    0    0  0.88596888491E+01 -0.36486344599E+02  0.21768694886E+02  0.47787268373E+02  0.19999987820E+02 0.  0.
         12    1    1    2    0    0 -0.88596888491E+01  0.36486344599E+02 -0.21768694886E+02  0.43400731627E+02  0.00000000000E+00 0. -1.
         11    1    3    3    0    0 -0.22593290330E+01 -0.69413403889E+01  0.45893943219E+01  0.86226048604E+01  0.51100000000E-03 0.  1.
        -11    1    3    3    0    0  0.49678142360E+01 -0.15406904187E+01 -0.88592527963E+00  0.52761509750E+01  0.51100000000E-03 0. -1.
         12    1    3    3    0    0  0.61512036462E+01 -0.28004313792E+02  0.18065225844E+02  0.33888512538E+02  0.00000000000E+00 0. -1.
</event>
<event>
 7    1  0.2492468E-009  0.4778727E+02  0.7816164E-02  0.1312668E+00
        -11   -1    0    0    0    0  0.00000000000E+00  0.00000000000E+00  0.45593999997E+02  0.45594000000E+02  0.51100000000E-03 0.  1.
         11   -1    0    0    0    0 -0.00000000000E+00 -0.00000000000E+00 -0.45593999997E+02  0.45594000000E+02  0.51100000000E-03 0. -1.
    9900012    2    1    2    0    0  0.14234205067E+02  0.14924718017E+01  0.40972953363E+02  0.47787274508E+02  0.20000015792E+02 0.  0.
         12    1    1    2    0    0 -0.14234205067E+02 -0.14924718017E+01 -0.40972953363E+02  0.43400725492E+02  0.00000000000E+00 0. -1.
         11    1    3    3    0    0  0.10363446744E+02  0.40400236427E+00  0.23892983594E+02  0.26046859919E+02  0.51100000000E-03 0. -1.
        -11    1    3    3    0    0  0.44284354287E+01  0.55236820026E+01  0.15427917196E+02  0.16974767524E+02  0.51100000000E-03 0.  1.
         12    1    3    3    0    0 -0.55767710626E+00 -0.44352125652E+01  0.16520525723E+01  0.47656470657E+01  0.00000000000E+00 0. -1.
</event>
<event>
 7    1  0.2492468E-009  0.4778730E+02  0.7816164E-02  0.1312668E+00
        -11   -1    0    0    0    0  0.00000000000E+00  0.00000000000E+00  0.45593999997E+02  0.45594000000E+02  0.51100000000E-03 0. -1.
         11   -1    0    0    0    0 -0.00000000000E+00 -0.00000000000E+00 -0.45593999997E+02  0.45594000000E+02  0.51100000000E-03 0.  1.
    9900012    2    1    2    0    0  0.23868951005E+02  0.33372742155E+02 -0.14147592343E+02  0.47787295972E+02  0.20000113654E+02 0.  0.
         12    1    1    2    0    0 -0.23868951005E+02 -0.33372742155E+02  0.14147592343E+02  0.43400704028E+02  0.00000000000E+00 0. -1.
         11    1    3    3    0    0  0.28138587541E+01  0.67649963449E+01  0.21703354984E+01  0.76415530536E+01  0.51100000000E-03 0. -1.
        -11    1    3    3    0    0  0.10890670290E+02  0.77436607195E+01 -0.25513662241E+00  0.13365480749E+02  0.51100000000E-03 0.  1.
        -12    1    3    3    0    0  0.10164421961E+02  0.18864085090E+02 -0.16062791219E+02  0.26780262169E+02  0.00000000000E+00 0.  1.
</event>
<event>
 7    1  0.2492468E-009  0.4778727E+02  0.7816164E-02  0.1312668E+00
        -11   -1    0    0    0    0  0.00000000000E+00  0.00000000000E+00  0.45593999997E+02  0.45594000000E+02  0.51100000000E-03 0.  1.
         11   -1    0    0    0    0 -0.00000000000E+00 -0.00000000000E+00 -0.45593999997E+02  0.45594000000E+02  0.51100000000E-03 0. -1.
    9900012    2    1    2    0    0  0.18456782468E+02  0.12289827196E+02  0.37308584182E+02  0.47787272756E+02  0.20000007805E+02 0.  0.
         12    1    1    2    0    0 -0.18456782468E+02 -0.12289827196E+02 -0.37308584182E+02  0.43400727244E+02  0.00000000000E+00 0. -1.
         11    1    3    3    0    0  0.12671392451E+02  0.43308001975E+01  0.10975057959E+02  0.17313922562E+02  0.51100000000E-03 0. -1.
        -11    1    3    3    0    0  0.67915273705E+01  0.59563171450E+01  0.81945721945E+01  0.12196457341E+02  0.51100000000E-03 0.  1.
        -12    1    3    3    0    0 -0.10061373533E+01  0.20027098537E+01  0.18138954029E+02  0.18276892854E+02  0.00000000000E+00 0.  1.
</event>
<event>
 7    1  0.3533597E-009  0.4778727E+02  0.7816164E-02  0.1312668E+00
        -11   -1    0    0    0    0  0.00000000000E+00  0.00000000000E+00  0.45593999997E+02  0.45594000000E+02  0.51100000000E-03 0.  1.
         11   -1    0    0    0    0 -0.00000000000E+00 -0.00000000000E+00 -0.45593999997E+02  0.45594000000E+02  0.51100000000E-03 0. -1.
    9900012    2    1    2    0    0 -0.58772826233E+01 -0.42415862234E+02  0.70693498875E+01  0.47787268118E+02  0.19999986657E+02 0.  0.
         12    1    1    2    0    0  0.58772826233E+01  0.42415862234E+02 -0.70693498875E+01  0.43400731882E+02  0.00000000000E+00 0. -1.
         11    1    3    3    0    0 -0.68752803203E+01 -0.13373468952E+02  0.66049851843E+01  0.16423914906E+02  0.51100000000E-03 0. -1.
        -11    1    3    3    0    0 -0.18681738050E+01 -0.26478581591E+02  0.30653510378E+01  0.26720810872E+02  0.51100000000E-03 0.  1.
         12    1    3    3    0    0  0.28661715021E+01 -0.25638116911E+01 -0.26009863346E+01  0.46425423401E+01  0.00000000000E+00 0. -1.
</event>
<event>
 7    1  0.2711586E-009  0.4778727E+02  0.7816164E-02  0.1312668E+00
        -11   -1    0    0    0    0  0.00000000000E+00  0.00000000000E+00  0.45593999997E+02  0.45594000000E+02  0.51100000000E-03 0.  1.
         11   -1    0    0    0    0 -0.00000000000E+00 -0.00000000000E+00 -0.45593999997E+02  0.45594000000E+02  0.51100000000E-03 0. -1.
    9900012    2    1    2    0    0  0.34479796072E+02  0.22603057246E+02  0.13559832698E+02  0.47787267324E+02  0.19999983035E+02 0.  0.
         12    1    1    2    0    0 -0.34479796072E+02 -0.22603057246E+02 -0.13559832698E+02  0.43400732676E+02  0.00000000000E+00 0. -1.
         11    1    3    3    0    0  0.15194575716E+02  0.12245600360E+02  0.59416866017E+01  0.20399350463E+02  0.51100000000E-03 0. -1.
        -11    1    3    3    0    0  0.17307696349E+02  0.93976368313E+01  0.11587593577E+02  0.22850476058E+02  0.51100000000E-03 0.  1.
         12    1    3    3    0    0  0.19775240077E+01  0.95982005525E+00 -0.39694474807E+01  0.45374408031E+01  0.00000000000E+00 0. -1.
</event>
<event>
 7    1  0.2492468E-009  0.4778727E+02  0.7816164E-02  0.1312668E+00
        -11   -1    0    0    0    0  0.00000000000E+00  0.00000000000E+00  0.45593999997E+02  0.45594000000E+02  0.51100000000E-03 0.  1.
         11   -1    0    0    0    0 -0.00000000000E+00 -0.00000000000E+00 -0.45593999997E+02  0.45594000000E+02  0.51100000000E-03 0. -1.
    9900012    2    1    2    0    0  0.14602441111E+02 -0.11419184679E+02  0.39242760571E+02  0.47787270486E+02  0.19999997454E+02 0.  0.
         12    1    1    2    0    0 -0.14602441111E+02  0.11419184679E+02 -0.39242760571E+02  0.43400729514E+02  0.00000000000E+00 0. -1.
         11    1    3    3    0    0  0.14634746333E+02 -0.12820874733E+02  0.23273888413E+02  0.30335202509E+02  0.51100000000E-03 0. -1.
        -11    1    3    3    0    0  0.24866593132E+01 -0.38959871084E+00  0.12724354668E+02  0.12970908360E+02  0.51100000000E-03 0.  1.
         12    1    3    3    0    0 -0.25189645352E+01  0.17912887654E+01  0.32445174897E+01  0.44811596169E+01  0.00000000000E+00 0. -1.
</event>
<event>
 7    1  0.2492468E-009  0.4778727E+02  0.7816164E-02  0.1312668E+00
        -11   -1    0    0    0    0  0.00000000000E+00  0.00000000000E+00  0.45593999997E+02  0.45594000000E+02  0.51100000000E-03 0. -1.
         11   -1    0    0    0    0 -0.00000000000E+00 -0.00000000000E+00 -0.45593999997E+02  0.45594000000E+02  0.51100000000E-03 0.  1.
    9900012    2    1    2    0    0 -0.17936525668E+02 -0.38608263215E+02  0.84443197092E+01  0.47787268706E+02  0.19999989337E+02 0.  0.
         12    1    1    2    0    0  0.17936525668E+02  0.38608263215E+02 -0.84443197092E+01  0.43400731294E+02  0.00000000000E+00 0. -1.
         11    1    3    3    0    0 -0.13406959197E+02 -0.18398888280E+02  0.13450947095E+02  0.26442269623E+02  0.51100000000E-03 0. -1.
        -11    1    3    3    0    0 -0.36343260162E+00 -0.37639985954E+01 -0.76966094444E+00  0.38590344534E+01  0.51100000000E-03 0.  1.
         12    1    3    3    0    0 -0.41661338697E+01 -0.16445376340E+02 -0.42369664411E+01  0.17485964629E+02  0.00000000000E+00 0. -1.
</event>
<event>
 7    1  0.2492468E-009  0.4778728E+02  0.7816164E-02  0.1312668E+00
        -11   -1    0    0    0    0  0.00000000000E+00  0.00000000000E+00  0.45593999997E+02  0.45594000000E+02  0.51100000000E-03 0.  1.
         11   -1    0    0    0    0 -0.00000000000E+00 -0.00000000000E+00 -0.45593999997E+02  0.45594000000E+02  0.51100000000E-03 0. -1.
    9900012    2    1    2    0    0  0.30730953672E+02  0.29784479747E+02  0.72191330535E+01  0.47787278469E+02  0.20000033851E+02 0.  0.
         12    1    1    2    0    0 -0.30730953672E+02 -0.29784479747E+02 -0.72191330535E+01  0.43400721531E+02  0.00000000000E+00 0. -1.
         11    1    3    3    0    0  0.13158548756E+02  0.79261023802E+01 -0.11558256640E+01  0.15404753732E+02  0.51100000000E-03 0. -1.
        -11    1    3    3    0    0  0.14909464483E+02  0.14784973230E+02 -0.13903238322E+00  0.20997783094E+02  0.51100000000E-03 0.  1.
         12    1    3    3    0    0  0.26629404327E+01  0.70734041366E+01  0.85139911007E+01  0.11384741644E+02  0.00000000000E+00 0. -1.
</event>
<event>
 7    1  0.2492468E-009  0.4778727E+02  0.7816164E-02  0.1312668E+00
        -11   -1    0    0    0    0  0.00000000000E+00  0.00000000000E+00  0.45593999997E+02  0.45594000000E+02  0.51100000000E-03 0. -1.
         11   -1    0    0    0    0 -0.00000000000E+00 -0.00000000000E+00 -0.45593999997E+02  0.45594000000E+02  0.51100000000E-03 0.  1.
    9900012    2    1    2    0    0  0.16583596867E+02  0.39332190871E+02  0.78477048219E+01  0.47787269652E+02  0.19999993653E+02 0.  0.
         12    1    1    2    0    0 -0.16583596867E+02 -0.39332190871E+02 -0.78477048219E+01  0.43400730348E+02  0.00000000000E+00 0. -1.
         11    1    3    3    0    0 -0.17596982794E+00  0.10404582901E+02  0.15746797359E+00  0.10407262231E+02  0.51100000000E-03 0. -1.
        -11    1    3    3    0    0  0.91573577921E+01  0.23702271902E+02  0.10849625488E+02  0.27629138035E+02  0.51100000000E-03 0.  1.
         12    1    3    3    0    0  0.76022089023E+01  0.52253360680E+01 -0.31593886399E+01  0.97508693866E+01  0.00000000000E+00 0. -1.
</event>
<event>
 7    1  0.2492468E-009  0.4778727E+02  0.7816164E-02  0.1312668E+00
        -11   -1    0    0    0    0  0.00000000000E+00  0.00000000000E+00  0.45593999997E+02  0.45594000000E+02  0.51100000000E-03 0. -1.
         11   -1    0    0    0    0 -0.00000000000E+00 -0.00000000000E+00 -0.45593999997E+02  0.45594000000E+02  0.51100000000E-03 0.  1.
    9900012    2    1    2    0    0 -0.12550490462E+02 -0.35291521620E+02 -0.21922987566E+02  0.47787266217E+02  0.19999977989E+02 0.  0.
         12    1    1    2    0    0  0.12550490462E+02  0.35291521620E+02  0.21922987566E+02  0.43400733783E+02  0.00000000000E+00 0. -1.
         11    1    3    3    0    0  0.23934432286E+01 -0.59165359746E+01 -0.62175941348E+01  0.89102438526E+01  0.51100000000E-03 0.  1.
        -11    1    3    3    0    0 -0.19612329124E+01 -0.18258765677E+02 -0.66187493568E+01  0.19520163982E+02  0.51100000000E-03 0. -1.
         12    1    3    3    0    0 -0.12982700778E+02 -0.11116219969E+02 -0.90866440747E+01  0.19356858382E+02  0.00000000000E+00 0. -1.
</event>
<event>
 7    1  0.2492468E-009  0.4778726E+02  0.7816164E-02  0.1312668E+00
        -11   -1    0    0    0    0  0.00000000000E+00  0.00000000000E+00  0.45593999997E+02  0.45594000000E+02  0.51100000000E-03 0.  1.
         11   -1    0    0    0    0 -0.00000000000E+00 -0.00000000000E+00 -0.45593999997E+02  0.45594000000E+02  0.51100000000E-03 0. -1.
    9900012    2    1    2    0    0 -0.22006196516E+02 -0.21368411130E+02  0.30704108292E+02  0.47787263309E+02  0.19999964732E+02 0.  0.
         12    1    1    2    0    0  0.22006196516E+02  0.21368411130E+02 -0.30704108292E+02  0.43400736691E+02  0.00000000000E+00 0. -1.
         11    1    3    3    0    0 -0.54389843285E+00 -0.49764933210E-01 -0.94267054149E+00  0.10894632003E+01  0.51100000000E-03 0. -1.
        -11    1    3    3    0    0 -0.80411100308E+00 -0.86624792297E+01  0.14874207222E+02  0.17231575136E+02  0.51100000000E-03 0.  1.
         12    1    3    3    0    0 -0.20658187080E+02 -0.12656166967E+02  0.16772571611E+02  0.29466224973E+02  0.00000000000E+00 0. -1.
</event>
<event>
 7    1  0.2492468E-009  0.4778728E+02  0.7816164E-02  0.1312668E+00
        -11   -1    0    0    0    0  0.00000000000E+00  0.00000000000E+00  0.45593999997E+02  0.45594000000E+02  0.51100000000E-03 0. -1.
         11   -1    0    0    0    0 -0.00000000000E+00 -0.00000000000E+00 -0.45593999997E+02  0.45594000000E+02  0.51100000000E-03 0.  1.
    9900012    2    1    2    0    0  0.38707801053E+01  0.21228977125E+02 -0.37655948641E+02  0.47787275622E+02  0.20000020873E+02 0.  0.
         12    1    1    2    0    0 -0.38707801053E+01 -0.21228977125E+02  0.37655948641E+02  0.43400724378E+02  0.00000000000E+00 0. -1.
         11    1    3    3    0    0 -0.36666494644E+01  0.93747950187E+01 -0.71175063327E+01  0.12328422308E+02  0.51100000000E-03 0. -1.
        -11    1    3    3    0    0  0.33698079549E+00  0.51244083218E+01 -0.24470465370E+01  0.56886864670E+01  0.51100000000E-03 0.  1.
        -12    1    3    3    0    0  0.72004487742E+01  0.67297737848E+01 -0.28091395772E+02  0.29770166848E+02  0.00000000000E+00 0.  1.
</event>
<event>
 7    1  0.2492468E-009  0.4778727E+02  0.7816164E-02  0.1312668E+00
        -11   -1    0    0    0    0  0.00000000000E+00  0.00000000000E+00  0.45593999997E+02  0.45594000000E+02  0.51100000000E-03 0.  1.
         11   -1    0    0    0    0 -0.00000000000E+00 -0.00000000000E+00 -0.45593999997E+02  0.45594000000E+02  0.51100000000E-03 0. -1.
    9900012    2    1    2    0    0  0.18609075045E+02 -0.38556242130E+02  0.71233275802E+01  0.47787271008E+02  0.19999999836E+02 0.  0.
         12    1    1    2    0    0 -0.18609075045E+02  0.38556242130E+02 -0.71233275802E+01  0.43400728992E+02  0.00000000000E+00 0. -1.
         11    1    3    3    0    0  0.57113345589E+01 -0.27690344268E+02  0.24024911269E+00  0.28274232581E+02  0.51100000000E-03 0. -1.
        -11    1    3    3    0    0  0.40380781404E+01 -0.78296094147E+01  0.24047931511E+01  0.91319159553E+01  0.51100000000E-03 0.  1.
        -12    1    3    3    0    0  0.88596623455E+01 -0.30362884466E+01  0.44782853164E+01  0.10381122472E+02  0.00000000000E+00 0.  1.
</event>
<event>
 7    1  0.2492468E-009  0.4778728E+02  0.7816164E-02  0.1312668E+00
        -11   -1    0    0    0    0  0.00000000000E+00  0.00000000000E+00  0.45593999997E+02  0.45594000000E+02  0.51100000000E-03 0. -1.
         11   -1    0    0    0    0 -0.00000000000E+00 -0.00000000000E+00 -0.45593999997E+02  0.45594000000E+02  0.51100000000E-03 0.  1.
    9900012    2    1    2    0    0 -0.29417455310E+02 -0.31909445485E+02  0.15290494511E+00  0.47787276872E+02  0.20000026571E+02 0.  0.
         12    1    1    2    0    0  0.29417455310E+02  0.31909445485E+02 -0.15290494511E+00  0.43400723128E+02  0.00000000000E+00 0. -1.
         11    1    3    3    0    0 -0.47978880286E+01 -0.11631845528E+02 -0.44506844410E+01  0.13346465906E+02  0.51100000000E-03 0. -1.
        -11    1    3    3    0    0 -0.25626539609E+02 -0.20105350495E+02  0.32341772220E+01  0.32732316652E+02  0.51100000000E-03 0.  1.
         12    1    3    3    0    0  0.10069723277E+01 -0.17224946229E+00  0.13694121641E+01  0.17084943141E+01  0.00000000000E+00 0. -1.
</event>
<event>
 7    1  0.2492468E-009  0.4778727E+02  0.7816164E-02  0.1312668E+00
        -11   -1    0    0    0    0  0.00000000000E+00  0.00000000000E+00  0.45593999997E+02  0.45594000000E+02  0.51100000000E-03 0.  1.
         11   -1    0    0    0    0 -0.00000000000E+00 -0.00000000000E+00 -0.45593999997E+02  0.45594000000E+02  0.51100000000E-03 0. -1.
    9900012    2    1    2    0    0  0.40288246796E+02  0.15945145414E+02  0.24965419374E+01  0.47787271736E+02  0.20000003154E+02 0.  0.
         12    1    1    2    0    0 -0.40288246796E+02 -0.15945145414E+02 -0.24965419374E+01  0.43400728264E+02  0.00000000000E+00 0. -1.
         11    1    3    3    0    0  0.77160579195E+01  0.81342816988E+01 -0.13862453402E+01  0.11297157385E+02  0.51100000000E-03 0. -1.
        -11    1    3    3    0    0  0.34949937466E+01  0.61054200156E+01 -0.41674175638E+00  0.70473263589E+01  0.51100000000E-03 0.  1.
        -12    1    3    3    0    0  0.29077195130E+02  0.17054436995E+01  0.42995290340E+01  0.29442787992E+02  0.00000000000E+00 0.  1.
</event>
<event>
 7    1  0.2492468E-009  0.4778727E+02  0.7816164E-02  0.1312668E+00
        -11   -1    0    0    0    0  0.00000000000E+00  0.00000000000E+00  0.45593999997E+02  0.45594000000E+02  0.51100000000E-03 0.  1.
         11   -1    0    0    0    0 -0.00000000000E+00 -0.00000000000E+00 -0.45593999997E+02  0.45594000000E+02  0.51100000000E-03 0. -1.
    9900012    2    1    2    0    0  0.33100947469E+01  0.42175780170E+02  0.96886844197E+01  0.47787265376E+02  0.19999974154E+02 0.  0.
         12    1    1    2    0    0 -0.33100947469E+01 -0.42175780170E+02 -0.96886844197E+01  0.43400734624E+02  0.00000000000E+00 0. -1.
         11    1    3    3    0    0  0.45222237185E+01  0.39188527874E+01 -0.97777360343E+00  0.60633287896E+01  0.51100000000E-03 0. -1.
        -11    1    3    3    0    0  0.49899960953E+01  0.91369864327E+01  0.11873366128E+01  0.10478279945E+02  0.51100000000E-03 0.  1.
         12    1    3    3    0    0 -0.62021250670E+01  0.29119940949E+02  0.94791214104E+01  0.31245656642E+02  0.00000000000E+00 0. -1.
</event>
<event>
 7    1  0.2492468E-009  0.4778727E+02  0.7816164E-02  0.1312668E+00
        -11   -1    0    0    0    0  0.00000000000E+00  0.00000000000E+00  0.45593999997E+02  0.45594000000E+02  0.51100000000E-03 0.  1.
         11   -1    0    0    0    0 -0.00000000000E+00 -0.00000000000E+00 -0.45593999997E+02  0.45594000000E+02  0.51100000000E-03 0. -1.
    9900012    2    1    2    0    0  0.28476347110E+02 -0.26915604918E+02  0.18662029571E+02  0.47787268664E+02  0.19999989146E+02 0.  0.
         12    1    1    2    0    0 -0.28476347110E+02  0.26915604918E+02 -0.18662029571E+02  0.43400731336E+02  0.00000000000E+00 0. -1.
         11    1    3    3    0    0  0.49632471690E+01 -0.31307618243E+01  0.42103825677E+01  0.72223828262E+01  0.51100000000E-03 0. -1.
        -11    1    3    3    0    0  0.20082828234E+02 -0.13083522426E+02  0.24027763718E+01  0.24088833171E+02  0.51100000000E-03 0.  1.
         12    1    3    3    0    0  0.34302717068E+01 -0.10701320667E+02  0.12048870631E+02  0.16476052667E+02  0.00000000000E+00 0. -1.
</event>
<event>
 7    1  0.2492468E-009  0.4778726E+02  0.7816164E-02  0.1312668E+00
        -11   -1    0    0    0    0  0.00000000000E+00  0.00000000000E+00  0.45593999997E+02  0.45594000000E+02  0.51100000000E-03 0.  1.
         11   -1    0    0    0    0 -0.00000000000E+00 -0.00000000000E+00 -0.45593999997E+02  0.45594000000E+02  0.51100000000E-03 0. -1.
    9900012    2    1    2    0    0  0.10151032527E+02 -0.34497794553E+02  0.24299854042E+02  0.47787260412E+02  0.19999951521E+02 0.  0.
         12    1    1    2    0    0 -0.10151032527E+02  0.34497794553E+02 -0.24299854042E+02  0.43400739588E+02  0.00000000000E+00 0. -1.
         11    1    3    3    0    0  0.98267660103E+01 -0.91052748198E+01  0.94335588311E+01  0.16384852524E+02  0.51100000000E-03 0.  1.
        -11    1    3    3    0    0  0.54708689400E+01 -0.10908933584E+02  0.53570739661E+01  0.13327921092E+02  0.51100000000E-03 0. -1.
        -12    1    3    3    0    0 -0.51466024230E+01 -0.14483586149E+02  0.95092212444E+01  0.18074486795E+02  0.00000000000E+00 0.  1.
</event>
<event>
 7    1  0.2492468E-009  0.4778721E+02  0.7816164E-02  0.1312668E+00
        -11   -1    0    0    0    0  0.00000000000E+00  0.00000000000E+00  0.45593999997E+02  0.45594000000E+02  0.51100000000E-03 0.  1.
         11   -1    0    0    0    0 -0.00000000000E+00 -0.00000000000E+00 -0.45593999997E+02  0.45594000000E+02  0.51100000000E-03 0. -1.
    9900012    2    1    2    0    0 -0.25560988369E+02 -0.12750544714E+02  0.32675502470E+02  0.47787205323E+02  0.19999700347E+02 0.  0.
         12    1    1    2    0    0  0.25560988369E+02  0.12750544714E+02 -0.32675502470E+02  0.43400794677E+02  0.00000000000E+00 0. -1.
         11    1    3    3    0    0 -0.28550951378E+01  0.22431913451E+00  0.79371848550E+01  0.84380561152E+01  0.51100000000E-03 0. -1.
        -11    1    3    3    0    0 -0.23385017551E+02 -0.68688316013E+01  0.18550570505E+02  0.30629455753E+02  0.51100000000E-03 0.  1.
         12    1    3    3    0    0  0.67912431904E+00 -0.61060322474E+01  0.61877471099E+01  0.87196934547E+01  0.00000000000E+00 0. -1.
</event>
<event>
 7    1  0.2492468E-009  0.4778727E+02  0.7816164E-02  0.1312668E+00
        -11   -1    0    0    0    0  0.00000000000E+00  0.00000000000E+00  0.45593999997E+02  0.45594000000E+02  0.51100000000E-03 0.  1.
         11   -1    0    0    0    0 -0.00000000000E+00 -0.00000000000E+00 -0.45593999997E+02  0.45594000000E+02  0.51100000000E-03 0. -1.
    9900012    2    1    2    0    0 -0.11168450281E+02 -0.35992927857E+02  0.21526693370E+02  0.47787266540E+02  0.19999979463E+02 0.  0.
         12    1    1    2    0    0  0.11168450281E+02  0.35992927857E+02 -0.21526693370E+02  0.43400733460E+02  0.00000000000E+00 0. -1.
         11    1    3    3    0    0 -0.11461140182E+02 -0.15661396567E+02  0.10551728107E+02  0.22090179787E+02  0.51100000000E-03 0. -1.
        -11    1    3    3    0    0 -0.52090712235E+01 -0.95157987486E+01  0.70736397732E+01  0.12950723097E+02  0.51100000000E-03 0.  1.
        -12    1    3    3    0    0  0.55017611244E+01 -0.10815732541E+02  0.39013254901E+01  0.12746363656E+02  0.00000000000E+00 0.  1.
</event>
<event>
 7    1  0.2492468E-009  0.4778727E+02  0.7816164E-02  0.1312668E+00
        -11   -1    0    0    0    0  0.00000000000E+00  0.00000000000E+00  0.45593999997E+02  0.45594000000E+02  0.51100000000E-03 0.  1.
         11   -1    0    0    0    0 -0.00000000000E+00 -0.00000000000E+00 -0.45593999997E+02  0.45594000000E+02  0.51100000000E-03 0. -1.
    9900012    2    1    2    0    0 -0.33462737275E+02 -0.88197887492E+01  0.26193124681E+02  0.47787271434E+02  0.20000001778E+02 0.  0.
         12    1    1    2    0    0  0.33462737275E+02  0.88197887492E+01 -0.26193124681E+02  0.43400728566E+02  0.00000000000E+00 0. -1.
         11    1    3    3    0    0  0.11895861967E+01 -0.15051591641E+01  0.21962443694E+01  0.29161805533E+01  0.51100000000E-03 0.  1.
        -11    1    3    3    0    0 -0.91756813524E+01 -0.71864466805E+01  0.34901292084E+01  0.12166311944E+02  0.51100000000E-03 0. -1.
         12    1    3    3    0    0 -0.25476642119E+02 -0.12818290452E+00  0.20506751103E+02  0.32704778937E+02  0.00000000000E+00 0. -1.
</event>
<event>
 7    1  0.2492468E-009  0.4778731E+02  0.7816164E-02  0.1312668E+00
        -11   -1    0    0    0    0  0.00000000000E+00  0.00000000000E+00  0.45593999997E+02  0.45594000000E+02  0.51100000000E-03 0.  1.
         11   -1    0    0    0    0 -0.00000000000E+00 -0.00000000000E+00 -0.45593999997E+02  0.45594000000E+02  0.51100000000E-03 0. -1.
    9900012    2    1    2    0    0  0.21506765946E+01  0.25302045849E+02  0.35196605756E+02  0.47787308869E+02  0.20000172455E+02 0.  0.
         12    1    1    2    0    0 -0.21506765946E+01 -0.25302045849E+02 -0.35196605756E+02  0.43400691131E+02  0.00000000000E+00 0. -1.
         11    1    3    3    0    0 -0.33282360002E+01  0.17687638638E+01  0.86037474133E+01  0.93930905612E+01  0.51100000000E-03 0.  1.
        -11    1    3    3    0    0  0.37883921626E+01  0.41426919458E+01  0.22202716025E+00  0.56181053796E+01  0.51100000000E-03 0. -1.
         12    1    3    3    0    0  0.16905204322E+01  0.19390590040E+02  0.26370831182E+02  0.32776112928E+02  0.00000000000E+00 0. -1.
</event>
<event>
 7    1  0.2492468E-009  0.4778727E+02  0.7816164E-02  0.1312668E+00
        -11   -1    0    0    0    0  0.00000000000E+00  0.00000000000E+00  0.45593999997E+02  0.45594000000E+02  0.51100000000E-03 0. -1.
         11   -1    0    0    0    0 -0.00000000000E+00 -0.00000000000E+00 -0.45593999997E+02  0.45594000000E+02  0.51100000000E-03 0.  1.
    9900012    2    1    2    0    0 -0.33843720302E+02  0.24106467431E+02  0.12534125281E+02  0.47787268757E+02  0.19999989570E+02 0.  0.
         12    1    1    2    0    0  0.33843720302E+02 -0.24106467431E+02 -0.12534125281E+02  0.43400731243E+02  0.00000000000E+00 0. -1.
         11    1    3    3    0    0 -0.71350867632E+01 -0.93347430667E+00  0.32379760192E+01  0.78908381280E+01  0.51100000000E-03 0. -1.
        -11    1    3    3    0    0 -0.23430797238E+02  0.15991894643E+02  0.10390307922E+02  0.30210949215E+02  0.51100000000E-03 0.  1.
        -12    1    3    3    0    0 -0.32778363005E+01  0.90480470949E+01 -0.10941586608E+01  0.96854814139E+01  0.00000000000E+00 0.  1.
</event>
<event>
 7    1  0.2492468E-009  0.4778729E+02  0.7816164E-02  0.1312668E+00
        -11   -1    0    0    0    0  0.00000000000E+00  0.00000000000E+00  0.45593999997E+02  0.45594000000E+02  0.51100000000E-03 0. -1.
         11   -1    0    0    0    0 -0.00000000000E+00 -0.00000000000E+00 -0.45593999997E+02  0.45594000000E+02  0.51100000000E-03 0.  1.
    9900012    2    1    2    0    0 -0.10219049265E+02  0.14229704330E+02 -0.39707784236E+02  0.47787290535E+02  0.20000088864E+02 0.  0.
         12    1    1    2    0    0  0.10219049265E+02 -0.14229704330E+02  0.39707784236E+02  0.43400709465E+02  0.00000000000E+00 0. -1.
         11    1    3    3    0    0  0.28479835055E+01  0.31483814425E+01 -0.14506114989E+02  0.15114585277E+02  0.51100000000E-03 0. -1.
        -11    1    3    3    0    0  0.20793464240E+01  0.28954373255E+01 -0.39111024441E+01  0.52918769304E+01  0.51100000000E-03 0.  1.
        -12    1    3    3    0    0 -0.15146379195E+02  0.81858855617E+01 -0.21290566803E+02  0.27380828328E+02  0.00000000000E+00 0.  1.
</event>
<event>
 7    1  0.2492468E-009  0.4778727E+02  0.7816164E-02  0.1312668E+00
        -11   -1    0    0    0    0  0.00000000000E+00  0.00000000000E+00  0.45593999997E+02  0.45594000000E+02  0.51100000000E-03 0. -1.
         11   -1    0    0    0    0 -0.00000000000E+00 -0.00000000000E+00 -0.45593999997E+02  0.45594000000E+02  0.51100000000E-03 0.  1.
    9900012    2    1    2    0    0 -0.30500357399E+00 -0.10937214548E+02 -0.41998901743E+02  0.47787269166E+02  0.19999991436E+02 0.  0.
         12    1    1    2    0    0  0.30500357399E+00  0.10937214548E+02  0.41998901743E+02  0.43400730834E+02  0.00000000000E+00 0. -1.
         11    1    3    3    0    0 -0.44106783638E+01  0.37349239107E+01 -0.70204726535E+01  0.90934469145E+01  0.51100000000E-03 0. -1.
        -11    1    3    3    0    0  0.31048987982E+01 -0.24740577758E+01 -0.12282314171E+02  0.12908005271E+02  0.51100000000E-03 0.  1.
         12    1    3    3    0    0  0.10007759916E+01 -0.12198080683E+02 -0.22696114919E+02  0.25785816981E+02  0.00000000000E+00 0. -1.
</event>
<event>
 7    1  0.2492468E-009  0.4778726E+02  0.7816164E-02  0.1312668E+00
        -11   -1    0    0    0    0  0.00000000000E+00  0.00000000000E+00  0.45593999997E+02  0.45594000000E+02  0.51100000000E-03 0.  1.
         11   -1    0    0    0    0 -0.00000000000E+00 -0.00000000000E+00 -0.45593999997E+02  0.45594000000E+02  0.51100000000E-03 0. -1.
    9900012    2    1    2    0    0  0.16199654456E+02 -0.21808253828E+02  0.33846650159E+02  0.47787257304E+02  0.19999937354E+02 0.  0.
         12    1    1    2    0    0 -0.16199654456E+02  0.21808253828E+02 -0.33846650159E+02  0.43400742696E+02  0.00000000000E+00 0. -1.
         11    1    3    3    0    0  0.26415181808E+01 -0.86053038434E+01  0.12336691284E+02  0.15271634642E+02  0.51100000000E-03 0. -1.
        -11    1    3    3    0    0  0.72930233045E+01 -0.15546222125E+02  0.18304086634E+02  0.25098063651E+02  0.51100000000E-03 0.  1.
         12    1    3    3    0    0  0.62651129707E+01  0.23432721401E+01  0.32058722406E+01  0.74175590110E+01  0.00000000000E+00 0. -1.
</event>
<event>
 7    1  0.2492468E-009  0.4778729E+02  0.7816164E-02  0.1312668E+00
        -11   -1    0    0    0    0  0.00000000000E+00  0.00000000000E+00  0.45593999997E+02  0.45594000000E+02  0.51100000000E-03 0.  1.
         11   -1    0    0    0    0 -0.00000000000E+00 -0.00000000000E+00 -0.45593999997E+02  0.45594000000E+02  0.51100000000E-03 0. -1.
    9900012    2    1    2    0    0  0.13462167147E+02  0.19011677919E+02  0.36618953639E+02  0.47787290245E+02  0.20000087544E+02 0.  0.
         12    1    1    2    0    0 -0.13462167147E+02 -0.19011677919E+02 -0.36618953639E+02  0.43400709755E+02  0.00000000000E+00 0. -1.
         11    1    3    3    0    0  0.76963118221E+01  0.16317599837E+02  0.18377474015E+02  0.25753229536E+02  0.51100000000E-03 0. -1.
        -11    1    3    3    0    0  0.77671647920E+01  0.49829282537E+01  0.12501039133E+02  0.15538159561E+02  0.51100000000E-03 0.  1.
         12    1    3    3    0    0 -0.20013094675E+01 -0.22888501714E+01  0.57404404917E+01  0.64959011484E+01  0.00000000000E+00 0. -1.
</event>
<event>
 7    1  0.2492468E-009  0.4778727E+02  0.7816164E-02  0.1312668E+00
        -11   -1    0    0    0    0  0.00000000000E+00  0.00000000000E+00  0.45593999997E+02  0.45594000000E+02  0.51100000000E-03 0.  1.
         11   -1    0    0    0    0 -0.00000000000E+00 -0.00000000000E+00 -0.45593999997E+02  0.45594000000E+02  0.51100000000E-03 0. -1.
    9900012    2    1    2    0    0 -0.12786417223E+02 -0.10761196882E+02  0.40054055450E+02  0.47787272106E+02  0.20000004840E+02 0.  0.
         12    1    1    2    0    0  0.12786417223E+02  0.10761196882E+02 -0.40054055450E+02  0.43400727894E+02  0.00000000000E+00 0. -1.
         11    1    3    3    0    0 -0.48970987078E+01 -0.80872989876E+00  0.16269579230E+02  0.17009845043E+02  0.51100000000E-03 0. -1.
        -11    1    3    3    0    0 -0.10132875215E+01  0.24493041813E+01  0.12147746014E+02  0.12433566506E+02  0.51100000000E-03 0.  1.
         12    1    3    3    0    0 -0.68760309940E+01 -0.12401771165E+02  0.11636730206E+02  0.18343860557E+02  0.00000000000E+00 0. -1.
</event>
<event>
 7    1  0.2492468E-009  0.4778727E+02  0.7816164E-02  0.1312668E+00
        -11   -1    0    0    0    0  0.00000000000E+00  0.00000000000E+00  0.45593999997E+02  0.45594000000E+02  0.51100000000E-03 0. -1.
         11   -1    0    0    0    0 -0.00000000000E+00 -0.00000000000E+00 -0.45593999997E+02  0.45594000000E+02  0.51100000000E-03 0.  1.
    9900012    2    1    2    0    0  0.39580437786E+02 -0.11493614685E+02  0.13598120791E+02  0.47787272783E+02  0.20000007928E+02 0.  0.
         12    1    1    2    0    0 -0.39580437786E+02  0.11493614685E+02 -0.13598120791E+02  0.43400727217E+02  0.00000000000E+00 0. -1.
         11    1    3    3    0    0  0.73673654367E+01 -0.32806088979E+01 -0.92272348921E+00  0.81173817896E+01  0.51100000000E-03 0. -1.
        -11    1    3    3    0    0  0.12823740861E+02  0.23657405774E+01 -0.34665846850E+00  0.13044739572E+02  0.51100000000E-03 0.  1.
         12    1    3    3    0    0  0.19389331489E+02 -0.10578746364E+02  0.14867502749E+02  0.26625151421E+02  0.00000000000E+00 0. -1.
</event>
<event>
 7    1  0.2492468E-009  0.4778728E+02  0.7816164E-02  0.1312668E+00
        -11   -1    0    0    0    0  0.00000000000E+00  0.00000000000E+00  0.45593999997E+02  0.45594000000E+02  0.51100000000E-03 0. -1.
         11   -1    0    0    0    0 -0.00000000000E+00 -0.00000000000E+00 -0.45593999997E+02  0.45594000000E+02  0.51100000000E-03 0.  1.
    9900012    2    1    2    0    0  0.20421224324E+02 -0.18654056426E+02 -0.33445817430E+02  0.47787275034E+02  0.20000018188E+02 0.  0.
         12    1    1    2    0    0 -0.20421224324E+02  0.18654056426E+02  0.33445817430E+02  0.43400724966E+02  0.00000000000E+00 0. -1.
         11    1    3    3    0    0  0.32067518761E+00 -0.22439709464E+01  0.21129491219E+01  0.30988372718E+01  0.51100000000E-03 0. -1.
        -11    1    3    3    0    0  0.60966679055E+01 -0.67071280998E+01 -0.70746757231E+01  0.11498085221E+02  0.51100000000E-03 0.  1.
        -12    1    3    3    0    0  0.14003881231E+02 -0.97029573799E+01 -0.28484090829E+02  0.33190352541E+02  0.00000000000E+00 0.  1.
</event>
<event>
 7    1  0.2492468E-009  0.4778727E+02  0.7816164E-02  0.1312668E+00
        -11   -1    0    0    0    0  0.00000000000E+00  0.00000000000E+00  0.45593999997E+02  0.45594000000E+02  0.51100000000E-03 0.  1.
         11   -1    0    0    0    0 -0.00000000000E+00 -0.00000000000E+00 -0.45593999997E+02  0.45594000000E+02  0.51100000000E-03 0. -1.
    9900012    2    1    2    0    0 -0.13992157336E+02 -0.40729875681E+02  0.53777607914E+01  0.47787267851E+02  0.19999985441E+02 0.  0.
         12    1    1    2    0    0  0.13992157336E+02  0.40729875681E+02 -0.53777607914E+01  0.43400732149E+02  0.00000000000E+00 0. -1.
         11    1    3    3    0    0 -0.91479287780E+00  0.79381729113E+00  0.21155142201E+00  0.12295308724E+01  0.51100000000E-03 0. -1.
        -11    1    3    3    0    0 -0.77330803310E+00 -0.26415379527E+01 -0.39060112554E+01  0.47783524627E+01  0.51100000000E-03 0.  1.
        -12    1    3    3    0    0 -0.12304056425E+02 -0.38882155020E+02  0.90722206247E+01  0.41779384516E+02  0.00000000000E+00 0.  1.
</event>
<event>
 7    1  0.2492468E-009  0.4778727E+02  0.7816164E-02  0.1312668E+00
        -11   -1    0    0    0    0  0.00000000000E+00  0.00000000000E+00  0.45593999997E+02  0.45594000000E+02  0.51100000000E-03 0.  1.
         11   -1    0    0    0    0 -0.00000000000E+00 -0.00000000000E+00 -0.45593999997E+02  0.45594000000E+02  0.51100000000E-03 0. -1.
    9900012    2    1    2    0    0  0.19878312289E+01 -0.14914915862E+02  0.40708932397E+02  0.47787269994E+02  0.19999995212E+02 0.  0.
         12    1    1    2    0    0 -0.19878312289E+01  0.14914915862E+02 -0.40708932397E+02  0.43400730006E+02  0.00000000000E+00 0. -1.
         11    1    3    3    0    0 -0.69902985384E+00 -0.73200874553E+01  0.32777941338E+01  0.80508544723E+01  0.51100000000E-03 0.  1.
        -11    1    3    3    0    0  0.35765685216E+00 -0.16189893931E+01 -0.10015358808E+00  0.16610466824E+01  0.51100000000E-03 0. -1.
        -12    1    3    3    0    0  0.23292042306E+01 -0.59758390134E+01  0.37531291851E+02  0.38075368839E+02  0.00000000000E+00 0.  1.
</event>
<event>
 7    1  0.2492468E-009  0.4778727E+02  0.7816164E-02  0.1312668E+00
        -11   -1    0    0    0    0  0.00000000000E+00  0.00000000000E+00  0.45593999997E+02  0.45594000000E+02  0.51100000000E-03 0.  1.
         11   -1    0    0    0    0 -0.00000000000E+00 -0.00000000000E+00 -0.45593999997E+02  0.45594000000E+02  0.51100000000E-03 0. -1.
    9900012    2    1    2    0    0 -0.76918009721E+01  0.26919780042E+02  0.33163004881E+02  0.47787271292E+02  0.20000001127E+02 0.  0.
         12    1    1    2    0    0  0.76918009721E+01 -0.26919780042E+02 -0.33163004881E+02  0.43400728708E+02  0.00000000000E+00 0. -1.
         11    1    3    3    0    0  0.24698556186E+01  0.13137772483E+02  0.16468740046E+02  0.21211333093E+02  0.51100000000E-03 0. -1.
        -11    1    3    3    0    0 -0.65354532810E+00  0.67223944982E+01  0.12131561689E+02  0.13884973841E+02  0.51100000000E-03 0.  1.
         12    1    3    3    0    0 -0.95081112626E+01  0.70596130603E+01  0.45627031453E+01  0.12690964358E+02  0.00000000000E+00 0. -1.
</event>
<event>
 7    1  0.2492468E-009  0.4778727E+02  0.7816164E-02  0.1312668E+00
        -11   -1    0    0    0    0  0.00000000000E+00  0.00000000000E+00  0.45593999997E+02  0.45594000000E+02  0.51100000000E-03 0.  1.
         11   -1    0    0    0    0 -0.00000000000E+00 -0.00000000000E+00 -0.45593999997E+02  0.45594000000E+02  0.51100000000E-03 0. -1.
    9900012    2    1    2    0    0  0.28143713758E+02 -0.23992668487E+02  0.22713576020E+02  0.47787270733E+02  0.19999998582E+02 0.  0.
         12    1    1    2    0    0 -0.28143713758E+02  0.23992668487E+02 -0.22713576020E+02  0.43400729267E+02  0.00000000000E+00 0. -1.
         11    1    3    3    0    0  0.68369826390E+01 -0.65370605894E+01  0.39343466453E+01  0.10244831699E+02  0.51100000000E-03 0.  1.
        -11    1    3    3    0    0  0.16348487367E+02 -0.11150713851E+02  0.32365025514E+01  0.20052092349E+02  0.51100000000E-03 0. -1.
         12    1    3    3    0    0  0.49582437529E+01 -0.63048940471E+01  0.15542726823E+02  0.17490346685E+02  0.00000000000E+00 0. -1.
</event>
<event>
 7    1  0.2492468E-009  0.4778727E+02  0.7816164E-02  0.1312668E+00
        -11   -1    0    0    0    0  0.00000000000E+00  0.00000000000E+00  0.45593999997E+02  0.45594000000E+02  0.51100000000E-03 0. -1.
         11   -1    0    0    0    0 -0.00000000000E+00 -0.00000000000E+00 -0.45593999997E+02  0.45594000000E+02  0.51100000000E-03 0.  1.
    9900012    2    1    2    0    0 -0.64685857141E+01 -0.27480926835E+02 -0.32963306233E+02  0.47787268455E+02  0.19999988192E+02 0.  0.
         12    1    1    2    0    0  0.64685857141E+01  0.27480926835E+02  0.32963306233E+02  0.43400731545E+02  0.00000000000E+00 0. -1.
         11    1    3    3    0    0 -0.86949153376E+01 -0.40167498500E+01 -0.90332230193E+01  0.13165673187E+02  0.51100000000E-03 0. -1.
        -11    1    3    3    0    0 -0.26806649073E+01 -0.10331286031E+02 -0.76210593496E+01  0.13114952584E+02  0.51100000000E-03 0.  1.
        -12    1    3    3    0    0  0.49069945307E+01 -0.13132890954E+02 -0.16309023864E+02  0.21506642684E+02  0.00000000000E+00 0.  1.
</event>
<event>
 7    1  0.2492468E-009  0.4778726E+02  0.7816164E-02  0.1312668E+00
        -11   -1    0    0    0    0  0.00000000000E+00  0.00000000000E+00  0.45593999997E+02  0.45594000000E+02  0.51100000000E-03 0.  1.
         11   -1    0    0    0    0 -0.00000000000E+00 -0.00000000000E+00 -0.45593999997E+02  0.45594000000E+02  0.51100000000E-03 0. -1.
    9900012    2    1    2    0    0 -0.10954063768E+02  0.31233467020E+02  0.28073183275E+02  0.47787255832E+02  0.19999930641E+02 0.  0.
         12    1    1    2    0    0  0.10954063768E+02 -0.31233467020E+02 -0.28073183275E+02  0.43400744168E+02  0.00000000000E+00 0. -1.
         11    1    3    3    0    0 -0.13057736906E+01  0.11879535936E+02  0.65419203372E+01  0.13624431766E+02  0.51100000000E-03 0. -1.
        -11    1    3    3    0    0 -0.13897700598E+01  0.16671521958E+02  0.18556211471E+02  0.24984076721E+02  0.51100000000E-03 0.  1.
         12    1    3    3    0    0 -0.82585200172E+01  0.26824091262E+01  0.29750514677E+01  0.91787473453E+01  0.00000000000E+00 0. -1.
</event>
<event>
 7    1  0.2492468E-009  0.4778726E+02  0.7816164E-02  0.1312668E+00
        -11   -1    0    0    0    0  0.00000000000E+00  0.00000000000E+00  0.45593999997E+02  0.45594000000E+02  0.51100000000E-03 0.  1.
         11   -1    0    0    0    0 -0.00000000000E+00 -0.00000000000E+00 -0.45593999997E+02  0.45594000000E+02  0.51100000000E-03 0. -1.
    9900012    2    1    2    0    0  0.42772166381E+02  0.31679910767E+01  0.66430007813E+01  0.47787264479E+02  0.19999970065E+02 0.  0.
         12    1    1    2    0    0 -0.42772166381E+02 -0.31679910767E+01 -0.66430007813E+01  0.43400735521E+02  0.00000000000E+00 0. -1.
         11    1    3    3    0    0  0.67678196367E+01  0.56755102872E+01 -0.24533888617E+01  0.91670015175E+01  0.51100000000E-03 0. -1.
        -11    1    3    3    0    0  0.98222321151E+01 -0.13308110903E+01 -0.20805032461E+01  0.10127970967E+02  0.51100000000E-03 0.  1.
         12    1    3    3    0    0  0.26182114629E+02 -0.11767081202E+01  0.11176892889E+02  0.28492291995E+02  0.00000000000E+00 0. -1.
</event>
<event>
 7    1  0.2492468E-009  0.4778727E+02  0.7816164E-02  0.1312668E+00
        -11   -1    0    0    0    0  0.00000000000E+00  0.00000000000E+00  0.45593999997E+02  0.45594000000E+02  0.51100000000E-03 0. -1.
         11   -1    0    0    0    0 -0.00000000000E+00 -0.00000000000E+00 -0.45593999997E+02  0.45594000000E+02  0.51100000000E-03 0.  1.
    9900012    2    1    2    0    0 -0.25595337410E+02 -0.31810260125E+01 -0.34905347579E+02  0.47787268287E+02  0.19999987429E+02 0.  0.
         12    1    1    2    0    0  0.25595337410E+02  0.31810260125E+01  0.34905347579E+02  0.43400731713E+02  0.00000000000E+00 0. -1.
         11    1    3    3    0    0 -0.13734975500E+01  0.47570359218E+01 -0.75063411059E+01  0.89922768718E+01  0.51100000000E-03 0. -1.
        -11    1    3    3    0    0 -0.17115757648E+02 -0.68137551010E+00 -0.19296082603E+02  0.25802175035E+02  0.51100000000E-03 0.  1.
         12    1    3    3    0    0 -0.71060822118E+01 -0.72566864242E+01 -0.81029238699E+01  0.12992816381E+02  0.00000000000E+00 0. -1.
</event>
<event>
 7    1  0.2492468E-009  0.4778727E+02  0.7816164E-02  0.1312668E+00
        -11   -1    0    0    0    0  0.00000000000E+00  0.00000000000E+00  0.45593999997E+02  0.45594000000E+02  0.51100000000E-03 0.  1.
         11   -1    0    0    0    0 -0.00000000000E+00 -0.00000000000E+00 -0.45593999997E+02  0.45594000000E+02  0.51100000000E-03 0. -1.
    9900012    2    1    2    0    0 -0.94448554734E+01 -0.36350340307E+02  0.21750185610E+02  0.47787272939E+02  0.20000008637E+02 0.  0.
         12    1    1    2    0    0  0.94448554734E+01  0.36350340307E+02 -0.21750185610E+02  0.43400727061E+02  0.00000000000E+00 0. -1.
         11    1    3    3    0    0 -0.85884442794E+01 -0.20299360493E+02  0.86241358371E+01  0.23668568414E+02  0.51100000000E-03 0. -1.
        -11    1    3    3    0    0 -0.58861686321E+01 -0.11050142806E+02  0.11126077648E+02  0.16749395251E+02  0.51100000000E-03 0.  1.
        -12    1    3    3    0    0  0.50297574381E+01 -0.50008370082E+01  0.19999721250E+01  0.73693092735E+01  0.00000000000E+00 0.  1.
</event>
<event>
 7    1  0.3690827E-009  0.4778727E+02  0.7816164E-02  0.1312668E+00
        -11   -1    0    0    0    0  0.00000000000E+00  0.00000000000E+00  0.45593999997E+02  0.45594000000E+02  0.51100000000E-03 0. -1.
         11   -1    0    0    0    0 -0.00000000000E+00 -0.00000000000E+00 -0.45593999997E+02  0.45594000000E+02  0.51100000000E-03 0.  1.
    9900012    2    1    2    0    0 -0.42157371854E+02 -0.10265468835E+02  0.99966436716E+00  0.47787272116E+02  0.20000004886E+02 0.  0.
         12    1    1    2    0    0  0.42157371854E+02  0.10265468835E+02 -0.99966436716E+00  0.43400727884E+02  0.00000000000E+00 0. -1.
         11    1    3    3    0    0 -0.69403488226E+01 -0.36064951676E+01  0.40923108207E+01  0.88273584547E+01  0.51100000000E-03 0. -1.
        -11    1    3    3    0    0 -0.34554035880E+02 -0.84860499633E+01 -0.33036820187E+00  0.35582349318E+02  0.51100000000E-03 0.  1.
        -12    1    3    3    0    0 -0.66298715111E+00  0.18270762960E+01 -0.27622782517E+01  0.33775643434E+01  0.00000000000E+00 0.  1.
</event>
<event>
 7    1  0.2492468E-009  0.4778727E+02  0.7816164E-02  0.1312668E+00
        -11   -1    0    0    0    0  0.00000000000E+00  0.00000000000E+00  0.45593999997E+02  0.45594000000E+02  0.51100000000E-03 0.  1.
         11   -1    0    0    0    0 -0.00000000000E+00 -0.00000000000E+00 -0.45593999997E+02  0.45594000000E+02  0.51100000000E-03 0. -1.
    9900012    2    1    2    0    0 -0.23396387409E+02 -0.22792375290E+02  0.28578663045E+02  0.47787270783E+02  0.19999998807E+02 0.  0.
         12    1    1    2    0    0  0.23396387409E+02  0.22792375290E+02 -0.28578663045E+02  0.43400729217E+02  0.00000000000E+00 0. -1.
         11    1    3    3    0    0 -0.65692601367E+01 -0.21082605759E+01  0.18914090467E+01  0.71538360229E+01  0.51100000000E-03 0. -1.
        -11    1    3    3    0    0 -0.58968974255E+01  0.79961706657E+00  0.87740200141E+01  0.10601708078E+02  0.51100000000E-03 0.  1.
         12    1    3    3    0    0 -0.10930229847E+02 -0.21483731781E+02  0.17913233984E+02  0.30031726682E+02  0.00000000000E+00 0. -1.
</event>
<event>
 7    1  0.2492468E-009  0.4778728E+02  0.7816164E-02  0.1312668E+00
        -11   -1    0    0    0    0  0.00000000000E+00  0.00000000000E+00  0.45593999997E+02  0.45594000000E+02  0.51100000000E-03 0. -1.
         11   -1    0    0    0    0 -0.00000000000E+00 -0.00000000000E+00 -0.45593999997E+02  0.45594000000E+02  0.51100000000E-03 0.  1.
    9900012    2    1    2    0    0  0.30821890673E+01 -0.15954655085E+02 -0.40243905662E+02  0.47787275913E+02  0.20000022197E+02 0.  0.
         12    1    1    2    0    0 -0.30821890673E+01  0.15954655085E+02  0.40243905662E+02  0.43400724087E+02  0.00000000000E+00 0. -1.
         11    1    3    3    0    0  0.17025510654E+01  0.24393038008E+01 -0.22028826430E+01  0.37015639077E+01  0.51100000000E-03 0. -1.
        -11    1    3    3    0    0 -0.41654602797E+01 -0.53918826008E+01 -0.60532628437E+01  0.91140248320E+01  0.51100000000E-03 0.  1.
        -12    1    3    3    0    0  0.55450982816E+01 -0.13002076285E+02 -0.31987760176E+02  0.34971687173E+02  0.00000000000E+00 0.  1.
</event>
<event>
 7    1  0.2492468E-009  0.4778727E+02  0.7816164E-02  0.1312668E+00
        -11   -1    0    0    0    0  0.00000000000E+00  0.00000000000E+00  0.45593999997E+02  0.45594000000E+02  0.51100000000E-03 0. -1.
         11   -1    0    0    0    0 -0.00000000000E+00 -0.00000000000E+00 -0.45593999997E+02  0.45594000000E+02  0.51100000000E-03 0.  1.
    9900012    2    1    2    0    0  0.16468352210E+02 -0.32267648891E+02 -0.23900113612E+02  0.47787271664E+02  0.20000002824E+02 0.  0.
         12    1    1    2    0    0 -0.16468352210E+02  0.32267648891E+02  0.23900113612E+02  0.43400728336E+02  0.00000000000E+00 0. -1.
         11    1    3    3    0    0  0.11563662864E+02 -0.28435140104E+02 -0.10123500110E+02  0.32322758953E+02  0.51100000000E-03 0. -1.
        -11    1    3    3    0    0  0.25198173376E+01 -0.32846222375E+01 -0.58345945042E+01  0.71540698870E+01  0.51100000000E-03 0.  1.
         12    1    3    3    0    0  0.23848720085E+01 -0.54788654888E+00 -0.79420189980E+01  0.83104428241E+01  0.00000000000E+00 0. -1.
</event>
<event>
 7    1  0.2492468E-009  0.4778727E+02  0.7816164E-02  0.1312668E+00
        -11   -1    0    0    0    0  0.00000000000E+00  0.00000000000E+00  0.45593999997E+02  0.45594000000E+02  0.51100000000E-03 0.  1.
         11   -1    0    0    0    0 -0.00000000000E+00 -0.00000000000E+00 -0.45593999997E+02  0.45594000000E+02  0.51100000000E-03 0. -1.
    9900012    2    1    2    0    0  0.40032610168E+02  0.21137107189E+00  0.16762128987E+02  0.47787268177E+02  0.19999986925E+02 0.  0.
         12    1    1    2    0    0 -0.40032610168E+02 -0.21137107189E+00 -0.16762128987E+02  0.43400731823E+02  0.00000000000E+00 0. -1.
         11    1    3    3    0    0  0.12986753581E+02 -0.92291753549E+01  0.67001542932E+01  0.17283677679E+02  0.51100000000E-03 0. -1.
        -11    1    3    3    0    0  0.84187514201E+01  0.15187952578E+01  0.29813904036E+01  0.90592937643E+01  0.51100000000E-03 0.  1.
         12    1    3    3    0    0  0.18627105168E+02  0.79217511690E+01  0.70805842900E+01  0.21444296734E+02  0.00000000000E+00 0. -1.
</event>
<event>
 7    1  0.2492468E-009  0.4778727E+02  0.7816164E-02  0.1312668E+00
        -11   -1    0    0    0    0  0.00000000000E+00  0.00000000000E+00  0.45593999997E+02  0.45594000000E+02  0.51100000000E-03 0. -1.
         11   -1    0    0    0    0 -0.00000000000E+00 -0.00000000000E+00 -0.45593999997E+02  0.45594000000E+02  0.51100000000E-03 0.  1.
    9900012    2    1    2    0    0  0.24402180482E+02 -0.77289689625E+01 -0.35048819568E+02  0.47787272741E+02  0.20000007735E+02 0.  0.
         12    1    1    2    0    0 -0.24402180482E+02  0.77289689625E+01  0.35048819568E+02  0.43400727259E+02  0.00000000000E+00 0. -1.
         11    1    3    3    0    0 -0.55372154224E+00  0.12515821958E+01 -0.31857233663E+00  0.14051882913E+01  0.51100000000E-03 0. -1.
        -11    1    3    3    0    0  0.16368236530E+02 -0.78644320237E+00 -0.28746736263E+02  0.33089462160E+02  0.51100000000E-03 0.  1.
        -12    1    3    3    0    0  0.85876654939E+01 -0.81941079559E+01 -0.59835109689E+01  0.13292622290E+02  0.00000000000E+00 0.  1.
</event>
<event>
 7    1  0.2492468E-009  0.4778727E+02  0.7816164E-02  0.1312668E+00
        -11   -1    0    0    0    0  0.00000000000E+00  0.00000000000E+00  0.45593999997E+02  0.45594000000E+02  0.51100000000E-03 0. -1.
         11   -1    0    0    0    0 -0.00000000000E+00 -0.00000000000E+00 -0.45593999997E+02  0.45594000000E+02  0.51100000000E-03 0.  1.
    9900012    2    1    2    0    0 -0.21798032330E+02  0.27440441163E+02 -0.25602567214E+02  0.47787268755E+02  0.19999989562E+02 0.  0.
         12    1    1    2    0    0  0.21798032330E+02 -0.27440441163E+02  0.25602567214E+02  0.43400731245E+02  0.00000000000E+00 0. -1.
         11    1    3    3    0    0 -0.40461996110E+01  0.12549665864E+01 -0.85921326916E+01  0.95797399169E+01  0.51100000000E-03 0. -1.
        -11    1    3    3    0    0 -0.94924676712E+01  0.17864398658E+02 -0.17091140095E+02  0.26483027620E+02  0.51100000000E-03 0.  1.
         12    1    3    3    0    0 -0.82593650477E+01  0.83210759184E+01  0.80705572652E-01  0.11724501218E+02  0.00000000000E+00 0. -1.
</event>
<event>
 7    1  0.2659371E-009  0.4778727E+02  0.7816164E-02  0.1312668E+00
        -11   -1    0    0    0    0  0.00000000000E+00  0.00000000000E+00  0.45593999997E+02  0.45594000000E+02  0.51100000000E-03 0.  1.
         11   -1    0    0    0    0 -0.00000000000E+00 -0.00000000000E+00 -0.45593999997E+02  0.45594000000E+02  0.51100000000E-03 0. -1.
    9900012    2    1    2    0    0  0.68426247371E+01 -0.38213302334E+02  0.19404769522E+02  0.47787273407E+02  0.20000010772E+02 0.  0.
         12    1    1    2    0    0 -0.68426247371E+01  0.38213302334E+02 -0.19404769522E+02  0.43400726593E+02  0.00000000000E+00 0. -1.
         11    1    3    3    0    0  0.22482496886E+01 -0.14774111419E+02 -0.67339467388E+00  0.14959360131E+02  0.51100000000E-03 0. -1.
        -11    1    3    3    0    0  0.11353632562E+01 -0.18706591623E+02  0.10188415958E+02  0.21331419078E+02  0.51100000000E-03 0.  1.
         12    1    3    3    0    0  0.34590117922E+01 -0.47325992924E+01  0.98897482382E+01  0.11496494199E+02  0.00000000000E+00 0. -1.
</event>
<event>
 7    1  0.2492468E-009  0.4778728E+02  0.7816164E-02  0.1312668E+00
        -11   -1    0    0    0    0  0.00000000000E+00  0.00000000000E+00  0.45593999997E+02  0.45594000000E+02  0.51100000000E-03 0. -1.
         11   -1    0    0    0    0 -0.00000000000E+00 -0.00000000000E+00 -0.45593999997E+02  0.45594000000E+02  0.51100000000E-03 0.  1.
    9900012    2    1    2    0    0 -0.11402995377E+02 -0.41854483493E+02  0.13404354100E+01  0.47787275823E+02  0.20000021787E+02 0.  0.
         12    1    1    2    0    0  0.11402995377E+02  0.41854483493E+02 -0.13404354100E+01  0.43400724177E+02  0.00000000000E+00 0. -1.
         11    1    3    3    0    0 -0.12646514183E+01  0.13534888526E+00  0.73938587701E+00  0.14711744515E+01  0.51100000000E-03 0. -1.
        -11    1    3    3    0    0 -0.14475104415E+02 -0.28019506759E+02 -0.13042176570E+01  0.31564574935E+02  0.51100000000E-03 0.  1.
        -12    1    3    3    0    0  0.43367604561E+01 -0.13970325619E+02  0.19052671899E+01  0.14751526437E+02  0.00000000000E+00 0.  1.
</event>
<event>
 7    1  0.2492468E-009  0.4778727E+02  0.7816164E-02  0.1312668E+00
        -11   -1    0    0    0    0  0.00000000000E+00  0.00000000000E+00  0.45593999997E+02  0.45594000000E+02  0.51100000000E-03 0. -1.
         11   -1    0    0    0    0 -0.00000000000E+00 -0.00000000000E+00 -0.45593999997E+02  0.45594000000E+02  0.51100000000E-03 0.  1.
    9900012    2    1    2    0    0 -0.11256012312E+02  0.41548662044E+02  0.55348189165E+01  0.47787270153E+02  0.19999995936E+02 0.  0.
         12    1    1    2    0    0  0.11256012312E+02 -0.41548662044E+02 -0.55348189165E+01  0.43400729847E+02  0.00000000000E+00 0. -1.
         11    1    3    3    0    0 -0.32066881361E+01  0.37346097899E+01  0.28468740550E+01  0.56863741727E+01  0.51100000000E-03 0. -1.
        -11    1    3    3    0    0 -0.11202873291E+02  0.14053462102E+02  0.23863187593E+01  0.18130049214E+02  0.51100000000E-03 0.  1.
         12    1    3    3    0    0  0.31535491146E+01  0.23760590151E+02  0.30162610212E+00  0.23970846766E+02  0.00000000000E+00 0. -1.
</event>
<event>
 7    1  0.2492468E-009  0.4778727E+02  0.7816164E-02  0.1312668E+00
        -11   -1    0    0    0    0  0.00000000000E+00  0.00000000000E+00  0.45593999997E+02  0.45594000000E+02  0.51100000000E-03 0. -1.
         11   -1    0    0    0    0 -0.00000000000E+00 -0.00000000000E+00 -0.45593999997E+02  0.45594000000E+02  0.51100000000E-03 0.  1.
    9900012    2    1    2    0    0  0.18735820714E+02  0.21660384067E+02 -0.32610122275E+02  0.47787270852E+02  0.19999999125E+02 0.  0.
         12    1    1    2    0    0 -0.18735820714E+02 -0.21660384067E+02  0.32610122275E+02  0.43400729148E+02  0.00000000000E+00 0. -1.
         11    1    3    3    0    0  0.16458556471E+02  0.10077973601E+02 -0.13737844968E+02  0.23689196222E+02  0.51100000000E-03 0. -1.
        -11    1    3    3    0    0  0.41644440757E+01  0.16545020579E+01 -0.34304278601E+01  0.56433861363E+01  0.51100000000E-03 0.  1.
        -12    1    3    3    0    0 -0.18871798329E+01  0.99279084081E+01 -0.15441849447E+02  0.18454688495E+02  0.00000000000E+00 0.  1.
</event>
<event>
 7    1  0.2492468E-009  0.4778728E+02  0.7816164E-02  0.1312668E+00
        -11   -1    0    0    0    0  0.00000000000E+00  0.00000000000E+00  0.45593999997E+02  0.45594000000E+02  0.51100000000E-03 0. -1.
         11   -1    0    0    0    0 -0.00000000000E+00 -0.00000000000E+00 -0.45593999997E+02  0.45594000000E+02  0.51100000000E-03 0.  1.
    9900012    2    1    2    0    0 -0.31672714727E+02  0.23950284072E+02 -0.17517003022E+02  0.47787281571E+02  0.20000047993E+02 0.  0.
         12    1    1    2    0    0  0.31672714727E+02 -0.23950284072E+02  0.17517003022E+02  0.43400718429E+02  0.00000000000E+00 0. -1.
         11    1    3    3    0    0 -0.80053215388E+01 -0.27951932639E+00  0.37391463557E-01  0.80102872843E+01  0.51100000000E-03 0. -1.
        -11    1    3    3    0    0 -0.42539838365E+01  0.37166078877E+01 -0.83319045333E+01  0.10066289589E+02  0.51100000000E-03 0.  1.
        -12    1    3    3    0    0 -0.19413409352E+02  0.20513195510E+02 -0.92224899523E+01  0.29710704698E+02  0.00000000000E+00 0.  1.
</event>
<event>
 7    1  0.2492468E-009  0.4778727E+02  0.7816164E-02  0.1312668E+00
        -11   -1    0    0    0    0  0.00000000000E+00  0.00000000000E+00  0.45593999997E+02  0.45594000000E+02  0.51100000000E-03 0.  1.
         11   -1    0    0    0    0 -0.00000000000E+00 -0.00000000000E+00 -0.45593999997E+02  0.45594000000E+02  0.51100000000E-03 0. -1.
    9900012    2    1    2    0    0 -0.14296601648E+02 -0.40397570432E+02 -0.68751134964E+01  0.47787266122E+02  0.19999977559E+02 0.  0.
         12    1    1    2    0    0  0.14296601648E+02  0.40397570432E+02  0.68751134964E+01  0.43400733878E+02  0.00000000000E+00 0. -1.
         11    1    3    3    0    0 -0.27667757209E+01 -0.13459751252E+02 -0.35048319747E+01  0.14181107118E+02  0.51100000000E-03 0. -1.
        -11    1    3    3    0    0 -0.10910552688E+02 -0.28623196082E+02 -0.10208164187E+01  0.30649136698E+02  0.51100000000E-03 0.  1.
        -12    1    3    3    0    0 -0.61927323909E+00  0.16853769024E+01 -0.23494651030E+01  0.29570223060E+01  0.00000000000E+00 0.  1.
</event>
<event>
 7    1  0.2680173E-009  0.4778728E+02  0.7816164E-02  0.1312668E+00
        -11   -1    0    0    0    0  0.00000000000E+00  0.00000000000E+00  0.45593999997E+02  0.45594000000E+02  0.51100000000E-03 0. -1.
         11   -1    0    0    0    0 -0.00000000000E+00 -0.00000000000E+00 -0.45593999997E+02  0.45594000000E+02  0.51100000000E-03 0.  1.
    9900012    2    1    2    0    0 -0.36660402550E+02 -0.81248691562E+01 -0.21762907181E+02  0.47787277162E+02  0.20000027892E+02 0.  0.
         12    1    1    2    0    0  0.36660402550E+02  0.81248691562E+01  0.21762907181E+02  0.43400722838E+02  0.00000000000E+00 0. -1.
         11    1    3    3    0    0 -0.14676010012E+02  0.13586142751E+01 -0.34528989032E+01  0.15137820640E+02  0.51100000000E-03 0. -1.
        -11    1    3    3    0    0 -0.19312342270E+02 -0.36196770898E+01 -0.97489260321E+01  0.21934224062E+02  0.51100000000E-03 0.  1.
         12    1    3    3    0    0 -0.26720502673E+01 -0.58638063415E+01 -0.85610822458E+01  0.10715232459E+02  0.00000000000E+00 0. -1.
</event>
<event>
 7    1  0.2492468E-009  0.4778727E+02  0.7816164E-02  0.1312668E+00
        -11   -1    0    0    0    0  0.00000000000E+00  0.00000000000E+00  0.45593999997E+02  0.45594000000E+02  0.51100000000E-03 0. -1.
         11   -1    0    0    0    0 -0.00000000000E+00 -0.00000000000E+00 -0.45593999997E+02  0.45594000000E+02  0.51100000000E-03 0.  1.
    9900012    2    1    2    0    0  0.77893741602E+01 -0.32255955567E+01 -0.42573987124E+02  0.47787271940E+02  0.20000004085E+02 0.  0.
         12    1    1    2    0    0 -0.77893741602E+01  0.32255955567E+01  0.42573987124E+02  0.43400728060E+02  0.00000000000E+00 0. -1.
         11    1    3    3    0    0  0.85146065860E+00  0.23923511679E+01  0.32475097919E+00  0.25600376605E+01  0.51100000000E-03 0. -1.
        -11    1    3    3    0    0  0.56507849631E+01  0.16313362139E+01 -0.10828639629E+02  0.12322826990E+02  0.51100000000E-03 0.  1.
        -12    1    3    3    0    0  0.12871285386E+01 -0.72492829386E+01 -0.32070098473E+02  0.32904407290E+02  0.00000000000E+00 0.  1.
</event>
<event>
 7    1  0.2492468E-009  0.4778725E+02  0.7816164E-02  0.1312668E+00
        -11   -1    0    0    0    0  0.00000000000E+00  0.00000000000E+00  0.45593999997E+02  0.45594000000E+02  0.51100000000E-03 0.  1.
         11   -1    0    0    0    0 -0.00000000000E+00 -0.00000000000E+00 -0.45593999997E+02  0.45594000000E+02  0.51100000000E-03 0. -1.
    9900012    2    1    2    0    0  0.11173391502E+02 -0.15822739068E+02  0.38838401427E+02  0.47787249146E+02  0.19999900158E+02 0.  0.
         12    1    1    2    0    0 -0.11173391502E+02  0.15822739068E+02 -0.38838401427E+02  0.43400750854E+02  0.00000000000E+00 0. -1.
         11    1    3    3    0    0  0.11115855028E+02 -0.55054524203E+01  0.23297957112E+02  0.26394451030E+02  0.51100000000E-03 0. -1.
        -11    1    3    3    0    0  0.26453984063E+01 -0.41552407418E+01  0.13552621757E+02  0.14420045600E+02  0.51100000000E-03 0.  1.
        -12    1    3    3    0    0 -0.25878619322E+01 -0.61620459060E+01  0.19878225577E+01  0.69727525160E+01  0.00000000000E+00 0.  1.
</event>
<event>
 7    1  0.2492468E-009  0.4778727E+02  0.7816164E-02  0.1312668E+00
        -11   -1    0    0    0    0  0.00000000000E+00  0.00000000000E+00  0.45593999997E+02  0.45594000000E+02  0.51100000000E-03 0.  1.
         11   -1    0    0    0    0 -0.00000000000E+00 -0.00000000000E+00 -0.45593999997E+02  0.45594000000E+02  0.51100000000E-03 0. -1.
    9900012    2    1    2    0    0 -0.19120835093E+02  0.36501724543E+02  0.13625015335E+02  0.47787271064E+02  0.20000000091E+02 0.  0.
         12    1    1    2    0    0  0.19120835093E+02 -0.36501724543E+02 -0.13625015335E+02  0.43400728936E+02  0.00000000000E+00 0. -1.
         11    1    3    3    0    0 -0.67061618508E+01  0.11344809532E+02 -0.59381404709E+00  0.13192040231E+02  0.51100000000E-03 0. -1.
        -11    1    3    3    0    0 -0.11530544232E+02  0.74407798125E+01  0.74049848515E+01  0.15593346511E+02  0.51100000000E-03 0.  1.
        -12    1    3    3    0    0 -0.88412900989E+00  0.17716135199E+02  0.68138445308E+01  0.19001884322E+02  0.00000000000E+00 0.  1.
</event>
<event>
 7    1  0.2492468E-009  0.4778727E+02  0.7816164E-02  0.1312668E+00
        -11   -1    0    0    0    0  0.00000000000E+00  0.00000000000E+00  0.45593999997E+02  0.45594000000E+02  0.51100000000E-03 0. -1.
         11   -1    0    0    0    0 -0.00000000000E+00 -0.00000000000E+00 -0.45593999997E+02  0.45594000000E+02  0.51100000000E-03 0.  1.
    9900012    2    1    2    0    0 -0.16925707339E+02 -0.96085325995E+01 -0.38792012129E+02  0.47787266451E+02  0.19999979055E+02 0.  0.
         12    1    1    2    0    0  0.16925707339E+02  0.96085325995E+01  0.38792012129E+02  0.43400733549E+02  0.00000000000E+00 0. -1.
         11    1    3    3    0    0 -0.87917820344E+01 -0.48627641524E+01 -0.95246099787E+01  0.13844136017E+02  0.51100000000E-03 0. -1.
        -11    1    3    3    0    0 -0.11003162113E+02  0.47829555077E+00 -0.16305376531E+02  0.19676474461E+02  0.51100000000E-03 0.  1.
         12    1    3    3    0    0  0.28692368084E+01 -0.52240639978E+01 -0.12962025619E+02  0.14266655973E+02  0.00000000000E+00 0. -1.
</event>
<event>
 7    1  0.2492468E-009  0.4778728E+02  0.7816164E-02  0.1312668E+00
        -11   -1    0    0    0    0  0.00000000000E+00  0.00000000000E+00  0.45593999997E+02  0.45594000000E+02  0.51100000000E-03 0.  1.
         11   -1    0    0    0    0 -0.00000000000E+00 -0.00000000000E+00 -0.45593999997E+02  0.45594000000E+02  0.51100000000E-03 0. -1.
    9900012    2    1    2    0    0  0.42386188472E+02  0.21115846894E+01  0.90870832734E+01  0.47787275979E+02  0.20000022499E+02 0.  0.
         12    1    1    2    0    0 -0.42386188472E+02 -0.21115846894E+01 -0.90870832734E+01  0.43400724021E+02  0.00000000000E+00 0. -1.
         11    1    3    3    0    0  0.41603014419E+01  0.15898350614E+00 -0.29484112998E+01  0.51016186938E+01  0.51100000000E-03 0.  1.
        -11    1    3    3    0    0  0.88773905649E+01 -0.48130546248E+01  0.66461352000E+01  0.12089031037E+02  0.51100000000E-03 0. -1.
        -12    1    3    3    0    0  0.29348496466E+02  0.67656558081E+01  0.53893593733E+01  0.30596626248E+02  0.00000000000E+00 0.  1.
</event>
<event>
 7    1  0.2492468E-009  0.4778724E+02  0.7816164E-02  0.1312668E+00
        -11   -1    0    0    0    0  0.00000000000E+00  0.00000000000E+00  0.45593999997E+02  0.45594000000E+02  0.51100000000E-03 0.  1.
         11   -1    0    0    0    0 -0.00000000000E+00 -0.00000000000E+00 -0.45593999997E+02  0.45594000000E+02  0.51100000000E-03 0. -1.
    9900012    2    1    2    0    0 -0.52391735927E+01  0.16359675168E+01  0.43052299084E+02  0.47787242103E+02  0.19999868042E+02 0.  0.
         12    1    1    2    0    0  0.52391735927E+01 -0.16359675168E+01 -0.43052299084E+02  0.43400757897E+02  0.00000000000E+00 0. -1.
         11    1    3    3    0    0 -0.31505730636E+01  0.69677335550E+01  0.23486781662E+02  0.24700290173E+02  0.51100000000E-03 0. -1.
        -11    1    3    3    0    0  0.20788669064E+01 -0.13819194660E+01  0.16282578386E+02  0.16472818465E+02  0.51100000000E-03 0.  1.
         12    1    3    3    0    0 -0.41674674354E+01 -0.39498465722E+01  0.32829390352E+01  0.66141334639E+01  0.00000000000E+00 0. -1.
</event>
<event>
 7    1  0.2492468E-009  0.4778727E+02  0.7816164E-02  0.1312668E+00
        -11   -1    0    0    0    0  0.00000000000E+00  0.00000000000E+00  0.45593999997E+02  0.45594000000E+02  0.51100000000E-03 0.  1.
         11   -1    0    0    0    0 -0.00000000000E+00 -0.00000000000E+00 -0.45593999997E+02  0.45594000000E+02  0.51100000000E-03 0. -1.
    9900012    2    1    2    0    0  0.98823181400E+01  0.38739704449E+02  0.16887823061E+02  0.47787268666E+02  0.19999989154E+02 0.  0.
         12    1    1    2    0    0 -0.98823181400E+01 -0.38739704449E+02 -0.16887823061E+02  0.43400731334E+02  0.00000000000E+00 0. -1.
         11    1    3    3    0    0  0.70450665263E+01  0.68347953936E+01  0.62557905831E+01  0.11639686702E+02  0.51100000000E-03 0.  1.
        -11    1    3    3    0    0 -0.33671610847E+01  0.19848438134E+01  0.42673928833E+00  0.39318552129E+01  0.51100000000E-03 0. -1.
         12    1    3    3    0    0  0.62044126984E+01  0.29920065242E+02  0.10205293189E+02  0.32215726751E+02  0.00000000000E+00 0. -1.
</event>
<event>
 7    1  0.2492468E-009  0.4778725E+02  0.7816164E-02  0.1312668E+00
        -11   -1    0    0    0    0  0.00000000000E+00  0.00000000000E+00  0.45593999997E+02  0.45594000000E+02  0.51100000000E-03 0. -1.
         11   -1    0    0    0    0 -0.00000000000E+00 -0.00000000000E+00 -0.45593999997E+02  0.45594000000E+02  0.51100000000E-03 0.  1.
    9900012    2    1    2    0    0  0.24664098230E+02 -0.22955215147E+02 -0.27356263483E+02  0.47787253512E+02  0.19999920062E+02 0.  0.
         12    1    1    2    0    0 -0.24664098230E+02  0.22955215147E+02  0.27356263483E+02  0.43400746488E+02  0.00000000000E+00 0. -1.
         11    1    3    3    0    0  0.13561747347E+02 -0.15106490126E+02 -0.15840325829E+02  0.25749620534E+02  0.51100000000E-03 0.  1.
        -11    1    3    3    0    0  0.10997647100E+02 -0.10929513914E+02 -0.10732493167E+02  0.18857065678E+02  0.51100000000E-03 0. -1.
         12    1    3    3    0    0  0.10470378357E+00  0.30807888930E+01 -0.78344448724E+00  0.31805673001E+01  0.00000000000E+00 0. -1.
</event>
<event>
 7    1  0.2492468E-009  0.4778727E+02  0.7816164E-02  0.1312668E+00
        -11   -1    0    0    0    0  0.00000000000E+00  0.00000000000E+00  0.45593999997E+02  0.45594000000E+02  0.51100000000E-03 0. -1.
         11   -1    0    0    0    0 -0.00000000000E+00 -0.00000000000E+00 -0.45593999997E+02  0.45594000000E+02  0.51100000000E-03 0.  1.
    9900012    2    1    2    0    0 -0.29557714085E+02  0.29109889981E+02 -0.12750659934E+02  0.47787268608E+02  0.19999988890E+02 0.  0.
         12    1    1    2    0    0  0.29557714085E+02 -0.29109889981E+02  0.12750659934E+02  0.43400731392E+02  0.00000000000E+00 0. -1.
         11    1    3    3    0    0 -0.13319445385E+01  0.54792445786E+01  0.17549759473E+01  0.59056022760E+01  0.51100000000E-03 0. -1.
        -11    1    3    3    0    0 -0.40417284470E+01  0.14250564206E+01  0.24428694747E+01  0.49329470069E+01  0.51100000000E-03 0.  1.
        -12    1    3    3    0    0 -0.24184041099E+02  0.22205588982E+02 -0.16948505356E+02  0.36948719325E+02  0.00000000000E+00 0.  1.
</event>
<event>
 7    1  0.2492468E-009  0.4778727E+02  0.7816164E-02  0.1312668E+00
        -11   -1    0    0    0    0  0.00000000000E+00  0.00000000000E+00  0.45593999997E+02  0.45594000000E+02  0.51100000000E-03 0.  1.
         11   -1    0    0    0    0 -0.00000000000E+00 -0.00000000000E+00 -0.45593999997E+02  0.45594000000E+02  0.51100000000E-03 0. -1.
    9900012    2    1    2    0    0  0.40753283478E+02  0.99462626478E+01  0.11129479494E+02  0.47787267647E+02  0.19999984511E+02 0.  0.
         12    1    1    2    0    0 -0.40753283478E+02 -0.99462626478E+01 -0.11129479494E+02  0.43400732353E+02  0.00000000000E+00 0. -1.
         11    1    3    3    0    0  0.18255583695E+02  0.30378296600E+01  0.12674199481E+01  0.18549962228E+02  0.51100000000E-03 0. -1.
        -11    1    3    3    0    0  0.17294333708E+02  0.89461024456E-01  0.16678112542E+01  0.17374797159E+02  0.51100000000E-03 0.  1.
         12    1    3    3    0    0  0.52033660759E+01  0.68189719634E+01  0.81942482921E+01  0.11862508260E+02  0.00000000000E+00 0. -1.
</event>
<event>
 7    1  0.2492468E-009  0.4778727E+02  0.7816164E-02  0.1312668E+00
        -11   -1    0    0    0    0  0.00000000000E+00  0.00000000000E+00  0.45593999997E+02  0.45594000000E+02  0.51100000000E-03 0.  1.
         11   -1    0    0    0    0 -0.00000000000E+00 -0.00000000000E+00 -0.45593999997E+02  0.45594000000E+02  0.51100000000E-03 0. -1.
    9900012    2    1    2    0    0  0.69323875071E+01  0.41924100110E+02  0.88281040795E+01  0.47787267423E+02  0.19999983490E+02 0.  0.
         12    1    1    2    0    0 -0.69323875071E+01 -0.41924100110E+02 -0.88281040795E+01  0.43400732577E+02  0.00000000000E+00 0. -1.
         11    1    3    3    0    0  0.59045819344E+01  0.32614852234E+01  0.41631415482E+01  0.79267346047E+01  0.51100000000E-03 0. -1.
        -11    1    3    3    0    0 -0.58374318879E+00  0.32183032773E+01  0.28416173066E+01  0.43327844712E+01  0.51100000000E-03 0.  1.
        -12    1    3    3    0    0  0.16115487615E+01  0.35444311609E+02  0.18233452247E+01  0.35527748348E+02  0.00000000000E+00 0.  1.
</event>
<event>
 7    1  0.2492468E-009  0.4778727E+02  0.7816164E-02  0.1312668E+00
        -11   -1    0    0    0    0  0.00000000000E+00  0.00000000000E+00  0.45593999997E+02  0.45594000000E+02  0.51100000000E-03 0.  1.
         11   -1    0    0    0    0 -0.00000000000E+00 -0.00000000000E+00 -0.45593999997E+02  0.45594000000E+02  0.51100000000E-03 0. -1.
    9900012    2    1    2    0    0  0.15250388178E+01  0.12701987415E+02  0.41472366791E+02  0.47787269189E+02  0.19999991541E+02 0.  0.
         12    1    1    2    0    0 -0.15250388178E+01 -0.12701987415E+02 -0.41472366791E+02  0.43400730811E+02  0.00000000000E+00 0. -1.
         11    1    3    3    0    0  0.21863759914E+01  0.59729740656E+01  0.63681781207E+00  0.63923545233E+01  0.51100000000E-03 0. -1.
        -11    1    3    3    0    0 -0.55082342500E-01  0.29112321384E+01  0.16782888245E+02  0.17033603398E+02  0.51100000000E-03 0.  1.
         12    1    3    3    0    0 -0.60625483115E+00  0.38177812114E+01  0.24052660734E+02  0.24361311267E+02  0.00000000000E+00 0. -1.
</event>
<event>
 7    1  0.2492468E-009  0.4778728E+02  0.7816164E-02  0.1312668E+00
        -11   -1    0    0    0    0  0.00000000000E+00  0.00000000000E+00  0.45593999997E+02  0.45594000000E+02  0.51100000000E-03 0. -1.
         11   -1    0    0    0    0 -0.00000000000E+00 -0.00000000000E+00 -0.45593999997E+02  0.45594000000E+02  0.51100000000E-03 0.  1.
    9900012    2    1    2    0    0  0.27186926140E+02  0.31023902901E+02 -0.13491152281E+02  0.47787277725E+02  0.20000030457E+02 0.  0.
         12    1    1    2    0    0 -0.27186926140E+02 -0.31023902901E+02  0.13491152281E+02  0.43400722275E+02  0.00000000000E+00 0. -1.
         11    1    3    3    0    0  0.75843998772E+01  0.12729624221E+02  0.99633664112E+00  0.14851233662E+02  0.51100000000E-03 0.  1.
        -11    1    3    3    0    0  0.39185904185E+01  0.34704279969E+01  0.21779092260E+01  0.56694364982E+01  0.51100000000E-03 0. -1.
        -12    1    3    3    0    0  0.15683935845E+02  0.14823850683E+02 -0.16665398148E+02  0.27266607564E+02  0.00000000000E+00 0.  1.
</event>
<event>
 7    1  0.2492468E-009  0.4778722E+02  0.7816164E-02  0.1312668E+00
        -11   -1    0    0    0    0  0.00000000000E+00  0.00000000000E+00  0.45593999997E+02  0.45594000000E+02  0.51100000000E-03 0.  1.
         11   -1    0    0    0    0 -0.00000000000E+00 -0.00000000000E+00 -0.45593999997E+02  0.45594000000E+02  0.51100000000E-03 0. -1.
    9900012    2    1    2    0    0 -0.90453617350E+01 -0.36065428765E+02  0.22385121062E+02  0.47787223902E+02  0.19999785058E+02 0.  0.
         12    1    1    2    0    0  0.90453617350E+01  0.36065428765E+02 -0.22385121062E+02  0.43400776098E+02  0.00000000000E+00 0. -1.
         11    1    3    3    0    0 -0.39369040499E+01 -0.51408388943E+01 -0.49238714462E+00  0.64938342600E+01  0.51100000000E-03 0. -1.
        -11    1    3    3    0    0 -0.65573263133E+01 -0.20656456399E+02  0.78809800527E+01  0.23060736462E+02  0.51100000000E-03 0.  1.
        -12    1    3    3    0    0  0.14488686282E+01 -0.10268133472E+02  0.14996528154E+02  0.18232653180E+02  0.00000000000E+00 0.  1.
</event>
<event>
 7    1  0.2492468E-009  0.4778727E+02  0.7816164E-02  0.1312668E+00
        -11   -1    0    0    0    0  0.00000000000E+00  0.00000000000E+00  0.45593999997E+02  0.45594000000E+02  0.51100000000E-03 0. -1.
         11   -1    0    0    0    0 -0.00000000000E+00 -0.00000000000E+00 -0.45593999997E+02  0.45594000000E+02  0.51100000000E-03 0.  1.
    9900012    2    1    2    0    0 -0.41123324880E+02 -0.62481139797E+01 -0.12387753744E+02  0.47787271661E+02  0.20000002812E+02 0.  0.
         12    1    1    2    0    0  0.41123324880E+02  0.62481139797E+01  0.12387753744E+02  0.43400728339E+02  0.00000000000E+00 0. -1.
         11    1    3    3    0    0 -0.25621719000E+02 -0.18181246905E+01 -0.70272332606E+01  0.26630059509E+02  0.51100000000E-03 0. -1.
        -11    1    3    3    0    0 -0.49523549935E+01  0.41840527628E+01 -0.36245298887E+01  0.74276062550E+01  0.51100000000E-03 0.  1.
        -12    1    3    3    0    0 -0.10549250887E+02 -0.86140420520E+01 -0.17359905942E+01  0.13729605898E+02  0.00000000000E+00 0.  1.
</event>
<event>
 7    1  0.2492468E-009  0.4778727E+02  0.7816164E-02  0.1312668E+00
        -11   -1    0    0    0    0  0.00000000000E+00  0.00000000000E+00  0.45593999997E+02  0.45594000000E+02  0.51100000000E-03 0. -1.
         11   -1    0    0    0    0 -0.00000000000E+00 -0.00000000000E+00 -0.45593999997E+02  0.45594000000E+02  0.51100000000E-03 0.  1.
    9900012    2    1    2    0    0  0.11842017092E+02  0.80492112309E+01 -0.40970723726E+02  0.47787269904E+02  0.19999994800E+02 0.  0.
         12    1    1    2    0    0 -0.11842017092E+02 -0.80492112309E+01  0.40970723726E+02  0.43400730096E+02  0.00000000000E+00 0. -1.
         11    1    3    3    0    0  0.62603082693E-01 -0.12418138061E+00  0.11423209679E+01  0.11507552372E+01  0.51100000000E-03 0. -1.
        -11    1    3    3    0    0 -0.19157909227E+01  0.43960414694E+01 -0.18205721811E+02  0.18826676350E+02  0.51100000000E-03 0.  1.
        -12    1    3    3    0    0  0.13695204932E+02  0.37773511421E+01 -0.23907322883E+02  0.27809838317E+02  0.00000000000E+00 0.  1.
</event>
<event>
 7    1  0.2492468E-009  0.4778727E+02  0.7816164E-02  0.1312668E+00
        -11   -1    0    0    0    0  0.00000000000E+00  0.00000000000E+00  0.45593999997E+02  0.45594000000E+02  0.51100000000E-03 0.  1.
         11   -1    0    0    0    0 -0.00000000000E+00 -0.00000000000E+00 -0.45593999997E+02  0.45594000000E+02  0.51100000000E-03 0. -1.
    9900012    2    1    2    0    0  0.33425577432E+01 -0.64283403676E+01  0.42791666677E+02  0.47787274324E+02  0.20000014955E+02 0.  0.
         12    1    1    2    0    0 -0.33425577432E+01  0.64283403676E+01 -0.42791666677E+02  0.43400725676E+02  0.00000000000E+00 0. -1.
         11    1    3    3    0    0  0.78364512338E+01 -0.18798790090E+01  0.14646649410E+02  0.16717303976E+02  0.51100000000E-03 0. -1.
        -11    1    3    3    0    0  0.22978265252E+01 -0.11016668121E+01  0.18993797004E+02  0.19163976659E+02  0.51100000000E-03 0.  1.
         12    1    3    3    0    0 -0.67917200158E+01 -0.34467945465E+01  0.91512202637E+01  0.11905993689E+02  0.00000000000E+00 0. -1.
</event>
<event>
 7    1  0.2492468E-009  0.4778727E+02  0.7816164E-02  0.1312668E+00
        -11   -1    0    0    0    0  0.00000000000E+00  0.00000000000E+00  0.45593999997E+02  0.45594000000E+02  0.51100000000E-03 0.  1.
         11   -1    0    0    0    0 -0.00000000000E+00 -0.00000000000E+00 -0.45593999997E+02  0.45594000000E+02  0.51100000000E-03 0. -1.
    9900012    2    1    2    0    0  0.33229357182E+02  0.21266387236E+02  0.18087946645E+02  0.47787271681E+02  0.20000002903E+02 0.  0.
         12    1    1    2    0    0 -0.33229357182E+02 -0.21266387236E+02 -0.18087946645E+02  0.43400728319E+02  0.00000000000E+00 0. -1.
         11    1    3    3    0    0  0.36578026709E+01  0.56497716524E+01  0.59331083231E+01  0.89722469169E+01  0.51100000000E-03 0. -1.
        -11    1    3    3    0    0  0.18599107943E+02  0.17628079719E+02  0.72692116301E+01  0.26636768739E+02  0.51100000000E-03 0.  1.
        -12    1    3    3    0    0  0.10972446567E+02 -0.20114641354E+01  0.48856266921E+01  0.12178256025E+02  0.00000000000E+00 0.  1.
</event>
<event>
 7    1  0.2492468E-009  0.4778727E+02  0.7816164E-02  0.1312668E+00
        -11   -1    0    0    0    0  0.00000000000E+00  0.00000000000E+00  0.45593999997E+02  0.45594000000E+02  0.51100000000E-03 0.  1.
         11   -1    0    0    0    0 -0.00000000000E+00 -0.00000000000E+00 -0.45593999997E+02  0.45594000000E+02  0.51100000000E-03 0. -1.
    9900012    2    1    2    0    0  0.40449750459E+02 -0.38887138455E+01  0.15242012329E+02  0.47787270197E+02  0.19999996138E+02 0.  0.
         12    1    1    2    0    0 -0.40449750459E+02  0.38887138455E+01 -0.15242012329E+02  0.43400729803E+02  0.00000000000E+00 0. -1.
         11    1    3    3    0    0  0.13151528316E+02 -0.79035658197E+01  0.13294058913E+01  0.15401180799E+02  0.51100000000E-03 0. -1.
        -11    1    3    3    0    0  0.15215469484E+02 -0.20178166369E+01  0.10025293527E+02  0.18332719552E+02  0.51100000000E-03 0.  1.
        -12    1    3    3    0    0  0.12082752659E+02  0.60326686111E+01  0.38873129111E+01  0.14053369847E+02  0.00000000000E+00 0.  1.
</event>
<event>
 7    1  0.2492468E-009  0.4778727E+02  0.7816164E-02  0.1312668E+00
        -11   -1    0    0    0    0  0.00000000000E+00  0.00000000000E+00  0.45593999997E+02  0.45594000000E+02  0.51100000000E-03 0.  1.
         11   -1    0    0    0    0 -0.00000000000E+00 -0.00000000000E+00 -0.45593999997E+02  0.45594000000E+02  0.51100000000E-03 0. -1.
    9900012    2    1    2    0    0 -0.34640051716E+01 -0.84633675593E+01  0.42426354091E+02  0.47787269088E+02  0.19999991079E+02 0.  0.
         12    1    1    2    0    0  0.34640051716E+01  0.84633675593E+01 -0.42426354091E+02  0.43400730912E+02  0.00000000000E+00 0. -1.
         11    1    3    3    0    0  0.26463433112E+00 -0.58624384527E+01  0.95340425232E+01  0.11195364355E+02  0.51100000000E-03 0. -1.
        -11    1    3    3    0    0 -0.89179669421E+00 -0.80929753639E+01  0.10083255647E+02  0.12960077017E+02  0.51100000000E-03 0.  1.
         12    1    3    3    0    0 -0.28368428085E+01  0.54920462573E+01  0.22809055920E+02  0.23631827716E+02  0.00000000000E+00 0. -1.
</event>
<event>
 7    1  0.2492468E-009  0.4778728E+02  0.7816164E-02  0.1312668E+00
        -11   -1    0    0    0    0  0.00000000000E+00  0.00000000000E+00  0.45593999997E+02  0.45594000000E+02  0.51100000000E-03 0.  1.
         11   -1    0    0    0    0 -0.00000000000E+00 -0.00000000000E+00 -0.45593999997E+02  0.45594000000E+02  0.51100000000E-03 0. -1.
    9900012    2    1    2    0    0 -0.17375117057E+02 -0.17945673523E+02  0.35491981224E+02  0.47787278553E+02  0.20000034232E+02 0.  0.
         12    1    1    2    0    0  0.17375117057E+02  0.17945673523E+02 -0.35491981224E+02  0.43400721447E+02  0.00000000000E+00 0. -1.
         11    1    3    3    0    0 -0.43739903925E+01  0.21082457943E+01  0.15163494166E+01  0.50868269183E+01  0.51100000000E-03 0. -1.
        -11    1    3    3    0    0 -0.88982105782E+01 -0.49509110705E+01  0.14431346934E+02  0.17662203897E+02  0.51100000000E-03 0.  1.
        -12    1    3    3    0    0 -0.41029160868E+01 -0.15103008247E+02  0.19544284874E+02  0.25038247737E+02  0.00000000000E+00 0.  1.
</event>
<event>
 7    1  0.2492468E-009  0.4778727E+02  0.7816164E-02  0.1312668E+00
        -11   -1    0    0    0    0  0.00000000000E+00  0.00000000000E+00  0.45593999997E+02  0.45594000000E+02  0.51100000000E-03 0. -1.
         11   -1    0    0    0    0 -0.00000000000E+00 -0.00000000000E+00 -0.45593999997E+02  0.45594000000E+02  0.51100000000E-03 0.  1.
    9900012    2    1    2    0    0  0.76445328361E+01 -0.37997623497E+01 -0.42552865128E+02  0.47787269513E+02  0.19999993017E+02 0.  0.
         12    1    1    2    0    0 -0.76445328361E+01  0.37997623497E+01  0.42552865128E+02  0.43400730487E+02  0.00000000000E+00 0. -1.
         11    1    3    3    0    0  0.43575031175E-01 -0.16025507295E+01 -0.65637606571E+00  0.17323098524E+01  0.51100000000E-03 0. -1.
        -11    1    3    3    0    0  0.88732352798E+01 -0.77702874809E+01 -0.35821568375E+02  0.37713345555E+02  0.51100000000E-03 0.  1.
         12    1    3    3    0    0 -0.12722774749E+01  0.55730758607E+01 -0.60749206879E+01  0.83416141056E+01  0.00000000000E+00 0. -1.
</event>
<event>
 7    1  0.2492468E-009  0.4778728E+02  0.7816164E-02  0.1312668E+00
        -11   -1    0    0    0    0  0.00000000000E+00  0.00000000000E+00  0.45593999997E+02  0.45594000000E+02  0.51100000000E-03 0.  1.
         11   -1    0    0    0    0 -0.00000000000E+00 -0.00000000000E+00 -0.45593999997E+02  0.45594000000E+02  0.51100000000E-03 0. -1.
    9900012    2    1    2    0    0 -0.22011376959E+02  0.78683759764E+01  0.36567893935E+02  0.47787275087E+02  0.20000018432E+02 0.  0.
         12    1    1    2    0    0  0.22011376959E+02 -0.78683759764E+01 -0.36567893935E+02  0.43400724913E+02  0.00000000000E+00 0. -1.
         11    1    3    3    0    0 -0.14982965388E+01 -0.80595231257E+00 -0.52096375640E+00  0.17792850095E+01  0.51100000000E-03 0. -1.
        -11    1    3    3    0    0 -0.22887594994E+02  0.68061170109E+01  0.30305804786E+02  0.38582470597E+02  0.51100000000E-03 0.  1.
        -12    1    3    3    0    0  0.23745145741E+01  0.18682112781E+01  0.67830529053E+01  0.74255194807E+01  0.00000000000E+00 0.  1.
</event>
<event>
 7    1  0.2844649E-009  0.4778727E+02  0.7816164E-02  0.1312668E+00
        -11   -1    0    0    0    0  0.00000000000E+00  0.00000000000E+00  0.45593999997E+02  0.45594000000E+02  0.51100000000E-03 0.  1.
         11   -1    0    0    0    0 -0.00000000000E+00 -0.00000000000E+00 -0.45593999997E+02  0.45594000000E+02  0.51100000000E-03 0. -1.
    9900012    2    1    2    0    0 -0.41022880277E+02 -0.90841750272E+01  0.10873100157E+02  0.47787271329E+02  0.20000001296E+02 0.  0.
         12    1    1    2    0    0  0.41022880277E+02  0.90841750272E+01 -0.10873100157E+02  0.43400728671E+02  0.00000000000E+00 0. -1.
         11    1    3    3    0    0 -0.24321425566E+02 -0.44152723505E+01  0.30717913674E+01  0.24909080151E+02  0.51100000000E-03 0. -1.
        -11    1    3    3    0    0 -0.15403365691E+02 -0.76943690428E+01  0.89321881717E+01  0.19397189883E+02  0.51100000000E-03 0.  1.
         12    1    3    3    0    0 -0.12980890199E+01  0.30254663661E+01 -0.11308793816E+01  0.34810012944E+01  0.00000000000E+00 0. -1.
</event>
<event>
 7    1  0.2492468E-009  0.4778727E+02  0.7816164E-02  0.1312668E+00
        -11   -1    0    0    0    0  0.00000000000E+00  0.00000000000E+00  0.45593999997E+02  0.45594000000E+02  0.51100000000E-03 0.  1.
         11   -1    0    0    0    0 -0.00000000000E+00 -0.00000000000E+00 -0.45593999997E+02  0.45594000000E+02  0.51100000000E-03 0. -1.
    9900012    2    1    2    0    0  0.42596669691E+02 -0.65465902363E+01 -0.51273420993E+01  0.47787265565E+02  0.19999975019E+02 0.  0.
         12    1    1    2    0    0 -0.42596669691E+02  0.65465902363E+01  0.51273420993E+01  0.43400734435E+02  0.00000000000E+00 0. -1.
         11    1    3    3    0    0  0.16926561308E+01 -0.32987583181E+01  0.23209819141E+01  0.43742254772E+01  0.51100000000E-03 0. -1.
        -11    1    3    3    0    0  0.43968305165E+01 -0.20030379743E+01  0.26551943504E+01  0.55131059319E+01  0.51100000000E-03 0.  1.
        -12    1    3    3    0    0  0.36507183043E+02 -0.12447939439E+01 -0.10103518364E+02  0.37899934156E+02  0.00000000000E+00 0.  1.
</event>
<event>
 7    1  0.2492468E-009  0.4778727E+02  0.7816164E-02  0.1312668E+00
        -11   -1    0    0    0    0  0.00000000000E+00  0.00000000000E+00  0.45593999997E+02  0.45594000000E+02  0.51100000000E-03 0. -1.
         11   -1    0    0    0    0 -0.00000000000E+00 -0.00000000000E+00 -0.45593999997E+02  0.45594000000E+02  0.51100000000E-03 0.  1.
    9900012    2    1    2    0    0 -0.35501959776E+02  0.94965286442E+00 -0.24946597386E+02  0.47787266025E+02  0.19999977113E+02 0.  0.
         12    1    1    2    0    0  0.35501959776E+02 -0.94965286442E+00  0.24946597386E+02  0.43400733975E+02  0.00000000000E+00 0. -1.
         11    1    3    3    0    0 -0.38104965124E+01  0.12983603327E+01  0.14802910319E+01  0.42891590114E+01  0.51100000000E-03 0.  1.
        -11    1    3    3    0    0 -0.54374345029E+01  0.41328584500E+01 -0.14436647622E+01  0.69807149454E+01  0.51100000000E-03 0. -1.
        -12    1    3    3    0    0 -0.26254028760E+02 -0.44815659183E+01 -0.24983223655E+02  0.36517392068E+02  0.00000000000E+00 0.  1.
</event>
<event>
 7    1  0.2492468E-009  0.4778727E+02  0.7816164E-02  0.1312668E+00
        -11   -1    0    0    0    0  0.00000000000E+00  0.00000000000E+00  0.45593999997E+02  0.45594000000E+02  0.51100000000E-03 0.  1.
         11   -1    0    0    0    0 -0.00000000000E+00 -0.00000000000E+00 -0.45593999997E+02  0.45594000000E+02  0.51100000000E-03 0. -1.
    9900012    2    1    2    0    0 -0.36764193150E+02  0.11052930943E+02  0.20244749504E+02  0.47787273475E+02  0.20000011082E+02 0.  0.
         12    1    1    2    0    0  0.36764193150E+02 -0.11052930943E+02 -0.20244749504E+02  0.43400726525E+02  0.00000000000E+00 0. -1.
         11    1    3    3    0    0 -0.21224208217E+02  0.46798000397E+01  0.13729070911E+02  0.25707098848E+02  0.51100000000E-03 0. -1.
        -11    1    3    3    0    0 -0.41615837990E+01 -0.24519395509E+01  0.59576662794E+01  0.76697180545E+01  0.51100000000E-03 0.  1.
         12    1    3    3    0    0 -0.11378401134E+02  0.88250704539E+01  0.55801231380E+00  0.14410456573E+02  0.00000000000E+00 0. -1.
</event>
<event>
 7    1  0.2492468E-009  0.4778727E+02  0.7816164E-02  0.1312668E+00
        -11   -1    0    0    0    0  0.00000000000E+00  0.00000000000E+00  0.45593999997E+02  0.45594000000E+02  0.51100000000E-03 0. -1.
         11   -1    0    0    0    0 -0.00000000000E+00 -0.00000000000E+00 -0.45593999997E+02  0.45594000000E+02  0.51100000000E-03 0.  1.
    9900012    2    1    2    0    0  0.25550024553E+02 -0.16050444156E+02 -0.31196195646E+02  0.47787272644E+02  0.20000007294E+02 0.  0.
         12    1    1    2    0    0 -0.25550024553E+02  0.16050444156E+02  0.31196195646E+02  0.43400727356E+02  0.00000000000E+00 0. -1.
         11    1    3    3    0    0  0.94172844519E+01 -0.48678083859E+01 -0.10844080543E+02  0.15164922948E+02  0.51100000000E-03 0.  1.
        -11    1    3    3    0    0  0.10070421816E+02 -0.13348179589E+02 -0.76619273758E+01  0.18392727511E+02  0.51100000000E-03 0. -1.
        -12    1    3    3    0    0  0.60623182843E+01  0.21655438186E+01 -0.12690187727E+02  0.14229622186E+02  0.00000000000E+00 0.  1.
</event>
<event>
 7    1  0.2492468E-009  0.4778727E+02  0.7816164E-02  0.1312668E+00
        -11   -1    0    0    0    0  0.00000000000E+00  0.00000000000E+00  0.45593999997E+02  0.45594000000E+02  0.51100000000E-03 0.  1.
         11   -1    0    0    0    0 -0.00000000000E+00 -0.00000000000E+00 -0.45593999997E+02  0.45594000000E+02  0.51100000000E-03 0. -1.
    9900012    2    1    2    0    0 -0.19293832779E+02  0.17012717927E+02  0.34956246528E+02  0.47787265837E+02  0.19999976257E+02 0.  0.
         12    1    1    2    0    0  0.19293832779E+02 -0.17012717927E+02 -0.34956246528E+02  0.43400734163E+02  0.00000000000E+00 0. -1.
         11    1    3    3    0    0 -0.30995811286E+01  0.48741770154E+01  0.43054205606E+00  0.57922682494E+01  0.51100000000E-03 0. -1.
        -11    1    3    3    0    0  0.61181039627E+00  0.56506477199E+01  0.10807972860E+02  0.12211322992E+02  0.51100000000E-03 0.  1.
        -12    1    3    3    0    0 -0.16806062047E+02  0.64878931914E+01  0.23717731612E+02  0.29783674596E+02  0.00000000000E+00 0.  1.
</event>
<event>
 7    1  0.2492468E-009  0.4778727E+02  0.7816164E-02  0.1312668E+00
        -11   -1    0    0    0    0  0.00000000000E+00  0.00000000000E+00  0.45593999997E+02  0.45594000000E+02  0.51100000000E-03 0. -1.
         11   -1    0    0    0    0 -0.00000000000E+00 -0.00000000000E+00 -0.45593999997E+02  0.45594000000E+02  0.51100000000E-03 0.  1.
    9900012    2    1    2    0    0  0.49881685732E+01 -0.17024747070E+02 -0.39609334313E+02  0.47787271858E+02  0.20000003711E+02 0.  0.
         12    1    1    2    0    0 -0.49881685732E+01  0.17024747070E+02  0.39609334313E+02  0.43400728142E+02  0.00000000000E+00 0. -1.
         11    1    3    3    0    0 -0.44934131729E+00  0.12589276709E+01 -0.49705944796E+00  0.14261398444E+01  0.51100000000E-03 0. -1.
        -11    1    3    3    0    0  0.45555855405E+00  0.17626949166E+01  0.31778742502E+00  0.18481385429E+01  0.51100000000E-03 0.  1.
        -12    1    3    3    0    0  0.49819513364E+01 -0.20046369658E+02 -0.39430062290E+02  0.44512993471E+02  0.00000000000E+00 0.  1.
</event>
<event>
 7    1  0.2492468E-009  0.4778727E+02  0.7816164E-02  0.1312668E+00
        -11   -1    0    0    0    0  0.00000000000E+00  0.00000000000E+00  0.45593999997E+02  0.45594000000E+02  0.51100000000E-03 0.  1.
         11   -1    0    0    0    0 -0.00000000000E+00 -0.00000000000E+00 -0.45593999997E+02  0.45594000000E+02  0.51100000000E-03 0. -1.
    9900012    2    1    2    0    0 -0.30124745692E+02 -0.14805757313E+02  0.27512042207E+02  0.47787271676E+02  0.20000002881E+02 0.  0.
         12    1    1    2    0    0  0.30124745692E+02  0.14805757313E+02 -0.27512042207E+02  0.43400728324E+02  0.00000000000E+00 0. -1.
         11    1    3    3    0    0 -0.78391146435E+00 -0.49391922765E+01  0.13079599748E+01  0.51692259658E+01  0.51100000000E-03 0. -1.
        -11    1    3    3    0    0 -0.33614898150E+01 -0.50586586755E+01  0.10994295186E+01  0.61723890755E+01  0.51100000000E-03 0.  1.
        -12    1    3    3    0    0 -0.25979344413E+02 -0.48079063609E+01  0.25104652714E+02  0.36445656635E+02  0.00000000000E+00 0.  1.
</event>
<event>
 7    1  0.2492468E-009  0.4778727E+02  0.7816164E-02  0.1312668E+00
        -11   -1    0    0    0    0  0.00000000000E+00  0.00000000000E+00  0.45593999997E+02  0.45594000000E+02  0.51100000000E-03 0.  1.
         11   -1    0    0    0    0 -0.00000000000E+00 -0.00000000000E+00 -0.45593999997E+02  0.45594000000E+02  0.51100000000E-03 0. -1.
    9900012    2    1    2    0    0  0.75263887592E+01  0.50746547837E+01  0.42440838150E+02  0.47787269686E+02  0.19999993807E+02 0.  0.
         12    1    1    2    0    0 -0.75263887592E+01 -0.50746547837E+01 -0.42440838150E+02  0.43400730314E+02  0.00000000000E+00 0. -1.
         11    1    3    3    0    0  0.82078858083E+01  0.11394220897E+01  0.10022685993E+02  0.13004687882E+02  0.51100000000E-03 0. -1.
        -11    1    3    3    0    0  0.36872254782E+01  0.19152086415E+01  0.34022563863E+01  0.53701959598E+01  0.51100000000E-03 0.  1.
        -12    1    3    3    0    0 -0.43687225273E+01  0.20200240525E+01  0.29015895770E+02  0.29412385844E+02  0.00000000000E+00 0.  1.
</event>
<event>
 7    1  0.2492468E-009  0.4778727E+02  0.7816164E-02  0.1312668E+00
        -11   -1    0    0    0    0  0.00000000000E+00  0.00000000000E+00  0.45593999997E+02  0.45594000000E+02  0.51100000000E-03 0. -1.
         11   -1    0    0    0    0 -0.00000000000E+00 -0.00000000000E+00 -0.45593999997E+02  0.45594000000E+02  0.51100000000E-03 0.  1.
    9900012    2    1    2    0    0 -0.22274206575E+02  0.33244490474E+02 -0.16801396409E+02  0.47787270206E+02  0.19999996175E+02 0.  0.
         12    1    1    2    0    0  0.22274206575E+02 -0.33244490474E+02  0.16801396409E+02  0.43400729794E+02  0.00000000000E+00 0. -1.
         11    1    3    3    0    0  0.36915197262E+00 -0.76853564612E+00 -0.21888153606E+01  0.23490068459E+01  0.51100000000E-03 0. -1.
        -11    1    3    3    0    0 -0.97499091156E+00  0.11932718257E+02 -0.26002039585E+01  0.12251589006E+02  0.51100000000E-03 0.  1.
         12    1    3    3    0    0 -0.21668367636E+02  0.22080307863E+02 -0.12012377090E+02  0.33186674354E+02  0.00000000000E+00 0. -1.
</event>
<event>
 7    1  0.2492468E-009  0.4778731E+02  0.7816164E-02  0.1312668E+00
        -11   -1    0    0    0    0  0.00000000000E+00  0.00000000000E+00  0.45593999997E+02  0.45594000000E+02  0.51100000000E-03 0.  1.
         11   -1    0    0    0    0 -0.00000000000E+00 -0.00000000000E+00 -0.45593999997E+02  0.45594000000E+02  0.51100000000E-03 0. -1.
    9900012    2    1    2    0    0 -0.22660041823E+01 -0.41305123602E+02 -0.13129052105E+02  0.47787308532E+02  0.20000170919E+02 0.  0.
         12    1    1    2    0    0  0.22660041823E+01  0.41305123602E+02  0.13129052105E+02  0.43400691468E+02  0.00000000000E+00 0. -1.
         11    1    3    3    0    0 -0.21996605688E+01 -0.14632549196E+02  0.28253106298E+00  0.14799656302E+02  0.51100000000E-03 0. -1.
        -11    1    3    3    0    0  0.91016401078E-01 -0.10974149817E+02  0.18076172903E+01  0.11122397616E+02  0.51100000000E-03 0.  1.
         12    1    3    3    0    0 -0.15736001460E+00 -0.15698424589E+02 -0.15219200458E+02  0.21865254614E+02  0.00000000000E+00 0. -1.
</event>
<event>
 7    1  0.2492468E-009  0.4778727E+02  0.7816164E-02  0.1312668E+00
        -11   -1    0    0    0    0  0.00000000000E+00  0.00000000000E+00  0.45593999997E+02  0.45594000000E+02  0.51100000000E-03 0.  1.
         11   -1    0    0    0    0 -0.00000000000E+00 -0.00000000000E+00 -0.45593999997E+02  0.45594000000E+02  0.51100000000E-03 0. -1.
    9900012    2    1    2    0    0  0.42983026932E+02 -0.48252273572E+01  0.35776730833E+01  0.47787272264E+02  0.20000005561E+02 0.  0.
         12    1    1    2    0    0 -0.42983026932E+02  0.48252273572E+01 -0.35776730833E+01  0.43400727736E+02  0.00000000000E+00 0. -1.
         11    1    3    3    0    0  0.11551261275E+02 -0.47326163977E+01 -0.45628952546E+01  0.13290948363E+02  0.51100000000E-03 0.  1.
        -11    1    3    3    0    0 -0.48330182454E+00  0.14650297175E+01  0.66813283379E+00  0.16811586693E+01  0.51100000000E-03 0. -1.
        -12    1    3    3    0    0  0.31915067482E+02 -0.15576406769E+01  0.74724355041E+01  0.32815165232E+02  0.00000000000E+00 0.  1.
</event>
<event>
 7    1  0.2492468E-009  0.4778727E+02  0.7816164E-02  0.1312668E+00
        -11   -1    0    0    0    0  0.00000000000E+00  0.00000000000E+00  0.45593999997E+02  0.45594000000E+02  0.51100000000E-03 0. -1.
         11   -1    0    0    0    0 -0.00000000000E+00 -0.00000000000E+00 -0.45593999997E+02  0.45594000000E+02  0.51100000000E-03 0.  1.
    9900012    2    1    2    0    0  0.16427543997E+02  0.32444128801E+02 -0.23688339694E+02  0.47787272669E+02  0.20000007407E+02 0.  0.
         12    1    1    2    0    0 -0.16427543997E+02 -0.32444128801E+02  0.23688339694E+02  0.43400727331E+02  0.00000000000E+00 0. -1.
         11    1    3    3    0    0  0.88385066603E+00  0.10083383503E+02 -0.16937875869E+01  0.10262783810E+02  0.51100000000E-03 0. -1.
        -11    1    3    3    0    0  0.19072704238E+01 -0.78125773343E+00  0.88230500117E+00  0.22419871747E+01  0.51100000000E-03 0.  1.
        -12    1    3    3    0    0  0.13636422907E+02  0.23142003031E+02 -0.22876857108E+02  0.35282501685E+02  0.00000000000E+00 0.  1.
</event>
<event>
 7    1  0.2492468E-009  0.4778727E+02  0.7816164E-02  0.1312668E+00
        -11   -1    0    0    0    0  0.00000000000E+00  0.00000000000E+00  0.45593999997E+02  0.45594000000E+02  0.51100000000E-03 0. -1.
         11   -1    0    0    0    0 -0.00000000000E+00 -0.00000000000E+00 -0.45593999997E+02  0.45594000000E+02  0.51100000000E-03 0.  1.
    9900012    2    1    2    0    0 -0.20950133230E+02 -0.15429188287E+02 -0.34736949366E+02  0.47787267463E+02  0.19999983670E+02 0.  0.
         12    1    1    2    0    0  0.20950133230E+02  0.15429188287E+02  0.34736949366E+02  0.43400732537E+02  0.00000000000E+00 0. -1.
         11    1    3    3    0    0  0.21943014021E+01 -0.65214228557E+01 -0.57456338853E+01  0.89641633023E+01  0.51100000000E-03 0. -1.
        -11    1    3    3    0    0  0.25446751532E+00 -0.40337301397E+00  0.14522496760E+00  0.49855196027E+00  0.51100000000E-03 0.  1.
        -12    1    3    3    0    0 -0.23398902147E+02 -0.85043924170E+01 -0.29136540448E+02  0.38324552200E+02  0.00000000000E+00 0.  1.
</event>
<event>
 7    1  0.2492468E-009  0.4778729E+02  0.7816164E-02  0.1312668E+00
        -11   -1    0    0    0    0  0.00000000000E+00  0.00000000000E+00  0.45593999997E+02  0.45594000000E+02  0.51100000000E-03 0.  1.
         11   -1    0    0    0    0 -0.00000000000E+00 -0.00000000000E+00 -0.45593999997E+02  0.45594000000E+02  0.51100000000E-03 0. -1.
    9900012    2    1    2    0    0  0.31888872187E+01 -0.29884298667E+02  0.31311037003E+02  0.47787293247E+02  0.20000101228E+02 0.  0.
         12    1    1    2    0    0 -0.31888872187E+01  0.29884298667E+02 -0.31311037003E+02  0.43400706753E+02  0.00000000000E+00 0. -1.
         11    1    3    3    0    0  0.26063256315E+01 -0.20444193027E+01  0.46717063811E+01  0.57269035573E+01  0.51100000000E-03 0. -1.
        -11    1    3    3    0    0 -0.72461039214E+01 -0.15689331283E+02  0.19100521945E+02  0.25758320539E+02  0.51100000000E-03 0.  1.
        -12    1    3    3    0    0  0.78286655086E+01 -0.12150548081E+02  0.75388086765E+01  0.16302069150E+02  0.00000000000E+00 0.  1.
</event>
<event>
 7    1  0.2492468E-009  0.4778727E+02  0.7816164E-02  0.1312668E+00
        -11   -1    0    0    0    0  0.00000000000E+00  0.00000000000E+00  0.45593999997E+02  0.45594000000E+02  0.51100000000E-03 0.  1.
         11   -1    0    0    0    0 -0.00000000000E+00 -0.00000000000E+00 -0.45593999997E+02  0.45594000000E+02  0.51100000000E-03 0. -1.
    9900012    2    1    2    0    0  0.11494437140E+02  0.38170179066E+02  0.17162127115E+02  0.47787271178E+02  0.20000000610E+02 0.  0.
         12    1    1    2    0    0 -0.11494437140E+02 -0.38170179066E+02 -0.17162127115E+02  0.43400728822E+02  0.00000000000E+00 0. -1.
         11    1    3    3    0    0  0.32724898145E+01  0.18104991453E+02  0.36953468567E+01  0.18765806504E+02  0.51100000000E-03 0. -1.
        -11    1    3    3    0    0 -0.22215216377E+01  0.12307499324E+02  0.83719088930E+01  0.15049868995E+02  0.51100000000E-03 0.  1.
         12    1    3    3    0    0  0.10443468963E+02  0.77576882894E+01  0.50948713657E+01  0.13971595679E+02  0.00000000000E+00 0. -1.
</event>
<event>
 7    1  0.2492468E-009  0.4778728E+02  0.7816164E-02  0.1312668E+00
        -11   -1    0    0    0    0  0.00000000000E+00  0.00000000000E+00  0.45593999997E+02  0.45594000000E+02  0.51100000000E-03 0.  1.
         11   -1    0    0    0    0 -0.00000000000E+00 -0.00000000000E+00 -0.45593999997E+02  0.45594000000E+02  0.51100000000E-03 0. -1.
    9900012    2    1    2    0    0  0.31012387292E+02 -0.19620876705E+02  0.23170578021E+02  0.47787278185E+02  0.20000032556E+02 0.  0.
         12    1    1    2    0    0 -0.31012387292E+02  0.19620876705E+02 -0.23170578021E+02  0.43400721815E+02  0.00000000000E+00 0. -1.
         11    1    3    3    0    0  0.22876770465E+01 -0.21865225270E+01  0.61226575341E+01  0.68921174229E+01  0.51100000000E-03 0. -1.
        -11    1    3    3    0    0  0.18397480820E+02 -0.19308585438E+02  0.12574207316E+02  0.29485580579E+02  0.51100000000E-03 0.  1.
        -12    1    3    3    0    0  0.10327229426E+02  0.18742312607E+01  0.44737131709E+01  0.11409580183E+02  0.00000000000E+00 0.  1.
</event>
<event>
 7    1  0.2492468E-009  0.4778727E+02  0.7816164E-02  0.1312668E+00
        -11   -1    0    0    0    0  0.00000000000E+00  0.00000000000E+00  0.45593999997E+02  0.45594000000E+02  0.51100000000E-03 0.  1.
         11   -1    0    0    0    0 -0.00000000000E+00 -0.00000000000E+00 -0.45593999997E+02  0.45594000000E+02  0.51100000000E-03 0. -1.
    9900012    2    1    2    0    0  0.52942242572E+00  0.27757199917E+02  0.33359868890E+02  0.47787270885E+02  0.19999999273E+02 0.  0.
         12    1    1    2    0    0 -0.52942242572E+00 -0.27757199917E+02 -0.33359868890E+02  0.43400729115E+02  0.00000000000E+00 0. -1.
         11    1    3    3    0    0 -0.66346007018E-01 -0.21572515350E+00  0.10198449494E+01  0.10445205199E+01  0.51100000000E-03 0. -1.
        -11    1    3    3    0    0  0.58563256833E+01  0.15178356903E+02  0.27749881362E+02  0.32167296819E+02  0.51100000000E-03 0.  1.
         12    1    3    3    0    0 -0.52605572506E+01  0.12794568167E+02  0.45901425787E+01  0.14575453546E+02  0.00000000000E+00 0. -1.
</event>
<event>
 7    1  0.2492468E-009  0.4778728E+02  0.7816164E-02  0.1312668E+00
        -11   -1    0    0    0    0  0.00000000000E+00  0.00000000000E+00  0.45593999997E+02  0.45594000000E+02  0.51100000000E-03 0.  1.
         11   -1    0    0    0    0 -0.00000000000E+00 -0.00000000000E+00 -0.45593999997E+02  0.45594000000E+02  0.51100000000E-03 0. -1.
    9900012    2    1    2    0    0  0.32867670256E+01  0.17728618327E+02  0.39478041832E+02  0.47787279589E+02  0.20000038959E+02 0.  0.
         12    1    1    2    0    0 -0.32867670256E+01 -0.17728618327E+02 -0.39478041832E+02  0.43400720411E+02  0.00000000000E+00 0. -1.
         11    1    3    3    0    0  0.63327867900E-02  0.15271604246E+02  0.12260121304E+02  0.19583986086E+02  0.51100000000E-03 0. -1.
        -11    1    3    3    0    0  0.16875706134E+01  0.16073561196E+01  0.24935609221E+01  0.34131121580E+01  0.51100000000E-03 0.  1.
        -12    1    3    3    0    0  0.15928636254E+01  0.84965796083E+00  0.24724359607E+02  0.24790181345E+02  0.00000000000E+00 0.  1.
</event>
<event>
 7    1  0.2492468E-009  0.4778728E+02  0.7816164E-02  0.1312668E+00
        -11   -1    0    0    0    0  0.00000000000E+00  0.00000000000E+00  0.45593999997E+02  0.45594000000E+02  0.51100000000E-03 0.  1.
         11   -1    0    0    0    0 -0.00000000000E+00 -0.00000000000E+00 -0.45593999997E+02  0.45594000000E+02  0.51100000000E-03 0. -1.
    9900012    2    1    2    0    0 -0.78584657850E+01  0.33244368879E+02  0.26770861127E+02  0.47787279359E+02  0.20000037911E+02 0.  0.
         12    1    1    2    0    0  0.78584657850E+01 -0.33244368879E+02 -0.26770861127E+02  0.43400720641E+02  0.00000000000E+00 0. -1.
         11    1    3    3    0    0 -0.29293027636E+01  0.27477368484E+01 -0.27325207868E+00  0.40256104418E+01  0.51100000000E-03 0. -1.
        -11    1    3    3    0    0  0.54782911226E+01  0.11474207312E+02  0.95820504898E+01  0.15921205950E+02  0.51100000000E-03 0.  1.
         12    1    3    3    0    0 -0.10407454144E+02  0.19022424719E+02  0.17462062716E+02  0.27840462967E+02  0.00000000000E+00 0. -1.
</event>
<event>
 7    1  0.2492468E-009  0.4778727E+02  0.7816164E-02  0.1312668E+00
        -11   -1    0    0    0    0  0.00000000000E+00  0.00000000000E+00  0.45593999997E+02  0.45594000000E+02  0.51100000000E-03 0. -1.
         11   -1    0    0    0    0 -0.00000000000E+00 -0.00000000000E+00 -0.45593999997E+02  0.45594000000E+02  0.51100000000E-03 0.  1.
    9900012    2    1    2    0    0 -0.58018412081E+01 -0.37833300362E+02 -0.20459789458E+02  0.47787274633E+02  0.20000016363E+02 0.  0.
         12    1    1    2    0    0  0.58018412081E+01  0.37833300362E+02  0.20459789458E+02  0.43400725367E+02  0.00000000000E+00 0. -1.
         11    1    3    3    0    0  0.28592623050E+01 -0.92955164382E+01  0.17540162969E+01  0.98822355878E+01  0.51100000000E-03 0. -1.
        -11    1    3    3    0    0 -0.11511425313E+01 -0.21440137746E+00 -0.63049506014E-01  0.11726348875E+01  0.51100000000E-03 0.  1.
         12    1    3    3    0    0 -0.75099609818E+01 -0.28323382546E+02 -0.22150756249E+02  0.36732404158E+02  0.00000000000E+00 0. -1.
</event>
<event>
 7    1  0.2492468E-009  0.4778727E+02  0.7816164E-02  0.1312668E+00
        -11   -1    0    0    0    0  0.00000000000E+00  0.00000000000E+00  0.45593999997E+02  0.45594000000E+02  0.51100000000E-03 0.  1.
         11   -1    0    0    0    0 -0.00000000000E+00 -0.00000000000E+00 -0.45593999997E+02  0.45594000000E+02  0.51100000000E-03 0. -1.
    9900012    2    1    2    0    0  0.34807787236E+02 -0.16360078676E+02  0.20109424092E+02  0.47787272312E+02  0.20000005779E+02 0.  0.
         12    1    1    2    0    0 -0.34807787236E+02  0.16360078676E+02 -0.20109424092E+02  0.43400727688E+02  0.00000000000E+00 0. -1.
         11    1    3    3    0    0  0.12239058321E+00 -0.52908921337E+01  0.20288887732E+01  0.56678839914E+01  0.51100000000E-03 0. -1.
        -11    1    3    3    0    0  0.16230322486E+02 -0.10361726264E+02  0.11937231474E+02  0.22655821209E+02  0.51100000000E-03 0.  1.
         12    1    3    3    0    0  0.18455074167E+02 -0.70746027824E+00  0.61433038447E+01  0.19463567111E+02  0.00000000000E+00 0. -1.
</event>
<event>
 7    1  0.2492468E-009  0.4778728E+02  0.7816164E-02  0.1312668E+00
        -11   -1    0    0    0    0  0.00000000000E+00  0.00000000000E+00  0.45593999997E+02  0.45594000000E+02  0.51100000000E-03 0. -1.
         11   -1    0    0    0    0 -0.00000000000E+00 -0.00000000000E+00 -0.45593999997E+02  0.45594000000E+02  0.51100000000E-03 0.  1.
    9900012    2    1    2    0    0 -0.13571426706E+02 -0.89325165535E+01 -0.40244867075E+02  0.47787276496E+02  0.20000024855E+02 0.  0.
         12    1    1    2    0    0  0.13571426706E+02  0.89325165535E+01  0.40244867075E+02  0.43400723504E+02  0.00000000000E+00 0. -1.
         11    1    3    3    0    0 -0.24235128945E+01 -0.72964797573E+01 -0.11111496527E+02  0.13512120001E+02  0.51100000000E-03 0. -1.
        -11    1    3    3    0    0 -0.76769274093E+01 -0.56535436085E+01 -0.78809724215E+01  0.12369619895E+02  0.51100000000E-03 0.  1.
        -12    1    3    3    0    0 -0.34709864027E+01  0.40175068123E+01 -0.21252398126E+02  0.21905536599E+02  0.00000000000E+00 0.  1.
</event>
<event>
 7    1  0.2492468E-009  0.4778727E+02  0.7816164E-02  0.1312668E+00
        -11   -1    0    0    0    0  0.00000000000E+00  0.00000000000E+00  0.45593999997E+02  0.45594000000E+02  0.51100000000E-03 0.  1.
         11   -1    0    0    0    0 -0.00000000000E+00 -0.00000000000E+00 -0.45593999997E+02  0.45594000000E+02  0.51100000000E-03 0. -1.
    9900012    2    1    2    0    0  0.10753487376E+02  0.10416360345E+02  0.40736778003E+02  0.47787272637E+02  0.20000007260E+02 0.  0.
         12    1    1    2    0    0 -0.10753487376E+02 -0.10416360345E+02 -0.40736778003E+02  0.43400727363E+02  0.00000000000E+00 0. -1.
         11    1    3    3    0    0  0.13874865594E+01  0.38575562641E+01  0.11752017330E+02  0.12446516415E+02  0.51100000000E-03 0. -1.
        -11    1    3    3    0    0  0.11011648859E+02  0.37628225632E+01  0.29803470943E+02  0.31994720264E+02  0.51100000000E-03 0.  1.
         12    1    3    3    0    0 -0.16456480424E+01  0.27959815180E+01 -0.81871026977E+00  0.33460359583E+01  0.00000000000E+00 0. -1.
</event>
<event>
 7    1  0.2492468E-009  0.4778722E+02  0.7816164E-02  0.1312668E+00
        -11   -1    0    0    0    0  0.00000000000E+00  0.00000000000E+00  0.45593999997E+02  0.45594000000E+02  0.51100000000E-03 0.  1.
         11   -1    0    0    0    0 -0.00000000000E+00 -0.00000000000E+00 -0.45593999997E+02  0.45594000000E+02  0.51100000000E-03 0. -1.
    9900012    2    1    2    0    0 -0.24177154418E+02 -0.95397052070E+01  0.34757539083E+02  0.47787224727E+02  0.19999788821E+02 0.  0.
         12    1    1    2    0    0  0.24177154418E+02  0.95397052070E+01 -0.34757539083E+02  0.43400775273E+02  0.00000000000E+00 0. -1.
         11    1    3    3    0    0 -0.10737415545E+02  0.13751290638E+01  0.15685641500E+02  0.19058395055E+02  0.51100000000E-03 0.  1.
        -11    1    3    3    0    0  0.17957155067E+00 -0.74187447535E+01  0.63506579136E+01  0.97673371938E+01  0.51100000000E-03 0. -1.
         12    1    3    3    0    0 -0.13619310423E+02 -0.34960895172E+01  0.12721239669E+02  0.18961492479E+02  0.00000000000E+00 0. -1.
</event>
<event>
 7    1  0.2492468E-009  0.4778727E+02  0.7816164E-02  0.1312668E+00
        -11   -1    0    0    0    0  0.00000000000E+00  0.00000000000E+00  0.45593999997E+02  0.45594000000E+02  0.51100000000E-03 0. -1.
         11   -1    0    0    0    0 -0.00000000000E+00 -0.00000000000E+00 -0.45593999997E+02  0.45594000000E+02  0.51100000000E-03 0.  1.
    9900012    2    1    2    0    0  0.41397291449E+02 -0.23295126558E+01  0.12824229870E+02  0.47787271432E+02  0.20000001765E+02 0.  0.
         12    1    1    2    0    0 -0.41397291449E+02  0.23295126558E+01 -0.12824229870E+02  0.43400728568E+02  0.00000000000E+00 0. -1.
         11    1    3    3    0    0  0.75380241012E+01 -0.53041876350E+01  0.94866767200E+00  0.92658612352E+01  0.51100000000E-03 0.  1.
        -11    1    3    3    0    0  0.94236519966E-01 -0.18396494216E+00  0.36103748942E+01  0.36162868746E+01  0.51100000000E-03 0. -1.
        -12    1    3    3    0    0  0.33765030828E+02  0.31586399213E+01  0.82651873042E+01  0.34905123322E+02  0.00000000000E+00 0.  1.
</event>
<event>
 7    1  0.2492468E-009  0.4778728E+02  0.7816164E-02  0.1312668E+00
        -11   -1    0    0    0    0  0.00000000000E+00  0.00000000000E+00  0.45593999997E+02  0.45594000000E+02  0.51100000000E-03 0.  1.
         11   -1    0    0    0    0 -0.00000000000E+00 -0.00000000000E+00 -0.45593999997E+02  0.45594000000E+02  0.51100000000E-03 0. -1.
    9900012    2    1    2    0    0 -0.22563428450E+02 -0.33532799863E+02  0.15813468972E+02  0.47787276838E+02  0.20000026416E+02 0.  0.
         12    1    1    2    0    0  0.22563428450E+02  0.33532799863E+02 -0.15813468972E+02  0.43400723162E+02  0.00000000000E+00 0. -1.
         11    1    3    3    0    0 -0.61691931548E+01 -0.97282600181E+01  0.69586021458E+01  0.13458087949E+02  0.51100000000E-03 0. -1.
        -11    1    3    3    0    0 -0.17610374742E+02 -0.20090391469E+02  0.24527269357E+01  0.26828436362E+02  0.51100000000E-03 0.  1.
         12    1    3    3    0    0  0.12161394466E+01 -0.37141483755E+01  0.64021398900E+01  0.75007525276E+01  0.00000000000E+00 0. -1.
</event>
<event>
 7    1  0.2492468E-009  0.4778727E+02  0.7816164E-02  0.1312668E+00
        -11   -1    0    0    0    0  0.00000000000E+00  0.00000000000E+00  0.45593999997E+02  0.45594000000E+02  0.51100000000E-03 0.  1.
         11   -1    0    0    0    0 -0.00000000000E+00 -0.00000000000E+00 -0.45593999997E+02  0.45594000000E+02  0.51100000000E-03 0. -1.
    9900012    2    1    2    0    0 -0.29265018614E+02 -0.20081374949E+02  0.24978396409E+02  0.47787271648E+02  0.20000002752E+02 0.  0.
         12    1    1    2    0    0  0.29265018614E+02  0.20081374949E+02 -0.24978396409E+02  0.43400728352E+02  0.00000000000E+00 0. -1.
         11    1    3    3    0    0 -0.53880314315E+01 -0.12943065723E+02  0.15691203775E+02  0.21042046222E+02  0.51100000000E-03 0.  1.
        -11    1    3    3    0    0 -0.52809630773E+01 -0.38732201723E+00  0.18136786262E+01  0.55971438957E+01  0.51100000000E-03 0. -1.
        -12    1    3    3    0    0 -0.18596024105E+02 -0.67509872090E+01  0.74735140076E+01  0.21148081531E+02  0.00000000000E+00 0.  1.
</event>
<event>
 7    1  0.2492468E-009  0.4778728E+02  0.7816164E-02  0.1312668E+00
        -11   -1    0    0    0    0  0.00000000000E+00  0.00000000000E+00  0.45593999997E+02  0.45594000000E+02  0.51100000000E-03 0. -1.
         11   -1    0    0    0    0 -0.00000000000E+00 -0.00000000000E+00 -0.45593999997E+02  0.45594000000E+02  0.51100000000E-03 0.  1.
    9900012    2    1    2    0    0  0.38410449117E+02  0.16233628754E+02 -0.12030358637E+02  0.47787276125E+02  0.20000023166E+02 0.  0.
         12    1    1    2    0    0 -0.38410449117E+02 -0.16233628754E+02  0.12030358637E+02  0.43400723875E+02  0.00000000000E+00 0. -1.
         11    1    3    3    0    0  0.31910838443E+01  0.42361329799E+01 -0.60086243279E+01  0.80144497815E+01  0.51100000000E-03 0.  1.
        -11    1    3    3    0    0  0.34000596808E+01  0.51692720980E+01 -0.35548954430E+01  0.71357593659E+01  0.51100000000E-03 0. -1.
        -12    1    3    3    0    0  0.31819305592E+02  0.68282236761E+01 -0.24668388658E+01  0.32637066978E+02  0.00000000000E+00 0.  1.
</event>
<event>
 7    1  0.2492468E-009  0.4778727E+02  0.7816164E-02  0.1312668E+00
        -11   -1    0    0    0    0  0.00000000000E+00  0.00000000000E+00  0.45593999997E+02  0.45594000000E+02  0.51100000000E-03 0.  1.
         11   -1    0    0    0    0 -0.00000000000E+00 -0.00000000000E+00 -0.45593999997E+02  0.45594000000E+02  0.51100000000E-03 0. -1.
    9900012    2    1    2    0    0  0.15901334967E+02 -0.21594370861E+02  0.34124093975E+02  0.47787273091E+02  0.20000009331E+02 0.  0.
         12    1    1    2    0    0 -0.15901334967E+02  0.21594370861E+02 -0.34124093975E+02  0.43400726909E+02  0.00000000000E+00 0. -1.
         11    1    3    3    0    0  0.11418761515E+02 -0.11234040767E+02  0.22113873680E+02  0.27305955319E+02  0.51100000000E-03 0. -1.
        -11    1    3    3    0    0  0.16409234957E+01  0.22919522993E+01  0.18266517039E-01  0.28188666496E+01  0.51100000000E-03 0.  1.
         12    1    3    3    0    0  0.28416499559E+01 -0.12652282393E+02  0.11991953778E+02  0.17662451123E+02  0.00000000000E+00 0. -1.
</event>
<event>
 7    1  0.2738906E-009  0.4778726E+02  0.7816164E-02  0.1312668E+00
        -11   -1    0    0    0    0  0.00000000000E+00  0.00000000000E+00  0.45593999997E+02  0.45594000000E+02  0.51100000000E-03 0. -1.
         11   -1    0    0    0    0 -0.00000000000E+00 -0.00000000000E+00 -0.45593999997E+02  0.45594000000E+02  0.51100000000E-03 0.  1.
    9900012    2    1    2    0    0  0.15867447878E+02 -0.20088716890E+02 -0.35046991031E+02  0.47787262347E+02  0.19999960346E+02 0.  0.
         12    1    1    2    0    0 -0.15867447878E+02  0.20088716890E+02  0.35046991031E+02  0.43400737653E+02  0.00000000000E+00 0. -1.
         11    1    3    3    0    0  0.29121959095E+01 -0.56023987651E+01 -0.55216705682E-01  0.63143333840E+01  0.51100000000E-03 0. -1.
        -11    1    3    3    0    0  0.10874077114E+02 -0.10407301705E+02 -0.16125105606E+02  0.22058479388E+02  0.51100000000E-03 0.  1.
         12    1    3    3    0    0  0.20811748547E+01 -0.40790164203E+01 -0.18866668720E+02  0.19414449575E+02  0.00000000000E+00 0. -1.
</event>
<event>
 7    1  0.3399198E-009  0.4778730E+02  0.7816164E-02  0.1312668E+00
        -11   -1    0    0    0    0  0.00000000000E+00  0.00000000000E+00  0.45593999997E+02  0.45594000000E+02  0.51100000000E-03 0.  1.
         11   -1    0    0    0    0 -0.00000000000E+00 -0.00000000000E+00 -0.45593999997E+02  0.45594000000E+02  0.51100000000E-03 0. -1.
    9900012    2    1    2    0    0 -0.42095970845E+01  0.43062124735E+02 -0.33989877018E+01  0.47787304018E+02  0.20000150339E+02 0.  0.
         12    1    1    2    0    0  0.42095970845E+01 -0.43062124735E+02  0.33989877018E+01  0.43400695982E+02  0.00000000000E+00 0. -1.
         11    1    3    3    0    0 -0.57582897798E+01  0.22526208154E+02 -0.35340358889E+01  0.23517596921E+02  0.51100000000E-03 0. -1.
        -11    1    3    3    0    0  0.56291033849E+00  0.19422130830E+02  0.42539289791E+01  0.19890498889E+02  0.51100000000E-03 0.  1.
         12    1    3    3    0    0  0.98578235675E+00  0.11137857508E+01 -0.41188807921E+01  0.43792082084E+01  0.00000000000E+00 0. -1.
</event>
<event>
 7    1  0.2492468E-009  0.4778727E+02  0.7816164E-02  0.1312668E+00
        -11   -1    0    0    0    0  0.00000000000E+00  0.00000000000E+00  0.45593999997E+02  0.45594000000E+02  0.51100000000E-03 0. -1.
         11   -1    0    0    0    0 -0.00000000000E+00 -0.00000000000E+00 -0.45593999997E+02  0.45594000000E+02  0.51100000000E-03 0.  1.
    9900012    2    1    2    0    0 -0.41729160811E+02  0.11875715777E+02 -0.11259187172E+01  0.47787272124E+02  0.20000004920E+02 0.  0.
         12    1    1    2    0    0  0.41729160811E+02 -0.11875715777E+02  0.11259187172E+01  0.43400727876E+02  0.00000000000E+00 0. -1.
         11    1    3    3    0    0 -0.15209907917E+02  0.26755493903E+01 -0.10007578260E+01  0.15475832122E+02  0.51100000000E-03 0. -1.
        -11    1    3    3    0    0 -0.22424719756E+02  0.13060884326E+02  0.25582076766E+01  0.26076793942E+02  0.51100000000E-03 0.  1.
         12    1    3    3    0    0 -0.40945331385E+01 -0.38607179385E+01 -0.26833685677E+01  0.62346460600E+01  0.00000000000E+00 0. -1.
</event>
<event>
 7    1  0.2492468E-009  0.4778727E+02  0.7816164E-02  0.1312668E+00
        -11   -1    0    0    0    0  0.00000000000E+00  0.00000000000E+00  0.45593999997E+02  0.45594000000E+02  0.51100000000E-03 0.  1.
         11   -1    0    0    0    0 -0.00000000000E+00 -0.00000000000E+00 -0.45593999997E+02  0.45594000000E+02  0.51100000000E-03 0. -1.
    9900012    2    1    2    0    0 -0.64956814442E+01  0.33956293373E+02  0.26237362732E+02  0.47787274888E+02  0.20000017526E+02 0.  0.
         12    1    1    2    0    0  0.64956814442E+01 -0.33956293373E+02 -0.26237362732E+02  0.43400725112E+02  0.00000000000E+00 0. -1.
         11    1    3    3    0    0 -0.71275970783E+01  0.11384527670E+02  0.30184293985E+01  0.13766663600E+02  0.51100000000E-03 0.  1.
        -11    1    3    3    0    0  0.57189822921E+00 -0.10202222467E+01  0.51352834137E+00  0.12773537629E+01  0.51100000000E-03 0. -1.
        -12    1    3    3    0    0  0.60017404954E-01  0.23591987950E+02  0.22705404992E+02  0.32743257525E+02  0.00000000000E+00 0.  1.
</event>
<event>
 7    1  0.2492468E-009  0.4778727E+02  0.7816164E-02  0.1312668E+00
        -11   -1    0    0    0    0  0.00000000000E+00  0.00000000000E+00  0.45593999997E+02  0.45594000000E+02  0.51100000000E-03 0. -1.
         11   -1    0    0    0    0 -0.00000000000E+00 -0.00000000000E+00 -0.45593999997E+02  0.45594000000E+02  0.51100000000E-03 0.  1.
    9900012    2    1    2    0    0 -0.77225306099E+01  0.41705528398E+02 -0.91996991745E+01  0.47787273706E+02  0.20000012134E+02 0.  0.
         12    1    1    2    0    0  0.77225306099E+01 -0.41705528398E+02  0.91996991745E+01  0.43400726294E+02  0.00000000000E+00 0. -1.
         11    1    3    3    0    0 -0.11594011747E+02  0.26332708820E+02 -0.11811437740E+02  0.31102133752E+02  0.51100000000E-03 0. -1.
        -11    1    3    3    0    0  0.87979195890E+00  0.45716322704E+01 -0.12674356656E+01  0.48249610293E+01  0.51100000000E-03 0.  1.
         12    1    3    3    0    0  0.29916891786E+01  0.10801187308E+02  0.38791742315E+01  0.11860178924E+02  0.00000000000E+00 0. -1.
</event>
<event>
 7    1  0.2492468E-009  0.4778726E+02  0.7816164E-02  0.1312668E+00
        -11   -1    0    0    0    0  0.00000000000E+00  0.00000000000E+00  0.45593999997E+02  0.45594000000E+02  0.51100000000E-03 0.  1.
         11   -1    0    0    0    0 -0.00000000000E+00 -0.00000000000E+00 -0.45593999997E+02  0.45594000000E+02  0.51100000000E-03 0. -1.
    9900012    2    1    2    0    0 -0.10415256421E+02 -0.41350342776E+02 -0.80805611080E+01  0.47787264040E+02  0.19999968066E+02 0.  0.
         12    1    1    2    0    0  0.10415256421E+02  0.41350342776E+02  0.80805611080E+01  0.43400735960E+02  0.00000000000E+00 0. -1.
         11    1    3    3    0    0 -0.48037633885E+01 -0.11952591424E+02  0.45776813715E+00  0.12889923831E+02  0.51100000000E-03 0.  1.
        -11    1    3    3    0    0 -0.10437005591E+02 -0.16653315247E+02 -0.81158876419E+01  0.21263387004E+02  0.51100000000E-03 0. -1.
         12    1    3    3    0    0  0.48255125583E+01 -0.12744436106E+02 -0.42244160322E+00  0.13633953206E+02  0.00000000000E+00 0. -1.
</event>
<event>
 7    1  0.2492468E-009  0.4778729E+02  0.7816164E-02  0.1312668E+00
        -11   -1    0    0    0    0  0.00000000000E+00  0.00000000000E+00  0.45593999997E+02  0.45594000000E+02  0.51100000000E-03 0.  1.
         11   -1    0    0    0    0 -0.00000000000E+00 -0.00000000000E+00 -0.45593999997E+02  0.45594000000E+02  0.51100000000E-03 0. -1.
    9900012    2    1    2    0    0  0.18268839283E+02 -0.29865689291E+02  0.25649797777E+02  0.47787285586E+02  0.20000066303E+02 0.  0.
         12    1    1    2    0    0 -0.18268839283E+02  0.29865689291E+02 -0.25649797777E+02  0.43400714414E+02  0.00000000000E+00 0. -1.
         11    1    3    3    0    0  0.18869343607E+02 -0.20731320463E+02  0.18857064482E+02  0.33785035998E+02  0.51100000000E-03 0. -1.
        -11    1    3    3    0    0  0.11897219707E+01 -0.88627307576E+01  0.78555576463E+01  0.11902656050E+02  0.51100000000E-03 0.  1.
         12    1    3    3    0    0 -0.17902262940E+01 -0.27163807060E+00 -0.10628243507E+01  0.20995935382E+01  0.00000000000E+00 0. -1.
</event>
<event>
 7    1  0.2492468E-009  0.4778727E+02  0.7816164E-02  0.1312668E+00
        -11   -1    0    0    0    0  0.00000000000E+00  0.00000000000E+00  0.45593999997E+02  0.45594000000E+02  0.51100000000E-03 0.  1.
         11   -1    0    0    0    0 -0.00000000000E+00 -0.00000000000E+00 -0.45593999997E+02  0.45594000000E+02  0.51100000000E-03 0. -1.
    9900012    2    1    2    0    0  0.31676228465E+02  0.29656086545E+02  0.86982774378E+00  0.47787268217E+02  0.19999987110E+02 0.  0.
         12    1    1    2    0    0 -0.31676228465E+02 -0.29656086545E+02 -0.86982774378E+00  0.43400731783E+02  0.00000000000E+00 0. -1.
         11    1    3    3    0    0  0.19913215599E+01 -0.72331045623E+00 -0.64427935154E+00  0.22144154341E+01  0.51100000000E-03 0. -1.
        -11    1    3    3    0    0  0.59546912572E+01  0.10478472352E+02 -0.63454981179E+01  0.13620648936E+02  0.51100000000E-03 0.  1.
         12    1    3    3    0    0  0.23730215648E+02  0.19900924650E+02  0.78596052132E+01  0.31952203848E+02  0.00000000000E+00 0. -1.
</event>
<event>
 7    1  0.2492468E-009  0.4778727E+02  0.7816164E-02  0.1312668E+00
        -11   -1    0    0    0    0  0.00000000000E+00  0.00000000000E+00  0.45593999997E+02  0.45594000000E+02  0.51100000000E-03 0.  1.
         11   -1    0    0    0    0 -0.00000000000E+00 -0.00000000000E+00 -0.45593999997E+02  0.45594000000E+02  0.51100000000E-03 0. -1.
    9900012    2    1    2    0    0  0.43016682326E+02  0.29468150956E+01 -0.49501813718E+01  0.47787274508E+02  0.20000015794E+02 0.  0.
         12    1    1    2    0    0 -0.43016682326E+02 -0.29468150956E+01  0.49501813718E+01  0.43400725492E+02  0.00000000000E+00 0. -1.
         11    1    3    3    0    0  0.31706318535E+01  0.47407971521E+01  0.59710167631E+00  0.57345091038E+01  0.51100000000E-03 0. -1.
        -11    1    3    3    0    0  0.64901830071E+01 -0.48126336957E+01 -0.23151523056E+01  0.84049895308E+01  0.51100000000E-03 0.  1.
        -12    1    3    3    0    0  0.33355867466E+02  0.30186516392E+01 -0.32321307425E+01  0.33647775874E+02  0.00000000000E+00 0.  1.
</event>
<event>
 7    1  0.2492468E-009  0.4778727E+02  0.7816164E-02  0.1312668E+00
        -11   -1    0    0    0    0  0.00000000000E+00  0.00000000000E+00  0.45593999997E+02  0.45594000000E+02  0.51100000000E-03 0.  1.
         11   -1    0    0    0    0 -0.00000000000E+00 -0.00000000000E+00 -0.45593999997E+02  0.45594000000E+02  0.51100000000E-03 0. -1.
    9900012    2    1    2    0    0 -0.15362639536E+02 -0.12158795659E+02  0.38726944649E+02  0.47787271351E+02  0.20000001399E+02 0.  0.
         12    1    1    2    0    0  0.15362639536E+02  0.12158795659E+02 -0.38726944649E+02  0.43400728649E+02  0.00000000000E+00 0. -1.
         11    1    3    3    0    0 -0.17233247397E+01 -0.38578547795E+01 -0.11982209307E+01  0.43918817513E+01  0.51100000000E-03 0. -1.
        -11    1    3    3    0    0 -0.79932409554E+01 -0.26973109806E+01  0.14734877126E+02  0.16978927872E+02  0.51100000000E-03 0.  1.
        -12    1    3    3    0    0 -0.56460738408E+01 -0.56036298993E+01  0.25190288454E+02  0.26416461728E+02  0.00000000000E+00 0.  1.
</event>
<event>
 7    1  0.2492468E-009  0.4778727E+02  0.7816164E-02  0.1312668E+00
        -11   -1    0    0    0    0  0.00000000000E+00  0.00000000000E+00  0.45593999997E+02  0.45594000000E+02  0.51100000000E-03 0.  1.
         11   -1    0    0    0    0 -0.00000000000E+00 -0.00000000000E+00 -0.45593999997E+02  0.45594000000E+02  0.51100000000E-03 0. -1.
    9900012    2    1    2    0    0  0.14662252404E+02 -0.12125438106E+02  0.39007888703E+02  0.47787271022E+02  0.19999999897E+02 0.  0.
         12    1    1    2    0    0 -0.14662252404E+02  0.12125438106E+02 -0.39007888703E+02  0.43400728978E+02  0.00000000000E+00 0. -1.
         11    1    3    3    0    0  0.10187127320E+02  0.52686980513E+00  0.11293507019E+02  0.15218359172E+02  0.51100000000E-03 0. -1.
        -11    1    3    3    0    0 -0.51430623209E+00  0.99645515291E+00  0.79949993231E+01  0.80732551186E+01  0.51100000000E-03 0.  1.
        -12    1    3    3    0    0  0.49894313153E+01 -0.13648763064E+02  0.19719382360E+02  0.24495656731E+02  0.00000000000E+00 0.  1.
</event>
<event>
 7    1  0.2492468E-009  0.4778727E+02  0.7816164E-02  0.1312668E+00
        -11   -1    0    0    0    0  0.00000000000E+00  0.00000000000E+00  0.45593999997E+02  0.45594000000E+02  0.51100000000E-03 0.  1.
         11   -1    0    0    0    0 -0.00000000000E+00 -0.00000000000E+00 -0.45593999997E+02  0.45594000000E+02  0.51100000000E-03 0. -1.
    9900012    2    1    2    0    0  0.31669186660E+02 -0.17364401039E+02  0.24065813290E+02  0.47787272167E+02  0.20000005116E+02 0.  0.
         12    1    1    2    0    0 -0.31669186660E+02  0.17364401039E+02 -0.24065813290E+02  0.43400727833E+02  0.00000000000E+00 0. -1.
         11    1    3    3    0    0  0.22374562711E+02 -0.81500297094E+01  0.75212013482E+01  0.24972234797E+02  0.51100000000E-03 0. -1.
        -11    1    3    3    0    0  0.53379559358E+01 -0.20910011494E+01  0.18705340668E+01  0.60303364198E+01  0.51100000000E-03 0.  1.
        -12    1    3    3    0    0  0.39566680134E+01 -0.71233701805E+01  0.14674077875E+02  0.16784700950E+02  0.00000000000E+00 0.  1.
</event>
<event>
 7    1  0.2492468E-009  0.4778727E+02  0.7816164E-02  0.1312668E+00
        -11   -1    0    0    0    0  0.00000000000E+00  0.00000000000E+00  0.45593999997E+02  0.45594000000E+02  0.51100000000E-03 0.  1.
         11   -1    0    0    0    0 -0.00000000000E+00 -0.00000000000E+00 -0.45593999997E+02  0.45594000000E+02  0.51100000000E-03 0. -1.
    9900012    2    1    2    0    0 -0.20298251558E+02 -0.22031120266E+01  0.38298183621E+02  0.47787267431E+02  0.19999983523E+02 0.  0.
         12    1    1    2    0    0  0.20298251558E+02  0.22031120266E+01 -0.38298183621E+02  0.43400732569E+02  0.00000000000E+00 0. -1.
         11    1    3    3    0    0 -0.12596887555E+02  0.32517565570E+01  0.73711527382E+01  0.14952905729E+02  0.51100000000E-03 0. -1.
        -11    1    3    3    0    0 -0.60962512823E+01 -0.21168739793E+01  0.12822677699E+02  0.14355016502E+02  0.51100000000E-03 0.  1.
         12    1    3    3    0    0 -0.16051127211E+01 -0.33379946043E+01  0.18104353184E+02  0.18479345200E+02  0.00000000000E+00 0. -1.
</event>
<event>
 7    1  0.2492468E-009  0.4778727E+02  0.7816164E-02  0.1312668E+00
        -11   -1    0    0    0    0  0.00000000000E+00  0.00000000000E+00  0.45593999997E+02  0.45594000000E+02  0.51100000000E-03 0.  1.
         11   -1    0    0    0    0 -0.00000000000E+00 -0.00000000000E+00 -0.45593999997E+02  0.45594000000E+02  0.51100000000E-03 0. -1.
    9900012    2    1    2    0    0  0.28453099401E+02 -0.29328343256E+02  0.14625063576E+02  0.47787273413E+02  0.20000010799E+02 0.  0.
         12    1    1    2    0    0 -0.28453099401E+02  0.29328343256E+02 -0.14625063576E+02  0.43400726587E+02  0.00000000000E+00 0. -1.
         11    1    3    3    0    0  0.19271892532E+00  0.61858705514E+00 -0.10611784352E+01  0.12433384340E+01  0.51100000000E-03 0. -1.
        -11    1    3    3    0    0  0.23355045326E+01 -0.94441057622E+01  0.80343309345E+01  0.12617297210E+02  0.51100000000E-03 0.  1.
         12    1    3    3    0    0  0.25924875943E+02 -0.20502824549E+02  0.76519110772E+01  0.33926637769E+02  0.00000000000E+00 0. -1.
</event>
<event>
 7    1  0.2492468E-009  0.4778728E+02  0.7816164E-02  0.1312668E+00
        -11   -1    0    0    0    0  0.00000000000E+00  0.00000000000E+00  0.45593999997E+02  0.45594000000E+02  0.51100000000E-03 0.  1.
         11   -1    0    0    0    0 -0.00000000000E+00 -0.00000000000E+00 -0.45593999997E+02  0.45594000000E+02  0.51100000000E-03 0. -1.
    9900012    2    1    2    0    0 -0.31957230559E+02  0.27714290372E+02  0.97096061077E+01  0.47787275045E+02  0.20000018242E+02 0.  0.
         12    1    1    2    0    0  0.31957230559E+02 -0.27714290372E+02 -0.97096061077E+01  0.43400724955E+02  0.00000000000E+00 0. -1.
         11    1    3    3    0    0 -0.21341129758E+02  0.23248336160E+02  0.73776769742E+01  0.32409243610E+02  0.51100000000E-03 0. -1.
        -11    1    3    3    0    0  0.20959970088E+00  0.41668513282E+01  0.17746571420E+01  0.45338714427E+01  0.51100000000E-03 0.  1.
        -12    1    3    3    0    0 -0.10825700501E+02  0.29910288396E+00  0.55727199154E+00  0.10844159993E+02  0.00000000000E+00 0.  1.
</event>
<event>
 7    1  0.2492468E-009  0.4778727E+02  0.7816164E-02  0.1312668E+00
        -11   -1    0    0    0    0  0.00000000000E+00  0.00000000000E+00  0.45593999997E+02  0.45594000000E+02  0.51100000000E-03 0.  1.
         11   -1    0    0    0    0 -0.00000000000E+00 -0.00000000000E+00 -0.45593999997E+02  0.45594000000E+02  0.51100000000E-03 0. -1.
    9900012    2    1    2    0    0  0.13065452711E+02  0.22759183681E+02  0.34567861389E+02  0.47787268009E+02  0.19999986160E+02 0.  0.
         12    1    1    2    0    0 -0.13065452711E+02 -0.22759183681E+02 -0.34567861389E+02  0.43400731991E+02  0.00000000000E+00 0. -1.
         11    1    3    3    0    0  0.18724480199E+00  0.12668695776E+02  0.16462237013E+02  0.20773448463E+02  0.51100000000E-03 0. -1.
        -11    1    3    3    0    0 -0.16373337052E+01  0.34615305613E+01  0.53789442657E+01  0.66027340673E+01  0.51100000000E-03 0.  1.
         12    1    3    3    0    0  0.14515541614E+02  0.66289573434E+01  0.12726680110E+02  0.20411085479E+02  0.00000000000E+00 0. -1.
</event>
<event>
 7    1  0.2492468E-009  0.4778728E+02  0.7816164E-02  0.1312668E+00
        -11   -1    0    0    0    0  0.00000000000E+00  0.00000000000E+00  0.45593999997E+02  0.45594000000E+02  0.51100000000E-03 0.  1.
         11   -1    0    0    0    0 -0.00000000000E+00 -0.00000000000E+00 -0.45593999997E+02  0.45594000000E+02  0.51100000000E-03 0. -1.
    9900012    2    1    2    0    0 -0.44014718053E+01  0.41231966328E+02  0.12813062569E+02  0.47787279111E+02  0.20000036778E+02 0.  0.
         12    1    1    2    0    0  0.44014718053E+01 -0.41231966328E+02 -0.12813062569E+02  0.43400720889E+02  0.00000000000E+00 0. -1.
         11    1    3    3    0    0  0.12863261549E+01  0.56383411013E+01  0.20045144124E+01  0.61207518854E+01  0.51100000000E-03 0.  1.
        -11    1    3    3    0    0 -0.16106539714E+01  0.21930685256E+02 -0.25387251341E+01  0.22135814590E+02  0.51100000000E-03 0. -1.
         12    1    3    3    0    0 -0.40771439889E+01  0.13662939970E+02  0.13347273291E+02  0.19530712635E+02  0.00000000000E+00 0. -1.
</event>
<event>
 7    1  0.2492468E-009  0.4778730E+02  0.7816164E-02  0.1312668E+00
        -11   -1    0    0    0    0  0.00000000000E+00  0.00000000000E+00  0.45593999997E+02  0.45594000000E+02  0.51100000000E-03 0.  1.
         11   -1    0    0    0    0 -0.00000000000E+00 -0.00000000000E+00 -0.45593999997E+02  0.45594000000E+02  0.51100000000E-03 0. -1.
    9900012    2    1    2    0    0  0.38434227870E+01  0.27542009015E+02  0.33320969021E+02  0.47787295676E+02  0.20000112307E+02 0.  0.
         12    1    1    2    0    0 -0.38434227870E+01 -0.27542009015E+02 -0.33320969021E+02  0.43400704324E+02  0.00000000000E+00 0. -1.
         11    1    3    3    0    0  0.85004521681E+01  0.21393080539E+02  0.20877159915E+02  0.31076959124E+02  0.51100000000E-03 0.  1.
        -11    1    3    3    0    0  0.16433442358E+01 -0.16138874486E+00  0.44061091103E+01  0.47053612355E+01  0.51100000000E-03 0. -1.
        -12    1    3    3    0    0 -0.63003736169E+01  0.63103172205E+01  0.80376999957E+01  0.12004975317E+02  0.00000000000E+00 0.  1.
</event>
<event>
 7    1  0.2492468E-009  0.4778727E+02  0.7816164E-02  0.1312668E+00
        -11   -1    0    0    0    0  0.00000000000E+00  0.00000000000E+00  0.45593999997E+02  0.45594000000E+02  0.51100000000E-03 0. -1.
         11   -1    0    0    0    0 -0.00000000000E+00 -0.00000000000E+00 -0.45593999997E+02  0.45594000000E+02  0.51100000000E-03 0.  1.
    9900012    2    1    2    0    0 -0.31761219507E+02 -0.18343477285E+02  0.23202696685E+02  0.47787270088E+02  0.19999995638E+02 0.  0.
         12    1    1    2    0    0  0.31761219507E+02  0.18343477285E+02 -0.23202696685E+02  0.43400729912E+02  0.00000000000E+00 0. -1.
         11    1    3    3    0    0 -0.10703087610E+01 -0.18130912964E+01  0.54105827791E+00  0.21738457199E+01  0.51100000000E-03 0. -1.
        -11    1    3    3    0    0 -0.51886184536E+01  0.38131165637E+01  0.67100842376E+01  0.92998306502E+01  0.51100000000E-03 0.  1.
        -12    1    3    3    0    0 -0.25502292292E+02 -0.20343502553E+02  0.15951554169E+02  0.36313593718E+02  0.00000000000E+00 0.  1.
</event>
<event>
 7    1  0.2492468E-009  0.4778727E+02  0.7816164E-02  0.1312668E+00
        -11   -1    0    0    0    0  0.00000000000E+00  0.00000000000E+00  0.45593999997E+02  0.45594000000E+02  0.51100000000E-03 0.  1.
         11   -1    0    0    0    0 -0.00000000000E+00 -0.00000000000E+00 -0.45593999997E+02  0.45594000000E+02  0.51100000000E-03 0. -1.
    9900012    2    1    2    0    0 -0.32414815666E+02  0.24578148319E+02  0.15126716061E+02  0.47787272031E+02  0.20000004497E+02 0.  0.
         12    1    1    2    0    0  0.32414815666E+02 -0.24578148319E+02 -0.15126716061E+02  0.43400727969E+02  0.00000000000E+00 0. -1.
         11    1    3    3    0    0 -0.32749773119E+01  0.68108881990E+01 -0.32161506334E+01  0.82132392885E+01  0.51100000000E-03 0. -1.
        -11    1    3    3    0    0 -0.28597523118E+01  0.40151667175E+01  0.50943144140E+01  0.70888494599E+01  0.51100000000E-03 0.  1.
         12    1    3    3    0    0 -0.26280086042E+02  0.13752093403E+02  0.13248552280E+02  0.32485183282E+02  0.00000000000E+00 0. -1.
</event>
<event>
 7    1  0.2492468E-009  0.4778727E+02  0.7816164E-02  0.1312668E+00
        -11   -1    0    0    0    0  0.00000000000E+00  0.00000000000E+00  0.45593999997E+02  0.45594000000E+02  0.51100000000E-03 0.  1.
         11   -1    0    0    0    0 -0.00000000000E+00 -0.00000000000E+00 -0.45593999997E+02  0.45594000000E+02  0.51100000000E-03 0. -1.
    9900012    2    1    2    0    0 -0.32481534888E+02  0.15998688581E+01  0.28740451356E+02  0.47787271513E+02  0.20000002137E+02 0.  0.
         12    1    1    2    0    0  0.32481534888E+02 -0.15998688581E+01 -0.28740451356E+02  0.43400728487E+02  0.00000000000E+00 0. -1.
         11    1    3    3    0    0 -0.12364147515E+02 -0.76659939888E+01  0.13930091959E+02  0.20141674952E+02  0.51100000000E-03 0.  1.
        -11    1    3    3    0    0 -0.95243563678E+01  0.61420066262E+01  0.11429443993E+02  0.16095645369E+02  0.51100000000E-03 0. -1.
        -12    1    3    3    0    0 -0.10593031005E+02  0.31238562207E+01  0.33809154038E+01  0.11549951192E+02  0.00000000000E+00 0.  1.
</event>
<event>
 7    1  0.2492468E-009  0.4778727E+02  0.7816164E-02  0.1312668E+00
        -11   -1    0    0    0    0  0.00000000000E+00  0.00000000000E+00  0.45593999997E+02  0.45594000000E+02  0.51100000000E-03 0.  1.
         11   -1    0    0    0    0 -0.00000000000E+00 -0.00000000000E+00 -0.45593999997E+02  0.45594000000E+02  0.51100000000E-03 0. -1.
    9900012    2    1    2    0    0 -0.24594217833E+02  0.12986455383E+02  0.33318158709E+02  0.47787271043E+02  0.19999999995E+02 0.  0.
         12    1    1    2    0    0  0.24594217833E+02 -0.12986455383E+02 -0.33318158709E+02  0.43400728957E+02  0.00000000000E+00 0. -1.
         11    1    3    3    0    0 -0.46251790512E+01  0.11119501845E+01  0.21187588178E+00  0.47616810182E+01  0.51100000000E-03 0. -1.
        -11    1    3    3    0    0 -0.11213516734E+02 -0.16508934482E+01  0.14733872674E+02  0.18589120769E+02  0.51100000000E-03 0.  1.
         12    1    3    3    0    0 -0.87555220471E+01  0.13525398647E+02  0.18372410153E+02  0.24436469256E+02  0.00000000000E+00 0. -1.
</event>
<event>
 7    1  0.2492468E-009  0.4778727E+02  0.7816164E-02  0.1312668E+00
        -11   -1    0    0    0    0  0.00000000000E+00  0.00000000000E+00  0.45593999997E+02  0.45594000000E+02  0.51100000000E-03 0. -1.
         11   -1    0    0    0    0 -0.00000000000E+00 -0.00000000000E+00 -0.45593999997E+02  0.45594000000E+02  0.51100000000E-03 0.  1.
    9900012    2    1    2    0    0 -0.28603877013E+02 -0.31600253649E+02 -0.81771349882E+01  0.47787270196E+02  0.19999996133E+02 0.  0.
         12    1    1    2    0    0  0.28603877013E+02  0.31600253649E+02  0.81771349882E+01  0.43400729804E+02  0.00000000000E+00 0. -1.
         11    1    3    3    0    0 -0.96674323267E+01 -0.40883970668E+01  0.24014515327E+01  0.10767599923E+02  0.51100000000E-03 0. -1.
        -11    1    3    3    0    0 -0.11598062550E+02 -0.71585058949E+01 -0.21397086691E+01  0.13796289900E+02  0.51100000000E-03 0.  1.
         12    1    3    3    0    0 -0.73383821366E+01 -0.20353350687E+02 -0.84388778517E+01  0.23223380374E+02  0.00000000000E+00 0. -1.
</event>
<event>
 7    1  0.2492468E-009  0.4778727E+02  0.7816164E-02  0.1312668E+00
        -11   -1    0    0    0    0  0.00000000000E+00  0.00000000000E+00  0.45593999997E+02  0.45594000000E+02  0.51100000000E-03 0. -1.
         11   -1    0    0    0    0 -0.00000000000E+00 -0.00000000000E+00 -0.45593999997E+02  0.45594000000E+02  0.51100000000E-03 0.  1.
    9900012    2    1    2    0    0 -0.31242684866E+02 -0.27650754763E+02  0.11956313477E+02  0.47787273871E+02  0.20000012886E+02 0.  0.
         12    1    1    2    0    0  0.31242684866E+02  0.27650754763E+02 -0.11956313477E+02  0.43400726129E+02  0.00000000000E+00 0. -1.
         11    1    3    3    0    0  0.11649511123E+01 -0.21351202305E+01 -0.13593767541E+01  0.27863515416E+01  0.51100000000E-03 0.  1.
        -11    1    3    3    0    0  0.47690667744E-01  0.98333506110E+00  0.81100588736E+00  0.12755206986E+01  0.51100000000E-03 0. -1.
        -12    1    3    3    0    0 -0.32455326646E+02 -0.26498969593E+02  0.12504684344E+02  0.43725401630E+02  0.00000000000E+00 0.  1.
</event>
<event>
 7    1  0.2492468E-009  0.4778727E+02  0.7816164E-02  0.1312668E+00
        -11   -1    0    0    0    0  0.00000000000E+00  0.00000000000E+00  0.45593999997E+02  0.45594000000E+02  0.51100000000E-03 0.  1.
         11   -1    0    0    0    0 -0.00000000000E+00 -0.00000000000E+00 -0.45593999997E+02  0.45594000000E+02  0.51100000000E-03 0. -1.
    9900012    2    1    2    0    0 -0.12807726418E+02  0.28633286549E+02  0.29995337496E+02  0.47787271595E+02  0.20000002510E+02 0.  0.
         12    1    1    2    0    0  0.12807726418E+02 -0.28633286549E+02 -0.29995337496E+02  0.43400728405E+02  0.00000000000E+00 0. -1.
         11    1    3    3    0    0 -0.25750629107E+01  0.31098751495E+01  0.86066127762E+01  0.95066322208E+01  0.51100000000E-03 0. -1.
        -11    1    3    3    0    0 -0.35429878665E+01  0.15844798555E+02  0.20952640371E+02  0.26507047045E+02  0.51100000000E-03 0.  1.
         12    1    3    3    0    0 -0.66896756408E+01  0.96786128443E+01  0.43608434847E+00  0.11773592329E+02  0.00000000000E+00 0. -1.
</event>
<event>
 7    1  0.2492468E-009  0.4778728E+02  0.7816164E-02  0.1312668E+00
        -11   -1    0    0    0    0  0.00000000000E+00  0.00000000000E+00  0.45593999997E+02  0.45594000000E+02  0.51100000000E-03 0.  1.
         11   -1    0    0    0    0 -0.00000000000E+00 -0.00000000000E+00 -0.45593999997E+02  0.45594000000E+02  0.51100000000E-03 0. -1.
    9900012    2    1    2    0    0 -0.19203031744E+02 -0.13470757002E+02  0.36515814381E+02  0.47787280856E+02  0.20000044734E+02 0.  0.
         12    1    1    2    0    0  0.19203031744E+02  0.13470757002E+02 -0.36515814381E+02  0.43400719144E+02  0.00000000000E+00 0. -1.
         11    1    3    3    0    0 -0.12509442473E+02 -0.13120292405E+02  0.24236774863E+02  0.30266309319E+02  0.51100000000E-03 0. -1.
        -11    1    3    3    0    0 -0.86505312822E+01 -0.12049590867E+01  0.12631177830E+02  0.15356766310E+02  0.51100000000E-03 0.  1.
         12    1    3    3    0    0  0.19569420113E+01  0.85449449036E+00 -0.35213831294E+00  0.21642052262E+01  0.00000000000E+00 0. -1.
</event>
<event>
 7    1  0.2492468E-009  0.4778727E+02  0.7816164E-02  0.1312668E+00
        -11   -1    0    0    0    0  0.00000000000E+00  0.00000000000E+00  0.45593999997E+02  0.45594000000E+02  0.51100000000E-03 0. -1.
         11   -1    0    0    0    0 -0.00000000000E+00 -0.00000000000E+00 -0.45593999997E+02  0.45594000000E+02  0.51100000000E-03 0.  1.
    9900012    2    1    2    0    0 -0.75359417858E+01 -0.80281067143E+01 -0.41980740429E+02  0.47787268635E+02  0.19999989014E+02 0.  0.
         12    1    1    2    0    0  0.75359417858E+01  0.80281067143E+01  0.41980740429E+02  0.43400731365E+02  0.00000000000E+00 0. -1.
         11    1    3    3    0    0 -0.51151927002E+00 -0.45680484323E+00  0.22127898652E+01  0.23166272633E+01  0.51100000000E-03 0. -1.
        -11    1    3    3    0    0 -0.39583604225E+00 -0.92779217183E+00 -0.86652415576E+01  0.87237546962E+01  0.51100000000E-03 0.  1.
         12    1    3    3    0    0 -0.66285864735E+01 -0.66435096992E+01 -0.35528288737E+02  0.36746886675E+02  0.00000000000E+00 0. -1.
</event>
<event>
 7    1  0.2492468E-009  0.4778729E+02  0.7816164E-02  0.1312668E+00
        -11   -1    0    0    0    0  0.00000000000E+00  0.00000000000E+00  0.45593999997E+02  0.45594000000E+02  0.51100000000E-03 0.  1.
         11   -1    0    0    0    0 -0.00000000000E+00 -0.00000000000E+00 -0.45593999997E+02  0.45594000000E+02  0.51100000000E-03 0. -1.
    9900012    2    1    2    0    0 -0.18812502178E+02 -0.14285687673E+02  0.36409212700E+02  0.47787287103E+02  0.20000073218E+02 0.  0.
         12    1    1    2    0    0  0.18812502178E+02  0.14285687673E+02 -0.36409212700E+02  0.43400712897E+02  0.00000000000E+00 0. -1.
         11    1    3    3    0    0 -0.77754424699E+00 -0.57231880037E+01  0.43510214171E+01  0.72312408074E+01  0.51100000000E-03 0. -1.
        -11    1    3    3    0    0 -0.40068413619E+01 -0.84239926104E+01  0.63988998328E+01  0.11312132802E+02  0.51100000000E-03 0.  1.
         12    1    3    3    0    0 -0.14028116570E+02 -0.13850705894E+00  0.25659291450E+02  0.29243913494E+02  0.00000000000E+00 0. -1.
</event>
<event>
 7    1  0.2492468E-009  0.4778727E+02  0.7816164E-02  0.1312668E+00
        -11   -1    0    0    0    0  0.00000000000E+00  0.00000000000E+00  0.45593999997E+02  0.45594000000E+02  0.51100000000E-03 0. -1.
         11   -1    0    0    0    0 -0.00000000000E+00 -0.00000000000E+00 -0.45593999997E+02  0.45594000000E+02  0.51100000000E-03 0.  1.
    9900012    2    1    2    0    0 -0.31887844481E+02 -0.10017026254E+02 -0.27684794558E+02  0.47787270855E+02  0.19999999135E+02 0.  0.
         12    1    1    2    0    0  0.31887844481E+02  0.10017026254E+02  0.27684794558E+02  0.43400729145E+02  0.00000000000E+00 0. -1.
         11    1    3    3    0    0 -0.58372482561E+01 -0.69958703566E+01 -0.28900101406E+01  0.95586520035E+01  0.51100000000E-03 0. -1.
        -11    1    3    3    0    0 -0.77350746570E+01 -0.68532919151E+01 -0.77540199058E+01  0.12919899960E+02  0.51100000000E-03 0.  1.
        -12    1    3    3    0    0 -0.18315521568E+02  0.38321360181E+01 -0.17040764511E+02  0.25308718891E+02  0.00000000000E+00 0.  1.
</event>
<event>
 7    1  0.2492468E-009  0.4778727E+02  0.7816164E-02  0.1312668E+00
        -11   -1    0    0    0    0  0.00000000000E+00  0.00000000000E+00  0.45593999997E+02  0.45594000000E+02  0.51100000000E-03 0.  1.
         11   -1    0    0    0    0 -0.00000000000E+00 -0.00000000000E+00 -0.45593999997E+02  0.45594000000E+02  0.51100000000E-03 0. -1.
    9900012    2    1    2    0    0  0.41873637922E+02  0.16884796676E+01  0.11285861998E+02  0.47787271925E+02  0.20000004013E+02 0.  0.
         12    1    1    2    0    0 -0.41873637922E+02 -0.16884796676E+01 -0.11285861998E+02  0.43400728075E+02  0.00000000000E+00 0. -1.
         11    1    3    3    0    0  0.17588112918E+01  0.70800776514E+00 -0.27156445408E+01  0.33120111245E+01  0.51100000000E-03 0. -1.
        -11    1    3    3    0    0  0.75090605320E+00 -0.20023768152E+01  0.26371624042E+01  0.33952906529E+01  0.51100000000E-03 0.  1.
         12    1    3    3    0    0  0.39363920577E+02  0.29828487176E+01  0.11364344134E+02  0.41079970147E+02  0.00000000000E+00 0. -1.
</event>
<event>
 7    1  0.2492468E-009  0.4778727E+02  0.7816164E-02  0.1312668E+00
        -11   -1    0    0    0    0  0.00000000000E+00  0.00000000000E+00  0.45593999997E+02  0.45594000000E+02  0.51100000000E-03 0.  1.
         11   -1    0    0    0    0 -0.00000000000E+00 -0.00000000000E+00 -0.45593999997E+02  0.45594000000E+02  0.51100000000E-03 0. -1.
    9900012    2    1    2    0    0  0.24986638351E+02  0.11313233957E+02  0.33634830387E+02  0.47787272197E+02  0.20000005254E+02 0.  0.
         12    1    1    2    0    0 -0.24986638351E+02 -0.11313233957E+02 -0.33634830387E+02  0.43400727803E+02  0.00000000000E+00 0. -1.
         11    1    3    3    0    0  0.39770017566E+01  0.35274748172E+01  0.30795658511E+00  0.53248905226E+01  0.51100000000E-03 0. -1.
        -11    1    3    3    0    0  0.13484250020E+02  0.10148435033E+02  0.15275734949E+02  0.22763211784E+02  0.51100000000E-03 0.  1.
         12    1    3    3    0    0  0.75253865747E+01 -0.23626758932E+01  0.18051138853E+02  0.19699169891E+02  0.00000000000E+00 0. -1.
</event>
<event>
 7    1  0.2492468E-009  0.4778732E+02  0.7816164E-02  0.1312668E+00
        -11   -1    0    0    0    0  0.00000000000E+00  0.00000000000E+00  0.45593999997E+02  0.45594000000E+02  0.51100000000E-03 0.  1.
         11   -1    0    0    0    0 -0.00000000000E+00 -0.00000000000E+00 -0.45593999997E+02  0.45594000000E+02  0.51100000000E-03 0. -1.
    9900012    2    1    2    0    0 -0.45832577912E+01  0.40939982586E+02  0.13657626784E+02  0.47787318030E+02  0.20000214224E+02 0.  0.
         12    1    1    2    0    0  0.45832577912E+01 -0.40939982586E+02 -0.13657626784E+02  0.43400681970E+02  0.00000000000E+00 0. -1.
         11    1    3    3    0    0 -0.10060725827E+02  0.23452346642E+02  0.15525183133E+01  0.25566405312E+02  0.51100000000E-03 0. -1.
        -11    1    3    3    0    0  0.16356145826E+01  0.19390069904E+01  0.97762683607E+00  0.27185911173E+01  0.51100000000E-03 0.  1.
         12    1    3    3    0    0  0.38418534533E+01  0.15548628954E+02  0.11127481634E+02  0.19502321601E+02  0.00000000000E+00 0. -1.
</event>
<event>
 7    1  0.2492468E-009  0.4778728E+02  0.7816164E-02  0.1312668E+00
        -11   -1    0    0    0    0  0.00000000000E+00  0.00000000000E+00  0.45593999997E+02  0.45594000000E+02  0.51100000000E-03 0.  1.
         11   -1    0    0    0    0 -0.00000000000E+00 -0.00000000000E+00 -0.45593999997E+02  0.45594000000E+02  0.51100000000E-03 0. -1.
    9900012    2    1    2    0    0  0.16989214327E+02 -0.63976987069E+01  0.39421552104E+02  0.47787277396E+02  0.20000028961E+02 0.  0.
         12    1    1    2    0    0 -0.16989214327E+02  0.63976987069E+01 -0.39421552104E+02  0.43400722604E+02  0.00000000000E+00 0. -1.
         11    1    3    3    0    0  0.48922256441E+01  0.25313032572E+00  0.81508666446E+01  0.95097094611E+01  0.51100000000E-03 0.  1.
        -11    1    3    3    0    0 -0.43461401299E+01 -0.26207804792E+01  0.85530035206E+01  0.99454157194E+01  0.51100000000E-03 0. -1.
         12    1    3    3    0    0  0.16443128813E+02 -0.40300485534E+01  0.22717681939E+02  0.28332152216E+02  0.00000000000E+00 0. -1.
</event>
<event>
 7    1  0.2492468E-009  0.4778727E+02  0.7816164E-02  0.1312668E+00
        -11   -1    0    0    0    0  0.00000000000E+00  0.00000000000E+00  0.45593999997E+02  0.45594000000E+02  0.51100000000E-03 0.  1.
         11   -1    0    0    0    0 -0.00000000000E+00 -0.00000000000E+00 -0.45593999997E+02  0.45594000000E+02  0.51100000000E-03 0. -1.
    9900012    2    1    2    0    0  0.64074682644E+01 -0.38455185910E+02  0.19072650225E+02  0.47787274666E+02  0.20000016510E+02 0.  0.
         12    1    1    2    0    0 -0.64074682644E+01  0.38455185910E+02 -0.19072650225E+02  0.43400725334E+02  0.00000000000E+00 0. -1.
         11    1    3    3    0    0  0.66070178088E+01 -0.13572225634E+02  0.22966397504E+01  0.15268678639E+02  0.51100000000E-03 0. -1.
        -11    1    3    3    0    0  0.30955562322E+01 -0.24214884950E+02  0.13885243086E+02  0.28084570449E+02  0.51100000000E-03 0.  1.
        -12    1    3    3    0    0 -0.32951057766E+01 -0.66807532678E+00  0.28907673887E+01  0.44340255769E+01  0.00000000000E+00 0.  1.
</event>
<event>
 7    1  0.2735404E-009  0.4778727E+02  0.7816164E-02  0.1312668E+00
        -11   -1    0    0    0    0  0.00000000000E+00  0.00000000000E+00  0.45593999997E+02  0.45594000000E+02  0.51100000000E-03 0.  1.
         11   -1    0    0    0    0 -0.00000000000E+00 -0.00000000000E+00 -0.45593999997E+02  0.45594000000E+02  0.51100000000E-03 0. -1.
    9900012    2    1    2    0    0  0.35504903751E+01 -0.37105184020E+02  0.22231122071E+02  0.47787268997E+02  0.19999990667E+02 0.  0.
         12    1    1    2    0    0 -0.35504903751E+01  0.37105184020E+02 -0.22231122071E+02  0.43400731003E+02  0.00000000000E+00 0. -1.
         11    1    3    3    0    0  0.26854891917E+01 -0.12318823508E+02  0.13448407739E+02  0.18434341209E+02  0.51100000000E-03 0. -1.
        -11    1    3    3    0    0 -0.33205035395E+01 -0.14122539672E+02  0.10306883545E+02  0.17796171476E+02  0.51100000000E-03 0.  1.
         12    1    3    3    0    0  0.41855047229E+01 -0.10663820839E+02 -0.15241692131E+01  0.11556756312E+02  0.00000000000E+00 0. -1.
</event>
<event>
 7    1  0.2492468E-009  0.4778727E+02  0.7816164E-02  0.1312668E+00
        -11   -1    0    0    0    0  0.00000000000E+00  0.00000000000E+00  0.45593999997E+02  0.45594000000E+02  0.51100000000E-03 0.  1.
         11   -1    0    0    0    0 -0.00000000000E+00 -0.00000000000E+00 -0.45593999997E+02  0.45594000000E+02  0.51100000000E-03 0. -1.
    9900012    2    1    2    0    0  0.34347438149E+02 -0.25878731939E+02  0.58453545730E+01  0.47787269082E+02  0.19999991051E+02 0.  0.
         12    1    1    2    0    0 -0.34347438149E+02  0.25878731939E+02 -0.58453545730E+01  0.43400730918E+02  0.00000000000E+00 0. -1.
         11    1    3    3    0    0  0.49030796301E+01 -0.92238963662E+01  0.32198743443E+01  0.10931058736E+02  0.51100000000E-03 0. -1.
        -11    1    3    3    0    0  0.82797959157E+01 -0.84609245574E+01 -0.50888626207E+01  0.12885603898E+02  0.51100000000E-03 0.  1.
        -12    1    3    3    0    0  0.21164562603E+02 -0.81939110157E+01  0.77143428493E+01  0.23970606448E+02  0.00000000000E+00 0.  1.
</event>
<event>
 7    1  0.2492468E-009  0.4778727E+02  0.7816164E-02  0.1312668E+00
        -11   -1    0    0    0    0  0.00000000000E+00  0.00000000000E+00  0.45593999997E+02  0.45594000000E+02  0.51100000000E-03 0.  1.
         11   -1    0    0    0    0 -0.00000000000E+00 -0.00000000000E+00 -0.45593999997E+02  0.45594000000E+02  0.51100000000E-03 0. -1.
    9900012    2    1    2    0    0 -0.36962682551E+02  0.21735583505E+02 -0.67043481804E+01  0.47787265258E+02  0.19999973616E+02 0.  0.
         12    1    1    2    0    0  0.36962682551E+02 -0.21735583505E+02  0.67043481804E+01  0.43400734742E+02  0.00000000000E+00 0. -1.
         11    1    3    3    0    0 -0.57505265315E+01 -0.25278882089E+01 -0.14290545346E+01  0.64421247512E+01  0.51100000000E-03 0. -1.
        -11    1    3    3    0    0 -0.16086831961E+02  0.60393652797E+01 -0.53044559932E+00  0.17191319563E+02  0.51100000000E-03 0.  1.
        -12    1    3    3    0    0 -0.15125324058E+02  0.18224106434E+02 -0.47448480465E+01  0.24153820944E+02  0.00000000000E+00 0.  1.
</event>
<event>
 7    1  0.2492468E-009  0.4778727E+02  0.7816164E-02  0.1312668E+00
        -11   -1    0    0    0    0  0.00000000000E+00  0.00000000000E+00  0.45593999997E+02  0.45594000000E+02  0.51100000000E-03 0.  1.
         11   -1    0    0    0    0 -0.00000000000E+00 -0.00000000000E+00 -0.45593999997E+02  0.45594000000E+02  0.51100000000E-03 0. -1.
    9900012    2    1    2    0    0  0.42351499503E+01  0.10939245683E+02  0.41785398222E+02  0.47787273097E+02  0.20000009357E+02 0.  0.
         12    1    1    2    0    0 -0.42351499503E+01 -0.10939245683E+02 -0.41785398222E+02  0.43400726903E+02  0.00000000000E+00 0. -1.
         11    1    3    3    0    0 -0.11932968212E+01  0.28951491257E+00  0.48744193134E+01  0.50267027058E+01  0.51100000000E-03 0. -1.
        -11    1    3    3    0    0  0.17242860948E+01  0.23123238751E+01  0.32498607436E+02  0.32626361884E+02  0.51100000000E-03 0.  1.
         12    1    3    3    0    0  0.37041606768E+01  0.83374068948E+01  0.44123714718E+01  0.10134208507E+02  0.00000000000E+00 0. -1.
</event>
<event>
 7    1  0.2492468E-009  0.4778727E+02  0.7816164E-02  0.1312668E+00
        -11   -1    0    0    0    0  0.00000000000E+00  0.00000000000E+00  0.45593999997E+02  0.45594000000E+02  0.51100000000E-03 0.  1.
         11   -1    0    0    0    0 -0.00000000000E+00 -0.00000000000E+00 -0.45593999997E+02  0.45594000000E+02  0.51100000000E-03 0. -1.
    9900012    2    1    2    0    0 -0.11759191932E+02 -0.33890621447E+02 -0.24428886230E+02  0.47787270751E+02  0.19999998660E+02 0.  0.
         12    1    1    2    0    0  0.11759191932E+02  0.33890621447E+02  0.24428886230E+02  0.43400729249E+02  0.00000000000E+00 0. -1.
         11    1    3    3    0    0 -0.36288518413E+01 -0.67360839624E+01 -0.15835539364E+02  0.17587145876E+02  0.51100000000E-03 0. -1.
        -11    1    3    3    0    0  0.31024945056E+00 -0.79527814938E+01 -0.28400886138E+01  0.84503900386E+01  0.51100000000E-03 0.  1.
         12    1    3    3    0    0 -0.84405895416E+01 -0.19201755991E+02 -0.57532582517E+01  0.21749734836E+02  0.00000000000E+00 0. -1.
</event>
<event>
 7    1  0.2492468E-009  0.4778723E+02  0.7816164E-02  0.1312668E+00
        -11   -1    0    0    0    0  0.00000000000E+00  0.00000000000E+00  0.45593999997E+02  0.45594000000E+02  0.51100000000E-03 0. -1.
         11   -1    0    0    0    0 -0.00000000000E+00 -0.00000000000E+00 -0.45593999997E+02  0.45594000000E+02  0.51100000000E-03 0.  1.
    9900012    2    1    2    0    0 -0.21643418136E+02  0.35902101398E+02  0.11235126151E+02  0.47787233958E+02  0.19999830907E+02 0.  0.
         12    1    1    2    0    0  0.21643418136E+02 -0.35902101398E+02 -0.11235126151E+02  0.43400766042E+02  0.00000000000E+00 0. -1.
         11    1    3    3    0    0 -0.69114299284E+01  0.12635048237E+02  0.68654096147E+01  0.15954502720E+02  0.51100000000E-03 0. -1.
        -11    1    3    3    0    0 -0.15685968954E+02  0.11196693146E+02  0.11625657787E+01  0.19307177911E+02  0.51100000000E-03 0.  1.
         12    1    3    3    0    0  0.95398074650E+00  0.12070360016E+02  0.32071507572E+01  0.12525553327E+02  0.00000000000E+00 0. -1.
</event>
<event>
 7    1  0.2492468E-009  0.4778727E+02  0.7816164E-02  0.1312668E+00
        -11   -1    0    0    0    0  0.00000000000E+00  0.00000000000E+00  0.45593999997E+02  0.45594000000E+02  0.51100000000E-03 0. -1.
         11   -1    0    0    0    0 -0.00000000000E+00 -0.00000000000E+00 -0.45593999997E+02  0.45594000000E+02  0.51100000000E-03 0.  1.
    9900012    2    1    2    0    0  0.34852279812E+01  0.42657616370E+02 -0.71975157079E+01  0.47787270964E+02  0.19999999636E+02 0.  0.
         12    1    1    2    0    0 -0.34852279812E+01 -0.42657616370E+02  0.71975157079E+01  0.43400729036E+02  0.00000000000E+00 0. -1.
         11    1    3    3    0    0  0.29018592373E+00  0.25012859050E+02 -0.72732210513E+00  0.25025113854E+02  0.51100000000E-03 0.  1.
        -11    1    3    3    0    0  0.53734205249E+01  0.35274021388E+01  0.12149742289E+01  0.65415882341E+01  0.51100000000E-03 0. -1.
         12    1    3    3    0    0 -0.21783784674E+01  0.14117355182E+02 -0.76851678317E+01  0.16220568876E+02  0.00000000000E+00 0. -1.
</event>
<event>
 7    1  0.2492468E-009  0.4778727E+02  0.7816164E-02  0.1312668E+00
        -11   -1    0    0    0    0  0.00000000000E+00  0.00000000000E+00  0.45593999997E+02  0.45594000000E+02  0.51100000000E-03 0. -1.
         11   -1    0    0    0    0 -0.00000000000E+00 -0.00000000000E+00 -0.45593999997E+02  0.45594000000E+02  0.51100000000E-03 0.  1.
    9900012    2    1    2    0    0  0.34605683612E+02  0.13858859148E+02 -0.22226152623E+02  0.47787272178E+02  0.20000005166E+02 0.  0.
         12    1    1    2    0    0 -0.34605683612E+02 -0.13858859148E+02  0.22226152623E+02  0.43400727822E+02  0.00000000000E+00 0. -1.
         11    1    3    3    0    0  0.51757217735E+01  0.61806045080E+01  0.36630022929E+00  0.80698292472E+01  0.51100000000E-03 0.  1.
        -11    1    3    3    0    0 -0.67857202380E+00  0.37844648517E+00  0.62920721105E+00  0.99979183293E+00  0.51100000000E-03 0. -1.
        -12    1    3    3    0    0  0.30108533862E+02  0.72998081549E+01 -0.23221660063E+02  0.38717651097E+02  0.00000000000E+00 0.  1.
</event>
<event>
 7    1  0.2492468E-009  0.4778727E+02  0.7816164E-02  0.1312668E+00
        -11   -1    0    0    0    0  0.00000000000E+00  0.00000000000E+00  0.45593999997E+02  0.45594000000E+02  0.51100000000E-03 0. -1.
         11   -1    0    0    0    0 -0.00000000000E+00 -0.00000000000E+00 -0.45593999997E+02  0.45594000000E+02  0.51100000000E-03 0.  1.
    9900012    2    1    2    0    0 -0.24641215563E+02  0.11244675042E+02 -0.33911522847E+02  0.47787267252E+02  0.19999982708E+02 0.  0.
         12    1    1    2    0    0  0.24641215563E+02 -0.11244675042E+02  0.33911522847E+02  0.43400732748E+02  0.00000000000E+00 0. -1.
         11    1    3    3    0    0  0.27472782213E+01  0.26112575787E+01 -0.14289642367E+01  0.40506965844E+01  0.51100000000E-03 0. -1.
        -11    1    3    3    0    0 -0.64783048973E+01  0.46146006333E+01 -0.78242577134E+01  0.11157149384E+02  0.51100000000E-03 0.  1.
        -12    1    3    3    0    0 -0.20910188887E+02  0.40188168302E+01 -0.24658300897E+02  0.32579421283E+02  0.00000000000E+00 0.  1.
</event>
<event>
 7    1  0.2492468E-009  0.4778727E+02  0.7816164E-02  0.1312668E+00
        -11   -1    0    0    0    0  0.00000000000E+00  0.00000000000E+00  0.45593999997E+02  0.45594000000E+02  0.51100000000E-03 0.  1.
         11   -1    0    0    0    0 -0.00000000000E+00 -0.00000000000E+00 -0.45593999997E+02  0.45594000000E+02  0.51100000000E-03 0. -1.
    9900012    2    1    2    0    0  0.27127724789E+02  0.13541215617E+02  0.31053917731E+02  0.47787265225E+02  0.19999973465E+02 0.  0.
         12    1    1    2    0    0 -0.27127724789E+02 -0.13541215617E+02 -0.31053917731E+02  0.43400734775E+02  0.00000000000E+00 0. -1.
         11    1    3    3    0    0  0.61756248576E+00 -0.73783767168E+00 -0.12655316377E+01  0.15897667882E+01  0.51100000000E-03 0. -1.
        -11    1    3    3    0    0  0.69738860792E+01  0.10754690947E+02  0.15985118739E+02  0.20489570170E+02  0.51100000000E-03 0.  1.
        -12    1    3    3    0    0  0.19536276224E+02  0.35243623417E+01  0.16334330630E+02  0.25707928266E+02  0.00000000000E+00 0.  1.
</event>
<event>
 7    1  0.2492468E-009  0.4778727E+02  0.7816164E-02  0.1312668E+00
        -11   -1    0    0    0    0  0.00000000000E+00  0.00000000000E+00  0.45593999997E+02  0.45594000000E+02  0.51100000000E-03 0.  1.
         11   -1    0    0    0    0 -0.00000000000E+00 -0.00000000000E+00 -0.45593999997E+02  0.45594000000E+02  0.51100000000E-03 0. -1.
    9900012    2    1    2    0    0 -0.31894163712E+02  0.12514755323E+02  0.26641449053E+02  0.47787267434E+02  0.19999983538E+02 0.  0.
         12    1    1    2    0    0  0.31894163712E+02 -0.12514755323E+02 -0.26641449053E+02  0.43400732566E+02  0.00000000000E+00 0. -1.
         11    1    3    3    0    0 -0.80451343239E+00 -0.47780255647E-03  0.40356532858E+01  0.41150625506E+01  0.51100000000E-03 0. -1.
        -11    1    3    3    0    0 -0.19004854489E+02  0.11104314943E+02  0.22540723134E+02  0.31505150439E+02  0.51100000000E-03 0.  1.
         12    1    3    3    0    0 -0.12084795790E+02  0.14109181829E+01  0.65072632695E-01  0.12167054444E+02  0.00000000000E+00 0. -1.
</event>
<event>
 7    1  0.2492468E-009  0.4778727E+02  0.7816164E-02  0.1312668E+00
        -11   -1    0    0    0    0  0.00000000000E+00  0.00000000000E+00  0.45593999997E+02  0.45594000000E+02  0.51100000000E-03 0. -1.
         11   -1    0    0    0    0 -0.00000000000E+00 -0.00000000000E+00 -0.45593999997E+02  0.45594000000E+02  0.51100000000E-03 0.  1.
    9900012    2    1    2    0    0  0.15068916795E+02  0.38731588598E+02 -0.12506592959E+02  0.47787273322E+02  0.20000010386E+02 0.  0.
         12    1    1    2    0    0 -0.15068916795E+02 -0.38731588598E+02  0.12506592959E+02  0.43400726678E+02  0.00000000000E+00 0. -1.
         11    1    3    3    0    0  0.58224868490E+01  0.18341459932E+02  0.22078046209E+01  0.19369690422E+02  0.51100000000E-03 0. -1.
        -11    1    3    3    0    0  0.35261859715E+01  0.29848583718E+01  0.44043962816E+00  0.46408355210E+01  0.51100000000E-03 0.  1.
        -12    1    3    3    0    0  0.57202439742E+01  0.17405270294E+02 -0.15154837208E+02  0.23776747379E+02  0.00000000000E+00 0.  1.
</event>
<event>
 7    1  0.2492468E-009  0.4778727E+02  0.7816164E-02  0.1312668E+00
        -11   -1    0    0    0    0  0.00000000000E+00  0.00000000000E+00  0.45593999997E+02  0.45594000000E+02  0.51100000000E-03 0.  1.
         11   -1    0    0    0    0 -0.00000000000E+00 -0.00000000000E+00 -0.45593999997E+02  0.45594000000E+02  0.51100000000E-03 0. -1.
    9900012    2    1    2    0    0  0.73715135154E+01 -0.19831235513E+02  0.37894673271E+02  0.47787269870E+02  0.19999994645E+02 0.  0.
         12    1    1    2    0    0 -0.73715135154E+01  0.19831235513E+02 -0.37894673271E+02  0.43400730130E+02  0.00000000000E+00 0. -1.
         11    1    3    3    0    0  0.89296837237E+00 -0.33810865585E+01  0.23462741567E+02  0.23721917733E+02  0.51100000000E-03 0. -1.
        -11    1    3    3    0    0  0.16480579013E+01 -0.33502160733E+00 -0.29399567632E+00  0.17072691769E+01  0.51100000000E-03 0.  1.
        -12    1    3    3    0    0  0.48304872416E+01 -0.16115127348E+02  0.14725927380E+02  0.22358082960E+02  0.00000000000E+00 0.  1.
</event>
<event>
 7    1  0.2492468E-009  0.4778727E+02  0.7816164E-02  0.1312668E+00
        -11   -1    0    0    0    0  0.00000000000E+00  0.00000000000E+00  0.45593999997E+02  0.45594000000E+02  0.51100000000E-03 0. -1.
         11   -1    0    0    0    0 -0.00000000000E+00 -0.00000000000E+00 -0.45593999997E+02  0.45594000000E+02  0.51100000000E-03 0.  1.
    9900012    2    1    2    0    0  0.29000963797E+02 -0.32278173773E+02 -0.82885439417E+00  0.47787269558E+02  0.19999993224E+02 0.  0.
         12    1    1    2    0    0 -0.29000963797E+02  0.32278173773E+02  0.82885439417E+00  0.43400730442E+02  0.00000000000E+00 0. -1.
         11    1    3    3    0    0  0.77775869414E+01 -0.11906444510E+02 -0.33088448377E+01  0.14601463417E+02  0.51100000000E-03 0. -1.
        -11    1    3    3    0    0  0.14189311735E+02 -0.10348811824E+02 -0.56952148281E+01  0.18462663564E+02  0.51100000000E-03 0.  1.
         12    1    3    3    0    0  0.70340651197E+01 -0.10022917439E+02  0.81752052716E+01  0.14723142577E+02  0.00000000000E+00 0. -1.
</event>
<event>
 7    1  0.2492468E-009  0.4778728E+02  0.7816164E-02  0.1312668E+00
        -11   -1    0    0    0    0  0.00000000000E+00  0.00000000000E+00  0.45593999997E+02  0.45594000000E+02  0.51100000000E-03 0.  1.
         11   -1    0    0    0    0 -0.00000000000E+00 -0.00000000000E+00 -0.45593999997E+02  0.45594000000E+02  0.51100000000E-03 0. -1.
    9900012    2    1    2    0    0  0.52405228804E+01 -0.41733907729E+02  0.10697695871E+02  0.47787276143E+02  0.20000023246E+02 0.  0.
         12    1    1    2    0    0 -0.52405228804E+01  0.41733907729E+02 -0.10697695871E+02  0.43400723857E+02  0.00000000000E+00 0. -1.
         11    1    3    3    0    0 -0.15772955646E+01  0.69732457422E+00 -0.80076952513E+00  0.19014086761E+01  0.51100000000E-03 0. -1.
        -11    1    3    3    0    0 -0.31402515220E+01 -0.86784432034E+01  0.22312541024E+01  0.94950013789E+01  0.51100000000E-03 0.  1.
         12    1    3    3    0    0  0.99580699670E+01 -0.33752789100E+02  0.92672112939E+01  0.36390866088E+02  0.00000000000E+00 0. -1.
</event>
<event>
 7    1  0.2492468E-009  0.4778727E+02  0.7816164E-02  0.1312668E+00
        -11   -1    0    0    0    0  0.00000000000E+00  0.00000000000E+00  0.45593999997E+02  0.45594000000E+02  0.51100000000E-03 0.  1.
         11   -1    0    0    0    0 -0.00000000000E+00 -0.00000000000E+00 -0.45593999997E+02  0.45594000000E+02  0.51100000000E-03 0. -1.
    9900012    2    1    2    0    0  0.29870339438E+02  0.72616950192E+01  0.30637463222E+02  0.47787267916E+02  0.19999985738E+02 0.  0.
         12    1    1    2    0    0 -0.29870339438E+02 -0.72616950192E+01 -0.30637463222E+02  0.43400732084E+02  0.00000000000E+00 0. -1.
         11    1    3    3    0    0  0.17625054780E+01  0.18019248781E+01  0.95857551653E+01  0.99116124408E+01  0.51100000000E-03 0. -1.
        -11    1    3    3    0    0 -0.87825937382E+00  0.15409339877E+01  0.30557331264E+01  0.35331745333E+01  0.51100000000E-03 0.  1.
        -12    1    3    3    0    0  0.28986093334E+02  0.39188361534E+01  0.17995974931E+02  0.34342480942E+02  0.00000000000E+00 0.  1.
</event>
<event>
 7    1  0.2492468E-009  0.4778727E+02  0.7816164E-02  0.1312668E+00
        -11   -1    0    0    0    0  0.00000000000E+00  0.00000000000E+00  0.45593999997E+02  0.45594000000E+02  0.51100000000E-03 0.  1.
         11   -1    0    0    0    0 -0.00000000000E+00 -0.00000000000E+00 -0.45593999997E+02  0.45594000000E+02  0.51100000000E-03 0. -1.
    9900012    2    1    2    0    0 -0.25045631931E+02  0.34916514538E+02 -0.60972616084E+01  0.47787271141E+02  0.20000000441E+02 0.  0.
         12    1    1    2    0    0  0.25045631931E+02 -0.34916514538E+02  0.60972616084E+01  0.43400728859E+02  0.00000000000E+00 0. -1.
         11    1    3    3    0    0 -0.13126052067E+02  0.60925911119E+01 -0.29361583842E+01  0.14765972222E+02  0.51100000000E-03 0. -1.
        -11    1    3    3    0    0 -0.49233140374E+01  0.10809054500E+02 -0.62959554454E+01  0.13442980902E+02  0.51100000000E-03 0.  1.
        -12    1    3    3    0    0 -0.69962658265E+01  0.18014868927E+02  0.31348522213E+01  0.19578318018E+02  0.00000000000E+00 0.  1.
</event>
<event>
 7    1  0.2492468E-009  0.4778728E+02  0.7816164E-02  0.1312668E+00
        -11   -1    0    0    0    0  0.00000000000E+00  0.00000000000E+00  0.45593999997E+02  0.45594000000E+02  0.51100000000E-03 0. -1.
         11   -1    0    0    0    0 -0.00000000000E+00 -0.00000000000E+00 -0.45593999997E+02  0.45594000000E+02  0.51100000000E-03 0.  1.
    9900012    2    1    2    0    0  0.30923991668E+02  0.14400457342E+02 -0.26832000779E+02  0.47787277677E+02  0.20000030239E+02 0.  0.
         12    1    1    2    0    0 -0.30923991668E+02 -0.14400457342E+02  0.26832000779E+02  0.43400722323E+02  0.00000000000E+00 0. -1.
         11    1    3    3    0    0  0.33548008800E+01  0.38220194025E+01 -0.47935576250E+01  0.69886133261E+01  0.51100000000E-03 0. -1.
        -11    1    3    3    0    0  0.15343296015E+02  0.10673874857E+02 -0.21600595390E+02  0.28564559485E+02  0.51100000000E-03 0.  1.
         12    1    3    3    0    0  0.12225894773E+02 -0.95436917446E-01 -0.43784776404E+00  0.12234104866E+02  0.00000000000E+00 0. -1.
</event>
<event>
 7    1  0.2492468E-009  0.4778727E+02  0.7816164E-02  0.1312668E+00
        -11   -1    0    0    0    0  0.00000000000E+00  0.00000000000E+00  0.45593999997E+02  0.45594000000E+02  0.51100000000E-03 0.  1.
         11   -1    0    0    0    0 -0.00000000000E+00 -0.00000000000E+00 -0.45593999997E+02  0.45594000000E+02  0.51100000000E-03 0. -1.
    9900012    2    1    2    0    0 -0.23059872045E+02 -0.36693557546E+02  0.23342610466E+01  0.47787266841E+02  0.19999980836E+02 0.  0.
         12    1    1    2    0    0  0.23059872045E+02  0.36693557546E+02 -0.23342610466E+01  0.43400733159E+02  0.00000000000E+00 0. -1.
         11    1    3    3    0    0 -0.19422604438E+02 -0.16698355585E+02  0.33903697971E+01  0.25837322810E+02  0.51100000000E-03 0. -1.
        -11    1    3    3    0    0 -0.26415963972E+01 -0.90831024501E+01  0.34957192418E+01  0.10084683184E+02  0.51100000000E-03 0.  1.
        -12    1    3    3    0    0 -0.99567120988E+00 -0.10912099511E+02 -0.45518279924E+01  0.11865260847E+02  0.00000000000E+00 0.  1.
</event>
<event>
 7    1  0.2492468E-009  0.4778727E+02  0.7816164E-02  0.1312668E+00
        -11   -1    0    0    0    0  0.00000000000E+00  0.00000000000E+00  0.45593999997E+02  0.45594000000E+02  0.51100000000E-03 0.  1.
         11   -1    0    0    0    0 -0.00000000000E+00 -0.00000000000E+00 -0.45593999997E+02  0.45594000000E+02  0.51100000000E-03 0. -1.
    9900012    2    1    2    0    0  0.19126461839E+02  0.27493818645E+02  0.27602385684E+02  0.47787270725E+02  0.19999998545E+02 0.  0.
         12    1    1    2    0    0 -0.19126461839E+02 -0.27493818645E+02 -0.27602385684E+02  0.43400729275E+02  0.00000000000E+00 0. -1.
         11    1    3    3    0    0  0.91714249642E+01  0.36257195033E+01  0.29434593149E+01  0.10291978954E+02  0.51100000000E-03 0. -1.
        -11    1    3    3    0    0  0.53810290392E+01  0.19068610396E+01  0.63552597974E+01  0.85428870938E+01  0.51100000000E-03 0.  1.
        -12    1    3    3    0    0  0.45740078354E+01  0.21961238102E+02  0.18303666571E+02  0.28952404677E+02  0.00000000000E+00 0.  1.
</event>
<event>
 7    1  0.2492468E-009  0.4778727E+02  0.7816164E-02  0.1312668E+00
        -11   -1    0    0    0    0  0.00000000000E+00  0.00000000000E+00  0.45593999997E+02  0.45594000000E+02  0.51100000000E-03 0. -1.
         11   -1    0    0    0    0 -0.00000000000E+00 -0.00000000000E+00 -0.45593999997E+02  0.45594000000E+02  0.51100000000E-03 0.  1.
    9900012    2    1    2    0    0 -0.22837744178E+02  0.34908834580E+02 -0.11976389202E+02  0.47787272020E+02  0.20000004449E+02 0.  0.
         12    1    1    2    0    0  0.22837744178E+02 -0.34908834580E+02  0.11976389202E+02  0.43400727980E+02  0.00000000000E+00 0. -1.
         11    1    3    3    0    0  0.29969416895E+01  0.24200811053E+01 -0.27798422585E+01  0.47503658059E+01  0.51100000000E-03 0. -1.
        -11    1    3    3    0    0 -0.16847830803E+01  0.33723962781E+01  0.91749540253E+00  0.38798645284E+01  0.51100000000E-03 0.  1.
        -12    1    3    3    0    0 -0.24149902787E+02  0.29116357196E+02 -0.10114042346E+02  0.39157041686E+02  0.00000000000E+00 0.  1.
</event>
<event>
 7    1  0.2492468E-009  0.4778727E+02  0.7816164E-02  0.1312668E+00
        -11   -1    0    0    0    0  0.00000000000E+00  0.00000000000E+00  0.45593999997E+02  0.45594000000E+02  0.51100000000E-03 0.  1.
         11   -1    0    0    0    0 -0.00000000000E+00 -0.00000000000E+00 -0.45593999997E+02  0.45594000000E+02  0.51100000000E-03 0. -1.
    9900012    2    1    2    0    0 -0.35791273646E+02  0.32599836888E+01  0.24330649631E+02  0.47787271039E+02  0.19999999976E+02 0.  0.
         12    1    1    2    0    0  0.35791273646E+02 -0.32599836888E+01 -0.24330649631E+02  0.43400728961E+02  0.00000000000E+00 0. -1.
         11    1    3    3    0    0 -0.76925915712E+01  0.37422986358E+01  0.89354373352E+01  0.12370238672E+02  0.51100000000E-03 0. -1.
        -11    1    3    3    0    0 -0.16773735186E+02  0.45395271531E+01  0.15106141179E+02  0.23025225307E+02  0.51100000000E-03 0.  1.
         12    1    3    3    0    0 -0.11324946889E+02 -0.50218421001E+01  0.28907111691E+00  0.12391807061E+02  0.00000000000E+00 0. -1.
</event>
<event>
 7    1  0.2492468E-009  0.4778727E+02  0.7816164E-02  0.1312668E+00
        -11   -1    0    0    0    0  0.00000000000E+00  0.00000000000E+00  0.45593999997E+02  0.45594000000E+02  0.51100000000E-03 0.  1.
         11   -1    0    0    0    0 -0.00000000000E+00 -0.00000000000E+00 -0.45593999997E+02  0.45594000000E+02  0.51100000000E-03 0. -1.
    9900012    2    1    2    0    0 -0.16571308588E+02 -0.96908151396E+01  0.38924322238E+02  0.47787273876E+02  0.20000012912E+02 0.  0.
         12    1    1    2    0    0  0.16571308588E+02  0.96908151396E+01 -0.38924322238E+02  0.43400726124E+02  0.00000000000E+00 0. -1.
         11    1    3    3    0    0 -0.81201571290E+01 -0.55655752147E+00  0.21645059224E+02  0.23124776694E+02  0.51100000000E-03 0. -1.
        -11    1    3    3    0    0 -0.87396449195E+01 -0.90491863971E+01  0.19070439431E+02  0.22846243195E+02  0.51100000000E-03 0.  1.
        -12    1    3    3    0    0  0.28849346051E+00 -0.85071221107E-01 -0.17911764172E+01  0.18162539874E+01  0.00000000000E+00 0.  1.
</event>
<event>
 7    1  0.2492468E-009  0.4778727E+02  0.7816164E-02  0.1312668E+00
        -11   -1    0    0    0    0  0.00000000000E+00  0.00000000000E+00  0.45593999997E+02  0.45594000000E+02  0.51100000000E-03 0. -1.
         11   -1    0    0    0    0 -0.00000000000E+00 -0.00000000000E+00 -0.45593999997E+02  0.45594000000E+02  0.51100000000E-03 0.  1.
    9900012    2    1    2    0    0 -0.15100661310E+02 -0.24213438837E+02 -0.32700195818E+02  0.47787269604E+02  0.19999993435E+02 0.  0.
         12    1    1    2    0    0  0.15100661310E+02  0.24213438837E+02  0.32700195818E+02  0.43400730396E+02  0.00000000000E+00 0. -1.
         11    1    3    3    0    0 -0.21468400713E+01 -0.15355974594E+02 -0.11839359517E+02  0.19508595851E+02  0.51100000000E-03 0. -1.
        -11    1    3    3    0    0 -0.24450364649E+01 -0.77164347285E+01 -0.12056604243E+02  0.14521820628E+02  0.51100000000E-03 0.  1.
        -12    1    3    3    0    0 -0.10508784774E+02 -0.11410295146E+01 -0.88042320582E+01  0.13756853126E+02  0.00000000000E+00 0.  1.
</event>
<event>
 7    1  0.2492468E-009  0.4778727E+02  0.7816164E-02  0.1312668E+00
        -11   -1    0    0    0    0  0.00000000000E+00  0.00000000000E+00  0.45593999997E+02  0.45594000000E+02  0.51100000000E-03 0.  1.
         11   -1    0    0    0    0 -0.00000000000E+00 -0.00000000000E+00 -0.45593999997E+02  0.45594000000E+02  0.51100000000E-03 0. -1.
    9900012    2    1    2    0    0 -0.40403134445E+02 -0.29500956589E+01 -0.15572633101E+02  0.47787271445E+02  0.20000001828E+02 0.  0.
         12    1    1    2    0    0  0.40403134445E+02  0.29500956589E+01  0.15572633101E+02  0.43400728555E+02  0.00000000000E+00 0. -1.
         11    1    3    3    0    0 -0.22137653540E+02  0.72178182497E+01 -0.10186915780E+02  0.25415464936E+02  0.51100000000E-03 0. -1.
        -11    1    3    3    0    0 -0.35727307078E+01 -0.63176702734E+00  0.94083186792E+00  0.37481594353E+01  0.51100000000E-03 0.  1.
         12    1    3    3    0    0 -0.14692750197E+02 -0.95361468813E+01 -0.63265491888E+01  0.18623647074E+02  0.00000000000E+00 0. -1.
</event>
<event>
 7    1  0.2492468E-009  0.4778727E+02  0.7816164E-02  0.1312668E+00
        -11   -1    0    0    0    0  0.00000000000E+00  0.00000000000E+00  0.45593999997E+02  0.45594000000E+02  0.51100000000E-03 0.  1.
         11   -1    0    0    0    0 -0.00000000000E+00 -0.00000000000E+00 -0.45593999997E+02  0.45594000000E+02  0.51100000000E-03 0. -1.
    9900012    2    1    2    0    0 -0.14551287898E+02 -0.19816838379E+02  0.35765574873E+02  0.47787269490E+02  0.19999992913E+02 0.  0.
         12    1    1    2    0    0  0.14551287898E+02  0.19816838379E+02 -0.35765574873E+02  0.43400730510E+02  0.00000000000E+00 0. -1.
         11    1    3    3    0    0 -0.31441133321E+01 -0.97416307335E+01  0.14480764960E+02  0.17733509864E+02  0.51100000000E-03 0. -1.
        -11    1    3    3    0    0 -0.29616814548E+01 -0.55814956735E+01  0.19267055106E+02  0.20276687691E+02  0.51100000000E-03 0.  1.
         12    1    3    3    0    0 -0.84454931108E+01 -0.44937119717E+01  0.20177548063E+01  0.97770719353E+01  0.00000000000E+00 0. -1.
</event>
<event>
 7    1  0.2492468E-009  0.4778727E+02  0.7816164E-02  0.1312668E+00
        -11   -1    0    0    0    0  0.00000000000E+00  0.00000000000E+00  0.45593999997E+02  0.45594000000E+02  0.51100000000E-03 0. -1.
         11   -1    0    0    0    0 -0.00000000000E+00 -0.00000000000E+00 -0.45593999997E+02  0.45594000000E+02  0.51100000000E-03 0.  1.
    9900012    2    1    2    0    0 -0.23620316248E+02 -0.50828299446E+01 -0.36053690361E+02  0.47787273179E+02  0.20000009734E+02 0.  0.
         12    1    1    2    0    0  0.23620316248E+02  0.50828299446E+01  0.36053690361E+02  0.43400726821E+02  0.00000000000E+00 0. -1.
         11    1    3    3    0    0 -0.29126422982E+01  0.35951777103E+00 -0.10577063549E+02  0.10976657586E+02  0.51100000000E-03 0. -1.
        -11    1    3    3    0    0 -0.67756764409E+01  0.55657229078E+01 -0.94484709646E+01  0.12890332290E+02  0.51100000000E-03 0.  1.
         12    1    3    3    0    0 -0.13931997509E+02 -0.11008070623E+02 -0.16028155848E+02  0.23920283304E+02  0.00000000000E+00 0. -1.
</event>
<event>
 7    1  0.2492468E-009  0.4778727E+02  0.7816164E-02  0.1312668E+00
        -11   -1    0    0    0    0  0.00000000000E+00  0.00000000000E+00  0.45593999997E+02  0.45594000000E+02  0.51100000000E-03 0.  1.
         11   -1    0    0    0    0 -0.00000000000E+00 -0.00000000000E+00 -0.45593999997E+02  0.45594000000E+02  0.51100000000E-03 0. -1.
    9900012    2    1    2    0    0  0.16470935089E+02  0.20657054279E+02  0.34432801222E+02  0.47787269659E+02  0.19999993682E+02 0.  0.
         12    1    1    2    0    0 -0.16470935089E+02 -0.20657054279E+02 -0.34432801222E+02  0.43400730341E+02  0.00000000000E+00 0. -1.
         11    1    3    3    0    0 -0.37851399031E+01  0.53641909095E+01  0.79142708282E+01  0.10282874657E+02  0.51100000000E-03 0. -1.
        -11    1    3    3    0    0  0.41057573775E+01  0.20484000702E+01  0.13189682661E+01  0.47741872647E+01  0.51100000000E-03 0.  1.
         12    1    3    3    0    0  0.16150317614E+02  0.13244463300E+02  0.25199562127E+02  0.32730207737E+02  0.00000000000E+00 0. -1.
</event>
<event>
 7    1  0.2492468E-009  0.4778727E+02  0.7816164E-02  0.1312668E+00
        -11   -1    0    0    0    0  0.00000000000E+00  0.00000000000E+00  0.45593999997E+02  0.45594000000E+02  0.51100000000E-03 0.  1.
         11   -1    0    0    0    0 -0.00000000000E+00 -0.00000000000E+00 -0.45593999997E+02  0.45594000000E+02  0.51100000000E-03 0. -1.
    9900012    2    1    2    0    0  0.38198905237E+02 -0.14995988029E+02 -0.14127532047E+02  0.47787272126E+02  0.20000004931E+02 0.  0.
         12    1    1    2    0    0 -0.38198905237E+02  0.14995988029E+02  0.14127532047E+02  0.43400727874E+02  0.00000000000E+00 0. -1.
         11    1    3    3    0    0  0.24090395389E-01  0.10716647331E+01 -0.25239455690E+01  0.27421428015E+01  0.51100000000E-03 0. -1.
        -11    1    3    3    0    0  0.17045572913E+02 -0.40262077350E+00 -0.26198713305E+01  0.17250431457E+02  0.51100000000E-03 0.  1.
        -12    1    3    3    0    0  0.21129241929E+02 -0.15665031988E+02 -0.89837151472E+01  0.27794697867E+02  0.00000000000E+00 0.  1.
</event>
<event>
 7    1  0.2492468E-009  0.4778727E+02  0.7816164E-02  0.1312668E+00
        -11   -1    0    0    0    0  0.00000000000E+00  0.00000000000E+00  0.45593999997E+02  0.45594000000E+02  0.51100000000E-03 0.  1.
         11   -1    0    0    0    0 -0.00000000000E+00 -0.00000000000E+00 -0.45593999997E+02  0.45594000000E+02  0.51100000000E-03 0. -1.
    9900012    2    1    2    0    0 -0.23325313667E+02  0.35389403779E+02  0.93350402619E+01  0.47787272654E+02  0.20000007339E+02 0.  0.
         12    1    1    2    0    0  0.23325313667E+02 -0.35389403779E+02 -0.93350402619E+01  0.43400727346E+02  0.00000000000E+00 0. -1.
         11    1    3    3    0    0 -0.30358442944E+01  0.21243960347E+01 -0.30962886972E+01  0.48287071820E+01  0.51100000000E-03 0. -1.
        -11    1    3    3    0    0 -0.90538900035E+01  0.21595979606E+02  0.15991069833E+01  0.23471608440E+02  0.51100000000E-03 0.  1.
        -12    1    3    3    0    0 -0.11235579369E+02  0.11669028138E+02  0.10832221976E+02  0.19486957032E+02  0.00000000000E+00 0.  1.
</event>
<event>
 7    1  0.2492468E-009  0.4778727E+02  0.7816164E-02  0.1312668E+00
        -11   -1    0    0    0    0  0.00000000000E+00  0.00000000000E+00  0.45593999997E+02  0.45594000000E+02  0.51100000000E-03 0.  1.
         11   -1    0    0    0    0 -0.00000000000E+00 -0.00000000000E+00 -0.45593999997E+02  0.45594000000E+02  0.51100000000E-03 0. -1.
    9900012    2    1    2    0    0 -0.66444729723E+01  0.17753309948E+02  0.39042212474E+02  0.47787269706E+02  0.19999993897E+02 0.  0.
         12    1    1    2    0    0  0.66444729723E+01 -0.17753309948E+02 -0.39042212474E+02  0.43400730294E+02  0.00000000000E+00 0. -1.
         11    1    3    3    0    0 -0.31438774992E+01  0.48066028647E+01  0.10641471016E+01  0.58412161528E+01  0.51100000000E-03 0. -1.
        -11    1    3    3    0    0 -0.64039581389E+01  0.90245288960E+01  0.16138398384E+02  0.19567848740E+02  0.51100000000E-03 0.  1.
         12    1    3    3    0    0  0.29033626659E+01  0.39221781870E+01  0.21839666989E+02  0.22378204813E+02  0.00000000000E+00 0. -1.
</event>
<event>
 7    1  0.2492468E-009  0.4778727E+02  0.7816164E-02  0.1312668E+00
        -11   -1    0    0    0    0  0.00000000000E+00  0.00000000000E+00  0.45593999997E+02  0.45594000000E+02  0.51100000000E-03 0.  1.
         11   -1    0    0    0    0 -0.00000000000E+00 -0.00000000000E+00 -0.45593999997E+02  0.45594000000E+02  0.51100000000E-03 0. -1.
    9900012    2    1    2    0    0 -0.15937589241E+02 -0.25968517238E+02  0.30907157449E+02  0.47787273970E+02  0.20000013337E+02 0.  0.
         12    1    1    2    0    0  0.15937589241E+02  0.25968517238E+02 -0.30907157449E+02  0.43400726030E+02  0.00000000000E+00 0. -1.
         11    1    3    3    0    0  0.43458307768E+00 -0.34055235878E+01  0.63209567416E+01  0.71931180825E+01  0.51100000000E-03 0. -1.
        -11    1    3    3    0    0 -0.13669656158E+02 -0.25101679891E+02  0.22101197977E+02  0.36130551962E+02  0.51100000000E-03 0.  1.
         12    1    3    3    0    0 -0.27025161612E+01  0.25386862401E+01  0.24850027306E+01  0.44636039249E+01  0.00000000000E+00 0. -1.
</event>
<event>
 7    1  0.2492468E-009  0.4778727E+02  0.7816164E-02  0.1312668E+00
        -11   -1    0    0    0    0  0.00000000000E+00  0.00000000000E+00  0.45593999997E+02  0.45594000000E+02  0.51100000000E-03 0.  1.
         11   -1    0    0    0    0 -0.00000000000E+00 -0.00000000000E+00 -0.45593999997E+02  0.45594000000E+02  0.51100000000E-03 0. -1.
    9900012    2    1    2    0    0  0.19829791309E+02  0.27411981076E+02  0.27184301201E+02  0.47787267729E+02  0.19999984883E+02 0.  0.
         12    1    1    2    0    0 -0.19829791309E+02 -0.27411981076E+02 -0.27184301201E+02  0.43400732271E+02  0.00000000000E+00 0. -1.
         11    1    3    3    0    0  0.83768182350E+01  0.28325891894E+01  0.37123944440E+01  0.95904388860E+01  0.51100000000E-03 0. -1.
        -11    1    3    3    0    0  0.10298712608E+02  0.12785904709E+02  0.68640703122E+01  0.17794895395E+02  0.51100000000E-03 0.  1.
        -12    1    3    3    0    0  0.11542604664E+01  0.11793487177E+02  0.16607836445E+02  0.20401933448E+02  0.00000000000E+00 0.  1.
</event>
<event>
 7    1  0.2492468E-009  0.4778727E+02  0.7816164E-02  0.1312668E+00
        -11   -1    0    0    0    0  0.00000000000E+00  0.00000000000E+00  0.45593999997E+02  0.45594000000E+02  0.51100000000E-03 0. -1.
         11   -1    0    0    0    0 -0.00000000000E+00 -0.00000000000E+00 -0.45593999997E+02  0.45594000000E+02  0.51100000000E-03 0.  1.
    9900012    2    1    2    0    0  0.17047809170E+02  0.19264035721E+02 -0.34955579258E+02  0.47787269695E+02  0.19999993848E+02 0.  0.
         12    1    1    2    0    0 -0.17047809170E+02 -0.19264035721E+02  0.34955579258E+02  0.43400730305E+02  0.00000000000E+00 0. -1.
         11    1    3    3    0    0  0.17648739667E+01  0.36085625674E+01  0.20611073808E+01  0.45149382961E+01  0.51100000000E-03 0. -1.
        -11    1    3    3    0    0  0.18072740689E+01  0.51193870629E+00 -0.16125720151E+01  0.24756230659E+01  0.51100000000E-03 0.  1.
        -12    1    3    3    0    0  0.13475661134E+02  0.15143534447E+02 -0.35404114624E+02  0.40796708333E+02  0.00000000000E+00 0.  1.
</event>
<event>
 7    1  0.2492468E-009  0.4778727E+02  0.7816164E-02  0.1312668E+00
        -11   -1    0    0    0    0  0.00000000000E+00  0.00000000000E+00  0.45593999997E+02  0.45594000000E+02  0.51100000000E-03 0. -1.
         11   -1    0    0    0    0 -0.00000000000E+00 -0.00000000000E+00 -0.45593999997E+02  0.45594000000E+02  0.51100000000E-03 0.  1.
    9900012    2    1    2    0    0 -0.26999724474E+02 -0.31784713349E+02 -0.12015410080E+02  0.47787271852E+02  0.20000003683E+02 0.  0.
         12    1    1    2    0    0  0.26999724474E+02  0.31784713349E+02  0.12015410080E+02  0.43400728148E+02  0.00000000000E+00 0. -1.
         11    1    3    3    0    0 -0.13293551433E+02 -0.19614687837E+02 -0.11891843998E+02  0.26511703880E+02  0.51100000000E-03 0. -1.
        -11    1    3    3    0    0 -0.60757688086E+01 -0.12158622265E+02  0.63875419199E+00  0.13607169771E+02  0.51100000000E-03 0.  1.
         12    1    3    3    0    0 -0.76304042320E+01 -0.11403247007E-01 -0.76232027450E+00  0.76683982016E+01  0.00000000000E+00 0. -1.
</event>
<event>
 7    1  0.2492468E-009  0.4778727E+02  0.7816164E-02  0.1312668E+00
        -11   -1    0    0    0    0  0.00000000000E+00  0.00000000000E+00  0.45593999997E+02  0.45594000000E+02  0.51100000000E-03 0. -1.
         11   -1    0    0    0    0 -0.00000000000E+00 -0.00000000000E+00 -0.45593999997E+02  0.45594000000E+02  0.51100000000E-03 0.  1.
    9900012    2    1    2    0    0  0.13257721614E+02 -0.40806439311E+02 -0.65338436141E+01  0.47787265167E+02  0.19999973203E+02 0.  0.
         12    1    1    2    0    0 -0.13257721614E+02  0.40806439311E+02  0.65338436141E+01  0.43400734833E+02  0.00000000000E+00 0. -1.
         11    1    3    3    0    0  0.37607692341E+01 -0.28063242526E+01 -0.71370547744E+00  0.47463898715E+01  0.51100000000E-03 0. -1.
        -11    1    3    3    0    0  0.92104467469E+01 -0.32930220216E+02 -0.10869187563E+02  0.35879952220E+02  0.51100000000E-03 0.  1.
        -12    1    3    3    0    0  0.28650563288E+00 -0.50698948426E+01  0.50490494260E+01  0.71609230759E+01  0.00000000000E+00 0.  1.
</event>
<event>
 7    1  0.2492468E-009  0.4778727E+02  0.7816164E-02  0.1312668E+00
        -11   -1    0    0    0    0  0.00000000000E+00  0.00000000000E+00  0.45593999997E+02  0.45594000000E+02  0.51100000000E-03 0.  1.
         11   -1    0    0    0    0 -0.00000000000E+00 -0.00000000000E+00 -0.45593999997E+02  0.45594000000E+02  0.51100000000E-03 0. -1.
    9900012    2    1    2    0    0 -0.19535272520E+01  0.43074973665E+02  0.49349143961E+01  0.47787274141E+02  0.20000014120E+02 0.  0.
         12    1    1    2    0    0  0.19535272520E+01 -0.43074973665E+02 -0.49349143961E+01  0.43400725859E+02  0.00000000000E+00 0. -1.
         11    1    3    3    0    0 -0.82648316116E+01  0.10219666275E+02 -0.33014919289E+00  0.13147548026E+02  0.51100000000E-03 0. -1.
        -11    1    3    3    0    0  0.19665978921E+00  0.85328122788E+01 -0.14956319201E+01  0.86651298640E+01  0.51100000000E-03 0.  1.
         12    1    3    3    0    0  0.61146445703E+01  0.24322495112E+02  0.67606955091E+01  0.25974596252E+02  0.00000000000E+00 0. -1.
</event>
<event>
 7    1  0.2492468E-009  0.4778727E+02  0.7816164E-02  0.1312668E+00
        -11   -1    0    0    0    0  0.00000000000E+00  0.00000000000E+00  0.45593999997E+02  0.45594000000E+02  0.51100000000E-03 0.  1.
         11   -1    0    0    0    0 -0.00000000000E+00 -0.00000000000E+00 -0.45593999997E+02  0.45594000000E+02  0.51100000000E-03 0. -1.
    9900012    2    1    2    0    0 -0.22016881549E+02  0.24520471997E+02  0.28242284211E+02  0.47787271463E+02  0.20000001908E+02 0.  0.
         12    1    1    2    0    0  0.22016881549E+02 -0.24520471997E+02 -0.28242284211E+02  0.43400728537E+02  0.00000000000E+00 0. -1.
         11    1    3    3    0    0 -0.11002383255E+02  0.52804646215E+01  0.44565383456E+01  0.12992169880E+02  0.51100000000E-03 0. -1.
        -11    1    3    3    0    0 -0.94049094518E+01  0.16798752262E+02  0.12076969612E+02  0.22726715438E+02  0.51100000000E-03 0.  1.
        -12    1    3    3    0    0 -0.16095888425E+01  0.24412551137E+01  0.11708776254E+02  0.12068386145E+02  0.00000000000E+00 0.  1.
</event>
<event>
 7    1  0.2492468E-009  0.4778728E+02  0.7816164E-02  0.1312668E+00
        -11   -1    0    0    0    0  0.00000000000E+00  0.00000000000E+00  0.45593999997E+02  0.45594000000E+02  0.51100000000E-03 0. -1.
         11   -1    0    0    0    0 -0.00000000000E+00 -0.00000000000E+00 -0.45593999997E+02  0.45594000000E+02  0.51100000000E-03 0.  1.
    9900012    2    1    2    0    0 -0.37918803255E+02  0.15057342987E+02 -0.14800800740E+02  0.47787275114E+02  0.20000018553E+02 0.  0.
         12    1    1    2    0    0  0.37918803255E+02 -0.15057342987E+02  0.14800800740E+02  0.43400724886E+02  0.00000000000E+00 0. -1.
         11    1    3    3    0    0 -0.31284963413E+01  0.71528511390E+01 -0.18539735584E+01  0.80242125465E+01  0.51100000000E-03 0. -1.
        -11    1    3    3    0    0 -0.11162059159E+02  0.83242701325E+01 -0.56900278036E+01  0.15041989714E+02  0.51100000000E-03 0.  1.
        -12    1    3    3    0    0 -0.23628247755E+02 -0.41977828452E+00 -0.72567993777E+01  0.24721072853E+02  0.00000000000E+00 0.  1.
</event>
<event>
 7    1  0.2492468E-009  0.4778727E+02  0.7816164E-02  0.1312668E+00
        -11   -1    0    0    0    0  0.00000000000E+00  0.00000000000E+00  0.45593999997E+02  0.45594000000E+02  0.51100000000E-03 0. -1.
         11   -1    0    0    0    0 -0.00000000000E+00 -0.00000000000E+00 -0.45593999997E+02  0.45594000000E+02  0.51100000000E-03 0.  1.
    9900012    2    1    2    0    0  0.30703948133E+01 -0.32815331568E+02 -0.28237392245E+02  0.47787266930E+02  0.19999981240E+02 0.  0.
         12    1    1    2    0    0 -0.30703948133E+01  0.32815331568E+02  0.28237392245E+02  0.43400733070E+02  0.00000000000E+00 0. -1.
         11    1    3    3    0    0  0.21982956953E+01 -0.22807459938E+02 -0.19918412865E+02  0.30360433201E+02  0.51100000000E-03 0. -1.
        -11    1    3    3    0    0 -0.19145639205E+01 -0.97793323907E+01 -0.10038248859E+02  0.14144516161E+02  0.51100000000E-03 0.  1.
         12    1    3    3    0    0  0.27866630385E+01 -0.22853923926E+00  0.17192694795E+01  0.32823175680E+01  0.00000000000E+00 0. -1.
</event>
<event>
 7    1  0.2492468E-009  0.4778725E+02  0.7816164E-02  0.1312668E+00
        -11   -1    0    0    0    0  0.00000000000E+00  0.00000000000E+00  0.45593999997E+02  0.45594000000E+02  0.51100000000E-03 0. -1.
         11   -1    0    0    0    0 -0.00000000000E+00 -0.00000000000E+00 -0.45593999997E+02  0.45594000000E+02  0.51100000000E-03 0.  1.
    9900012    2    1    2    0    0 -0.26615451739E+02 -0.34073553261E+02 -0.37730732500E+01  0.47787246725E+02  0.19999889116E+02 0.  0.
         12    1    1    2    0    0  0.26615451739E+02  0.34073553261E+02  0.37730732500E+01  0.43400753275E+02  0.00000000000E+00 0. -1.
         11    1    3    3    0    0 -0.32052626541E+00  0.72844971621E+00  0.34354673574E+00  0.86683371913E+00  0.51100000000E-03 0. -1.
        -11    1    3    3    0    0 -0.14751104061E+02 -0.27803384200E+02  0.30761321061E+01  0.31624133711E+02  0.51100000000E-03 0.  1.
        -12    1    3    3    0    0 -0.11543821412E+02 -0.69986187774E+01 -0.71927520919E+01  0.15296279294E+02  0.00000000000E+00 0.  1.
</event>
<event>
 7    1  0.2492468E-009  0.4778727E+02  0.7816164E-02  0.1312668E+00
        -11   -1    0    0    0    0  0.00000000000E+00  0.00000000000E+00  0.45593999997E+02  0.45594000000E+02  0.51100000000E-03 0.  1.
         11   -1    0    0    0    0 -0.00000000000E+00 -0.00000000000E+00 -0.45593999997E+02  0.45594000000E+02  0.51100000000E-03 0. -1.
    9900012    2    1    2    0    0  0.42868080626E+02  0.16172428886E+00  0.67767834166E+01  0.47787270918E+02  0.19999999426E+02 0.  0.
         12    1    1    2    0    0 -0.42868080626E+02 -0.16172428886E+00 -0.67767834166E+01  0.43400729082E+02  0.00000000000E+00 0. -1.
         11    1    3    3    0    0  0.22769469511E+02 -0.90070393470E+01  0.53379988637E+01  0.25061319434E+02  0.51100000000E-03 0. -1.
        -11    1    3    3    0    0  0.37286852016E+01  0.11320344401E+01 -0.16467979673E+01  0.42304301332E+01  0.51100000000E-03 0.  1.
        -12    1    3    3    0    0  0.16369925913E+02  0.80367291958E+01  0.30855825202E+01  0.18495521352E+02  0.00000000000E+00 0.  1.
</event>
<event>
 7    1  0.2492468E-009  0.4778727E+02  0.7816164E-02  0.1312668E+00
        -11   -1    0    0    0    0  0.00000000000E+00  0.00000000000E+00  0.45593999997E+02  0.45594000000E+02  0.51100000000E-03 0. -1.
         11   -1    0    0    0    0 -0.00000000000E+00 -0.00000000000E+00 -0.45593999997E+02  0.45594000000E+02  0.51100000000E-03 0.  1.
    9900012    2    1    2    0    0 -0.24744009914E+02 -0.28225779238E+02 -0.21786755059E+02  0.47787270327E+02  0.19999996727E+02 0.  0.
         12    1    1    2    0    0  0.24744009914E+02  0.28225779238E+02  0.21786755059E+02  0.43400729673E+02  0.00000000000E+00 0. -1.
         11    1    3    3    0    0  0.56356601380E+00 -0.64837617610E+01 -0.18888412036E+01  0.67767613636E+01  0.51100000000E-03 0. -1.
        -11    1    3    3    0    0 -0.61859045626E+01 -0.11668043192E+02 -0.29172292822E+01  0.13524750428E+02  0.51100000000E-03 0.  1.
        -12    1    3    3    0    0 -0.19121671365E+02 -0.10073974285E+02 -0.16980684573E+02  0.27485758535E+02  0.00000000000E+00 0.  1.
</event>
<event>
 7    1  0.2492468E-009  0.4778727E+02  0.7816164E-02  0.1312668E+00
        -11   -1    0    0    0    0  0.00000000000E+00  0.00000000000E+00  0.45593999997E+02  0.45594000000E+02  0.51100000000E-03 0. -1.
         11   -1    0    0    0    0 -0.00000000000E+00 -0.00000000000E+00 -0.45593999997E+02  0.45594000000E+02  0.51100000000E-03 0.  1.
    9900012    2    1    2    0    0 -0.19903994346E+02 -0.34399932957E+02 -0.17438432159E+02  0.47787270807E+02  0.19999998915E+02 0.  0.
         12    1    1    2    0    0  0.19903994346E+02  0.34399932957E+02  0.17438432159E+02  0.43400729193E+02  0.00000000000E+00 0. -1.
         11    1    3    3    0    0 -0.47990985498E+01  0.52957725158E+00 -0.32618682111E+01  0.58267987303E+01  0.51100000000E-03 0. -1.
        -11    1    3    3    0    0 -0.12687881056E+02 -0.24996765257E+02 -0.14836512935E+02  0.31716599997E+02  0.51100000000E-03 0.  1.
         12    1    3    3    0    0 -0.24170147394E+01 -0.99327449514E+01  0.65994898643E+00  0.10243872080E+02  0.00000000000E+00 0. -1.
</event>
<event>
 7    1  0.2492468E-009  0.4778727E+02  0.7816164E-02  0.1312668E+00
        -11   -1    0    0    0    0  0.00000000000E+00  0.00000000000E+00  0.45593999997E+02  0.45594000000E+02  0.51100000000E-03 0.  1.
         11   -1    0    0    0    0 -0.00000000000E+00 -0.00000000000E+00 -0.45593999997E+02  0.45594000000E+02  0.51100000000E-03 0. -1.
    9900012    2    1    2    0    0  0.15083362152E+01  0.24188850461E+02  0.36003442889E+02  0.47787268847E+02  0.19999989983E+02 0.  0.
         12    1    1    2    0    0 -0.15083362152E+01 -0.24188850461E+02 -0.36003442889E+02  0.43400731153E+02  0.00000000000E+00 0. -1.
         11    1    3    3    0    0  0.48456750068E+01  0.68845592716E+01  0.97727838476E+01  0.12899032019E+02  0.51100000000E-03 0. -1.
        -11    1    3    3    0    0 -0.26965156807E+01  0.14586097588E+02  0.88249937960E+01  0.17259952359E+02  0.51100000000E-03 0.  1.
         12    1    3    3    0    0 -0.64082311088E+00  0.27181936006E+01  0.17405665245E+02  0.17628284469E+02  0.00000000000E+00 0. -1.
</event>
<event>
 7    1  0.2492468E-009  0.4778727E+02  0.7816164E-02  0.1312668E+00
        -11   -1    0    0    0    0  0.00000000000E+00  0.00000000000E+00  0.45593999997E+02  0.45594000000E+02  0.51100000000E-03 0.  1.
         11   -1    0    0    0    0 -0.00000000000E+00 -0.00000000000E+00 -0.45593999997E+02  0.45594000000E+02  0.51100000000E-03 0. -1.
    9900012    2    1    2    0    0 -0.44784455662E+01  0.53126125656E+01  0.42840903592E+02  0.47787270196E+02  0.19999996132E+02 0.  0.
         12    1    1    2    0    0  0.44784455662E+01 -0.53126125656E+01 -0.42840903592E+02  0.43400729804E+02  0.00000000000E+00 0. -1.
         11    1    3    3    0    0  0.50951795150E+01  0.39013083548E+01  0.13466223729E+02  0.14917112420E+02  0.51100000000E-03 0. -1.
        -11    1    3    3    0    0 -0.22692489469E+01 -0.53113617653E+00  0.22600823229E+02  0.22720669165E+02  0.51100000000E-03 0.  1.
         12    1    3    3    0    0 -0.73043761343E+01  0.19424403873E+01  0.67738566341E+01  0.10149488611E+02  0.00000000000E+00 0. -1.
</event>
<event>
 7    1  0.2492468E-009  0.4778727E+02  0.7816164E-02  0.1312668E+00
        -11   -1    0    0    0    0  0.00000000000E+00  0.00000000000E+00  0.45593999997E+02  0.45594000000E+02  0.51100000000E-03 0. -1.
         11   -1    0    0    0    0 -0.00000000000E+00 -0.00000000000E+00 -0.45593999997E+02  0.45594000000E+02  0.51100000000E-03 0.  1.
    9900012    2    1    2    0    0 -0.37448684366E+01  0.26240676341E+02 -0.34366060389E+02  0.47787271422E+02  0.20000001721E+02 0.  0.
         12    1    1    2    0    0  0.37448684366E+01 -0.26240676341E+02  0.34366060389E+02  0.43400728578E+02  0.00000000000E+00 0. -1.
         11    1    3    3    0    0 -0.44836322379E+01  0.92700210056E+00 -0.44612898801E+01  0.63926049928E+01  0.51100000000E-03 0. -1.
        -11    1    3    3    0    0  0.19329051078E+01  0.32084900580E-01  0.33375646225E+00  0.19617709433E+01  0.51100000000E-03 0.  1.
        -12    1    3    3    0    0 -0.11941413065E+01  0.25281589340E+02 -0.30238526971E+02  0.39432895486E+02  0.00000000000E+00 0.  1.
</event>
<event>
 7    1  0.2492468E-009  0.4778722E+02  0.7816164E-02  0.1312668E+00
        -11   -1    0    0    0    0  0.00000000000E+00  0.00000000000E+00  0.45593999997E+02  0.45594000000E+02  0.51100000000E-03 0.  1.
         11   -1    0    0    0    0 -0.00000000000E+00 -0.00000000000E+00 -0.45593999997E+02  0.45594000000E+02  0.51100000000E-03 0. -1.
    9900012    2    1    2    0    0  0.72980957186E+01 -0.12746456602E+02  0.40839853003E+02  0.47787217169E+02  0.19999754361E+02 0.  0.
         12    1    1    2    0    0 -0.72980957186E+01  0.12746456602E+02 -0.40839853003E+02  0.43400782831E+02  0.00000000000E+00 0. -1.
         11    1    3    3    0    0 -0.83347547022E+00  0.33797885332E+01  0.23224042609E+01  0.41846402116E+01  0.51100000000E-03 0. -1.
        -11    1    3    3    0    0  0.47286579514E+01 -0.90226608253E+00  0.82570712260E+01  0.95579033055E+01  0.51100000000E-03 0.  1.
         12    1    3    3    0    0  0.34029132373E+01 -0.15223979052E+02  0.30260377516E+02  0.34044673652E+02  0.00000000000E+00 0. -1.
</event>
<event>
 7    1  0.2492468E-009  0.4778727E+02  0.7816164E-02  0.1312668E+00
        -11   -1    0    0    0    0  0.00000000000E+00  0.00000000000E+00  0.45593999997E+02  0.45594000000E+02  0.51100000000E-03 0.  1.
         11   -1    0    0    0    0 -0.00000000000E+00 -0.00000000000E+00 -0.45593999997E+02  0.45594000000E+02  0.51100000000E-03 0. -1.
    9900012    2    1    2    0    0  0.37149588853E+02  0.21827625456E+01 -0.22333088979E+02  0.47787271117E+02  0.20000000329E+02 0.  0.
         12    1    1    2    0    0 -0.37149588853E+02 -0.21827625456E+01  0.22333088979E+02  0.43400728883E+02  0.00000000000E+00 0. -1.
         11    1    3    3    0    0  0.15342180700E+02  0.38207800797E+01 -0.85520550298E+01  0.17975497616E+02  0.51100000000E-03 0. -1.
        -11    1    3    3    0    0  0.41539859509E+01  0.59176902159E+01 -0.35775007209E+01  0.80667941861E+01  0.51100000000E-03 0.  1.
        -12    1    3    3    0    0  0.17653422202E+02 -0.75557077500E+01 -0.10203533228E+02  0.21744979315E+02  0.00000000000E+00 0.  1.
</event>
<event>
 7    1  0.2492468E-009  0.4778726E+02  0.7816164E-02  0.1312668E+00
        -11   -1    0    0    0    0  0.00000000000E+00  0.00000000000E+00  0.45593999997E+02  0.45594000000E+02  0.51100000000E-03 0. -1.
         11   -1    0    0    0    0 -0.00000000000E+00 -0.00000000000E+00 -0.45593999997E+02  0.45594000000E+02  0.51100000000E-03 0.  1.
    9900012    2    1    2    0    0 -0.26037731311E+01  0.13908570467E+02 -0.41029207754E+02  0.47787264340E+02  0.19999969431E+02 0.  0.
         12    1    1    2    0    0  0.26037731311E+01 -0.13908570467E+02  0.41029207754E+02  0.43400735660E+02  0.00000000000E+00 0. -1.
         11    1    3    3    0    0 -0.80124852045E+01 -0.64069238441E+00 -0.92829019935E+01  0.12279359738E+02  0.51100000000E-03 0. -1.
        -11    1    3    3    0    0  0.39238110501E+01  0.77273457444E+01 -0.20689969206E+02  0.22431740713E+02  0.51100000000E-03 0.  1.
         12    1    3    3    0    0  0.14849010233E+01  0.68219171067E+01 -0.11056336554E+02  0.13076163889E+02  0.00000000000E+00 0. -1.
</event>
<event>
 7    1  0.2492468E-009  0.4778725E+02  0.7816164E-02  0.1312668E+00
        -11   -1    0    0    0    0  0.00000000000E+00  0.00000000000E+00  0.45593999997E+02  0.45594000000E+02  0.51100000000E-03 0.  1.
         11   -1    0    0    0    0 -0.00000000000E+00 -0.00000000000E+00 -0.45593999997E+02  0.45594000000E+02  0.51100000000E-03 0. -1.
    9900012    2    1    2    0    0 -0.20308060625E+02 -0.24432161045E+02  0.29568179583E+02  0.47787250426E+02  0.19999905992E+02 0.  0.
         12    1    1    2    0    0  0.20308060625E+02  0.24432161045E+02 -0.29568179583E+02  0.43400749574E+02  0.00000000000E+00 0. -1.
         11    1    3    3    0    0 -0.79497298362E+01 -0.13857188960E+02  0.91398757457E+01  0.18405358439E+02  0.51100000000E-03 0. -1.
        -11    1    3    3    0    0 -0.11749480386E+02 -0.48951500743E+01  0.64246177249E+01  0.14257927506E+02  0.51100000000E-03 0.  1.
        -12    1    3    3    0    0 -0.60885040292E+00 -0.56798220106E+01  0.14003686113E+02  0.15123964481E+02  0.00000000000E+00 0.  1.
</event>
<event>
 7    1  0.2492468E-009  0.4778727E+02  0.7816164E-02  0.1312668E+00
        -11   -1    0    0    0    0  0.00000000000E+00  0.00000000000E+00  0.45593999997E+02  0.45594000000E+02  0.51100000000E-03 0.  1.
         11   -1    0    0    0    0 -0.00000000000E+00 -0.00000000000E+00 -0.45593999997E+02  0.45594000000E+02  0.51100000000E-03 0. -1.
    9900012    2    1    2    0    0  0.41325012560E+02 -0.78987972214E+00  0.13237931299E+02  0.47787269613E+02  0.19999993472E+02 0.  0.
         12    1    1    2    0    0 -0.41325012560E+02  0.78987972214E+00 -0.13237931299E+02  0.43400730387E+02  0.00000000000E+00 0. -1.
         11    1    3    3    0    0  0.22752844225E+02  0.51852481152E+01  0.44556586041E+01  0.23757769512E+02  0.51100000000E-03 0. -1.
        -11    1    3    3    0    0  0.19300529759E+02 -0.49283270837E+01  0.99799572071E+01  0.22280000066E+02  0.51100000000E-03 0.  1.
         12    1    3    3    0    0 -0.72836142317E+00 -0.10468007537E+01 -0.11976845125E+01  0.17495000349E+01  0.00000000000E+00 0. -1.
</event>
<event>
 7    1  0.2492468E-009  0.4778727E+02  0.7816164E-02  0.1312668E+00
        -11   -1    0    0    0    0  0.00000000000E+00  0.00000000000E+00  0.45593999997E+02  0.45594000000E+02  0.51100000000E-03 0. -1.
         11   -1    0    0    0    0 -0.00000000000E+00 -0.00000000000E+00 -0.45593999997E+02  0.45594000000E+02  0.51100000000E-03 0.  1.
    9900012    2    1    2    0    0 -0.37472149599E+02 -0.13560326838E+02  0.17192405587E+02  0.47787271096E+02  0.20000000236E+02 0.  0.
         12    1    1    2    0    0  0.37472149599E+02  0.13560326838E+02 -0.17192405587E+02  0.43400728904E+02  0.00000000000E+00 0. -1.
         11    1    3    3    0    0  0.50694018993E+00 -0.85565429934E+00  0.33366081755E+01  0.34816787637E+01  0.51100000000E-03 0. -1.
        -11    1    3    3    0    0 -0.76510053094E+01 -0.27799919241E+01  0.88157806662E+01  0.11999342747E+02  0.51100000000E-03 0.  1.
        -12    1    3    3    0    0 -0.30328084480E+02 -0.99246806144E+01  0.50400167452E+01  0.32306249586E+02  0.00000000000E+00 0.  1.
</event>
<event>
 7    1  0.2492468E-009  0.4778730E+02  0.7816164E-02  0.1312668E+00
        -11   -1    0    0    0    0  0.00000000000E+00  0.00000000000E+00  0.45593999997E+02  0.45594000000E+02  0.51100000000E-03 0. -1.
         11   -1    0    0    0    0 -0.00000000000E+00 -0.00000000000E+00 -0.45593999997E+02  0.45594000000E+02  0.51100000000E-03 0.  1.
    9900012    2    1    2    0    0 -0.11912348227E+02 -0.33009487441E+02 -0.25536055501E+02  0.47787303785E+02  0.20000149277E+02 0.  0.
         12    1    1    2    0    0  0.11912348227E+02  0.33009487441E+02  0.25536055501E+02  0.43400696215E+02  0.00000000000E+00 0. -1.
         11    1    3    3    0    0  0.36144592021E+00 -0.93406994893E+01 -0.10919305718E+02  0.14373953796E+02  0.51100000000E-03 0. -1.
        -11    1    3    3    0    0 -0.11788937316E+02 -0.11532019423E+02 -0.13318240139E+02  0.21197689395E+02  0.51100000000E-03 0.  1.
         12    1    3    3    0    0 -0.48485683101E+00 -0.12136768528E+02 -0.12985096440E+01  0.12215660594E+02  0.00000000000E+00 0. -1.
</event>
<event>
 7    1  0.2492468E-009  0.4778727E+02  0.7816164E-02  0.1312668E+00
        -11   -1    0    0    0    0  0.00000000000E+00  0.00000000000E+00  0.45593999997E+02  0.45594000000E+02  0.51100000000E-03 0.  1.
         11   -1    0    0    0    0 -0.00000000000E+00 -0.00000000000E+00 -0.45593999997E+02  0.45594000000E+02  0.51100000000E-03 0. -1.
    9900012    2    1    2    0    0  0.10414041511E+02  0.20178166313E+02  0.36986656658E+02  0.47787269280E+02  0.19999991953E+02 0.  0.
         12    1    1    2    0    0 -0.10414041511E+02 -0.20178166313E+02 -0.36986656658E+02  0.43400730720E+02  0.00000000000E+00 0. -1.
         11    1    3    3    0    0  0.67208352190E+01  0.12258471376E+02  0.15617141212E+02  0.20960315990E+02  0.51100000000E-03 0. -1.
        -11    1    3    3    0    0  0.62496596838E+01  0.65280867761E+01  0.52601302855E+01  0.10456726735E+02  0.51100000000E-03 0.  1.
         12    1    3    3    0    0 -0.25564533920E+01  0.13916081616E+01  0.16109385160E+02  0.16370226555E+02  0.00000000000E+00 0. -1.
</event>
<event>
 7    1  0.2492468E-009  0.4778727E+02  0.7816164E-02  0.1312668E+00
        -11   -1    0    0    0    0  0.00000000000E+00  0.00000000000E+00  0.45593999997E+02  0.45594000000E+02  0.51100000000E-03 0.  1.
         11   -1    0    0    0    0 -0.00000000000E+00 -0.00000000000E+00 -0.45593999997E+02  0.45594000000E+02  0.51100000000E-03 0. -1.
    9900012    2    1    2    0    0  0.29584424202E+02  0.29796749638E+02 -0.10979030721E+02  0.47787267749E+02  0.19999984974E+02 0.  0.
         12    1    1    2    0    0 -0.29584424202E+02 -0.29796749638E+02  0.10979030721E+02  0.43400732251E+02  0.00000000000E+00 0. -1.
         11    1    3    3    0    0  0.77062332760E+01  0.14814594386E+02 -0.75432848886E+01  0.18323738300E+02  0.51100000000E-03 0. -1.
        -11    1    3    3    0    0  0.58703847497E+01  0.75505781410E+01 -0.64820992051E+01  0.11553798412E+02  0.51100000000E-03 0.  1.
        -12    1    3    3    0    0  0.16007806176E+02  0.74315771115E+01  0.30463533730E+01  0.17909731037E+02  0.00000000000E+00 0.  1.
</event>
<event>
 7    1  0.2492468E-009  0.4778723E+02  0.7816164E-02  0.1312668E+00
        -11   -1    0    0    0    0  0.00000000000E+00  0.00000000000E+00  0.45593999997E+02  0.45594000000E+02  0.51100000000E-03 0.  1.
         11   -1    0    0    0    0 -0.00000000000E+00 -0.00000000000E+00 -0.45593999997E+02  0.45594000000E+02  0.51100000000E-03 0. -1.
    9900012    2    1    2    0    0 -0.29570740887E+02  0.19383915813E+02  0.25168668707E+02  0.47787230498E+02  0.19999815132E+02 0.  0.
         12    1    1    2    0    0  0.29570740887E+02 -0.19383915813E+02 -0.25168668707E+02  0.43400769502E+02  0.00000000000E+00 0. -1.
         11    1    3    3    0    0 -0.24682861724E+01  0.39159083101E+01  0.41107084512E+01  0.61906945292E+01  0.51100000000E-03 0. -1.
        -11    1    3    3    0    0 -0.55783325875E+01  0.28994686151E+01 -0.29901763095E+01  0.69617431243E+01  0.51100000000E-03 0.  1.
        -12    1    3    3    0    0 -0.21524122128E+02  0.12568538888E+02  0.24048136565E+02  0.34634792845E+02  0.00000000000E+00 0.  1.
</event>
<event>
 7    1  0.2492468E-009  0.4778727E+02  0.7816164E-02  0.1312668E+00
        -11   -1    0    0    0    0  0.00000000000E+00  0.00000000000E+00  0.45593999997E+02  0.45594000000E+02  0.51100000000E-03 0.  1.
         11   -1    0    0    0    0 -0.00000000000E+00 -0.00000000000E+00 -0.45593999997E+02  0.45594000000E+02  0.51100000000E-03 0. -1.
    9900012    2    1    2    0    0  0.38629182047E+02  0.15406130938E+02  0.12412111708E+02  0.47787273126E+02  0.20000009491E+02 0.  0.
         12    1    1    2    0    0 -0.38629182047E+02 -0.15406130938E+02 -0.12412111708E+02  0.43400726874E+02  0.00000000000E+00 0. -1.
         11    1    3    3    0    0  0.21878603057E+00  0.27849986362E+01  0.16070419037E+01  0.32228355019E+01  0.51100000000E-03 0. -1.
        -11    1    3    3    0    0  0.56825722097E+01 -0.96977156462E+00  0.67792641939E+01  0.88989048246E+01  0.51100000000E-03 0.  1.
         12    1    3    3    0    0  0.32727823807E+02  0.13590903867E+02  0.40258056100E+01  0.35665532800E+02  0.00000000000E+00 0. -1.
</event>
<event>
 7    1  0.2492468E-009  0.4778727E+02  0.7816164E-02  0.1312668E+00
        -11   -1    0    0    0    0  0.00000000000E+00  0.00000000000E+00  0.45593999997E+02  0.45594000000E+02  0.51100000000E-03 0. -1.
         11   -1    0    0    0    0 -0.00000000000E+00 -0.00000000000E+00 -0.45593999997E+02  0.45594000000E+02  0.51100000000E-03 0.  1.
    9900012    2    1    2    0    0  0.40141988738E+02 -0.13611567039E+02  0.93257335927E+01  0.47787270465E+02  0.19999997359E+02 0.  0.
         12    1    1    2    0    0 -0.40141988738E+02  0.13611567039E+02 -0.93257335927E+01  0.43400729535E+02  0.00000000000E+00 0. -1.
         11    1    3    3    0    0  0.40055371477E+01  0.18225110557E+01  0.25627600915E+00  0.44081234152E+01  0.51100000000E-03 0. -1.
        -11    1    3    3    0    0  0.74963025195E+01 -0.10662698673E+02  0.54189165398E+01  0.14115677497E+02  0.51100000000E-03 0.  1.
         12    1    3    3    0    0  0.28640149071E+02 -0.47713794211E+01  0.36505410438E+01  0.29263469553E+02  0.00000000000E+00 0. -1.
</event>
<event>
 7    1  0.2492468E-009  0.4778727E+02  0.7816164E-02  0.1312668E+00
        -11   -1    0    0    0    0  0.00000000000E+00  0.00000000000E+00  0.45593999997E+02  0.45594000000E+02  0.51100000000E-03 0.  1.
         11   -1    0    0    0    0 -0.00000000000E+00 -0.00000000000E+00 -0.45593999997E+02  0.45594000000E+02  0.51100000000E-03 0. -1.
    9900012    2    1    2    0    0  0.66184266930E+00 -0.31995712190E+02  0.29316541743E+02  0.47787271273E+02  0.20000001042E+02 0.  0.
         12    1    1    2    0    0 -0.66184266930E+00  0.31995712190E+02 -0.29316541743E+02  0.43400728727E+02  0.00000000000E+00 0. -1.
         11    1    3    3    0    0  0.40019866514E+01 -0.34265808722E+01  0.38584802241E+01  0.65303310431E+01  0.51100000000E-03 0. -1.
        -11    1    3    3    0    0  0.47817297631E+01 -0.18767661843E+02  0.18338738026E+02  0.26672071221E+02  0.51100000000E-03 0.  1.
        -12    1    3    3    0    0 -0.81218737453E+01 -0.98014694748E+01  0.71193234928E+01  0.14584869008E+02  0.00000000000E+00 0.  1.
</event>
<event>
 7    1  0.2492468E-009  0.4778727E+02  0.7816164E-02  0.1312668E+00
        -11   -1    0    0    0    0  0.00000000000E+00  0.00000000000E+00  0.45593999997E+02  0.45594000000E+02  0.51100000000E-03 0. -1.
         11   -1    0    0    0    0 -0.00000000000E+00 -0.00000000000E+00 -0.45593999997E+02  0.45594000000E+02  0.51100000000E-03 0.  1.
    9900012    2    1    2    0    0  0.33753207868E+02  0.68722715658E+00 -0.27274016751E+02  0.47787270602E+02  0.19999997983E+02 0.  0.
         12    1    1    2    0    0 -0.33753207868E+02 -0.68722715658E+00  0.27274016751E+02  0.43400729398E+02  0.00000000000E+00 0. -1.
         11    1    3    3    0    0  0.13714446896E+00 -0.37861365739E+00  0.15547664875E+01  0.16060684913E+01  0.51100000000E-03 0. -1.
        -11    1    3    3    0    0  0.22869358314E+02 -0.88573035644E+00 -0.11290739666E+02  0.25520048402E+02  0.51100000000E-03 0.  1.
         12    1    3    3    0    0  0.10746705084E+02  0.19515711704E+01 -0.17538043573E+02  0.20661153709E+02  0.00000000000E+00 0. -1.
</event>
<event>
 7    1  0.2492468E-009  0.4778727E+02  0.7816164E-02  0.1312668E+00
        -11   -1    0    0    0    0  0.00000000000E+00  0.00000000000E+00  0.45593999997E+02  0.45594000000E+02  0.51100000000E-03 0.  1.
         11   -1    0    0    0    0 -0.00000000000E+00 -0.00000000000E+00 -0.45593999997E+02  0.45594000000E+02  0.51100000000E-03 0. -1.
    9900012    2    1    2    0    0  0.12220739179E+02 -0.98368272655E+01  0.40466203654E+02  0.47787271033E+02  0.19999999946E+02 0.  0.
         12    1    1    2    0    0 -0.12220739179E+02  0.98368272655E+01 -0.40466203654E+02  0.43400728967E+02  0.00000000000E+00 0. -1.
         11    1    3    3    0    0  0.91058564035E+00  0.40825047288E+01  0.14995335875E+02  0.15567790766E+02  0.51100000000E-03 0. -1.
        -11    1    3    3    0    0  0.23696297004E+01 -0.60003142564E+01  0.15029205816E+02  0.16355303232E+02  0.51100000000E-03 0.  1.
         12    1    3    3    0    0  0.89405238377E+01 -0.79190177379E+01  0.10441661964E+02  0.15864177035E+02  0.00000000000E+00 0. -1.
</event>
<event>
 7    1  0.2492468E-009  0.4778727E+02  0.7816164E-02  0.1312668E+00
        -11   -1    0    0    0    0  0.00000000000E+00  0.00000000000E+00  0.45593999997E+02  0.45594000000E+02  0.51100000000E-03 0.  1.
         11   -1    0    0    0    0 -0.00000000000E+00 -0.00000000000E+00 -0.45593999997E+02  0.45594000000E+02  0.51100000000E-03 0. -1.
    9900012    2    1    2    0    0  0.33436821219E+02  0.15871625090E+02  0.22664806585E+02  0.47787274732E+02  0.20000016814E+02 0.  0.
         12    1    1    2    0    0 -0.33436821219E+02 -0.15871625090E+02 -0.22664806585E+02  0.43400725268E+02  0.00000000000E+00 0. -1.
         11    1    3    3    0    0  0.23474867212E+02  0.11879740315E+02  0.90045139851E+01  0.27807892637E+02  0.51100000000E-03 0. -1.
        -11    1    3    3    0    0  0.10416725279E+02  0.63241450407E+01  0.11782128907E+02  0.16950561580E+02  0.51100000000E-03 0.  1.
        -12    1    3    3    0    0 -0.45477127193E+00 -0.23322602650E+01  0.18781636923E+01  0.30288205144E+01  0.00000000000E+00 0.  1.
</event>
<event>
 7    1  0.2492468E-009  0.4778727E+02  0.7816164E-02  0.1312668E+00
        -11   -1    0    0    0    0  0.00000000000E+00  0.00000000000E+00  0.45593999997E+02  0.45594000000E+02  0.51100000000E-03 0.  1.
         11   -1    0    0    0    0 -0.00000000000E+00 -0.00000000000E+00 -0.45593999997E+02  0.45594000000E+02  0.51100000000E-03 0. -1.
    9900012    2    1    2    0    0  0.13396130191E+02 -0.40519158933E+02  0.78971312945E+01  0.47787271580E+02  0.20000002441E+02 0.  0.
         12    1    1    2    0    0 -0.13396130191E+02  0.40519158933E+02 -0.78971312945E+01  0.43400728420E+02  0.00000000000E+00 0. -1.
         11    1    3    3    0    0  0.81172648907E+00 -0.19027707260E+02  0.46155618831E+01  0.19596325044E+02  0.51100000000E-03 0. -1.
        -11    1    3    3    0    0  0.40440998248E+01 -0.16083913987E+02  0.61425748295E+01  0.17685538113E+02  0.51100000000E-03 0.  1.
        -12    1    3    3    0    0  0.85403038774E+01 -0.54075376860E+01 -0.28610054182E+01  0.10505408424E+02  0.00000000000E+00 0.  1.
</event>
<event>
 7    1  0.2492468E-009  0.4778723E+02  0.7816164E-02  0.1312668E+00
        -11   -1    0    0    0    0  0.00000000000E+00  0.00000000000E+00  0.45593999997E+02  0.45594000000E+02  0.51100000000E-03 0.  1.
         11   -1    0    0    0    0 -0.00000000000E+00 -0.00000000000E+00 -0.45593999997E+02  0.45594000000E+02  0.51100000000E-03 0. -1.
    9900012    2    1    2    0    0 -0.18131734777E+01  0.39181872180E+02  0.18577397536E+02  0.47787234975E+02  0.19999835542E+02 0.  0.
         12    1    1    2    0    0  0.18131734777E+01 -0.39181872180E+02 -0.18577397536E+02  0.43400765025E+02  0.00000000000E+00 0. -1.
         11    1    3    3    0    0 -0.21588519804E+00  0.22200691276E+02  0.53313401075E+01  0.22832881709E+02  0.51100000000E-03 0. -1.
        -11    1    3    3    0    0 -0.14662421764E+01  0.17612971618E+02  0.75451937956E+01  0.19217090961E+02  0.51100000000E-03 0.  1.
         12    1    3    3    0    0 -0.13104610332E+00 -0.63179071364E+00  0.57008636332E+01  0.57372623046E+01  0.00000000000E+00 0. -1.
</event>
<event>
 7    1  0.2492468E-009  0.4778727E+02  0.7816164E-02  0.1312668E+00
        -11   -1    0    0    0    0  0.00000000000E+00  0.00000000000E+00  0.45593999997E+02  0.45594000000E+02  0.51100000000E-03 0.  1.
         11   -1    0    0    0    0 -0.00000000000E+00 -0.00000000000E+00 -0.45593999997E+02  0.45594000000E+02  0.51100000000E-03 0. -1.
    9900012    2    1    2    0    0 -0.11584205240E+02 -0.31691010013E+02  0.27296688926E+02  0.47787272437E+02  0.20000006347E+02 0.  0.
         12    1    1    2    0    0  0.11584205240E+02  0.31691010013E+02 -0.27296688926E+02  0.43400727563E+02  0.00000000000E+00 0. -1.
         11    1    3    3    0    0 -0.44878592019E+01 -0.79919690608E+01  0.66561556624E+01  0.11327703128E+02  0.51100000000E-03 0. -1.
        -11    1    3    3    0    0 -0.25436533331E+01 -0.16792499937E+02  0.33770408746E+01  0.17316542141E+02  0.51100000000E-03 0.  1.
         12    1    3    3    0    0 -0.45526927050E+01 -0.69065410156E+01  0.17263492389E+02  0.19143027168E+02  0.00000000000E+00 0. -1.
</event>
<event>
 7    1  0.2492468E-009  0.4778727E+02  0.7816164E-02  0.1312668E+00
        -11   -1    0    0    0    0  0.00000000000E+00  0.00000000000E+00  0.45593999997E+02  0.45594000000E+02  0.51100000000E-03 0. -1.
         11   -1    0    0    0    0 -0.00000000000E+00 -0.00000000000E+00 -0.45593999997E+02  0.45594000000E+02  0.51100000000E-03 0.  1.
    9900012    2    1    2    0    0 -0.42427038800E+02 -0.62914152043E+01  0.66323007072E+01  0.47787274899E+02  0.20000017574E+02 0.  0.
         12    1    1    2    0    0  0.42427038800E+02  0.62914152043E+01 -0.66323007072E+01  0.43400725101E+02  0.00000000000E+00 0. -1.
         11    1    3    3    0    0 -0.18609720420E+02 -0.77078650465E+01 -0.25331125072E+01  0.20301466374E+02  0.51100000000E-03 0. -1.
        -11    1    3    3    0    0 -0.77224016373E+01 -0.41625944299E+01  0.43010135886E+01  0.97704348719E+01  0.51100000000E-03 0.  1.
        -12    1    3    3    0    0 -0.16094916743E+02  0.55790442721E+01  0.48643996258E+01  0.17715373653E+02  0.00000000000E+00 0.  1.
</event>
<event>
 7    1  0.2492468E-009  0.4778727E+02  0.7816164E-02  0.1312668E+00
        -11   -1    0    0    0    0  0.00000000000E+00  0.00000000000E+00  0.45593999997E+02  0.45594000000E+02  0.51100000000E-03 0.  1.
         11   -1    0    0    0    0 -0.00000000000E+00 -0.00000000000E+00 -0.45593999997E+02  0.45594000000E+02  0.51100000000E-03 0. -1.
    9900012    2    1    2    0    0 -0.27719643296E+02  0.25689645345E+02  0.21337442370E+02  0.47787274783E+02  0.20000017047E+02 0.  0.
         12    1    1    2    0    0  0.27719643296E+02 -0.25689645345E+02 -0.21337442370E+02  0.43400725217E+02  0.00000000000E+00 0. -1.
         11    1    3    3    0    0 -0.12380929765E+02  0.22160532779E+02  0.82920552311E+01  0.26704584159E+02  0.51100000000E-03 0. -1.
        -11    1    3    3    0    0 -0.44951001275E+01  0.10452561061E+01  0.10697790539E+01  0.47373951670E+01  0.51100000000E-03 0.  1.
         12    1    3    3    0    0 -0.10843613404E+02  0.24838564599E+01  0.11975608085E+02  0.16345295457E+02  0.00000000000E+00 0. -1.
</event>
<event>
 7    1  0.2492468E-009  0.4778727E+02  0.7816164E-02  0.1312668E+00
        -11   -1    0    0    0    0  0.00000000000E+00  0.00000000000E+00  0.45593999997E+02  0.45594000000E+02  0.51100000000E-03 0.  1.
         11   -1    0    0    0    0 -0.00000000000E+00 -0.00000000000E+00 -0.45593999997E+02  0.45594000000E+02  0.51100000000E-03 0. -1.
    9900012    2    1    2    0    0 -0.15905254992E+02 -0.11333596271E+02  0.38758169807E+02  0.47787271117E+02  0.20000000329E+02 0.  0.
         12    1    1    2    0    0  0.15905254992E+02  0.11333596271E+02 -0.38758169807E+02  0.43400728883E+02  0.00000000000E+00 0. -1.
         11    1    3    3    0    0 -0.96745027283E+01  0.68726713905E+00  0.11588652040E+02  0.15111756865E+02  0.51100000000E-03 0. -1.
        -11    1    3    3    0    0 -0.87543579770E+01 -0.37880483383E+01  0.14556966528E+02  0.17403832008E+02  0.51100000000E-03 0.  1.
         12    1    3    3    0    0  0.25236057137E+01 -0.82328150718E+01  0.12612551239E+02  0.15271682244E+02  0.00000000000E+00 0. -1.
</event>
<event>
 7    1  0.2492468E-009  0.4778727E+02  0.7816164E-02  0.1312668E+00
        -11   -1    0    0    0    0  0.00000000000E+00  0.00000000000E+00  0.45593999997E+02  0.45594000000E+02  0.51100000000E-03 0. -1.
         11   -1    0    0    0    0 -0.00000000000E+00 -0.00000000000E+00 -0.45593999997E+02  0.45594000000E+02  0.51100000000E-03 0.  1.
    9900012    2    1    2    0    0 -0.29597915447E+02 -0.30021841715E+02 -0.10309006630E+02  0.47787271936E+02  0.20000004065E+02 0.  0.
         12    1    1    2    0    0  0.29597915447E+02  0.30021841715E+02  0.10309006630E+02  0.43400728064E+02  0.00000000000E+00 0. -1.
         11    1    3    3    0    0 -0.14630673050E+01 -0.84431588005E+01 -0.16796589608E+01  0.87320530779E+01  0.51100000000E-03 0. -1.
        -11    1    3    3    0    0 -0.67333020473E+01 -0.83175299159E+01 -0.88352287446E+01  0.13877317017E+02  0.51100000000E-03 0.  1.
        -12    1    3    3    0    0 -0.21401546095E+02 -0.13261152998E+02  0.20588107521E+00  0.25177901841E+02  0.00000000000E+00 0.  1.
</event>
<event>
 7    1  0.2492468E-009  0.4778727E+02  0.7816164E-02  0.1312668E+00
        -11   -1    0    0    0    0  0.00000000000E+00  0.00000000000E+00  0.45593999997E+02  0.45594000000E+02  0.51100000000E-03 0.  1.
         11   -1    0    0    0    0 -0.00000000000E+00 -0.00000000000E+00 -0.45593999997E+02  0.45594000000E+02  0.51100000000E-03 0. -1.
    9900012    2    1    2    0    0  0.36671197258E+02 -0.23008934149E+02 -0.30716914293E+01  0.47787273655E+02  0.20000011905E+02 0.  0.
         12    1    1    2    0    0 -0.36671197258E+02  0.23008934149E+02  0.30716914293E+01  0.43400726345E+02  0.00000000000E+00 0. -1.
         11    1    3    3    0    0  0.11817230401E+02 -0.23176595252E+01  0.18665784086E+01  0.12186164090E+02  0.51100000000E-03 0. -1.
        -11    1    3    3    0    0  0.10242589729E+02 -0.88327605275E+00  0.84997246718E+00  0.10315680996E+02  0.51100000000E-03 0.  1.
        -12    1    3    3    0    0  0.14611377128E+02 -0.19807998571E+02 -0.57882423050E+01  0.25285428570E+02  0.00000000000E+00 0.  1.
</event>
<event>
 7    1  0.2492468E-009  0.4778728E+02  0.7816164E-02  0.1312668E+00
        -11   -1    0    0    0    0  0.00000000000E+00  0.00000000000E+00  0.45593999997E+02  0.45594000000E+02  0.51100000000E-03 0. -1.
         11   -1    0    0    0    0 -0.00000000000E+00 -0.00000000000E+00 -0.45593999997E+02  0.45594000000E+02  0.51100000000E-03 0.  1.
    9900012    2    1    2    0    0  0.31065421313E+02 -0.27692943816E+02  0.12315158832E+02  0.47787277937E+02  0.20000031424E+02 0.  0.
         12    1    1    2    0    0 -0.31065421313E+02  0.27692943816E+02 -0.12315158832E+02  0.43400722063E+02  0.00000000000E+00 0. -1.
         11    1    3    3    0    0  0.12052070713E+01 -0.17267877085E+01 -0.28413654444E+01  0.35366195335E+01  0.51100000000E-03 0. -1.
        -11    1    3    3    0    0  0.34135654286E+01 -0.27460266436E+01  0.67825034584E+01  0.80743696155E+01  0.51100000000E-03 0.  1.
        -12    1    3    3    0    0  0.26446648813E+02 -0.23220129464E+02  0.83740208183E+01  0.36176288788E+02  0.00000000000E+00 0.  1.
</event>
<event>
 7    1  0.2492468E-009  0.4778726E+02  0.7816164E-02  0.1312668E+00
        -11   -1    0    0    0    0  0.00000000000E+00  0.00000000000E+00  0.45593999997E+02  0.45594000000E+02  0.51100000000E-03 0.  1.
         11   -1    0    0    0    0 -0.00000000000E+00 -0.00000000000E+00 -0.45593999997E+02  0.45594000000E+02  0.51100000000E-03 0. -1.
    9900012    2    1    2    0    0 -0.99819480309E+01  0.38871535401E+02  0.16522372386E+02  0.47787258760E+02  0.19999943992E+02 0.  0.
         12    1    1    2    0    0  0.99819480309E+01 -0.38871535401E+02 -0.16522372386E+02  0.43400741240E+02  0.00000000000E+00 0. -1.
         11    1    3    3    0    0 -0.36132355732E+01  0.64638646421E+01 -0.39653187841E+01  0.84000458772E+01  0.51100000000E-03 0. -1.
        -11    1    3    3    0    0 -0.15294751722E+01  0.20264505366E+02  0.10117327574E+02  0.22701316912E+02  0.51100000000E-03 0.  1.
         12    1    3    3    0    0 -0.48392372854E+01  0.12143165393E+02  0.10370363596E+02  0.16685895972E+02  0.00000000000E+00 0. -1.
</event>
<event>
 7    1  0.2492468E-009  0.4778728E+02  0.7816164E-02  0.1312668E+00
        -11   -1    0    0    0    0  0.00000000000E+00  0.00000000000E+00  0.45593999997E+02  0.45594000000E+02  0.51100000000E-03 0. -1.
         11   -1    0    0    0    0 -0.00000000000E+00 -0.00000000000E+00 -0.45593999997E+02  0.45594000000E+02  0.51100000000E-03 0.  1.
    9900012    2    1    2    0    0  0.56996501740E+00 -0.43382881487E+02  0.11061549228E+01  0.47787275986E+02  0.20000022528E+02 0.  0.
         12    1    1    2    0    0 -0.56996501740E+00  0.43382881487E+02 -0.11061549228E+01  0.43400724014E+02  0.00000000000E+00 0. -1.
         11    1    3    3    0    0  0.52676101994E+01 -0.16153096367E+02  0.29702283978E+00  0.16992894465E+02  0.51100000000E-03 0. -1.
        -11    1    3    3    0    0  0.24038274929E+01 -0.21538058500E+02  0.19321719839E+00  0.21672648285E+02  0.51100000000E-03 0.  1.
         12    1    3    3    0    0 -0.71014726748E+01 -0.56917266204E+01  0.61591488463E+00  0.91217332354E+01  0.00000000000E+00 0. -1.
</event>
<event>
 7    1  0.2492468E-009  0.4778727E+02  0.7816164E-02  0.1312668E+00
        -11   -1    0    0    0    0  0.00000000000E+00  0.00000000000E+00  0.45593999997E+02  0.45594000000E+02  0.51100000000E-03 0.  1.
         11   -1    0    0    0    0 -0.00000000000E+00 -0.00000000000E+00 -0.45593999997E+02  0.45594000000E+02  0.51100000000E-03 0. -1.
    9900012    2    1    2    0    0  0.35549071320E+02 -0.23235440116E+02  0.89443322981E+01  0.47787271557E+02  0.20000002336E+02 0.  0.
         12    1    1    2    0    0 -0.35549071320E+02  0.23235440116E+02 -0.89443322981E+01  0.43400728443E+02  0.00000000000E+00 0. -1.
         11    1    3    3    0    0  0.16615441542E+01 -0.63614100143E+01  0.26229569066E+01  0.70787124212E+01  0.51100000000E-03 0. -1.
        -11    1    3    3    0    0  0.46253970832E+01  0.23447325630E+01  0.38771251814E+00  0.52002298245E+01  0.51100000000E-03 0.  1.
        -12    1    3    3    0    0  0.29262130083E+02 -0.19218762665E+02  0.59336628734E+01  0.35508329311E+02  0.00000000000E+00 0.  1.
</event>
<event>
 7    1  0.2492468E-009  0.4778727E+02  0.7816164E-02  0.1312668E+00
        -11   -1    0    0    0    0  0.00000000000E+00  0.00000000000E+00  0.45593999997E+02  0.45594000000E+02  0.51100000000E-03 0.  1.
         11   -1    0    0    0    0 -0.00000000000E+00 -0.00000000000E+00 -0.45593999997E+02  0.45594000000E+02  0.51100000000E-03 0. -1.
    9900012    2    1    2    0    0  0.23238491711E+02  0.27228346015E+02  0.24540036305E+02  0.47787266071E+02  0.19999977323E+02 0.  0.
         12    1    1    2    0    0 -0.23238491711E+02 -0.27228346015E+02 -0.24540036305E+02  0.43400733929E+02  0.00000000000E+00 0. -1.
         11    1    3    3    0    0  0.12492853417E+02  0.12708558813E+02  0.11255239477E+02  0.21077458802E+02  0.51100000000E-03 0. -1.
        -11    1    3    3    0    0  0.76422371102E+01 -0.32109591551E+00  0.23014512350E+01  0.79877136080E+01  0.51100000000E-03 0.  1.
         12    1    3    3    0    0  0.31034011841E+01  0.14840883118E+02  0.10983345593E+02  0.18722093660E+02  0.00000000000E+00 0. -1.
</event>
<event>
 7    1  0.2492468E-009  0.4778727E+02  0.7816164E-02  0.1312668E+00
        -11   -1    0    0    0    0  0.00000000000E+00  0.00000000000E+00  0.45593999997E+02  0.45594000000E+02  0.51100000000E-03 0.  1.
         11   -1    0    0    0    0 -0.00000000000E+00 -0.00000000000E+00 -0.45593999997E+02  0.45594000000E+02  0.51100000000E-03 0. -1.
    9900012    2    1    2    0    0  0.13309239515E+02  0.16085015616E+02  0.38049441127E+02  0.47787267819E+02  0.19999985292E+02 0.  0.
         12    1    1    2    0    0 -0.13309239515E+02 -0.16085015616E+02 -0.38049441127E+02  0.43400732181E+02  0.00000000000E+00 0. -1.
         11    1    3    3    0    0 -0.18408705576E+01  0.29237816234E+01  0.70710979914E+01  0.78700527607E+01  0.51100000000E-03 0.  1.
        -11    1    3    3    0    0  0.45350983860E+01  0.18955371957E+01 -0.39710549578E+00  0.49313154094E+01  0.51100000000E-03 0. -1.
         12    1    3    3    0    0  0.10615011686E+02  0.11265696797E+02  0.31375448631E+02  0.34985899649E+02  0.00000000000E+00 0. -1.
</event>
<event>
 7    1  0.2492468E-009  0.4778727E+02  0.7816164E-02  0.1312668E+00
        -11   -1    0    0    0    0  0.00000000000E+00  0.00000000000E+00  0.45593999997E+02  0.45594000000E+02  0.51100000000E-03 0.  1.
         11   -1    0    0    0    0 -0.00000000000E+00 -0.00000000000E+00 -0.45593999997E+02  0.45594000000E+02  0.51100000000E-03 0. -1.
    9900012    2    1    2    0    0 -0.31934546690E+02 -0.24474483260E+02  0.16272921453E+02  0.47787267567E+02  0.19999984143E+02 0.  0.
         12    1    1    2    0    0  0.31934546690E+02  0.24474483260E+02 -0.16272921453E+02  0.43400732433E+02  0.00000000000E+00 0. -1.
         11    1    3    3    0    0 -0.35708723941E+01 -0.11178353201E+02  0.20232376634E+01  0.11907988950E+02  0.51100000000E-03 0. -1.
        -11    1    3    3    0    0  0.84363817464E-01  0.59020272792E+00  0.17426972991E+01  0.18418606493E+01  0.51100000000E-03 0.  1.
        -12    1    3    3    0    0 -0.28448038114E+02 -0.13886332787E+02  0.12506986490E+02  0.34037417967E+02  0.00000000000E+00 0.  1.
</event>
<event>
 7    1  0.2492468E-009  0.4778729E+02  0.7816164E-02  0.1312668E+00
        -11   -1    0    0    0    0  0.00000000000E+00  0.00000000000E+00  0.45593999997E+02  0.45594000000E+02  0.51100000000E-03 0.  1.
         11   -1    0    0    0    0 -0.00000000000E+00 -0.00000000000E+00 -0.45593999997E+02  0.45594000000E+02  0.51100000000E-03 0. -1.
    9900012    2    1    2    0    0  0.42524216644E+02  0.20634318884E+01  0.84294080073E+01  0.47787289502E+02  0.20000084156E+02 0.  0.
         12    1    1    2    0    0 -0.42524216644E+02 -0.20634318884E+01 -0.84294080073E+01  0.43400710498E+02  0.00000000000E+00 0. -1.
         11    1    3    3    0    0  0.22242563854E+02  0.86036754381E+01  0.24601819254E+01  0.23975140734E+02  0.51100000000E-03 0.  1.
        -11    1    3    3    0    0  0.17117257844E+02 -0.22274291550E+01  0.25130193875E+01  0.17443543890E+02  0.51100000000E-03 0. -1.
         12    1    3    3    0    0  0.31643949455E+01 -0.43128143946E+01  0.34562066944E+01  0.63686048777E+01  0.00000000000E+00 0. -1.
</event>
<event>
 7    1  0.2492468E-009  0.4778727E+02  0.7816164E-02  0.1312668E+00
        -11   -1    0    0    0    0  0.00000000000E+00  0.00000000000E+00  0.45593999997E+02  0.45594000000E+02  0.51100000000E-03 0.  1.
         11   -1    0    0    0    0 -0.00000000000E+00 -0.00000000000E+00 -0.45593999997E+02  0.45594000000E+02  0.51100000000E-03 0. -1.
    9900012    2    1    2    0    0 -0.84553060715E+01  0.38160193557E+02  0.18866126364E+02  0.47787270777E+02  0.19999998783E+02 0.  0.
         12    1    1    2    0    0  0.84553060715E+01 -0.38160193557E+02 -0.18866126364E+02  0.43400729223E+02  0.00000000000E+00 0. -1.
         11    1    3    3    0    0 -0.23182102823E+01  0.52495405414E+01 -0.16622725440E+00  0.57410283548E+01  0.51100000000E-03 0. -1.
        -11    1    3    3    0    0 -0.41494021440E+01  0.20755310491E+02  0.23303940778E+01  0.21293923747E+02  0.51100000000E-03 0.  1.
         12    1    3    3    0    0 -0.19876936451E+01  0.12155342525E+02  0.16701959541E+02  0.20752318676E+02  0.00000000000E+00 0. -1.
</event>
<event>
 7    1  0.2492468E-009  0.4778727E+02  0.7816164E-02  0.1312668E+00
        -11   -1    0    0    0    0  0.00000000000E+00  0.00000000000E+00  0.45593999997E+02  0.45594000000E+02  0.51100000000E-03 0.  1.
         11   -1    0    0    0    0 -0.00000000000E+00 -0.00000000000E+00 -0.45593999997E+02  0.45594000000E+02  0.51100000000E-03 0. -1.
    9900012    2    1    2    0    0  0.23473905593E+02 -0.26290228755E+02 -0.25326322051E+02  0.47787274655E+02  0.20000016464E+02 0.  0.
         12    1    1    2    0    0 -0.23473905593E+02  0.26290228755E+02  0.25326322051E+02  0.43400725345E+02  0.00000000000E+00 0. -1.
         11    1    3    3    0    0  0.13629723045E+02 -0.14150430750E+02 -0.10660935421E+02  0.22353066568E+02  0.51100000000E-03 0. -1.
        -11    1    3    3    0    0  0.99131881941E+01 -0.14918881313E+02 -0.11846800298E+02  0.21475357910E+02  0.51100000000E-03 0.  1.
         12    1    3    3    0    0 -0.69005645679E-01  0.27790833082E+01 -0.28185863323E+01  0.39588501772E+01  0.00000000000E+00 0. -1.
</event>
<event>
 7    1  0.2492468E-009  0.4778727E+02  0.7816164E-02  0.1312668E+00
        -11   -1    0    0    0    0  0.00000000000E+00  0.00000000000E+00  0.45593999997E+02  0.45594000000E+02  0.51100000000E-03 0.  1.
         11   -1    0    0    0    0 -0.00000000000E+00 -0.00000000000E+00 -0.45593999997E+02  0.45594000000E+02  0.51100000000E-03 0. -1.
    9900012    2    1    2    0    0 -0.28939628058E+01  0.26666508699E+02  0.34119581796E+02  0.47787267646E+02  0.19999984507E+02 0.  0.
         12    1    1    2    0    0  0.28939628058E+01 -0.26666508699E+02 -0.34119581796E+02  0.43400732354E+02  0.00000000000E+00 0. -1.
         11    1    3    3    0    0 -0.38156653078E+01  0.13452440608E+02  0.95905284071E+01  0.16955992906E+02  0.51100000000E-03 0. -1.
        -11    1    3    3    0    0  0.73873287195E+00  0.14413754255E+02  0.13586325366E+02  0.19821459967E+02  0.51100000000E-03 0.  1.
         12    1    3    3    0    0  0.18296963001E+00 -0.11996861643E+01  0.10942728022E+02  0.11009814774E+02  0.00000000000E+00 0. -1.
</event>
<event>
 7    1  0.2492468E-009  0.4778727E+02  0.7816164E-02  0.1312668E+00
        -11   -1    0    0    0    0  0.00000000000E+00  0.00000000000E+00  0.45593999997E+02  0.45594000000E+02  0.51100000000E-03 0.  1.
         11   -1    0    0    0    0 -0.00000000000E+00 -0.00000000000E+00 -0.45593999997E+02  0.45594000000E+02  0.51100000000E-03 0. -1.
    9900012    2    1    2    0    0 -0.29477412266E+02  0.21017188879E+02  0.23937075697E+02  0.47787266651E+02  0.19999979970E+02 0.  0.
         12    1    1    2    0    0  0.29477412266E+02 -0.21017188879E+02 -0.23937075697E+02  0.43400733349E+02  0.00000000000E+00 0. -1.
         11    1    3    3    0    0 -0.62796355187E+01  0.61763829562E+01  0.59312825285E+01  0.10618928447E+02  0.51100000000E-03 0. -1.
        -11    1    3    3    0    0 -0.18496292803E+02  0.18638515134E+02  0.12897385232E+02  0.29254907963E+02  0.51100000000E-03 0.  1.
         12    1    3    3    0    0 -0.47014839446E+01 -0.37977092112E+01  0.51084079366E+01  0.79134302411E+01  0.00000000000E+00 0. -1.
</event>
<event>
 7    1  0.2492468E-009  0.4778727E+02  0.7816164E-02  0.1312668E+00
        -11   -1    0    0    0    0  0.00000000000E+00  0.00000000000E+00  0.45593999997E+02  0.45594000000E+02  0.51100000000E-03 0. -1.
         11   -1    0    0    0    0 -0.00000000000E+00 -0.00000000000E+00 -0.45593999997E+02  0.45594000000E+02  0.51100000000E-03 0.  1.
    9900012    2    1    2    0    0 -0.67795996541E+00 -0.35268342928E+02 -0.25284538094E+02  0.47787268333E+02  0.19999987639E+02 0.  0.
         12    1    1    2    0    0  0.67795996541E+00  0.35268342928E+02  0.25284538094E+02  0.43400731667E+02  0.00000000000E+00 0. -1.
         11    1    3    3    0    0  0.87553241382E+01 -0.17210313963E+02 -0.16391578361E+02  0.25328530334E+02  0.51100000000E-03 0.  1.
        -11    1    3    3    0    0 -0.46534272368E+00 -0.34543601274E+01 -0.14813838740E+01  0.37873006460E+01  0.51100000000E-03 0. -1.
         12    1    3    3    0    0 -0.89679413800E+01 -0.14603668838E+02 -0.74115758586E+01  0.18671437353E+02  0.00000000000E+00 0. -1.
</event>
<event>
 7    1  0.2492468E-009  0.4778728E+02  0.7816164E-02  0.1312668E+00
        -11   -1    0    0    0    0  0.00000000000E+00  0.00000000000E+00  0.45593999997E+02  0.45594000000E+02  0.51100000000E-03 0. -1.
         11   -1    0    0    0    0 -0.00000000000E+00 -0.00000000000E+00 -0.45593999997E+02  0.45594000000E+02  0.51100000000E-03 0.  1.
    9900012    2    1    2    0    0  0.14851181556E+02  0.33361969384E+01 -0.40644000915E+02  0.47787278646E+02  0.20000034660E+02 0.  0.
         12    1    1    2    0    0 -0.14851181556E+02 -0.33361969384E+01  0.40644000915E+02  0.43400721354E+02  0.00000000000E+00 0. -1.
         11    1    3    3    0    0  0.18433085331E+01 -0.14107316143E+01 -0.39524653642E+01  0.45836593189E+01  0.51100000000E-03 0. -1.
        -11    1    3    3    0    0  0.14021163597E+02  0.79572072669E+01 -0.17804668388E+02  0.24019083929E+02  0.51100000000E-03 0.  1.
         12    1    3    3    0    0 -0.10132905749E+01 -0.32102787142E+01 -0.18886867163E+02  0.19184535399E+02  0.00000000000E+00 0. -1.
</event>
<event>
 7    1  0.2492468E-009  0.4778727E+02  0.7816164E-02  0.1312668E+00
        -11   -1    0    0    0    0  0.00000000000E+00  0.00000000000E+00  0.45593999997E+02  0.45594000000E+02  0.51100000000E-03 0.  1.
         11   -1    0    0    0    0 -0.00000000000E+00 -0.00000000000E+00 -0.45593999997E+02  0.45594000000E+02  0.51100000000E-03 0. -1.
    9900012    2    1    2    0    0  0.47715484430E+01 -0.38500917144E+02  0.19455980303E+02  0.47787268843E+02  0.19999989962E+02 0.  0.
         12    1    1    2    0    0 -0.47715484430E+01  0.38500917144E+02 -0.19455980303E+02  0.43400731157E+02  0.00000000000E+00 0. -1.
         11    1    3    3    0    0 -0.71753252546E+01 -0.14019692458E+02  0.77350859765E+01  0.17546185467E+02  0.51100000000E-03 0. -1.
        -11    1    3    3    0    0  0.36570949021E+01 -0.12079937826E+02  0.77269054861E+01  0.14798794196E+02  0.51100000000E-03 0.  1.
         12    1    3    3    0    0  0.82897787955E+01 -0.12401286860E+02  0.39939888401E+01  0.15442289180E+02  0.00000000000E+00 0. -1.
</event>
<event>
 7    1  0.2492468E-009  0.4778727E+02  0.7816164E-02  0.1312668E+00
        -11   -1    0    0    0    0  0.00000000000E+00  0.00000000000E+00  0.45593999997E+02  0.45594000000E+02  0.51100000000E-03 0. -1.
         11   -1    0    0    0    0 -0.00000000000E+00 -0.00000000000E+00 -0.45593999997E+02  0.45594000000E+02  0.51100000000E-03 0.  1.
    9900012    2    1    2    0    0  0.79559462177E+01  0.17081480623E+02 -0.39096666123E+02  0.47787270024E+02  0.19999995347E+02 0.  0.
         12    1    1    2    0    0 -0.79559462177E+01 -0.17081480623E+02  0.39096666123E+02  0.43400729976E+02  0.00000000000E+00 0. -1.
         11    1    3    3    0    0  0.66309539093E+01  0.20704441191E+01 -0.82627938677E+01  0.10794908585E+02  0.51100000000E-03 0. -1.
        -11    1    3    3    0    0  0.62313627839E+01  0.13354549142E+02 -0.18769283345E+02  0.23863358155E+02  0.51100000000E-03 0.  1.
         12    1    3    3    0    0 -0.49063704755E+01  0.16564873622E+01 -0.12064588911E+02  0.13129003283E+02  0.00000000000E+00 0. -1.
</event>
<event>
 7    1  0.2492468E-009  0.4778725E+02  0.7816164E-02  0.1312668E+00
        -11   -1    0    0    0    0  0.00000000000E+00  0.00000000000E+00  0.45593999997E+02  0.45594000000E+02  0.51100000000E-03 0. -1.
         11   -1    0    0    0    0 -0.00000000000E+00 -0.00000000000E+00 -0.45593999997E+02  0.45594000000E+02  0.51100000000E-03 0.  1.
    9900012    2    1    2    0    0 -0.32644155518E+02 -0.84961211996E+01 -0.27309343035E+02  0.47787249062E+02  0.19999899775E+02 0.  0.
         12    1    1    2    0    0  0.32644155518E+02  0.84961211996E+01  0.27309343035E+02  0.43400750938E+02  0.00000000000E+00 0. -1.
         11    1    3    3    0    0 -0.13255235955E+01 -0.75408737386E+00  0.50224230470E-01  0.15258385577E+01  0.51100000000E-03 0. -1.
        -11    1    3    3    0    0 -0.32193429929E+02 -0.66380416288E+01 -0.19379882251E+02  0.38158359027E+02  0.51100000000E-03 0.  1.
         12    1    3    3    0    0  0.87479800671E+00 -0.11039921970E+01 -0.79796850144E+01  0.81030514778E+01  0.00000000000E+00 0. -1.
</event>
<event>
 7    1  0.2492468E-009  0.4778727E+02  0.7816164E-02  0.1312668E+00
        -11   -1    0    0    0    0  0.00000000000E+00  0.00000000000E+00  0.45593999997E+02  0.45594000000E+02  0.51100000000E-03 0.  1.
         11   -1    0    0    0    0 -0.00000000000E+00 -0.00000000000E+00 -0.45593999997E+02  0.45594000000E+02  0.51100000000E-03 0. -1.
    9900012    2    1    2    0    0  0.42612952190E+02 -0.78387985730E+01  0.25125021906E+01  0.47787272764E+02  0.20000007838E+02 0.  0.
         12    1    1    2    0    0 -0.42612952190E+02  0.78387985730E+01 -0.25125021906E+01  0.43400727236E+02  0.00000000000E+00 0. -1.
         11    1    3    3    0    0  0.93107314790E+01  0.29772751644E+01 -0.79905683494E+00  0.98077714169E+01  0.51100000000E-03 0. -1.
        -11    1    3    3    0    0  0.31529208952E+02 -0.54065886690E+01  0.15761216491E+01  0.32028212218E+02  0.51100000000E-03 0.  1.
        -12    1    3    3    0    0  0.17730117584E+01 -0.54094850684E+01  0.17354373764E+01  0.59512891283E+01  0.00000000000E+00 0.  1.
</event>
<event>
 7    1  0.2492468E-009  0.4778727E+02  0.7816164E-02  0.1312668E+00
        -11   -1    0    0    0    0  0.00000000000E+00  0.00000000000E+00  0.45593999997E+02  0.45594000000E+02  0.51100000000E-03 0.  1.
         11   -1    0    0    0    0 -0.00000000000E+00 -0.00000000000E+00 -0.45593999997E+02  0.45594000000E+02  0.51100000000E-03 0. -1.
    9900012    2    1    2    0    0  0.16925036083E+02 -0.32432445721E+02  0.23351716473E+02  0.47787273692E+02  0.20000012071E+02 0.  0.
         12    1    1    2    0    0 -0.16925036083E+02  0.32432445721E+02 -0.23351716473E+02  0.43400726308E+02  0.00000000000E+00 0. -1.
         11    1    3    3    0    0  0.83590185069E+01 -0.70864558440E+01  0.23127166887E+01  0.11199986856E+02  0.51100000000E-03 0. -1.
        -11    1    3    3    0    0  0.59163777304E+01 -0.20811485725E+02  0.89638812651E+01  0.23419492546E+02  0.51100000000E-03 0.  1.
         12    1    3    3    0    0  0.26496398458E+01 -0.45345041517E+01  0.12075118519E+02  0.13167794290E+02  0.00000000000E+00 0. -1.
</event>
<event>
 7    1  0.2492468E-009  0.4778727E+02  0.7816164E-02  0.1312668E+00
        -11   -1    0    0    0    0  0.00000000000E+00  0.00000000000E+00  0.45593999997E+02  0.45594000000E+02  0.51100000000E-03 0.  1.
         11   -1    0    0    0    0 -0.00000000000E+00 -0.00000000000E+00 -0.45593999997E+02  0.45594000000E+02  0.51100000000E-03 0. -1.
    9900012    2    1    2    0    0 -0.14985377060E+02  0.40598652245E+02  0.32879944435E+01  0.47787274232E+02  0.20000014534E+02 0.  0.
         12    1    1    2    0    0  0.14985377060E+02 -0.40598652245E+02 -0.32879944435E+01  0.43400725768E+02  0.00000000000E+00 0. -1.
         11    1    3    3    0    0 -0.43921241097E+00  0.28613074096E+01 -0.41586207164E+01  0.50669630114E+01  0.51100000000E-03 0. -1.
        -11    1    3    3    0    0 -0.66231177010E+01  0.47772063837E+01  0.15628314796E+01  0.83144351227E+01  0.51100000000E-03 0.  1.
        -12    1    3    3    0    0 -0.79230469480E+01  0.32960138451E+02  0.58837836803E+01  0.34405876098E+02  0.00000000000E+00 0.  1.
</event>
<event>
 7    1  0.2492468E-009  0.4778727E+02  0.7816164E-02  0.1312668E+00
        -11   -1    0    0    0    0  0.00000000000E+00  0.00000000000E+00  0.45593999997E+02  0.45594000000E+02  0.51100000000E-03 0.  1.
         11   -1    0    0    0    0 -0.00000000000E+00 -0.00000000000E+00 -0.45593999997E+02  0.45594000000E+02  0.51100000000E-03 0. -1.
    9900012    2    1    2    0    0 -0.75114369733E+01 -0.41632266974E+02  0.96930962021E+01  0.47787268984E+02  0.19999990604E+02 0.  0.
         12    1    1    2    0    0  0.75114369733E+01  0.41632266974E+02 -0.96930962021E+01  0.43400731016E+02  0.00000000000E+00 0. -1.
         11    1    3    3    0    0 -0.48655330046E+01 -0.87376046456E+01  0.29581460486E+01  0.10429274887E+02  0.51100000000E-03 0. -1.
        -11    1    3    3    0    0 -0.52858670523E+01 -0.28505030240E+02  0.10676806266E+02  0.30894519446E+02  0.51100000000E-03 0.  1.
         12    1    3    3    0    0  0.26399630835E+01 -0.43896320882E+01 -0.39418561126E+01  0.64634746510E+01  0.00000000000E+00 0. -1.
</event>
<event>
 7    1  0.2492468E-009  0.4778727E+02  0.7816164E-02  0.1312668E+00
        -11   -1    0    0    0    0  0.00000000000E+00  0.00000000000E+00  0.45593999997E+02  0.45594000000E+02  0.51100000000E-03 0.  1.
         11   -1    0    0    0    0 -0.00000000000E+00 -0.00000000000E+00 -0.45593999997E+02  0.45594000000E+02  0.51100000000E-03 0. -1.
    9900012    2    1    2    0    0  0.28627805049E+02  0.12715952660E+01  0.32595322424E+02  0.47787271660E+02  0.20000002808E+02 0.  0.
         12    1    1    2    0    0 -0.28627805049E+02 -0.12715952660E+01 -0.32595322424E+02  0.43400728340E+02  0.00000000000E+00 0. -1.
         11    1    3    3    0    0  0.13216038438E+02  0.49544329088E+01  0.13665613575E+02  0.19645841089E+02  0.51100000000E-03 0. -1.
        -11    1    3    3    0    0  0.14303611739E+02 -0.29870621277E+01  0.21065137094E+02  0.25637001579E+02  0.51100000000E-03 0.  1.
         12    1    3    3    0    0  0.11081548728E+01 -0.69577551518E+00 -0.21354282446E+01  0.25044289923E+01  0.00000000000E+00 0. -1.
</event>
<event>
 7    1  0.2492468E-009  0.4778727E+02  0.7816164E-02  0.1312668E+00
        -11   -1    0    0    0    0  0.00000000000E+00  0.00000000000E+00  0.45593999997E+02  0.45594000000E+02  0.51100000000E-03 0. -1.
         11   -1    0    0    0    0 -0.00000000000E+00 -0.00000000000E+00 -0.45593999997E+02  0.45594000000E+02  0.51100000000E-03 0.  1.
    9900012    2    1    2    0    0 -0.13719321232E+02  0.37802171268E+02 -0.16321750902E+02  0.47787268668E+02  0.19999989165E+02 0.  0.
         12    1    1    2    0    0  0.13719321232E+02 -0.37802171268E+02  0.16321750902E+02  0.43400731332E+02  0.00000000000E+00 0. -1.
         11    1    3    3    0    0 -0.80525968696E+01  0.48969290259E+01 -0.40034722680E+01  0.10239727569E+02  0.51100000000E-03 0. -1.
        -11    1    3    3    0    0 -0.26784821091E+01  0.79410150398E+01 -0.88136732005E+01  0.12162023755E+02  0.51100000000E-03 0.  1.
        -12    1    3    3    0    0 -0.29882422537E+01  0.24964227202E+02 -0.35046054338E+01  0.25385517344E+02  0.00000000000E+00 0.  1.
</event>
<event>
 7    1  0.2492468E-009  0.4778727E+02  0.7816164E-02  0.1312668E+00
        -11   -1    0    0    0    0  0.00000000000E+00  0.00000000000E+00  0.45593999997E+02  0.45594000000E+02  0.51100000000E-03 0. -1.
         11   -1    0    0    0    0 -0.00000000000E+00 -0.00000000000E+00 -0.45593999997E+02  0.45594000000E+02  0.51100000000E-03 0.  1.
    9900012    2    1    2    0    0 -0.50156705471E+00 -0.30924177434E+02 -0.30447777007E+02  0.47787269083E+02  0.19999991055E+02 0.  0.
         12    1    1    2    0    0  0.50156705471E+00  0.30924177434E+02  0.30447777007E+02  0.43400730917E+02  0.00000000000E+00 0. -1.
         11    1    3    3    0    0  0.32632650649E+01 -0.49955305472E+01 -0.81321062337E+01  0.10086395609E+02  0.51100000000E-03 0. -1.
        -11    1    3    3    0    0 -0.67130336850E+01 -0.96199596014E+01 -0.16273475015E+02  0.20060768512E+02  0.51100000000E-03 0.  1.
        -12    1    3    3    0    0  0.29482015654E+01 -0.16308687285E+02 -0.60421957587E+01  0.17640104961E+02  0.00000000000E+00 0.  1.
</event>
<event>
 7    1  0.2492468E-009  0.4778728E+02  0.7816164E-02  0.1312668E+00
        -11   -1    0    0    0    0  0.00000000000E+00  0.00000000000E+00  0.45593999997E+02  0.45594000000E+02  0.51100000000E-03 0.  1.
         11   -1    0    0    0    0 -0.00000000000E+00 -0.00000000000E+00 -0.45593999997E+02  0.45594000000E+02  0.51100000000E-03 0. -1.
    9900012    2    1    2    0    0 -0.17304455699E+02 -0.25397108089E+02  0.30645798327E+02  0.47787282939E+02  0.20000054230E+02 0.  0.
         12    1    1    2    0    0  0.17304455699E+02  0.25397108089E+02 -0.30645798327E+02  0.43400717061E+02  0.00000000000E+00 0. -1.
         11    1    3    3    0    0  0.75721795774E+00 -0.62366419721E+01  0.60012767819E+01  0.86881761837E+01  0.51100000000E-03 0. -1.
        -11    1    3    3    0    0 -0.84231081490E+00 -0.47215691544E+01  0.12858740466E+02  0.13724063153E+02  0.51100000000E-03 0.  1.
         12    1    3    3    0    0 -0.17219362842E+02 -0.14438896962E+02  0.11785781080E+02  0.25375043602E+02  0.00000000000E+00 0. -1.
</event>
<event>
 7    1  0.2492468E-009  0.4778727E+02  0.7816164E-02  0.1312668E+00
        -11   -1    0    0    0    0  0.00000000000E+00  0.00000000000E+00  0.45593999997E+02  0.45594000000E+02  0.51100000000E-03 0.  1.
         11   -1    0    0    0    0 -0.00000000000E+00 -0.00000000000E+00 -0.45593999997E+02  0.45594000000E+02  0.51100000000E-03 0. -1.
    9900012    2    1    2    0    0  0.12502170291E+02 -0.28251520391E+02  0.30482298888E+02  0.47787271759E+02  0.20000003256E+02 0.  0.
         12    1    1    2    0    0 -0.12502170291E+02  0.28251520391E+02 -0.30482298888E+02  0.43400728241E+02  0.00000000000E+00 0. -1.
         11    1    3    3    0    0  0.50312017842E+01 -0.82374755056E+00  0.53504311414E+01  0.73904441734E+01  0.51100000000E-03 0. -1.
        -11    1    3    3    0    0  0.95623412931E+01 -0.93465675468E+01  0.94823430698E+01  0.16392422831E+02  0.51100000000E-03 0.  1.
         12    1    3    3    0    0 -0.20913727863E+01 -0.18081205294E+02  0.15649524677E+02  0.24004404754E+02  0.00000000000E+00 0. -1.
</event>
<event>
 7    1  0.2492468E-009  0.4778725E+02  0.7816164E-02  0.1312668E+00
        -11   -1    0    0    0    0  0.00000000000E+00  0.00000000000E+00  0.45593999997E+02  0.45594000000E+02  0.51100000000E-03 0.  1.
         11   -1    0    0    0    0 -0.00000000000E+00 -0.00000000000E+00 -0.45593999997E+02  0.45594000000E+02  0.51100000000E-03 0. -1.
    9900012    2    1    2    0    0 -0.54032875531E+01 -0.82928471092E+01  0.42257046476E+02  0.47787253388E+02  0.19999919498E+02 0.  0.
         12    1    1    2    0    0  0.54032875531E+01  0.82928471092E+01 -0.42257046476E+02  0.43400746612E+02  0.00000000000E+00 0. -1.
         11    1    3    3    0    0  0.67951663575E+01 -0.18387662529E+01  0.12417480852E+02  0.14274073635E+02  0.51100000000E-03 0.  1.
        -11    1    3    3    0    0  0.44355315996E+00  0.15297606012E+00  0.34391922285E-01  0.47045100289E+00  0.51100000000E-03 0. -1.
        -12    1    3    3    0    0 -0.12642007070E+02 -0.66070569164E+01  0.29805173702E+02  0.33042728750E+02  0.00000000000E+00 0.  1.
</event>
<event>
 7    1  0.2492468E-009  0.4778727E+02  0.7816164E-02  0.1312668E+00
        -11   -1    0    0    0    0  0.00000000000E+00  0.00000000000E+00  0.45593999997E+02  0.45594000000E+02  0.51100000000E-03 0. -1.
         11   -1    0    0    0    0 -0.00000000000E+00 -0.00000000000E+00 -0.45593999997E+02  0.45594000000E+02  0.51100000000E-03 0.  1.
    9900012    2    1    2    0    0 -0.86869505213E+01 -0.25872321124E+02 -0.33745857182E+02  0.47787274353E+02  0.20000015086E+02 0.  0.
         12    1    1    2    0    0  0.86869505213E+01  0.25872321124E+02  0.33745857182E+02  0.43400725647E+02  0.00000000000E+00 0. -1.
         11    1    3    3    0    0 -0.31903151296E+01  0.15367253321E+00  0.58832074605E+00  0.32477449769E+01  0.51100000000E-03 0.  1.
        -11    1    3    3    0    0  0.13017269887E+00 -0.32403485151E+00 -0.54781921611E+01  0.54893108066E+01  0.51100000000E-03 0. -1.
        -12    1    3    3    0    0 -0.56268080905E+01 -0.25701958806E+02 -0.28855985767E+02  0.39050218570E+02  0.00000000000E+00 0.  1.
</event>
<event>
 7    1  0.2492468E-009  0.4778727E+02  0.7816164E-02  0.1312668E+00
        -11   -1    0    0    0    0  0.00000000000E+00  0.00000000000E+00  0.45593999997E+02  0.45594000000E+02  0.51100000000E-03 0.  1.
         11   -1    0    0    0    0 -0.00000000000E+00 -0.00000000000E+00 -0.45593999997E+02  0.45594000000E+02  0.51100000000E-03 0. -1.
    9900012    2    1    2    0    0  0.22531352446E+02 -0.16064742940E+02  0.33434794150E+02  0.47787271105E+02  0.20000000277E+02 0.  0.
         12    1    1    2    0    0 -0.22531352446E+02  0.16064742940E+02 -0.33434794150E+02  0.43400728895E+02  0.00000000000E+00 0. -1.
         11    1    3    3    0    0  0.23284213095E+01  0.37595438551E+00 -0.69979176335E+00  0.24602024851E+01  0.51100000000E-03 0. -1.
        -11    1    3    3    0    0  0.15609608108E+01 -0.23642314820E+01 -0.11111183212E+01  0.30431518756E+01  0.51100000000E-03 0.  1.
        -12    1    3    3    0    0  0.18641970325E+02 -0.14076465843E+02  0.35245704235E+02  0.42283916744E+02  0.00000000000E+00 0.  1.
</event>
<event>
 7    1  0.2492468E-009  0.4778727E+02  0.7816164E-02  0.1312668E+00
        -11   -1    0    0    0    0  0.00000000000E+00  0.00000000000E+00  0.45593999997E+02  0.45594000000E+02  0.51100000000E-03 0.  1.
         11   -1    0    0    0    0 -0.00000000000E+00 -0.00000000000E+00 -0.45593999997E+02  0.45594000000E+02  0.51100000000E-03 0. -1.
    9900012    2    1    2    0    0  0.96317773054E+01  0.22642246154E+02  0.35751650438E+02  0.47787274729E+02  0.20000016801E+02 0.  0.
         12    1    1    2    0    0 -0.96317773054E+01 -0.22642246154E+02 -0.35751650438E+02  0.43400725271E+02  0.00000000000E+00 0. -1.
         11    1    3    3    0    0  0.48141018723E+01  0.11641252575E+02  0.14502010074E+02  0.19209441293E+02  0.51100000000E-03 0.  1.
        -11    1    3    3    0    0 -0.25720300542E+01  0.89680314104E+01  0.49390380769E+01  0.10556278860E+02  0.51100000000E-03 0. -1.
        -12    1    3    3    0    0  0.73897054872E+01  0.20329621685E+01  0.16310602288E+02  0.18021554576E+02  0.00000000000E+00 0.  1.
</event>
<event>
 7    1  0.2492468E-009  0.4778727E+02  0.7816164E-02  0.1312668E+00
        -11   -1    0    0    0    0  0.00000000000E+00  0.00000000000E+00  0.45593999997E+02  0.45594000000E+02  0.51100000000E-03 0.  1.
         11   -1    0    0    0    0 -0.00000000000E+00 -0.00000000000E+00 -0.45593999997E+02  0.45594000000E+02  0.51100000000E-03 0. -1.
    9900012    2    1    2    0    0 -0.20302503452E+02  0.87430294384E+01  0.37349580534E+02  0.47787269865E+02  0.19999994623E+02 0.  0.
         12    1    1    2    0    0  0.20302503452E+02 -0.87430294384E+01 -0.37349580534E+02  0.43400730135E+02  0.00000000000E+00 0. -1.
         11    1    3    3    0    0 -0.16055740388E+02  0.57658681357E+01  0.12855153717E+02  0.21360875734E+02  0.51100000000E-03 0. -1.
        -11    1    3    3    0    0 -0.65844874721E+01  0.26139482007E+01  0.21327867549E+02  0.22473676489E+02  0.51100000000E-03 0.  1.
        -12    1    3    3    0    0  0.23377244084E+01  0.36321310202E+00  0.31665592672E+01  0.39527176423E+01  0.00000000000E+00 0.  1.
</event>
<event>
 7    1  0.2492468E-009  0.4778726E+02  0.7816164E-02  0.1312668E+00
        -11   -1    0    0    0    0  0.00000000000E+00  0.00000000000E+00  0.45593999997E+02  0.45594000000E+02  0.51100000000E-03 0.  1.
         11   -1    0    0    0    0 -0.00000000000E+00 -0.00000000000E+00 -0.45593999997E+02  0.45594000000E+02  0.51100000000E-03 0. -1.
    9900012    2    1    2    0    0  0.30748541635E+02  0.10298742193E+02  0.28845926981E+02  0.47787257992E+02  0.19999940489E+02 0.  0.
         12    1    1    2    0    0 -0.30748541635E+02 -0.10298742193E+02 -0.28845926981E+02  0.43400742008E+02  0.00000000000E+00 0. -1.
         11    1    3    3    0    0  0.11121605876E+01 -0.98897957600E+00  0.54061674083E+01  0.56072834851E+01  0.51100000000E-03 0. -1.
        -11    1    3    3    0    0  0.32172648551E+01  0.13382772334E-01  0.99284020202E+01  0.10436672802E+02  0.51100000000E-03 0.  1.
        -12    1    3    3    0    0  0.26419116192E+02  0.11274338996E+02  0.13511357553E+02  0.31743301705E+02  0.00000000000E+00 0.  1.
</event>
<event>
 7    1  0.2492468E-009  0.4778727E+02  0.7816164E-02  0.1312668E+00
        -11   -1    0    0    0    0  0.00000000000E+00  0.00000000000E+00  0.45593999997E+02  0.45594000000E+02  0.51100000000E-03 0.  1.
         11   -1    0    0    0    0 -0.00000000000E+00 -0.00000000000E+00 -0.45593999997E+02  0.45594000000E+02  0.51100000000E-03 0. -1.
    9900012    2    1    2    0    0 -0.38073227085E+02  0.96250120452E+01  0.18477336167E+02  0.47787269253E+02  0.19999991832E+02 0.  0.
         12    1    1    2    0    0  0.38073227085E+02 -0.96250120452E+01 -0.18477336167E+02  0.43400730747E+02  0.00000000000E+00 0. -1.
         11    1    3    3    0    0 -0.49946400598E+01 -0.16440362085E+01  0.52313606682E+01  0.74173053789E+01  0.51100000000E-03 0. -1.
        -11    1    3    3    0    0 -0.50393953035E+01  0.94371387793E+00 -0.34137308893E+01  0.61595178183E+01  0.51100000000E-03 0.  1.
        -12    1    3    3    0    0 -0.28039191722E+02  0.10325334376E+02  0.16659706388E+02  0.34210446056E+02  0.00000000000E+00 0.  1.
</event>
<event>
 7    1  0.3163101E-009  0.4778727E+02  0.7816164E-02  0.1312668E+00
        -11   -1    0    0    0    0  0.00000000000E+00  0.00000000000E+00  0.45593999997E+02  0.45594000000E+02  0.51100000000E-03 0. -1.
         11   -1    0    0    0    0 -0.00000000000E+00 -0.00000000000E+00 -0.45593999997E+02  0.45594000000E+02  0.51100000000E-03 0.  1.
    9900012    2    1    2    0    0  0.71855569267E+01  0.12786238390E+02 -0.40847315061E+02  0.47787271110E+02  0.20000000297E+02 0.  0.
         12    1    1    2    0    0 -0.71855569267E+01 -0.12786238390E+02  0.40847315061E+02  0.43400728890E+02  0.00000000000E+00 0. -1.
         11    1    3    3    0    0  0.46926595332E+01  0.64647664581E+01 -0.97715322093E+01  0.12621295529E+02  0.51100000000E-03 0. -1.
        -11    1    3    3    0    0  0.33277292366E+01  0.10799421179E+02 -0.25978730738E+02  0.28330120556E+02  0.51100000000E-03 0.  1.
         12    1    3    3    0    0 -0.83483184307E+00 -0.44779492473E+01 -0.50970521138E+01  0.68358550247E+01  0.00000000000E+00 0. -1.
</event>
<event>
 7    1  0.2492468E-009  0.4778731E+02  0.7816164E-02  0.1312668E+00
        -11   -1    0    0    0    0  0.00000000000E+00  0.00000000000E+00  0.45593999997E+02  0.45594000000E+02  0.51100000000E-03 0.  1.
         11   -1    0    0    0    0 -0.00000000000E+00 -0.00000000000E+00 -0.45593999997E+02  0.45594000000E+02  0.51100000000E-03 0. -1.
    9900012    2    1    2    0    0  0.92846341431E+01  0.29111085201E+02  0.30821421517E+02  0.47787311790E+02  0.20000185774E+02 0.  0.
         12    1    1    2    0    0 -0.92846341431E+01 -0.29111085201E+02 -0.30821421517E+02  0.43400688210E+02  0.00000000000E+00 0. -1.
         11    1    3    3    0    0 -0.32411550883E+01  0.15969681903E+02  0.19013014073E+02  0.25040577685E+02  0.51100000000E-03 0. -1.
        -11    1    3    3    0    0  0.13416478866E+01  0.53516376744E+01  0.16849259930E+01  0.57687971635E+01  0.51100000000E-03 0.  1.
        -12    1    3    3    0    0  0.11184141345E+02  0.77897656233E+01  0.10123481451E+02  0.16977936941E+02  0.00000000000E+00 0.  1.
</event>
<event>
 7    1  0.2492468E-009  0.4778727E+02  0.7816164E-02  0.1312668E+00
        -11   -1    0    0    0    0  0.00000000000E+00  0.00000000000E+00  0.45593999997E+02  0.45594000000E+02  0.51100000000E-03 0. -1.
         11   -1    0    0    0    0 -0.00000000000E+00 -0.00000000000E+00 -0.45593999997E+02  0.45594000000E+02  0.51100000000E-03 0.  1.
    9900012    2    1    2    0    0 -0.31173737010E+02 -0.24033469019E+02 -0.18281513753E+02  0.47787271235E+02  0.20000000867E+02 0.  0.
         12    1    1    2    0    0  0.31173737010E+02  0.24033469019E+02  0.18281513753E+02  0.43400728765E+02  0.00000000000E+00 0. -1.
         11    1    3    3    0    0 -0.22460915438E+01 -0.66185161632E+00  0.10447749463E+01  0.25640845802E+01  0.51100000000E-03 0. -1.
        -11    1    3    3    0    0 -0.17228574221E+02 -0.96810047440E+01 -0.18694887662E+02  0.27203757966E+02  0.51100000000E-03 0.  1.
        -12    1    3    3    0    0 -0.11699071246E+02 -0.13690612658E+02 -0.63140103720E+00  0.18019428688E+02  0.00000000000E+00 0.  1.
</event>
<event>
 7    1  0.2492468E-009  0.4778727E+02  0.7816164E-02  0.1312668E+00
        -11   -1    0    0    0    0  0.00000000000E+00  0.00000000000E+00  0.45593999997E+02  0.45594000000E+02  0.51100000000E-03 0. -1.
         11   -1    0    0    0    0 -0.00000000000E+00 -0.00000000000E+00 -0.45593999997E+02  0.45594000000E+02  0.51100000000E-03 0.  1.
    9900012    2    1    2    0    0 -0.42183123926E+02 -0.82665054988E+01 -0.59893662249E+01  0.47787267690E+02  0.19999984704E+02 0.  0.
         12    1    1    2    0    0  0.42183123926E+02  0.82665054988E+01  0.59893662249E+01  0.43400732310E+02  0.00000000000E+00 0. -1.
         11    1    3    3    0    0 -0.18487814916E+02 -0.94040372658E+01  0.24796870193E+01  0.20889807688E+02  0.51100000000E-03 0. -1.
        -11    1    3    3    0    0 -0.12599174798E+02  0.97319347985E-01  0.47352436129E+00  0.12608445670E+02  0.51100000000E-03 0.  1.
        -12    1    3    3    0    0 -0.11096134212E+02  0.10402124190E+01 -0.89425776055E+01  0.14289014331E+02  0.00000000000E+00 0.  1.
</event>
<event>
 7    1  0.2492468E-009  0.4778727E+02  0.7816164E-02  0.1312668E+00
        -11   -1    0    0    0    0  0.00000000000E+00  0.00000000000E+00  0.45593999997E+02  0.45594000000E+02  0.51100000000E-03 0.  1.
         11   -1    0    0    0    0 -0.00000000000E+00 -0.00000000000E+00 -0.45593999997E+02  0.45594000000E+02  0.51100000000E-03 0. -1.
    9900012    2    1    2    0    0  0.26016424655E+02 -0.16383152773E+02  0.30632677063E+02  0.47787274768E+02  0.20000016976E+02 0.  0.
         12    1    1    2    0    0 -0.26016424655E+02  0.16383152773E+02 -0.30632677063E+02  0.43400725232E+02  0.00000000000E+00 0. -1.
         11    1    3    3    0    0  0.14941726340E+01 -0.14390813599E+01  0.64224474000E+01  0.67491731262E+01  0.51100000000E-03 0. -1.
        -11    1    3    3    0    0  0.55374826598E+01 -0.31529084418E+01  0.16012063668E+02  0.17233418959E+02  0.51100000000E-03 0.  1.
         12    1    3    3    0    0  0.18984769361E+02 -0.11791162971E+02  0.81981659952E+01  0.23804682682E+02  0.00000000000E+00 0. -1.
</event>
<event>
 7    1  0.2492468E-009  0.4778734E+02  0.7816164E-02  0.1312667E+00
        -11   -1    0    0    0    0  0.00000000000E+00  0.00000000000E+00  0.45593999997E+02  0.45594000000E+02  0.51100000000E-03 0.  1.
         11   -1    0    0    0    0 -0.00000000000E+00 -0.00000000000E+00 -0.45593999997E+02  0.45594000000E+02  0.51100000000E-03 0. -1.
    9900012    2    1    2    0    0 -0.36285106258E+01  0.19049475913E+02  0.38827425209E+02  0.47787336753E+02  0.20000299589E+02 0.  0.
         12    1    1    2    0    0  0.36285106258E+01 -0.19049475913E+02 -0.38827425209E+02  0.43400663247E+02  0.00000000000E+00 0. -1.
         11    1    3    3    0    0 -0.47800316996E+01  0.30247152572E+01  0.11402710929E+02  0.12728685016E+02  0.51100000000E-03 0. -1.
        -11    1    3    3    0    0 -0.50910013396E+00  0.11520182816E+02  0.27943924487E+02  0.30229732236E+02  0.51100000000E-03 0.  1.
         12    1    3    3    0    0  0.16606212077E+01  0.45045778400E+01 -0.51921020713E+00  0.48289195014E+01  0.00000000000E+00 0. -1.
</event>
<event>
 7    1  0.2492468E-009  0.4778728E+02  0.7816164E-02  0.1312668E+00
        -11   -1    0    0    0    0  0.00000000000E+00  0.00000000000E+00  0.45593999997E+02  0.45594000000E+02  0.51100000000E-03 0.  1.
         11   -1    0    0    0    0 -0.00000000000E+00 -0.00000000000E+00 -0.45593999997E+02  0.45594000000E+02  0.51100000000E-03 0. -1.
    9900012    2    1    2    0    0 -0.14644891361E+02  0.39404513975E+02  0.10790465170E+02  0.47787277619E+02  0.20000029977E+02 0.  0.
         12    1    1    2    0    0  0.14644891361E+02 -0.39404513975E+02 -0.10790465170E+02  0.43400722381E+02  0.00000000000E+00 0. -1.
         11    1    3    3    0    0 -0.65029444291E+01  0.11075615586E+02 -0.51171055781E+01  0.13825422837E+02  0.51100000000E-03 0. -1.
        -11    1    3    3    0    0 -0.47632461356E+01  0.74519379704E+01  0.51520937072E+01  0.10235426864E+02  0.51100000000E-03 0.  1.
         12    1    3    3    0    0 -0.33787007961E+01  0.20876960419E+02  0.10755477040E+02  0.23726427918E+02  0.00000000000E+00 0. -1.
</event>
<event>
 7    1  0.2492468E-009  0.4778727E+02  0.7816164E-02  0.1312668E+00
        -11   -1    0    0    0    0  0.00000000000E+00  0.00000000000E+00  0.45593999997E+02  0.45594000000E+02  0.51100000000E-03 0.  1.
         11   -1    0    0    0    0 -0.00000000000E+00 -0.00000000000E+00 -0.45593999997E+02  0.45594000000E+02  0.51100000000E-03 0. -1.
    9900012    2    1    2    0    0  0.36247435440E+02 -0.21287790827E+02  0.10797081622E+02  0.47787267451E+02  0.19999983614E+02 0.  0.
         12    1    1    2    0    0 -0.36247435440E+02  0.21287790827E+02 -0.10797081622E+02  0.43400732549E+02  0.00000000000E+00 0. -1.
         11    1    3    3    0    0  0.14853641755E+02 -0.15099703815E+02  0.47074810268E+01  0.21697744273E+02  0.51100000000E-03 0. -1.
        -11    1    3    3    0    0  0.15790338750E+02 -0.83452947352E+01  0.82958898632E+01  0.19692651699E+02  0.51100000000E-03 0.  1.
         12    1    3    3    0    0  0.56034549349E+01  0.21572077230E+01 -0.22062892679E+01  0.63968714777E+01  0.00000000000E+00 0. -1.
</event>
<event>
 7    1  0.2492468E-009  0.4778723E+02  0.7816164E-02  0.1312668E+00
        -11   -1    0    0    0    0  0.00000000000E+00  0.00000000000E+00  0.45593999997E+02  0.45594000000E+02  0.51100000000E-03 0. -1.
         11   -1    0    0    0    0 -0.00000000000E+00 -0.00000000000E+00 -0.45593999997E+02  0.45594000000E+02  0.51100000000E-03 0.  1.
    9900012    2    1    2    0    0 -0.14891227793E+02  0.36311370596E+02 -0.18530054346E+02  0.47787225655E+02  0.19999793048E+02 0.  0.
         12    1    1    2    0    0  0.14891227793E+02 -0.36311370596E+02  0.18530054346E+02  0.43400774345E+02  0.00000000000E+00 0. -1.
         11    1    3    3    0    0 -0.11361468536E+02  0.91037132359E+01 -0.51825005205E+01  0.15453765686E+02  0.51100000000E-03 0. -1.
        -11    1    3    3    0    0 -0.49024012866E+01  0.99943246600E+01 -0.95172985775E+01  0.14645785614E+02  0.51100000000E-03 0.  1.
        -12    1    3    3    0    0  0.13726420305E+01  0.17213332700E+02 -0.38302552480E+01  0.17687674354E+02  0.00000000000E+00 0.  1.
</event>
<event>
 7    1  0.2492468E-009  0.4778727E+02  0.7816164E-02  0.1312668E+00
        -11   -1    0    0    0    0  0.00000000000E+00  0.00000000000E+00  0.45593999997E+02  0.45594000000E+02  0.51100000000E-03 0.  1.
         11   -1    0    0    0    0 -0.00000000000E+00 -0.00000000000E+00 -0.45593999997E+02  0.45594000000E+02  0.51100000000E-03 0. -1.
    9900012    2    1    2    0    0  0.13554851120E+02 -0.70094676658E+01  0.40629507506E+02  0.47787268370E+02  0.19999987808E+02 0.  0.
         12    1    1    2    0    0 -0.13554851120E+02  0.70094676658E+01 -0.40629507506E+02  0.43400731630E+02  0.00000000000E+00 0. -1.
         11    1    3    3    0    0  0.15538244944E+02 -0.43771175830E+01  0.24783184842E+02  0.29577059784E+02  0.51100000000E-03 0. -1.
        -11    1    3    3    0    0  0.18835047858E+01 -0.38253437966E+00  0.12439112928E+02  0.12586717345E+02  0.51100000000E-03 0.  1.
        -12    1    3    3    0    0 -0.38668986102E+01 -0.22498157031E+01  0.34072097356E+01  0.56234912414E+01  0.00000000000E+00 0.  1.
</event>
<event>
 7    1  0.2492468E-009  0.4778727E+02  0.7816164E-02  0.1312668E+00
        -11   -1    0    0    0    0  0.00000000000E+00  0.00000000000E+00  0.45593999997E+02  0.45594000000E+02  0.51100000000E-03 0.  1.
         11   -1    0    0    0    0 -0.00000000000E+00 -0.00000000000E+00 -0.45593999997E+02  0.45594000000E+02  0.51100000000E-03 0. -1.
    9900012    2    1    2    0    0  0.21049751170E+02  0.50898264073E+01  0.37611502023E+02  0.47787269112E+02  0.19999991190E+02 0.  0.
         12    1    1    2    0    0 -0.21049751170E+02 -0.50898264073E+01 -0.37611502023E+02  0.43400730888E+02  0.00000000000E+00 0. -1.
         11    1    3    3    0    0  0.38215833765E+01 -0.86263088770E+00  0.48420377333E+00  0.39475416537E+01  0.51100000000E-03 0. -1.
        -11    1    3    3    0    0  0.10556990480E+02  0.56774692954E+01  0.91588959553E+01  0.15085392967E+02  0.51100000000E-03 0.  1.
        -12    1    3    3    0    0  0.66711773136E+01  0.27498799964E+00  0.27968402294E+02  0.28754334492E+02  0.00000000000E+00 0.  1.
</event>
<event>
 7    1  0.2822733E-009  0.4778727E+02  0.7816164E-02  0.1312668E+00
        -11   -1    0    0    0    0  0.00000000000E+00  0.00000000000E+00  0.45593999997E+02  0.45594000000E+02  0.51100000000E-03 0. -1.
         11   -1    0    0    0    0 -0.00000000000E+00 -0.00000000000E+00 -0.45593999997E+02  0.45594000000E+02  0.51100000000E-03 0.  1.
    9900012    2    1    2    0    0  0.57160658669E+01  0.10710622681E+02 -0.41668124642E+02  0.47787268919E+02  0.19999990308E+02 0.  0.
         12    1    1    2    0    0 -0.57160658669E+01 -0.10710622681E+02  0.41668124642E+02  0.43400731081E+02  0.00000000000E+00 0. -1.
         11    1    3    3    0    0  0.28981225158E+01  0.69504679620E+01 -0.20707060910E+01  0.78099899478E+01  0.51100000000E-03 0. -1.
        -11    1    3    3    0    0  0.70145861133E+00  0.24796113367E+01 -0.12244237716E+02  0.12512468744E+02  0.51100000000E-03 0.  1.
         12    1    3    3    0    0  0.21164847397E+01  0.12805433823E+01 -0.27353180835E+02  0.27464810227E+02  0.00000000000E+00 0. -1.
</event>
<event>
 7    1  0.2492468E-009  0.4778722E+02  0.7816164E-02  0.1312668E+00
        -11   -1    0    0    0    0  0.00000000000E+00  0.00000000000E+00  0.45593999997E+02  0.45594000000E+02  0.51100000000E-03 0.  1.
         11   -1    0    0    0    0 -0.00000000000E+00 -0.00000000000E+00 -0.45593999997E+02  0.45594000000E+02  0.51100000000E-03 0. -1.
    9900012    2    1    2    0    0 -0.82178108612E+01 -0.25793171710E+02  0.33923554789E+02  0.47787220148E+02  0.19999767943E+02 0.  0.
         12    1    1    2    0    0  0.82178108612E+01  0.25793171710E+02 -0.33923554789E+02  0.43400779852E+02  0.00000000000E+00 0. -1.
         11    1    3    3    0    0 -0.67195562198E+01 -0.52316592940E+01  0.16593036803E+01  0.86761733341E+01  0.51100000000E-03 0. -1.
        -11    1    3    3    0    0  0.23833752825E+00 -0.82881495102E+01  0.65554669175E+01  0.10569975111E+02  0.51100000000E-03 0.  1.
        -12    1    3    3    0    0 -0.17365921697E+01 -0.12273362906E+02  0.25708784191E+02  0.28541071703E+02  0.00000000000E+00 0.  1.
</event>
<event>
 7    1  0.2492468E-009  0.4778727E+02  0.7816164E-02  0.1312668E+00
        -11   -1    0    0    0    0  0.00000000000E+00  0.00000000000E+00  0.45593999997E+02  0.45594000000E+02  0.51100000000E-03 0.  1.
         11   -1    0    0    0    0 -0.00000000000E+00 -0.00000000000E+00 -0.45593999997E+02  0.45594000000E+02  0.51100000000E-03 0. -1.
    9900012    2    1    2    0    0 -0.15969196587E+02 -0.35509762601E+02  0.19174581936E+02  0.47787273370E+02  0.20000010602E+02 0.  0.
         12    1    1    2    0    0  0.15969196587E+02  0.35509762601E+02 -0.19174581936E+02  0.43400726630E+02  0.00000000000E+00 0. -1.
         11    1    3    3    0    0 -0.40313137314E+01 -0.45053507410E+01  0.99773055774E+01  0.11666031997E+02  0.51100000000E-03 0. -1.
        -11    1    3    3    0    0  0.61943957705E+00 -0.79856597117E+01  0.53188151695E+01  0.96147938870E+01  0.51100000000E-03 0.  1.
         12    1    3    3    0    0 -0.12557322432E+02 -0.23018752148E+02  0.38784611896E+01  0.26506447486E+02  0.00000000000E+00 0. -1.
</event>
<event>
 7    1  0.2492468E-009  0.4778726E+02  0.7816164E-02  0.1312668E+00
        -11   -1    0    0    0    0  0.00000000000E+00  0.00000000000E+00  0.45593999997E+02  0.45594000000E+02  0.51100000000E-03 0.  1.
         11   -1    0    0    0    0 -0.00000000000E+00 -0.00000000000E+00 -0.45593999997E+02  0.45594000000E+02  0.51100000000E-03 0. -1.
    9900012    2    1    2    0    0 -0.13733236692E+01 -0.30885901619E+02  0.30459792964E+02  0.47787263553E+02  0.19999965843E+02 0.  0.
         12    1    1    2    0    0  0.13733236692E+01  0.30885901619E+02 -0.30459792964E+02  0.43400736447E+02  0.00000000000E+00 0. -1.
         11    1    3    3    0    0 -0.84417823846E-01 -0.34425194638E+01  0.87046924755E+01  0.93610756851E+01  0.51100000000E-03 0. -1.
        -11    1    3    3    0    0  0.96315325281E+00 -0.36294945917E+01 -0.23798755702E+01  0.44457511368E+01  0.51100000000E-03 0.  1.
        -12    1    3    3    0    0 -0.22520590982E+01 -0.23813887563E+02  0.24134976059E+02  0.33980436731E+02  0.00000000000E+00 0.  1.
</event>
<event>
 7    1  0.2492468E-009  0.4778727E+02  0.7816164E-02  0.1312668E+00
        -11   -1    0    0    0    0  0.00000000000E+00  0.00000000000E+00  0.45593999997E+02  0.45594000000E+02  0.51100000000E-03 0.  1.
         11   -1    0    0    0    0 -0.00000000000E+00 -0.00000000000E+00 -0.45593999997E+02  0.45594000000E+02  0.51100000000E-03 0. -1.
    9900012    2    1    2    0    0 -0.16159576031E+02 -0.21634303407E+02  0.33977173533E+02  0.47787270713E+02  0.19999998487E+02 0.  0.
         12    1    1    2    0    0  0.16159576031E+02  0.21634303407E+02 -0.33977173533E+02  0.43400729287E+02  0.00000000000E+00 0. -1.
         11    1    3    3    0    0  0.83121836623E+00  0.74993559345E+00  0.26211322303E+01  0.28502038167E+01  0.51100000000E-03 0. -1.
        -11    1    3    3    0    0 -0.63992502901E+00 -0.12784751417E+02  0.16301375986E+02  0.20726655112E+02  0.51100000000E-03 0.  1.
        -12    1    3    3    0    0 -0.16350869368E+02 -0.95994875840E+01  0.15054665317E+02  0.24210411784E+02  0.00000000000E+00 0.  1.
</event>
<event>
 7    1  0.2492468E-009  0.4778730E+02  0.7816164E-02  0.1312668E+00
        -11   -1    0    0    0    0  0.00000000000E+00  0.00000000000E+00  0.45593999997E+02  0.45594000000E+02  0.51100000000E-03 0.  1.
         11   -1    0    0    0    0 -0.00000000000E+00 -0.00000000000E+00 -0.45593999997E+02  0.45594000000E+02  0.51100000000E-03 0. -1.
    9900012    2    1    2    0    0  0.27654581749E+01 -0.42326718822E+02  0.91881440156E+01  0.47787298673E+02  0.20000125971E+02 0.  0.
         12    1    1    2    0    0 -0.27654581749E+01  0.42326718822E+02 -0.91881440156E+01  0.43400701327E+02  0.00000000000E+00 0. -1.
         11    1    3    3    0    0 -0.45229597634E+01 -0.99002184683E+01  0.43806122362E+01  0.11732913303E+02  0.51100000000E-03 0. -1.
        -11    1    3    3    0    0 -0.18243503389E+01 -0.13275964433E+02  0.62717454349E+01  0.14795751986E+02  0.51100000000E-03 0.  1.
         12    1    3    3    0    0  0.91127682772E+01 -0.19150535921E+02 -0.14642136555E+01  0.21258633385E+02  0.00000000000E+00 0. -1.
</event>
<event>
 7    1  0.2492468E-009  0.4778726E+02  0.7816164E-02  0.1312668E+00
        -11   -1    0    0    0    0  0.00000000000E+00  0.00000000000E+00  0.45593999997E+02  0.45594000000E+02  0.51100000000E-03 0. -1.
         11   -1    0    0    0    0 -0.00000000000E+00 -0.00000000000E+00 -0.45593999997E+02  0.45594000000E+02  0.51100000000E-03 0.  1.
    9900012    2    1    2    0    0 -0.35747460315E+02  0.23145476213E+02  0.83683942918E+01  0.47787262551E+02  0.19999961276E+02 0.  0.
         12    1    1    2    0    0  0.35747460315E+02 -0.23145476213E+02 -0.83683942918E+01  0.43400737449E+02  0.00000000000E+00 0. -1.
         11    1    3    3    0    0 -0.10933134677E+02  0.93052112504E+01  0.41870974654E+01  0.14955005039E+02  0.51100000000E-03 0. -1.
        -11    1    3    3    0    0 -0.25515738145E+02  0.91979950890E+01  0.60321247120E+01  0.27785653412E+02  0.51100000000E-03 0.  1.
         12    1    3    3    0    0  0.70141250668E+00  0.46422698733E+01 -0.18508278856E+01  0.50466041001E+01  0.00000000000E+00 0. -1.
</event>
<event>
 7    1  0.2492468E-009  0.4778727E+02  0.7816164E-02  0.1312668E+00
        -11   -1    0    0    0    0  0.00000000000E+00  0.00000000000E+00  0.45593999997E+02  0.45594000000E+02  0.51100000000E-03 0. -1.
         11   -1    0    0    0    0 -0.00000000000E+00 -0.00000000000E+00 -0.45593999997E+02  0.45594000000E+02  0.51100000000E-03 0.  1.
    9900012    2    1    2    0    0  0.38526502420E+02 -0.41724999813E+01 -0.19542825356E+02  0.47787272267E+02  0.20000005575E+02 0.  0.
         12    1    1    2    0    0 -0.38526502420E+02  0.41724999813E+01  0.19542825356E+02  0.43400727733E+02  0.00000000000E+00 0. -1.
         11    1    3    3    0    0  0.19098763374E+02 -0.79940689404E+01 -0.10477977572E+02  0.23204652872E+02  0.51100000000E-03 0. -1.
        -11    1    3    3    0    0  0.13702480264E+02 -0.20179931532E+01 -0.87819126573E+01  0.16399763777E+02  0.51100000000E-03 0.  1.
         12    1    3    3    0    0  0.57252587829E+01  0.58395621122E+01 -0.28293512624E+00  0.81828556189E+01  0.00000000000E+00 0. -1.
</event>
<event>
 7    1  0.2492468E-009  0.4778729E+02  0.7816164E-02  0.1312668E+00
        -11   -1    0    0    0    0  0.00000000000E+00  0.00000000000E+00  0.45593999997E+02  0.45594000000E+02  0.51100000000E-03 0.  1.
         11   -1    0    0    0    0 -0.00000000000E+00 -0.00000000000E+00 -0.45593999997E+02  0.45594000000E+02  0.51100000000E-03 0. -1.
    9900012    2    1    2    0    0 -0.35730537411E+00  0.23662958171E+02  0.36380745955E+02  0.47787286494E+02  0.20000070443E+02 0.  0.
         12    1    1    2    0    0  0.35730537411E+00 -0.23662958171E+02 -0.36380745955E+02  0.43400713506E+02  0.00000000000E+00 0. -1.
         11    1    3    3    0    0 -0.54498443033E+01  0.22288477355E+02  0.29399449726E+02  0.37293493671E+02  0.51100000000E-03 0.  1.
        -11    1    3    3    0    0 -0.87801341459E+00  0.14827725312E+00 -0.35258381720E+00  0.95771045169E+00  0.51100000000E-03 0. -1.
        -12    1    3    3    0    0  0.59705523438E+01  0.12262035628E+01  0.73338800465E+01  0.95360823719E+01  0.00000000000E+00 0.  1.
</event>
<event>
 7    1  0.2492468E-009  0.4778727E+02  0.7816164E-02  0.1312668E+00
        -11   -1    0    0    0    0  0.00000000000E+00  0.00000000000E+00  0.45593999997E+02  0.45594000000E+02  0.51100000000E-03 0.  1.
         11   -1    0    0    0    0 -0.00000000000E+00 -0.00000000000E+00 -0.45593999997E+02  0.45594000000E+02  0.51100000000E-03 0. -1.
    9900012    2    1    2    0    0  0.32620604530E+02 -0.41193440013E+01  0.28329322574E+02  0.47787270140E+02  0.19999995874E+02 0.  0.
         12    1    1    2    0    0 -0.32620604530E+02  0.41193440013E+01 -0.28329322574E+02  0.43400729860E+02  0.00000000000E+00 0. -1.
         11    1    3    3    0    0  0.12518691583E+02 -0.76398649352E+01  0.40302634876E+01  0.15209477283E+02  0.51100000000E-03 0. -1.
        -11    1    3    3    0    0  0.80225200803E+01 -0.25116296953E+00  0.48615431683E+01  0.93839497821E+01  0.51100000000E-03 0.  1.
         12    1    3    3    0    0  0.12079392867E+02  0.37716839034E+01  0.19437515918E+02  0.23193843075E+02  0.00000000000E+00 0. -1.
</event>
<event>
 7    1  0.2492468E-009  0.4778727E+02  0.7816164E-02  0.1312668E+00
        -11   -1    0    0    0    0  0.00000000000E+00  0.00000000000E+00  0.45593999997E+02  0.45594000000E+02  0.51100000000E-03 0. -1.
         11   -1    0    0    0    0 -0.00000000000E+00 -0.00000000000E+00 -0.45593999997E+02  0.45594000000E+02  0.51100000000E-03 0.  1.
    9900012    2    1    2    0    0 -0.89978034736E+01  0.34068866491E+02 -0.25337229638E+02  0.47787270317E+02  0.19999996683E+02 0.  0.
         12    1    1    2    0    0  0.89978034736E+01 -0.34068866491E+02  0.25337229638E+02  0.43400729683E+02  0.00000000000E+00 0. -1.
         11    1    3    3    0    0 -0.10966311062E+02  0.12792090913E+02 -0.64977967178E+01  0.18058763265E+02  0.51100000000E-03 0. -1.
        -11    1    3    3    0    0  0.62560544251E+00  0.18747910504E+02 -0.11881950656E+02  0.22204870684E+02  0.51100000000E-03 0.  1.
        -12    1    3    3    0    0  0.13429021456E+01  0.25288650734E+01 -0.69574822643E+01  0.75236363675E+01  0.00000000000E+00 0.  1.
</event>
<event>
 7    1  0.2492468E-009  0.4778727E+02  0.7816164E-02  0.1312668E+00
        -11   -1    0    0    0    0  0.00000000000E+00  0.00000000000E+00  0.45593999997E+02  0.45594000000E+02  0.51100000000E-03 0.  1.
         11   -1    0    0    0    0 -0.00000000000E+00 -0.00000000000E+00 -0.45593999997E+02  0.45594000000E+02  0.51100000000E-03 0. -1.
    9900012    2    1    2    0    0  0.27847184507E+02 -0.22151353760E+02  0.24849049091E+02  0.47787269602E+02  0.19999993422E+02 0.  0.
         12    1    1    2    0    0 -0.27847184507E+02  0.22151353760E+02 -0.24849049091E+02  0.43400730398E+02  0.00000000000E+00 0. -1.
         11    1    3    3    0    0  0.10920805383E+02 -0.93220827613E+01  0.44665153003E+01  0.15037119951E+02  0.51100000000E-03 0. -1.
        -11    1    3    3    0    0  0.60002779113E+01  0.19122954989E+01  0.16116493518E+01  0.65005863568E+01  0.51100000000E-03 0.  1.
         12    1    3    3    0    0  0.10926101213E+02 -0.14741566498E+02  0.18770884439E+02  0.26249563294E+02  0.00000000000E+00 0. -1.
</event>
<event>
 7    1  0.2492468E-009  0.4778727E+02  0.7816164E-02  0.1312668E+00
        -11   -1    0    0    0    0  0.00000000000E+00  0.00000000000E+00  0.45593999997E+02  0.45594000000E+02  0.51100000000E-03 0.  1.
         11   -1    0    0    0    0 -0.00000000000E+00 -0.00000000000E+00 -0.45593999997E+02  0.45594000000E+02  0.51100000000E-03 0. -1.
    9900012    2    1    2    0    0  0.23099544811E+02  0.27848883635E+02  0.23968180297E+02  0.47787274696E+02  0.20000016647E+02 0.  0.
         12    1    1    2    0    0 -0.23099544811E+02 -0.27848883635E+02 -0.23968180297E+02  0.43400725304E+02  0.00000000000E+00 0. -1.
         11    1    3    3    0    0  0.17634734091E+01  0.55669436693E-02  0.40766530045E+01  0.44417304551E+01  0.51100000000E-03 0. -1.
        -11    1    3    3    0    0  0.15348479669E+02  0.72304029220E+01  0.73941643712E+01  0.18507517974E+02  0.51100000000E-03 0.  1.
         12    1    3    3    0    0  0.59875917336E+01  0.20612913769E+02  0.12497362922E+02  0.24838026266E+02  0.00000000000E+00 0. -1.
</event>
<event>
 7    1  0.2492468E-009  0.4778727E+02  0.7816164E-02  0.1312668E+00
        -11   -1    0    0    0    0  0.00000000000E+00  0.00000000000E+00  0.45593999997E+02  0.45594000000E+02  0.51100000000E-03 0.  1.
         11   -1    0    0    0    0 -0.00000000000E+00 -0.00000000000E+00 -0.45593999997E+02  0.45594000000E+02  0.51100000000E-03 0. -1.
    9900012    2    1    2    0    0 -0.52390903511E+01 -0.42921092259E+02  0.37356520462E+01  0.47787270459E+02  0.19999997333E+02 0.  0.
         12    1    1    2    0    0  0.52390903511E+01  0.42921092259E+02 -0.37356520462E+01  0.43400729541E+02  0.00000000000E+00 0. -1.
         11    1    3    3    0    0 -0.44225123599E+01 -0.43946702190E+01 -0.13702804540E+00  0.62362263312E+01  0.51100000000E-03 0. -1.
        -11    1    3    3    0    0  0.20697001836E+01 -0.11677453085E+02  0.78984690861E+01  0.14248943244E+02  0.51100000000E-03 0.  1.
         12    1    3    3    0    0 -0.28862781748E+01 -0.26848968955E+02 -0.40257889946E+01  0.27302100884E+02  0.00000000000E+00 0. -1.
</event>
<event>
 7    1  0.2492468E-009  0.4778728E+02  0.7816164E-02  0.1312668E+00
        -11   -1    0    0    0    0  0.00000000000E+00  0.00000000000E+00  0.45593999997E+02  0.45594000000E+02  0.51100000000E-03 0.  1.
         11   -1    0    0    0    0 -0.00000000000E+00 -0.00000000000E+00 -0.45593999997E+02  0.45594000000E+02  0.51100000000E-03 0. -1.
    9900012    2    1    2    0    0  0.31510393524E+02  0.13940385317E+02  0.26389078172E+02  0.47787277775E+02  0.20000030689E+02 0.  0.
         12    1    1    2    0    0 -0.31510393524E+02 -0.13940385317E+02 -0.26389078172E+02  0.43400722225E+02  0.00000000000E+00 0. -1.
         11    1    3    3    0    0  0.29919393491E+02  0.66755878427E+01  0.22441973677E+02  0.37991785463E+02  0.51100000000E-03 0.  1.
        -11    1    3    3    0    0 -0.70304326204E+00 -0.12082131779E+00  0.15378018230E+01  0.16951997897E+01  0.51100000000E-03 0. -1.
        -12    1    3    3    0    0  0.22940432958E+01  0.73856187924E+01  0.24093026721E+01  0.81002925228E+01  0.00000000000E+00 0.  1.
</event>
<event>
 7    1  0.2492468E-009  0.4778727E+02  0.7816164E-02  0.1312668E+00
        -11   -1    0    0    0    0  0.00000000000E+00  0.00000000000E+00  0.45593999997E+02  0.45594000000E+02  0.51100000000E-03 0.  1.
         11   -1    0    0    0    0 -0.00000000000E+00 -0.00000000000E+00 -0.45593999997E+02  0.45594000000E+02  0.51100000000E-03 0. -1.
    9900012    2    1    2    0    0  0.24009325570E+02 -0.14640611548E+01  0.36125228485E+02  0.47787270485E+02  0.19999997449E+02 0.  0.
         12    1    1    2    0    0 -0.24009325570E+02  0.14640611548E+01 -0.36125228485E+02  0.43400729515E+02  0.00000000000E+00 0. -1.
         11    1    3    3    0    0  0.20909926916E+02  0.32616403660E+01  0.19199187806E+02  0.28573976870E+02  0.51100000000E-03 0. -1.
        -11    1    3    3    0    0 -0.28621364777E+00 -0.13698292981E+01 -0.22028634277E+00  0.14166428244E+01  0.51100000000E-03 0.  1.
        -12    1    3    3    0    0  0.33856123020E+01 -0.33558722228E+01  0.17146327022E+02  0.17796650791E+02  0.00000000000E+00 0.  1.
</event>
<event>
 7    1  0.2492468E-009  0.4778727E+02  0.7816164E-02  0.1312668E+00
        -11   -1    0    0    0    0  0.00000000000E+00  0.00000000000E+00  0.45593999997E+02  0.45594000000E+02  0.51100000000E-03 0.  1.
         11   -1    0    0    0    0 -0.00000000000E+00 -0.00000000000E+00 -0.45593999997E+02  0.45594000000E+02  0.51100000000E-03 0. -1.
    9900012    2    1    2    0    0 -0.76041545544E+01  0.38632074081E+01  0.42554390062E+02  0.47787266694E+02  0.19999980165E+02 0.  0.
         12    1    1    2    0    0  0.76041545544E+01 -0.38632074081E+01 -0.42554390062E+02  0.43400733306E+02  0.00000000000E+00 0. -1.
         11    1    3    3    0    0  0.49594346399E+01 -0.11669574665E+01  0.11975474475E+02  0.13014214184E+02  0.51100000000E-03 0. -1.
        -11    1    3    3    0    0 -0.69415472336E+01  0.25354931857E+01  0.26201413845E+02  0.27223664180E+02  0.51100000000E-03 0.  1.
        -12    1    3    3    0    0 -0.56220419607E+01  0.24946716888E+01  0.43775017422E+01  0.75493883293E+01  0.00000000000E+00 0.  1.
</event>
<event>
 7    1  0.2492468E-009  0.4778727E+02  0.7816164E-02  0.1312668E+00
        -11   -1    0    0    0    0  0.00000000000E+00  0.00000000000E+00  0.45593999997E+02  0.45594000000E+02  0.51100000000E-03 0.  1.
         11   -1    0    0    0    0 -0.00000000000E+00 -0.00000000000E+00 -0.45593999997E+02  0.45594000000E+02  0.51100000000E-03 0. -1.
    9900012    2    1    2    0    0  0.32814918401E+02  0.59968355681E+01  0.27764050192E+02  0.47787269712E+02  0.19999993925E+02 0.  0.
         12    1    1    2    0    0 -0.32814918401E+02 -0.59968355681E+01 -0.27764050192E+02  0.43400730288E+02  0.00000000000E+00 0. -1.
         11    1    3    3    0    0  0.74231251750E+01 -0.65870422044E+01  0.65708943988E+01  0.11902460495E+02  0.51100000000E-03 0. -1.
        -11    1    3    3    0    0  0.26060539022E+01  0.22903972990E+01  0.50369204626E+01  0.61162083627E+01  0.51100000000E-03 0.  1.
         12    1    3    3    0    0  0.22785739324E+02  0.10293480474E+02  0.16156235330E+02  0.29768600855E+02  0.00000000000E+00 0. -1.
</event>
<event>
 7    1  0.2492468E-009  0.4778727E+02  0.7816164E-02  0.1312668E+00
        -11   -1    0    0    0    0  0.00000000000E+00  0.00000000000E+00  0.45593999997E+02  0.45594000000E+02  0.51100000000E-03 0.  1.
         11   -1    0    0    0    0 -0.00000000000E+00 -0.00000000000E+00 -0.45593999997E+02  0.45594000000E+02  0.51100000000E-03 0. -1.
    9900012    2    1    2    0    0 -0.45937517630E+01 -0.10228924609E+02  0.41927200606E+02  0.47787267235E+02  0.19999982630E+02 0.  0.
         12    1    1    2    0    0  0.45937517630E+01  0.10228924609E+02 -0.41927200606E+02  0.43400732765E+02  0.00000000000E+00 0. -1.
         11    1    3    3    0    0 -0.79366636950E+01  0.20092178581E+01  0.17294441053E+02  0.19134400398E+02  0.51100000000E-03 0. -1.
        -11    1    3    3    0    0  0.17137283026E+01  0.13482694399E+00  0.58875538900E+01  0.61333786830E+01  0.51100000000E-03 0.  1.
         12    1    3    3    0    0  0.16291836294E+01 -0.12372969411E+02  0.18745205663E+02  0.22519488154E+02  0.00000000000E+00 0. -1.
</event>
<event>
 7    1  0.2492468E-009  0.4778726E+02  0.7816164E-02  0.1312668E+00
        -11   -1    0    0    0    0  0.00000000000E+00  0.00000000000E+00  0.45593999997E+02  0.45594000000E+02  0.51100000000E-03 0. -1.
         11   -1    0    0    0    0 -0.00000000000E+00 -0.00000000000E+00 -0.45593999997E+02  0.45594000000E+02  0.51100000000E-03 0.  1.
    9900012    2    1    2    0    0 -0.59353159926E+01  0.41706073510E+02 -0.10440289527E+02  0.47787260503E+02  0.19999951936E+02 0.  0.
         12    1    1    2    0    0  0.59353159926E+01 -0.41706073510E+02  0.10440289527E+02  0.43400739497E+02  0.00000000000E+00 0. -1.
         11    1    3    3    0    0 -0.83833186031E+01  0.22476077112E+02 -0.71066264244E+01  0.25019156911E+02  0.51100000000E-03 0. -1.
        -11    1    3    3    0    0  0.55584699247E+01  0.12503795032E+02 -0.59335176499E+01  0.14914694435E+02  0.51100000000E-03 0.  1.
         12    1    3    3    0    0 -0.31104673141E+01  0.67262013649E+01  0.25998545475E+01  0.78534091566E+01  0.00000000000E+00 0. -1.
</event>
<event>
 7    1  0.2492468E-009  0.4778727E+02  0.7816164E-02  0.1312668E+00
        -11   -1    0    0    0    0  0.00000000000E+00  0.00000000000E+00  0.45593999997E+02  0.45594000000E+02  0.51100000000E-03 0.  1.
         11   -1    0    0    0    0 -0.00000000000E+00 -0.00000000000E+00 -0.45593999997E+02  0.45594000000E+02  0.51100000000E-03 0. -1.
    9900012    2    1    2    0    0  0.14581506835E+02  0.27313564446E+02  0.30413353011E+02  0.47787272060E+02  0.20000004631E+02 0.  0.
         12    1    1    2    0    0 -0.14581506835E+02 -0.27313564446E+02 -0.30413353011E+02  0.43400727940E+02  0.00000000000E+00 0. -1.
         11    1    3    3    0    0  0.24219454548E+01  0.23044107406E+01  0.41820723335E+01  0.53540506079E+01  0.51100000000E-03 0. -1.
        -11    1    3    3    0    0  0.11817333007E+01  0.73129868632E+01  0.18992893829E+02  0.20386424079E+02  0.51100000000E-03 0.  1.
         12    1    3    3    0    0  0.10977828080E+02  0.17696166842E+02  0.72383868484E+01  0.22046797373E+02  0.00000000000E+00 0. -1.
</event>
<event>
 7    1  0.2492468E-009  0.4778727E+02  0.7816164E-02  0.1312668E+00
        -11   -1    0    0    0    0  0.00000000000E+00  0.00000000000E+00  0.45593999997E+02  0.45594000000E+02  0.51100000000E-03 0.  1.
         11   -1    0    0    0    0 -0.00000000000E+00 -0.00000000000E+00 -0.45593999997E+02  0.45594000000E+02  0.51100000000E-03 0. -1.
    9900012    2    1    2    0    0  0.39911748143E+01  0.40998587389E+02  0.13667835985E+02  0.47787269766E+02  0.19999994171E+02 0.  0.
         12    1    1    2    0    0 -0.39911748143E+01 -0.40998587389E+02 -0.13667835985E+02  0.43400730234E+02  0.00000000000E+00 0. -1.
         11    1    3    3    0    0 -0.86893550162E+00  0.23488240953E+01  0.26443053876E+01  0.36420289373E+01  0.51100000000E-03 0. -1.
        -11    1    3    3    0    0  0.97005314636E+01  0.35879941381E+02  0.97185619235E+01  0.38417716620E+02  0.51100000000E-03 0.  1.
        -12    1    3    3    0    0 -0.48404211477E+01  0.27698219130E+01  0.13049686744E+01  0.57275242084E+01  0.00000000000E+00 0.  1.
</event>
<event>
 7    1  0.2492468E-009  0.4778727E+02  0.7816164E-02  0.1312668E+00
        -11   -1    0    0    0    0  0.00000000000E+00  0.00000000000E+00  0.45593999997E+02  0.45594000000E+02  0.51100000000E-03 0.  1.
         11   -1    0    0    0    0 -0.00000000000E+00 -0.00000000000E+00 -0.45593999997E+02  0.45594000000E+02  0.51100000000E-03 0. -1.
    9900012    2    1    2    0    0 -0.17418940871E+02 -0.32840035005E+02  0.22399458115E+02  0.47787272771E+02  0.20000007870E+02 0.  0.
         12    1    1    2    0    0  0.17418940871E+02  0.32840035005E+02 -0.22399458115E+02  0.43400727229E+02  0.00000000000E+00 0. -1.
         11    1    3    3    0    0 -0.29643616273E+01 -0.13492504206E+02  0.61340712513E+01  0.15114957492E+02  0.51100000000E-03 0. -1.
        -11    1    3    3    0    0 -0.28374488404E+01 -0.11766970574E+02  0.14181888695E+02  0.18645071189E+02  0.51100000000E-03 0.  1.
         12    1    3    3    0    0 -0.11617130403E+02 -0.75805602253E+01  0.20834981684E+01  0.14027244090E+02  0.00000000000E+00 0. -1.
</event>
<event>
 7    1  0.2492468E-009  0.4778728E+02  0.7816164E-02  0.1312668E+00
        -11   -1    0    0    0    0  0.00000000000E+00  0.00000000000E+00  0.45593999997E+02  0.45594000000E+02  0.51100000000E-03 0. -1.
         11   -1    0    0    0    0 -0.00000000000E+00 -0.00000000000E+00 -0.45593999997E+02  0.45594000000E+02  0.51100000000E-03 0.  1.
    9900012    2    1    2    0    0 -0.17056491132E+02 -0.39892254870E+02  0.11431301163E+01  0.47787278407E+02  0.20000033568E+02 0.  0.
         12    1    1    2    0    0  0.17056491132E+02  0.39892254870E+02 -0.11431301163E+01  0.43400721593E+02  0.00000000000E+00 0. -1.
         11    1    3    3    0    0  0.16876535373E+01 -0.11188741936E+02  0.26026252449E+01  0.11610761344E+02  0.51100000000E-03 0. -1.
        -11    1    3    3    0    0 -0.96813906334E+01 -0.22062271698E+02  0.25935377487E+01  0.24232201620E+02  0.51100000000E-03 0.  1.
         12    1    3    3    0    0 -0.90627540359E+01 -0.66412412367E+01 -0.40530328772E+01  0.11944315442E+02  0.00000000000E+00 0. -1.
</event>
<event>
 7    1  0.2492468E-009  0.4778727E+02  0.7816164E-02  0.1312668E+00
        -11   -1    0    0    0    0  0.00000000000E+00  0.00000000000E+00  0.45593999997E+02  0.45594000000E+02  0.51100000000E-03 0.  1.
         11   -1    0    0    0    0 -0.00000000000E+00 -0.00000000000E+00 -0.45593999997E+02  0.45594000000E+02  0.51100000000E-03 0. -1.
    9900012    2    1    2    0    0  0.31276752581E+02  0.29566097243E+02  0.55887507557E+01  0.47787268518E+02  0.19999988482E+02 0.  0.
         12    1    1    2    0    0 -0.31276752581E+02 -0.29566097243E+02 -0.55887507557E+01  0.43400731482E+02  0.00000000000E+00 0. -1.
         11    1    3    3    0    0  0.14182258315E+01  0.75446947801E+00  0.19939603647E+01  0.25605598801E+01  0.51100000000E-03 0. -1.
        -11    1    3    3    0    0  0.23099061254E+02  0.23416146646E+02 -0.47204822620E+01  0.33228985956E+02  0.51100000000E-03 0.  1.
        -12    1    3    3    0    0  0.67594654949E+01  0.53954811184E+01  0.83152726530E+01  0.11997722683E+02  0.00000000000E+00 0.  1.
</event>
<event>
 7    1  0.2492468E-009  0.4778727E+02  0.7816164E-02  0.1312668E+00
        -11   -1    0    0    0    0  0.00000000000E+00  0.00000000000E+00  0.45593999997E+02  0.45594000000E+02  0.51100000000E-03 0.  1.
         11   -1    0    0    0    0 -0.00000000000E+00 -0.00000000000E+00 -0.45593999997E+02  0.45594000000E+02  0.51100000000E-03 0. -1.
    9900012    2    1    2    0    0  0.28432066239E+02  0.82170748620E+01  0.31744615103E+02  0.47787270767E+02  0.19999998735E+02 0.  0.
         12    1    1    2    0    0 -0.28432066239E+02 -0.82170748620E+01 -0.31744615103E+02  0.43400729233E+02  0.00000000000E+00 0. -1.
         11    1    3    3    0    0  0.57560368904E+01 -0.27829723345E+01  0.15791364099E+02  0.17036551179E+02  0.51100000000E-03 0.  1.
        -11    1    3    3    0    0  0.10566916510E+02  0.17602164630E+01  0.90676143223E+01  0.14034946252E+02  0.51100000000E-03 0. -1.
        -12    1    3    3    0    0  0.12109112839E+02  0.92398307336E+01  0.68856366814E+01  0.16715773337E+02  0.00000000000E+00 0.  1.
</event>
<event>
 7    1  0.2492468E-009  0.4778727E+02  0.7816164E-02  0.1312668E+00
        -11   -1    0    0    0    0  0.00000000000E+00  0.00000000000E+00  0.45593999997E+02  0.45594000000E+02  0.51100000000E-03 0. -1.
         11   -1    0    0    0    0 -0.00000000000E+00 -0.00000000000E+00 -0.45593999997E+02  0.45594000000E+02  0.51100000000E-03 0.  1.
    9900012    2    1    2    0    0 -0.29002879790E+02 -0.69396710372E+01 -0.31532478581E+02  0.47787271024E+02  0.19999999906E+02 0.  0.
         12    1    1    2    0    0  0.29002879790E+02  0.69396710372E+01  0.31532478581E+02  0.43400728976E+02  0.00000000000E+00 0. -1.
         11    1    3    3    0    0 -0.41690098141E+01 -0.25868827954E+01  0.16579979573E+01  0.51789538437E+01  0.51100000000E-03 0. -1.
        -11    1    3    3    0    0 -0.10118929308E+02 -0.59957988025E+01 -0.12476041516E+02  0.17146251654E+02  0.51100000000E-03 0.  1.
        -12    1    3    3    0    0 -0.14714940668E+02  0.16430105607E+01 -0.20714435022E+02  0.25462065526E+02  0.00000000000E+00 0.  1.
</event>
<event>
 7    1  0.2492468E-009  0.4778728E+02  0.7816164E-02  0.1312668E+00
        -11   -1    0    0    0    0  0.00000000000E+00  0.00000000000E+00  0.45593999997E+02  0.45594000000E+02  0.51100000000E-03 0. -1.
         11   -1    0    0    0    0 -0.00000000000E+00 -0.00000000000E+00 -0.45593999997E+02  0.45594000000E+02  0.51100000000E-03 0.  1.
    9900012    2    1    2    0    0  0.42071409074E+02 -0.27377259173E+01 -0.10301649588E+02  0.47787278935E+02  0.20000035977E+02 0.  0.
         12    1    1    2    0    0 -0.42071409074E+02  0.27377259173E+01  0.10301649588E+02  0.43400721065E+02  0.00000000000E+00 0. -1.
         11    1    3    3    0    0  0.46551765971E+01 -0.31630299666E+01 -0.12266519965E+01  0.57602172790E+01  0.51100000000E-03 0. -1.
        -11    1    3    3    0    0  0.36966183896E+01 -0.56365237803E+01 -0.21393264244E+01  0.70719237592E+01  0.51100000000E-03 0.  1.
         12    1    3    3    0    0  0.33719614088E+02  0.60618278296E+01 -0.69356711671E+01  0.34955137897E+02  0.00000000000E+00 0. -1.
</event>
<event>
 7    1  0.2492468E-009  0.4778727E+02  0.7816164E-02  0.1312668E+00
        -11   -1    0    0    0    0  0.00000000000E+00  0.00000000000E+00  0.45593999997E+02  0.45594000000E+02  0.51100000000E-03 0. -1.
         11   -1    0    0    0    0 -0.00000000000E+00 -0.00000000000E+00 -0.45593999997E+02  0.45594000000E+02  0.51100000000E-03 0.  1.
    9900012    2    1    2    0    0 -0.39587749889E+02  0.17443647193E+02 -0.34860308619E+01  0.47787272127E+02  0.20000004938E+02 0.  0.
         12    1    1    2    0    0  0.39587749889E+02 -0.17443647193E+02  0.34860308619E+01  0.43400727873E+02  0.00000000000E+00 0. -1.
         11    1    3    3    0    0 -0.27224694416E+01 -0.35543191138E+01  0.55728041795E+00  0.45117165191E+01  0.51100000000E-03 0. -1.
        -11    1    3    3    0    0 -0.17111261555E+02  0.13394949395E+02 -0.40722027078E+01  0.22108884559E+02  0.51100000000E-03 0.  1.
        -12    1    3    3    0    0 -0.19754018893E+02  0.76030169113E+01  0.28891427982E-01  0.21166671049E+02  0.00000000000E+00 0.  1.
</event>
<event>
 7    1  0.2658117E-009  0.4778727E+02  0.7816164E-02  0.1312668E+00
        -11   -1    0    0    0    0  0.00000000000E+00  0.00000000000E+00  0.45593999997E+02  0.45594000000E+02  0.51100000000E-03 0.  1.
         11   -1    0    0    0    0 -0.00000000000E+00 -0.00000000000E+00 -0.45593999997E+02  0.45594000000E+02  0.51100000000E-03 0. -1.
    9900012    2    1    2    0    0 -0.41781859848E+01  0.43108861295E+02  0.27914075868E+01  0.47787272856E+02  0.20000008261E+02 0.  0.
         12    1    1    2    0    0  0.41781859848E+01 -0.43108861295E+02 -0.27914075868E+01  0.43400727144E+02  0.00000000000E+00 0. -1.
         11    1    3    3    0    0  0.21809936868E+01  0.19951205026E+02  0.22605281997E+01  0.20196962728E+02  0.51100000000E-03 0. -1.
        -11    1    3    3    0    0 -0.30079391419E+01  0.22840904003E+02  0.32459308788E+01  0.23265654109E+02  0.51100000000E-03 0.  1.
         12    1    3    3    0    0 -0.33512405297E+01  0.31675226611E+00 -0.27150514917E+01  0.43246560197E+01  0.00000000000E+00 0. -1.
</event>
<event>
 7    1  0.2492468E-009  0.4778727E+02  0.7816164E-02  0.1312668E+00
        -11   -1    0    0    0    0  0.00000000000E+00  0.00000000000E+00  0.45593999997E+02  0.45594000000E+02  0.51100000000E-03 0.  1.
         11   -1    0    0    0    0 -0.00000000000E+00 -0.00000000000E+00 -0.45593999997E+02  0.45594000000E+02  0.51100000000E-03 0. -1.
    9900012    2    1    2    0    0  0.31314714001E+02 -0.29212642647E+02  0.70451113939E+01  0.47787269615E+02  0.19999993482E+02 0.  0.
         12    1    1    2    0    0 -0.31314714001E+02  0.29212642647E+02 -0.70451113939E+01  0.43400730385E+02  0.00000000000E+00 0. -1.
         11    1    3    3    0    0  0.12953915129E+02 -0.13886772886E+02  0.70883845571E+01  0.20270460632E+02  0.51100000000E-03 0. -1.
        -11    1    3    3    0    0  0.12932065730E+02 -0.12354490952E+02  0.60022712560E+01  0.18865286407E+02  0.51100000000E-03 0.  1.
         12    1    3    3    0    0  0.54287331419E+01 -0.29713788096E+01 -0.60455444191E+01  0.86515225758E+01  0.00000000000E+00 0. -1.
</event>
<event>
 7    1  0.2492468E-009  0.4778727E+02  0.7816164E-02  0.1312668E+00
        -11   -1    0    0    0    0  0.00000000000E+00  0.00000000000E+00  0.45593999997E+02  0.45594000000E+02  0.51100000000E-03 0. -1.
         11   -1    0    0    0    0 -0.00000000000E+00 -0.00000000000E+00 -0.45593999997E+02  0.45594000000E+02  0.51100000000E-03 0.  1.
    9900012    2    1    2    0    0 -0.76485859170E+00  0.43262379910E+02 -0.33771399241E+01  0.47787267308E+02  0.19999982966E+02 0.  0.
         12    1    1    2    0    0  0.76485859170E+00 -0.43262379910E+02  0.33771399241E+01  0.43400732692E+02  0.00000000000E+00 0. -1.
         11    1    3    3    0    0 -0.73685684684E+01  0.10592176691E+02  0.11409626045E+00  0.12903605176E+02  0.51100000000E-03 0. -1.
        -11    1    3    3    0    0 -0.13301955378E+01  0.11860870537E+02 -0.40571973774E+01  0.12605971636E+02  0.51100000000E-03 0.  1.
        -12    1    3    3    0    0  0.79339054145E+01  0.20809332681E+02  0.56596119278E+00  0.22277690496E+02  0.00000000000E+00 0.  1.
</event>
<event>
 7    1  0.2492468E-009  0.4778727E+02  0.7816164E-02  0.1312668E+00
        -11   -1    0    0    0    0  0.00000000000E+00  0.00000000000E+00  0.45593999997E+02  0.45594000000E+02  0.51100000000E-03 0.  1.
         11   -1    0    0    0    0 -0.00000000000E+00 -0.00000000000E+00 -0.45593999997E+02  0.45594000000E+02  0.51100000000E-03 0. -1.
    9900012    2    1    2    0    0 -0.38409586921E+02  0.19826965929E+02  0.39011157505E+01  0.47787266717E+02  0.19999980271E+02 0.  0.
         12    1    1    2    0    0  0.38409586921E+02 -0.19826965929E+02 -0.39011157505E+01  0.43400733283E+02  0.00000000000E+00 0. -1.
         11    1    3    3    0    0 -0.13667435836E+01  0.13410253965E+01  0.40996194494E+01  0.45247339180E+01  0.51100000000E-03 0. -1.
        -11    1    3    3    0    0  0.93532346066E-01 -0.45741906302E+00  0.14679177364E+01  0.15403776293E+01  0.51100000000E-03 0.  1.
        -12    1    3    3    0    0 -0.37136375683E+02  0.18943359596E+02 -0.16664214353E+01  0.41722155170E+02  0.00000000000E+00 0.  1.
</event>
<event>
 7    1  0.2492468E-009  0.4778727E+02  0.7816164E-02  0.1312668E+00
        -11   -1    0    0    0    0  0.00000000000E+00  0.00000000000E+00  0.45593999997E+02  0.45594000000E+02  0.51100000000E-03 0.  1.
         11   -1    0    0    0    0 -0.00000000000E+00 -0.00000000000E+00 -0.45593999997E+02  0.45594000000E+02  0.51100000000E-03 0. -1.
    9900012    2    1    2    0    0  0.15513772626E+02 -0.29951707614E+01  0.40422460534E+02  0.47787268387E+02  0.19999987882E+02 0.  0.
         12    1    1    2    0    0 -0.15513772626E+02  0.29951707614E+01 -0.40422460534E+02  0.43400731613E+02  0.00000000000E+00 0. -1.
         11    1    3    3    0    0 -0.57666725215E+00 -0.39946352548E+01  0.39145776786E+01  0.56225950060E+01  0.51100000000E-03 0. -1.
        -11    1    3    3    0    0 -0.26255921909E+00  0.36850796385E+01  0.12185293416E+02  0.12733032835E+02  0.51100000000E-03 0.  1.
         12    1    3    3    0    0  0.16352999097E+02 -0.26856151451E+01  0.24322589439E+02  0.29431640546E+02  0.00000000000E+00 0. -1.
</event>
<event>
 7    1  0.2492468E-009  0.4778727E+02  0.7816164E-02  0.1312668E+00
        -11   -1    0    0    0    0  0.00000000000E+00  0.00000000000E+00  0.45593999997E+02  0.45594000000E+02  0.51100000000E-03 0.  1.
         11   -1    0    0    0    0 -0.00000000000E+00 -0.00000000000E+00 -0.45593999997E+02  0.45594000000E+02  0.51100000000E-03 0. -1.
    9900012    2    1    2    0    0  0.10947259381E+02 -0.21707843391E+02  0.35952054895E+02  0.47787271852E+02  0.20000003680E+02 0.  0.
         12    1    1    2    0    0 -0.10947259381E+02  0.21707843391E+02 -0.35952054895E+02  0.43400728148E+02  0.00000000000E+00 0. -1.
         11    1    3    3    0    0  0.21602196574E+01  0.15029139694E+01  0.40824957144E+01  0.48571669610E+01  0.51100000000E-03 0. -1.
        -11    1    3    3    0    0 -0.11018604966E+00  0.18764907509E+01  0.87220294868E+00  0.20722202461E+01  0.51100000000E-03 0.  1.
        -12    1    3    3    0    0  0.88972257730E+01 -0.25087248111E+02  0.30997356232E+02  0.40857884645E+02  0.00000000000E+00 0.  1.
</event>
<event>
 7    1  0.2492468E-009  0.4778727E+02  0.7816164E-02  0.1312668E+00
        -11   -1    0    0    0    0  0.00000000000E+00  0.00000000000E+00  0.45593999997E+02  0.45594000000E+02  0.51100000000E-03 0. -1.
         11   -1    0    0    0    0 -0.00000000000E+00 -0.00000000000E+00 -0.45593999997E+02  0.45594000000E+02  0.51100000000E-03 0.  1.
    9900012    2    1    2    0    0  0.12500545515E+02 -0.12046082031E+02 -0.39777523325E+02  0.47787273136E+02  0.20000009535E+02 0.  0.
         12    1    1    2    0    0 -0.12500545515E+02  0.12046082031E+02  0.39777523325E+02  0.43400726864E+02  0.00000000000E+00 0. -1.
         11    1    3    3    0    0  0.51024606745E+01  0.22898660812E+01 -0.25395641743E+02  0.26004176807E+02  0.51100000000E-03 0. -1.
        -11    1    3    3    0    0  0.49397024281E+01 -0.66093673493E+01 -0.71403504879E+01  0.10911874366E+02  0.51100000000E-03 0.  1.
         12    1    3    3    0    0  0.24583824119E+01 -0.77265807626E+01 -0.72415310949E+01  0.10871221963E+02  0.00000000000E+00 0. -1.
</event>
<event>
 7    1  0.2492468E-009  0.4778728E+02  0.7816164E-02  0.1312668E+00
        -11   -1    0    0    0    0  0.00000000000E+00  0.00000000000E+00  0.45593999997E+02  0.45594000000E+02  0.51100000000E-03 0.  1.
         11   -1    0    0    0    0 -0.00000000000E+00 -0.00000000000E+00 -0.45593999997E+02  0.45594000000E+02  0.51100000000E-03 0. -1.
    9900012    2    1    2    0    0 -0.14739111346E+02  0.26774546839E+02  0.30814029706E+02  0.47787283549E+02  0.20000057013E+02 0.  0.
         12    1    1    2    0    0  0.14739111346E+02 -0.26774546839E+02 -0.30814029706E+02  0.43400716451E+02  0.00000000000E+00 0. -1.
         11    1    3    3    0    0 -0.89004052048E+01  0.41469031261E+01  0.45148862987E+01  0.10807322374E+02  0.51100000000E-03 0. -1.
        -11    1    3    3    0    0 -0.36394417336E+01  0.34502360698E+01  0.92743875468E+00  0.50999811739E+01  0.51100000000E-03 0.  1.
        -12    1    3    3    0    0 -0.21992644080E+01  0.19177407643E+02  0.25371704653E+02  0.31879980001E+02  0.00000000000E+00 0.  1.
</event>
<event>
 7    1  0.2492468E-009  0.4778732E+02  0.7816164E-02  0.1312668E+00
        -11   -1    0    0    0    0  0.00000000000E+00  0.00000000000E+00  0.45593999997E+02  0.45594000000E+02  0.51100000000E-03 0.  1.
         11   -1    0    0    0    0 -0.00000000000E+00 -0.00000000000E+00 -0.45593999997E+02  0.45594000000E+02  0.51100000000E-03 0. -1.
    9900012    2    1    2    0    0  0.21245083807E+01  0.14976562555E+02  0.40679330086E+02  0.47787321917E+02  0.20000231949E+02 0.  0.
         12    1    1    2    0    0 -0.21245083807E+01 -0.14976562555E+02 -0.40679330086E+02  0.43400678083E+02  0.00000000000E+00 0. -1.
         11    1    3    3    0    0  0.10049334569E+02  0.91916622146E+01  0.23903004015E+02  0.27510532179E+02  0.51100000000E-03 0. -1.
        -11    1    3    3    0    0 -0.18714084085E+01  0.35314365759E+01  0.27994924542E+01  0.48795872759E+01  0.51100000000E-03 0.  1.
         12    1    3    3    0    0 -0.60534177792E+01  0.22534637642E+01  0.13976833616E+02  0.15397202463E+02  0.00000000000E+00 0. -1.
</event>
<event>
 7    1  0.2492468E-009  0.4778726E+02  0.7816164E-02  0.1312668E+00
        -11   -1    0    0    0    0  0.00000000000E+00  0.00000000000E+00  0.45593999997E+02  0.45594000000E+02  0.51100000000E-03 0.  1.
         11   -1    0    0    0    0 -0.00000000000E+00 -0.00000000000E+00 -0.45593999997E+02  0.45594000000E+02  0.51100000000E-03 0. -1.
    9900012    2    1    2    0    0  0.84877683107E+01 -0.38116692653E+02  0.18939369092E+02  0.47787260706E+02  0.19999952862E+02 0.  0.
         12    1    1    2    0    0 -0.84877683107E+01  0.38116692653E+02 -0.18939369092E+02  0.43400739294E+02  0.00000000000E+00 0. -1.
         11    1    3    3    0    0  0.26593990851E+01 -0.23227217829E+01 -0.12599799754E+01  0.37489985028E+01  0.51100000000E-03 0. -1.
        -11    1    3    3    0    0  0.70519182564E+00 -0.49081165727E+01  0.99128230783E+01  0.11083815473E+02  0.51100000000E-03 0.  1.
        -12    1    3    3    0    0  0.51231773999E+01 -0.30885854297E+02  0.10286525989E+02  0.32954446730E+02  0.00000000000E+00 0.  1.
</event>
<event>
 7    1  0.2492468E-009  0.4778727E+02  0.7816164E-02  0.1312668E+00
        -11   -1    0    0    0    0  0.00000000000E+00  0.00000000000E+00  0.45593999997E+02  0.45594000000E+02  0.51100000000E-03 0. -1.
         11   -1    0    0    0    0 -0.00000000000E+00 -0.00000000000E+00 -0.45593999997E+02  0.45594000000E+02  0.51100000000E-03 0.  1.
    9900012    2    1    2    0    0  0.36035447932E+02  0.24104081023E+02 -0.20156478699E+01  0.47787273440E+02  0.20000010922E+02 0.  0.
         12    1    1    2    0    0 -0.36035447932E+02 -0.24104081023E+02  0.20156478699E+01  0.43400726560E+02  0.00000000000E+00 0. -1.
         11    1    3    3    0    0  0.61586665861E+01  0.98920513652E+01 -0.51626489211E+01  0.12744991113E+02  0.51100000000E-03 0. -1.
        -11    1    3    3    0    0  0.17939472563E+02  0.14324669582E+02  0.17642186210E+01  0.23024623820E+02  0.51100000000E-03 0.  1.
        -12    1    3    3    0    0  0.11937308783E+02 -0.11263992402E+00  0.13827824302E+01  0.12017658506E+02  0.00000000000E+00 0.  1.
</event>
<event>
 7    1  0.2492468E-009  0.4778727E+02  0.7816164E-02  0.1312668E+00
        -11   -1    0    0    0    0  0.00000000000E+00  0.00000000000E+00  0.45593999997E+02  0.45594000000E+02  0.51100000000E-03 0.  1.
         11   -1    0    0    0    0 -0.00000000000E+00 -0.00000000000E+00 -0.45593999997E+02  0.45594000000E+02  0.51100000000E-03 0. -1.
    9900012    2    1    2    0    0 -0.36575217486E+02 -0.16192185748E+02  0.16843091921E+02  0.47787272369E+02  0.20000006040E+02 0.  0.
         12    1    1    2    0    0  0.36575217486E+02  0.16192185748E+02 -0.16843091921E+02  0.43400727631E+02  0.00000000000E+00 0. -1.
         11    1    3    3    0    0 -0.23022387549E+02 -0.11885689367E+02  0.11625637966E+02  0.28398158366E+02  0.51100000000E-03 0. -1.
        -11    1    3    3    0    0 -0.15734916424E+02 -0.35077499705E+01  0.34924307174E+01  0.16495119803E+02  0.51100000000E-03 0.  1.
         12    1    3    3    0    0  0.21820864872E+01 -0.79874641058E+00  0.17250232368E+01  0.28939942006E+01  0.00000000000E+00 0. -1.
</event>
<event>
 7    1  0.2492468E-009  0.4778727E+02  0.7816164E-02  0.1312668E+00
        -11   -1    0    0    0    0  0.00000000000E+00  0.00000000000E+00  0.45593999997E+02  0.45594000000E+02  0.51100000000E-03 0. -1.
         11   -1    0    0    0    0 -0.00000000000E+00 -0.00000000000E+00 -0.45593999997E+02  0.45594000000E+02  0.51100000000E-03 0.  1.
    9900012    2    1    2    0    0 -0.69370623685E+01 -0.29604931676E+02  0.30968513714E+02  0.47787266648E+02  0.19999979954E+02 0.  0.
         12    1    1    2    0    0  0.69370623685E+01  0.29604931676E+02 -0.30968513714E+02  0.43400733352E+02  0.00000000000E+00 0. -1.
         11    1    3    3    0    0 -0.70147667901E+01 -0.16276074029E+02  0.85757066493E+01  0.19689090474E+02  0.51100000000E-03 0. -1.
        -11    1    3    3    0    0 -0.50502662457E+01 -0.81873468306E+01  0.11302181954E+02  0.14841736908E+02  0.51100000000E-03 0.  1.
        -12    1    3    3    0    0  0.51279706674E+01 -0.51415108169E+01  0.11090625111E+02  0.13256439265E+02  0.00000000000E+00 0.  1.
</event>
<event>
 7    1  0.2492468E-009  0.4778728E+02  0.7816164E-02  0.1312668E+00
        -11   -1    0    0    0    0  0.00000000000E+00  0.00000000000E+00  0.45593999997E+02  0.45594000000E+02  0.51100000000E-03 0. -1.
         11   -1    0    0    0    0 -0.00000000000E+00 -0.00000000000E+00 -0.45593999997E+02  0.45594000000E+02  0.51100000000E-03 0.  1.
    9900012    2    1    2    0    0 -0.76756010591E+01 -0.91787899510E+01 -0.41718788910E+02  0.47787281288E+02  0.20000046706E+02 0.  0.
         12    1    1    2    0    0  0.76756010591E+01  0.91787899510E+01  0.41718788910E+02  0.43400718712E+02  0.00000000000E+00 0. -1.
         11    1    3    3    0    0 -0.76329887037E+01 -0.24333090752E+01 -0.23002945869E+02  0.24358140908E+02  0.51100000000E-03 0. -1.
        -11    1    3    3    0    0 -0.43483247944E+01 -0.69267405018E+01 -0.16856184721E+02  0.18735491082E+02  0.51100000000E-03 0.  1.
         12    1    3    3    0    0  0.43057124390E+01  0.18125962602E+00 -0.18596583205E+01  0.46936492976E+01  0.00000000000E+00 0. -1.
</event>
<event>
 7    1  0.2492468E-009  0.4778728E+02  0.7816164E-02  0.1312668E+00
        -11   -1    0    0    0    0  0.00000000000E+00  0.00000000000E+00  0.45593999997E+02  0.45594000000E+02  0.51100000000E-03 0. -1.
         11   -1    0    0    0    0 -0.00000000000E+00 -0.00000000000E+00 -0.45593999997E+02  0.45594000000E+02  0.51100000000E-03 0.  1.
    9900012    2    1    2    0    0  0.38069397752E+02  0.16601592428E+02 -0.12598846355E+02  0.47787275976E+02  0.20000022484E+02 0.  0.
         12    1    1    2    0    0 -0.38069397752E+02 -0.16601592428E+02  0.12598846355E+02  0.43400724024E+02  0.00000000000E+00 0. -1.
         11    1    3    3    0    0  0.80407397660E+01 -0.73263448179E+00  0.26385210687E+01  0.84942358668E+01  0.51100000000E-03 0. -1.
        -11    1    3    3    0    0  0.12623428759E+02  0.24056611045E+01 -0.26005097403E+01  0.13111094926E+02  0.51100000000E-03 0.  1.
        -12    1    3    3    0    0  0.17405229226E+02  0.14928565805E+02 -0.12636857684E+02  0.26181945183E+02  0.00000000000E+00 0.  1.
</event>
<event>
 7    1  0.2492468E-009  0.4778727E+02  0.7816164E-02  0.1312668E+00
        -11   -1    0    0    0    0  0.00000000000E+00  0.00000000000E+00  0.45593999997E+02  0.45594000000E+02  0.51100000000E-03 0.  1.
         11   -1    0    0    0    0 -0.00000000000E+00 -0.00000000000E+00 -0.45593999997E+02  0.45594000000E+02  0.51100000000E-03 0. -1.
    9900012    2    1    2    0    0  0.29003077395E+02 -0.50411520386E+01  0.31890928249E+02  0.47787274006E+02  0.20000013501E+02 0.  0.
         12    1    1    2    0    0 -0.29003077395E+02  0.50411520386E+01 -0.31890928249E+02  0.43400725994E+02  0.00000000000E+00 0. -1.
         11    1    3    3    0    0  0.10723596344E+00  0.40590715754E+00  0.19163771026E+01  0.19618260965E+01  0.51100000000E-03 0. -1.
        -11    1    3    3    0    0  0.82223423628E+01  0.65265992553E+01  0.65893115081E+01  0.12394451911E+02  0.51100000000E-03 0.  1.
         12    1    3    3    0    0  0.20673499069E+02 -0.11973658451E+02  0.23385239638E+02  0.33430995998E+02  0.00000000000E+00 0. -1.
</event>
<event>
 7    1  0.2492468E-009  0.4778730E+02  0.7816164E-02  0.1312668E+00
        -11   -1    0    0    0    0  0.00000000000E+00  0.00000000000E+00  0.45593999997E+02  0.45594000000E+02  0.51100000000E-03 0.  1.
         11   -1    0    0    0    0 -0.00000000000E+00 -0.00000000000E+00 -0.45593999997E+02  0.45594000000E+02  0.51100000000E-03 0. -1.
    9900012    2    1    2    0    0  0.27820050778E+02 -0.28022509939E+02  0.18011240190E+02  0.47787296529E+02  0.20000116195E+02 0.  0.
         12    1    1    2    0    0 -0.27820050778E+02  0.28022509939E+02 -0.18011240190E+02  0.43400703471E+02  0.00000000000E+00 0. -1.
         11    1    3    3    0    0  0.23939314667E+01 -0.32985144549E+01 -0.16068275814E+01  0.43809816952E+01  0.51100000000E-03 0. -1.
        -11    1    3    3    0    0  0.75261888256E+01 -0.18098016456E+02  0.10828352527E+02  0.22392742945E+02  0.51100000000E-03 0.  1.
         12    1    3    3    0    0  0.17899930485E+02 -0.66259790282E+01  0.87897152445E+01  0.21013571889E+02  0.00000000000E+00 0. -1.
</event>
<event>
 7    1  0.2492468E-009  0.4778727E+02  0.7816164E-02  0.1312668E+00
        -11   -1    0    0    0    0  0.00000000000E+00  0.00000000000E+00  0.45593999997E+02  0.45594000000E+02  0.51100000000E-03 0.  1.
         11   -1    0    0    0    0 -0.00000000000E+00 -0.00000000000E+00 -0.45593999997E+02  0.45594000000E+02  0.51100000000E-03 0. -1.
    9900012    2    1    2    0    0  0.63486478794E+01 -0.24903019127E+02  0.34973669012E+02  0.47787271715E+02  0.20000003055E+02 0.  0.
         12    1    1    2    0    0 -0.63486478794E+01  0.24903019127E+02 -0.34973669012E+02  0.43400728285E+02  0.00000000000E+00 0. -1.
         11    1    3    3    0    0  0.73869707358E+01 -0.10758877850E+02  0.21344094853E+02  0.25017817143E+02  0.51100000000E-03 0. -1.
        -11    1    3    3    0    0 -0.78967427715E+00 -0.12568442462E+02  0.15718550597E+02  0.20141056689E+02  0.51100000000E-03 0.  1.
         12    1    3    3    0    0 -0.24864857922E+00 -0.15756988145E+01 -0.20889764383E+01  0.26283978827E+01  0.00000000000E+00 0. -1.
</event>
<event>
 7    1  0.2492468E-009  0.4778727E+02  0.7816164E-02  0.1312668E+00
        -11   -1    0    0    0    0  0.00000000000E+00  0.00000000000E+00  0.45593999997E+02  0.45594000000E+02  0.51100000000E-03 0.  1.
         11   -1    0    0    0    0 -0.00000000000E+00 -0.00000000000E+00 -0.45593999997E+02  0.45594000000E+02  0.51100000000E-03 0. -1.
    9900012    2    1    2    0    0  0.25297690244E+02 -0.18401431517E+02  0.30083844569E+02  0.47787268237E+02  0.19999987200E+02 0.  0.
         12    1    1    2    0    0 -0.25297690244E+02  0.18401431517E+02 -0.30083844569E+02  0.43400731763E+02  0.00000000000E+00 0. -1.
         11    1    3    3    0    0  0.21885698332E+02 -0.16197724793E+02  0.17824414460E+02  0.32543199459E+02  0.51100000000E-03 0. -1.
        -11    1    3    3    0    0  0.40869527912E+01 -0.45344373201E+01  0.10818663501E+02  0.12422068473E+02  0.51100000000E-03 0.  1.
         12    1    3    3    0    0 -0.67496088000E+00  0.23307305964E+01  0.14407666083E+01  0.28220003051E+01  0.00000000000E+00 0. -1.
</event>
<event>
 7    1  0.2492468E-009  0.4778727E+02  0.7816164E-02  0.1312668E+00
        -11   -1    0    0    0    0  0.00000000000E+00  0.00000000000E+00  0.45593999997E+02  0.45594000000E+02  0.51100000000E-03 0.  1.
         11   -1    0    0    0    0 -0.00000000000E+00 -0.00000000000E+00 -0.45593999997E+02  0.45594000000E+02  0.51100000000E-03 0. -1.
    9900012    2    1    2    0    0  0.13137002454E+02  0.18473436525E+02  0.37010468822E+02  0.47787268520E+02  0.19999988490E+02 0.  0.
         12    1    1    2    0    0 -0.13137002454E+02 -0.18473436525E+02 -0.37010468822E+02  0.43400731480E+02  0.00000000000E+00 0. -1.
         11    1    3    3    0    0 -0.38121335098E+01  0.14409945546E+01  0.66213631996E+01  0.77750419989E+01  0.51100000000E-03 0. -1.
        -11    1    3    3    0    0  0.73829689555E+00  0.65649425163E+00 -0.77415287114E+00  0.12551414014E+01  0.51100000000E-03 0.  1.
        -12    1    3    3    0    0  0.16210839069E+02  0.16375947719E+02  0.31163258494E+02  0.38757085120E+02  0.00000000000E+00 0.  1.
</event>
<event>
 7    1  0.2492468E-009  0.4778727E+02  0.7816164E-02  0.1312668E+00
        -11   -1    0    0    0    0  0.00000000000E+00  0.00000000000E+00  0.45593999997E+02  0.45594000000E+02  0.51100000000E-03 0. -1.
         11   -1    0    0    0    0 -0.00000000000E+00 -0.00000000000E+00 -0.45593999997E+02  0.45594000000E+02  0.51100000000E-03 0.  1.
    9900012    2    1    2    0    0  0.11028749374E+02  0.38057132162E+02  0.17710015356E+02  0.47787271146E+02  0.20000000465E+02 0.  0.
         12    1    1    2    0    0 -0.11028749374E+02 -0.38057132162E+02 -0.17710015356E+02  0.43400728854E+02  0.00000000000E+00 0. -1.
         11    1    3    3    0    0  0.15888830823E+01 -0.40704687141E-02 -0.13847282255E+01  0.21076144185E+01  0.51100000000E-03 0. -1.
        -11    1    3    3    0    0  0.62135071212E+01  0.24567525528E+02  0.48615205893E+01  0.25803204530E+02  0.51100000000E-03 0.  1.
         12    1    3    3    0    0  0.32263591701E+01  0.13493677102E+02  0.14233222992E+02  0.19876452198E+02  0.00000000000E+00 0. -1.
</event>
<event>
 7    1  0.2492468E-009  0.4778727E+02  0.7816164E-02  0.1312668E+00
        -11   -1    0    0    0    0  0.00000000000E+00  0.00000000000E+00  0.45593999997E+02  0.45594000000E+02  0.51100000000E-03 0.  1.
         11   -1    0    0    0    0 -0.00000000000E+00 -0.00000000000E+00 -0.45593999997E+02  0.45594000000E+02  0.51100000000E-03 0. -1.
    9900012    2    1    2    0    0 -0.12905888235E+02 -0.33735515494E+02  0.24061923397E+02  0.47787272882E+02  0.20000008379E+02 0.  0.
         12    1    1    2    0    0  0.12905888235E+02  0.33735515494E+02 -0.24061923397E+02  0.43400727118E+02  0.00000000000E+00 0. -1.
         11    1    3    3    0    0  0.80485129521E+00 -0.12946193004E+02  0.36021884923E+01  0.13462074918E+02  0.51100000000E-03 0. -1.
        -11    1    3    3    0    0 -0.20403264141E+01 -0.12645443326E+02  0.63945811596E+01  0.14316453376E+02  0.51100000000E-03 0.  1.
         12    1    3    3    0    0 -0.11670413116E+02 -0.81438791641E+01  0.14065153745E+02  0.20008744588E+02  0.00000000000E+00 0. -1.
</event>
<event>
 7    1  0.2492468E-009  0.4778727E+02  0.7816164E-02  0.1312668E+00
        -11   -1    0    0    0    0  0.00000000000E+00  0.00000000000E+00  0.45593999997E+02  0.45594000000E+02  0.51100000000E-03 0.  1.
         11   -1    0    0    0    0 -0.00000000000E+00 -0.00000000000E+00 -0.45593999997E+02  0.45594000000E+02  0.51100000000E-03 0. -1.
    9900012    2    1    2    0    0  0.32842077059E+02 -0.16512008625E+02  0.23073249059E+02  0.47787271014E+02  0.19999999862E+02 0.  0.
         12    1    1    2    0    0 -0.32842077059E+02  0.16512008625E+02 -0.23073249059E+02  0.43400728986E+02  0.00000000000E+00 0. -1.
         11    1    3    3    0    0  0.50042601184E+01  0.96827224369E-01 -0.38885777899E+00  0.50202794222E+01  0.51100000000E-03 0. -1.
        -11    1    3    3    0    0  0.27146527636E+02 -0.98855442940E+01  0.20271924009E+02  0.35293184214E+02  0.51100000000E-03 0.  1.
        -12    1    3    3    0    0  0.69128930457E+00 -0.67232915552E+01  0.31901828286E+01  0.74738073777E+01  0.00000000000E+00 0.  1.
</event>
<event>
 7    1  0.2492468E-009  0.4778721E+02  0.7816164E-02  0.1312668E+00
        -11   -1    0    0    0    0  0.00000000000E+00  0.00000000000E+00  0.45593999997E+02  0.45594000000E+02  0.51100000000E-03 0.  1.
         11   -1    0    0    0    0 -0.00000000000E+00 -0.00000000000E+00 -0.45593999997E+02  0.45594000000E+02  0.51100000000E-03 0. -1.
    9900012    2    1    2    0    0  0.15839239994E+02 -0.34005293937E+02  0.21826296671E+02  0.47787207776E+02  0.19999711530E+02 0.  0.
         12    1    1    2    0    0 -0.15839239994E+02  0.34005293937E+02 -0.21826296671E+02  0.43400792224E+02  0.00000000000E+00 0. -1.
         11    1    3    3    0    0  0.97220648975E+01 -0.16341568516E+02  0.14832761294E+02  0.24115891344E+02  0.51100000000E-03 0.  1.
        -11    1    3    3    0    0  0.97914864587E+01 -0.14916995855E+02  0.43102151364E+01  0.18356686171E+02  0.51100000000E-03 0. -1.
         12    1    3    3    0    0 -0.36743113619E+01 -0.27467295657E+01  0.26833202411E+01  0.53146302606E+01  0.00000000000E+00 0. -1.
</event>
<event>
 7    1  0.2492468E-009  0.4778728E+02  0.7816164E-02  0.1312668E+00
        -11   -1    0    0    0    0  0.00000000000E+00  0.00000000000E+00  0.45593999997E+02  0.45594000000E+02  0.51100000000E-03 0.  1.
         11   -1    0    0    0    0 -0.00000000000E+00 -0.00000000000E+00 -0.45593999997E+02  0.45594000000E+02  0.51100000000E-03 0. -1.
    9900012    2    1    2    0    0 -0.28278166760E+02  0.38384147611E+01  0.32699155176E+02  0.47787275439E+02  0.20000020038E+02 0.  0.
         12    1    1    2    0    0  0.28278166760E+02 -0.38384147611E+01 -0.32699155176E+02  0.43400724561E+02  0.00000000000E+00 0. -1.
         11    1    3    3    0    0 -0.42205102738E+01  0.35064108085E+01  0.74431459831E+01  0.92470560783E+01  0.51100000000E-03 0. -1.
        -11    1    3    3    0    0 -0.22291724330E+02 -0.33402870672E+01  0.25986701547E+02  0.34400394603E+02  0.51100000000E-03 0.  1.
         12    1    3    3    0    0 -0.17659321561E+01  0.36722910198E+01 -0.73069235366E+00  0.41398247584E+01  0.00000000000E+00 0. -1.
</event>
<event>
 7    1  0.2492468E-009  0.4778727E+02  0.7816164E-02  0.1312668E+00
        -11   -1    0    0    0    0  0.00000000000E+00  0.00000000000E+00  0.45593999997E+02  0.45594000000E+02  0.51100000000E-03 0. -1.
         11   -1    0    0    0    0 -0.00000000000E+00 -0.00000000000E+00 -0.45593999997E+02  0.45594000000E+02  0.51100000000E-03 0.  1.
    9900012    2    1    2    0    0 -0.31697752176E+02  0.28425215492E+02 -0.84191846257E+01  0.47787273756E+02  0.20000012362E+02 0.  0.
         12    1    1    2    0    0  0.31697752176E+02 -0.28425215492E+02  0.84191846257E+01  0.43400726244E+02  0.00000000000E+00 0. -1.
         11    1    3    3    0    0 -0.13247021193E+02  0.12930329067E+02 -0.68154753682E+01  0.19726319601E+02  0.51100000000E-03 0.  1.
        -11    1    3    3    0    0 -0.19230932984E+02  0.12778946379E+02  0.23416246095E+01  0.23208047313E+02  0.51100000000E-03 0. -1.
         12    1    3    3    0    0  0.78020200061E+00  0.27159400457E+01 -0.39453338669E+01  0.48529068418E+01  0.00000000000E+00 0. -1.
</event>
<event>
 7    1  0.2492468E-009  0.4778727E+02  0.7816164E-02  0.1312668E+00
        -11   -1    0    0    0    0  0.00000000000E+00  0.00000000000E+00  0.45593999997E+02  0.45594000000E+02  0.51100000000E-03 0.  1.
         11   -1    0    0    0    0 -0.00000000000E+00 -0.00000000000E+00 -0.45593999997E+02  0.45594000000E+02  0.51100000000E-03 0. -1.
    9900012    2    1    2    0    0  0.32012645928E+02  0.31638717720E+01  0.29134237143E+02  0.47787270078E+02  0.19999995594E+02 0.  0.
         12    1    1    2    0    0 -0.32012645928E+02 -0.31638717720E+01 -0.29134237143E+02  0.43400729922E+02  0.00000000000E+00 0. -1.
         11    1    3    3    0    0  0.86496967654E+01 -0.15216629996E+01  0.20372296162E+02  0.22184750699E+02  0.51100000000E-03 0. -1.
        -11    1    3    3    0    0  0.31295452058E+01  0.72806246060E+00  0.31174006036E-01  0.32132693976E+01  0.51100000000E-03 0.  1.
        -12    1    3    3    0    0  0.20233403956E+02  0.39574723110E+01  0.87307669744E+01  0.22389249981E+02  0.00000000000E+00 0.  1.
</event>
<event>
 7    1  0.2492468E-009  0.4778727E+02  0.7816164E-02  0.1312668E+00
        -11   -1    0    0    0    0  0.00000000000E+00  0.00000000000E+00  0.45593999997E+02  0.45594000000E+02  0.51100000000E-03 0. -1.
         11   -1    0    0    0    0 -0.00000000000E+00 -0.00000000000E+00 -0.45593999997E+02  0.45594000000E+02  0.51100000000E-03 0.  1.
    9900012    2    1    2    0    0  0.10231530029E+02 -0.40741750258E+02 -0.10910943730E+02  0.47787272887E+02  0.20000008402E+02 0.  0.
         12    1    1    2    0    0 -0.10231530029E+02  0.40741750258E+02  0.10910943730E+02  0.43400727113E+02  0.00000000000E+00 0. -1.
         11    1    3    3    0    0  0.57520883320E+01 -0.10352823498E+02  0.15405565811E+01  0.11943231949E+02  0.51100000000E-03 0. -1.
        -11    1    3    3    0    0  0.18702932253E+01 -0.16926118296E+02  0.42282694835E+00  0.17034384645E+02  0.51100000000E-03 0.  1.
        -12    1    3    3    0    0  0.26091484721E+01 -0.13462808464E+02 -0.12874327259E+02  0.18809656293E+02  0.00000000000E+00 0.  1.
</event>
<event>
 7    1  0.2492468E-009  0.4778727E+02  0.7816164E-02  0.1312668E+00
        -11   -1    0    0    0    0  0.00000000000E+00  0.00000000000E+00  0.45593999997E+02  0.45594000000E+02  0.51100000000E-03 0. -1.
         11   -1    0    0    0    0 -0.00000000000E+00 -0.00000000000E+00 -0.45593999997E+02  0.45594000000E+02  0.51100000000E-03 0.  1.
    9900012    2    1    2    0    0  0.42299216278E+02 -0.71763928762E+01 -0.65497248352E+01  0.47787271805E+02  0.20000003466E+02 0.  0.
         12    1    1    2    0    0 -0.42299216278E+02  0.71763928762E+01  0.65497248352E+01  0.43400728195E+02  0.00000000000E+00 0. -1.
         11    1    3    3    0    0  0.48486904998E+01  0.85307162870E+00  0.17022818069E+01  0.52091548621E+01  0.51100000000E-03 0. -1.
        -11    1    3    3    0    0 -0.29536895646E+00  0.22852407917E+01  0.75541826887E+00  0.24249175900E+01  0.51100000000E-03 0.  1.
         12    1    3    3    0    0  0.37745894735E+02 -0.10314705297E+02 -0.90074249110E+01  0.40153199352E+02  0.00000000000E+00 0. -1.
</event>
<event>
 7    1  0.2492468E-009  0.4778726E+02  0.7816164E-02  0.1312668E+00
        -11   -1    0    0    0    0  0.00000000000E+00  0.00000000000E+00  0.45593999997E+02  0.45594000000E+02  0.51100000000E-03 0. -1.
         11   -1    0    0    0    0 -0.00000000000E+00 -0.00000000000E+00 -0.45593999997E+02  0.45594000000E+02  0.51100000000E-03 0.  1.
    9900012    2    1    2    0    0 -0.20949247826E+02 -0.32873990838E+02 -0.19080193941E+02  0.47787262000E+02  0.19999958764E+02 0.  0.
         12    1    1    2    0    0  0.20949247826E+02  0.32873990838E+02  0.19080193941E+02  0.43400738000E+02  0.00000000000E+00 0. -1.
         11    1    3    3    0    0  0.87628482994E+00 -0.66630012265E+01 -0.51388813139E+01  0.84599977463E+01  0.51100000000E-03 0. -1.
        -11    1    3    3    0    0 -0.20536286255E+01 -0.12601527582E+02 -0.50580806252E+01  0.13733173988E+02  0.51100000000E-03 0.  1.
        -12    1    3    3    0    0 -0.19771904030E+02 -0.13609462030E+02 -0.88832320017E+01  0.25594090266E+02  0.00000000000E+00 0.  1.
</event>
<event>
 7    1  0.2492468E-009  0.4778727E+02  0.7816164E-02  0.1312668E+00
        -11   -1    0    0    0    0  0.00000000000E+00  0.00000000000E+00  0.45593999997E+02  0.45594000000E+02  0.51100000000E-03 0. -1.
         11   -1    0    0    0    0 -0.00000000000E+00 -0.00000000000E+00 -0.45593999997E+02  0.45594000000E+02  0.51100000000E-03 0.  1.
    9900012    2    1    2    0    0 -0.26735489624E+02  0.15971308955E+02 -0.30228362403E+02  0.47787274099E+02  0.20000013926E+02 0.  0.
         12    1    1    2    0    0  0.26735489624E+02 -0.15971308955E+02  0.30228362403E+02  0.43400725901E+02  0.00000000000E+00 0. -1.
         11    1    3    3    0    0  0.19175228575E+00  0.39853714836E+01 -0.35672842574E+01  0.53521464886E+01  0.51100000000E-03 0. -1.
        -11    1    3    3    0    0 -0.16658693136E+02  0.12456657718E+02 -0.24112000518E+02  0.31844449245E+02  0.51100000000E-03 0.  1.
        -12    1    3    3    0    0 -0.10268548775E+02 -0.47072024632E+00 -0.25490776277E+01  0.10590678365E+02  0.00000000000E+00 0.  1.
</event>
<event>
 7    1  0.2492468E-009  0.4778727E+02  0.7816164E-02  0.1312668E+00
        -11   -1    0    0    0    0  0.00000000000E+00  0.00000000000E+00  0.45593999997E+02  0.45594000000E+02  0.51100000000E-03 0. -1.
         11   -1    0    0    0    0 -0.00000000000E+00 -0.00000000000E+00 -0.45593999997E+02  0.45594000000E+02  0.51100000000E-03 0.  1.
    9900012    2    1    2    0    0  0.33761367500E+01  0.28544279428E+02 -0.32518445906E+02  0.47787268306E+02  0.19999987516E+02 0.  0.
         12    1    1    2    0    0 -0.33761367500E+01 -0.28544279428E+02  0.32518445906E+02  0.43400731694E+02  0.00000000000E+00 0. -1.
         11    1    3    3    0    0  0.36130163753E+01  0.54940463064E+01 -0.15086577406E+02  0.16457316010E+02  0.51100000000E-03 0.  1.
        -11    1    3    3    0    0 -0.40883983351E+01  0.98684740825E+01 -0.13156664761E+02  0.16946964612E+02  0.51100000000E-03 0. -1.
        -12    1    3    3    0    0  0.38515187097E+01  0.13181759039E+02 -0.42752037386E+01  0.14382987684E+02  0.00000000000E+00 0.  1.
</event>
<event>
 7    1  0.2492468E-009  0.4778727E+02  0.7816164E-02  0.1312668E+00
        -11   -1    0    0    0    0  0.00000000000E+00  0.00000000000E+00  0.45593999997E+02  0.45594000000E+02  0.51100000000E-03 0.  1.
         11   -1    0    0    0    0 -0.00000000000E+00 -0.00000000000E+00 -0.45593999997E+02  0.45594000000E+02  0.51100000000E-03 0. -1.
    9900012    2    1    2    0    0 -0.21010793836E+02 -0.30945035882E+02  0.22013047750E+02  0.47787274492E+02  0.20000015720E+02 0.  0.
         12    1    1    2    0    0  0.21010793836E+02  0.30945035882E+02 -0.22013047750E+02  0.43400725508E+02  0.00000000000E+00 0. -1.
         11    1    3    3    0    0  0.67440288031E-01 -0.86655161416E+01  0.56897611125E+01  0.10366730438E+02  0.51100000000E-03 0.  1.
        -11    1    3    3    0    0  0.16577874018E+01 -0.36835041364E+01  0.53759318185E+00  0.40749807954E+01  0.51100000000E-03 0. -1.
        -12    1    3    3    0    0 -0.22736021526E+02 -0.18596015604E+02  0.15785693456E+02  0.33345563259E+02  0.00000000000E+00 0.  1.
</event>
<event>
 7    1  0.2492468E-009  0.4778727E+02  0.7816164E-02  0.1312668E+00
        -11   -1    0    0    0    0  0.00000000000E+00  0.00000000000E+00  0.45593999997E+02  0.45594000000E+02  0.51100000000E-03 0.  1.
         11   -1    0    0    0    0 -0.00000000000E+00 -0.00000000000E+00 -0.45593999997E+02  0.45594000000E+02  0.51100000000E-03 0. -1.
    9900012    2    1    2    0    0 -0.39588492819E+01  0.36164863448E+01  0.43068223287E+02  0.47787270533E+02  0.19999997670E+02 0.  0.
         12    1    1    2    0    0  0.39588492819E+01 -0.36164863448E+01 -0.43068223287E+02  0.43400729467E+02  0.00000000000E+00 0. -1.
         11    1    3    3    0    0 -0.29737330590E+01  0.80566437368E+00  0.70958303036E+01  0.77358251885E+01  0.51100000000E-03 0. -1.
        -11    1    3    3    0    0  0.42418774146E+01  0.87340463704E+01  0.19971572618E+02  0.22206773811E+02  0.51100000000E-03 0.  1.
        -12    1    3    3    0    0 -0.52269936374E+01 -0.59232243992E+01  0.16000820366E+02  0.17844671534E+02  0.00000000000E+00 0.  1.
</event>
<event>
 7    1  0.2492468E-009  0.4778727E+02  0.7816164E-02  0.1312668E+00
        -11   -1    0    0    0    0  0.00000000000E+00  0.00000000000E+00  0.45593999997E+02  0.45594000000E+02  0.51100000000E-03 0. -1.
         11   -1    0    0    0    0 -0.00000000000E+00 -0.00000000000E+00 -0.45593999997E+02  0.45594000000E+02  0.51100000000E-03 0.  1.
    9900012    2    1    2    0    0 -0.10379883257E+02  0.71630773954E+01 -0.41527958479E+02  0.47787274319E+02  0.20000014930E+02 0.  0.
         12    1    1    2    0    0  0.10379883257E+02 -0.71630773954E+01  0.41527958479E+02  0.43400725681E+02  0.00000000000E+00 0. -1.
         11    1    3    3    0    0 -0.73989585931E+01  0.65716613128E+01 -0.79664197793E+01  0.12704139681E+02  0.51100000000E-03 0. -1.
        -11    1    3    3    0    0 -0.61480201466E+01 -0.11663092521E+01 -0.16627500095E+02  0.17766040320E+02  0.51100000000E-03 0.  1.
        -12    1    3    3    0    0  0.31670954825E+01  0.17577253346E+01 -0.16934038605E+02  0.17317094318E+02  0.00000000000E+00 0.  1.
</event>
<event>
 7    1  0.2492468E-009  0.4778726E+02  0.7816164E-02  0.1312668E+00
        -11   -1    0    0    0    0  0.00000000000E+00  0.00000000000E+00  0.45593999997E+02  0.45594000000E+02  0.51100000000E-03 0. -1.
         11   -1    0    0    0    0 -0.00000000000E+00 -0.00000000000E+00 -0.45593999997E+02  0.45594000000E+02  0.51100000000E-03 0.  1.
    9900012    2    1    2    0    0  0.18581099993E+02 -0.15277026964E+02 -0.36124494795E+02  0.47787263209E+02  0.19999964275E+02 0.  0.
         12    1    1    2    0    0 -0.18581099993E+02  0.15277026964E+02  0.36124494795E+02  0.43400736791E+02  0.00000000000E+00 0. -1.
         11    1    3    3    0    0  0.10974369770E+02 -0.15253412296E+01 -0.12593440503E+02  0.16773735472E+02  0.51100000000E-03 0. -1.
        -11    1    3    3    0    0 -0.43762808602E+00  0.22487857192E+01 -0.25203101698E+01  0.34059534884E+01  0.51100000000E-03 0.  1.
        -12    1    3    3    0    0  0.80443583093E+01 -0.16000471453E+02 -0.21010744122E+02  0.27607574249E+02  0.00000000000E+00 0.  1.
</event>
<event>
 7    1  0.2492468E-009  0.4778727E+02  0.7816164E-02  0.1312668E+00
        -11   -1    0    0    0    0  0.00000000000E+00  0.00000000000E+00  0.45593999997E+02  0.45594000000E+02  0.51100000000E-03 0.  1.
         11   -1    0    0    0    0 -0.00000000000E+00 -0.00000000000E+00 -0.45593999997E+02  0.45594000000E+02  0.51100000000E-03 0. -1.
    9900012    2    1    2    0    0 -0.18850717775E+01 -0.36377728665E+02  0.23595141427E+02  0.47787270313E+02  0.19999996663E+02 0.  0.
         12    1    1    2    0    0  0.18850717775E+01  0.36377728665E+02 -0.23595141427E+02  0.43400729687E+02  0.00000000000E+00 0. -1.
         11    1    3    3    0    0  0.11526086433E+00 -0.11919822806E+02  0.27418624236E+01  0.12231650363E+02  0.51100000000E-03 0. -1.
        -11    1    3    3    0    0 -0.41203922196E+01 -0.18918055128E+02  0.71779921579E+01  0.20649310244E+02  0.51100000000E-03 0.  1.
        -12    1    3    3    0    0  0.21200595777E+01 -0.55398507314E+01  0.13675286845E+02  0.14906309706E+02  0.00000000000E+00 0.  1.
</event>
<event>
 7    1  0.2492468E-009  0.4778727E+02  0.7816164E-02  0.1312668E+00
        -11   -1    0    0    0    0  0.00000000000E+00  0.00000000000E+00  0.45593999997E+02  0.45594000000E+02  0.51100000000E-03 0.  1.
         11   -1    0    0    0    0 -0.00000000000E+00 -0.00000000000E+00 -0.45593999997E+02  0.45594000000E+02  0.51100000000E-03 0. -1.
    9900012    2    1    2    0    0  0.28216452860E+02  0.67454508588E+01  0.32279312667E+02  0.47787270219E+02  0.19999996235E+02 0.  0.
         12    1    1    2    0    0 -0.28216452860E+02 -0.67454508588E+01 -0.32279312667E+02  0.43400729781E+02  0.00000000000E+00 0. -1.
         11    1    3    3    0    0  0.37533925426E+01 -0.37000640249E+01  0.12612512015E+01  0.54193342969E+01  0.51100000000E-03 0. -1.
        -11    1    3    3    0    0  0.12544498989E+01 -0.16923929409E+01  0.51126846646E+01  0.55296820122E+01  0.51100000000E-03 0.  1.
        -12    1    3    3    0    0  0.23208610418E+02  0.12137907825E+02  0.25905376801E+02  0.36838253910E+02  0.00000000000E+00 0.  1.
</event>
<event>
 7    1  0.2492468E-009  0.4778730E+02  0.7816164E-02  0.1312668E+00
        -11   -1    0    0    0    0  0.00000000000E+00  0.00000000000E+00  0.45593999997E+02  0.45594000000E+02  0.51100000000E-03 0.  1.
         11   -1    0    0    0    0 -0.00000000000E+00 -0.00000000000E+00 -0.45593999997E+02  0.45594000000E+02  0.51100000000E-03 0. -1.
    9900012    2    1    2    0    0 -0.27476667572E+02  0.63204464709E+01  0.32995538221E+02  0.47787299004E+02  0.20000127480E+02 0.  0.
         12    1    1    2    0    0  0.27476667572E+02 -0.63204464709E+01 -0.32995538221E+02  0.43400700996E+02  0.00000000000E+00 0. -1.
         11    1    3    3    0    0 -0.10648351490E+02  0.10113336454E+02  0.89509830723E+01  0.17198461033E+02  0.51100000000E-03 0.  1.
        -11    1    3    3    0    0 -0.88285833748E+01  0.19024320670E+01  0.10332509888E+02  0.13723115282E+02  0.51100000000E-03 0. -1.
         12    1    3    3    0    0 -0.79997327078E+01 -0.56953220499E+01  0.13712045260E+02  0.16865722690E+02  0.00000000000E+00 0. -1.
</event>
<event>
 7    1  0.2492468E-009  0.4778727E+02  0.7816164E-02  0.1312668E+00
        -11   -1    0    0    0    0  0.00000000000E+00  0.00000000000E+00  0.45593999997E+02  0.45594000000E+02  0.51100000000E-03 0. -1.
         11   -1    0    0    0    0 -0.00000000000E+00 -0.00000000000E+00 -0.45593999997E+02  0.45594000000E+02  0.51100000000E-03 0.  1.
    9900012    2    1    2    0    0  0.33092444424E+02 -0.27147100487E+02  0.71797214672E+01  0.47787270246E+02  0.19999996360E+02 0.  0.
         12    1    1    2    0    0 -0.33092444424E+02  0.27147100487E+02 -0.71797214672E+01  0.43400729754E+02  0.00000000000E+00 0. -1.
         11    1    3    3    0    0  0.49805772212E-01 -0.13299353148E+01  0.44693307174E+01  0.46632741586E+01  0.51100000000E-03 0. -1.
        -11    1    3    3    0    0  0.12083664799E+02 -0.49561991099E+01  0.35718773248E+01  0.13540205776E+02  0.51100000000E-03 0.  1.
        -12    1    3    3    0    0  0.20958973853E+02 -0.20860966062E+02 -0.86148657488E+00  0.29583790311E+02  0.00000000000E+00 0.  1.
</event>
<event>
 7    1  0.2492468E-009  0.4778726E+02  0.7816164E-02  0.1312668E+00
        -11   -1    0    0    0    0  0.00000000000E+00  0.00000000000E+00  0.45593999997E+02  0.45594000000E+02  0.51100000000E-03 0.  1.
         11   -1    0    0    0    0 -0.00000000000E+00 -0.00000000000E+00 -0.45593999997E+02  0.45594000000E+02  0.51100000000E-03 0. -1.
    9900012    2    1    2    0    0 -0.24334339820E+02  0.10440698050E+02  0.34386854806E+02  0.47787262060E+02  0.19999959038E+02 0.  0.
         12    1    1    2    0    0  0.24334339820E+02 -0.10440698050E+02 -0.34386854806E+02  0.43400737940E+02  0.00000000000E+00 0. -1.
         11    1    3    3    0    0  0.52528049527E+00  0.23013993531E+01  0.73163425008E+00  0.24713655169E+01  0.51100000000E-03 0. -1.
        -11    1    3    3    0    0 -0.12890242658E+02  0.11554399955E+02  0.15091766265E+02  0.22965711907E+02  0.51100000000E-03 0.  1.
        -12    1    3    3    0    0 -0.11969377657E+02 -0.34151012582E+01  0.18563454291E+02  0.22350184637E+02  0.00000000000E+00 0.  1.
</event>
<event>
 7    1  0.2492468E-009  0.4778727E+02  0.7816164E-02  0.1312668E+00
        -11   -1    0    0    0    0  0.00000000000E+00  0.00000000000E+00  0.45593999997E+02  0.45594000000E+02  0.51100000000E-03 0.  1.
         11   -1    0    0    0    0 -0.00000000000E+00 -0.00000000000E+00 -0.45593999997E+02  0.45594000000E+02  0.51100000000E-03 0. -1.
    9900012    2    1    2    0    0  0.35320704454E+02  0.24694682681E+02  0.51228482104E+01  0.47787273166E+02  0.20000009675E+02 0.  0.
         12    1    1    2    0    0 -0.35320704454E+02 -0.24694682681E+02 -0.51228482104E+01  0.43400726834E+02  0.00000000000E+00 0. -1.
         11    1    3    3    0    0  0.73943177300E+01  0.24237792878E+01 -0.17443677213E+01  0.79745507545E+01  0.51100000000E-03 0. -1.
        -11    1    3    3    0    0  0.25658416645E+02  0.14230687079E+02  0.98384299015E+01  0.30946106421E+02  0.51100000000E-03 0.  1.
         12    1    3    3    0    0  0.22679700796E+01  0.80402163147E+01 -0.29712139698E+01  0.88666159906E+01  0.00000000000E+00 0. -1.
</event>
<event>
 7    1  0.2557890E-009  0.4778727E+02  0.7816164E-02  0.1312668E+00
        -11   -1    0    0    0    0  0.00000000000E+00  0.00000000000E+00  0.45593999997E+02  0.45594000000E+02  0.51100000000E-03 0. -1.
         11   -1    0    0    0    0 -0.00000000000E+00 -0.00000000000E+00 -0.45593999997E+02  0.45594000000E+02  0.51100000000E-03 0.  1.
    9900012    2    1    2    0    0 -0.26909539005E+02 -0.44403300130E+00 -0.34048539330E+02  0.47787268609E+02  0.19999988897E+02 0.  0.
         12    1    1    2    0    0  0.26909539005E+02  0.44403300130E+00  0.34048539330E+02  0.43400731391E+02  0.00000000000E+00 0. -1.
         11    1    3    3    0    0 -0.79979279640E+01  0.10888721964E+00 -0.32193681688E+01  0.86222409971E+01  0.51100000000E-03 0. -1.
        -11    1    3    3    0    0 -0.21317160771E+02 -0.15802060498E+01 -0.28738435228E+02  0.35816421571E+02  0.51100000000E-03 0.  1.
        -12    1    3    3    0    0  0.24055497304E+01  0.10272858289E+01 -0.20907359326E+01  0.33486060413E+01  0.00000000000E+00 0.  1.
</event>
<event>
 7    1  0.2492468E-009  0.4778727E+02  0.7816164E-02  0.1312668E+00
        -11   -1    0    0    0    0  0.00000000000E+00  0.00000000000E+00  0.45593999997E+02  0.45594000000E+02  0.51100000000E-03 0.  1.
         11   -1    0    0    0    0 -0.00000000000E+00 -0.00000000000E+00 -0.45593999997E+02  0.45594000000E+02  0.51100000000E-03 0. -1.
    9900012    2    1    2    0    0  0.76988256050E+01 -0.26609445280E+02  0.33410911595E+02  0.47787268354E+02  0.19999987733E+02 0.  0.
         12    1    1    2    0    0 -0.76988256050E+01  0.26609445280E+02 -0.33410911595E+02  0.43400731646E+02  0.00000000000E+00 0. -1.
         11    1    3    3    0    0 -0.26482917840E+01 -0.52635430848E+01 -0.64687773530E+00  0.59276290575E+01  0.51100000000E-03 0. -1.
        -11    1    3    3    0    0  0.14340534841E+00 -0.47833877446E+01  0.83064179761E+01  0.95863414953E+01  0.51100000000E-03 0.  1.
        -12    1    3    3    0    0  0.10203712041E+02 -0.16562514451E+02  0.25751371354E+02  0.32273297801E+02  0.00000000000E+00 0.  1.
</event>
<event>
 7    1  0.2492468E-009  0.4778727E+02  0.7816164E-02  0.1312668E+00
        -11   -1    0    0    0    0  0.00000000000E+00  0.00000000000E+00  0.45593999997E+02  0.45594000000E+02  0.51100000000E-03 0. -1.
         11   -1    0    0    0    0 -0.00000000000E+00 -0.00000000000E+00 -0.45593999997E+02  0.45594000000E+02  0.51100000000E-03 0.  1.
    9900012    2    1    2    0    0 -0.11749482941E+02 -0.32341473449E+02 -0.26449990844E+02  0.47787271091E+02  0.20000000211E+02 0.  0.
         12    1    1    2    0    0  0.11749482941E+02  0.32341473449E+02  0.26449990844E+02  0.43400728909E+02  0.00000000000E+00 0. -1.
         11    1    3    3    0    0  0.15937808871E+01 -0.23278330021E+02 -0.14368374385E+02  0.27402024903E+02  0.51100000000E-03 0. -1.
        -11    1    3    3    0    0 -0.65610857583E+01 -0.41720813323E+01 -0.39482461635E+01  0.87202498244E+01  0.51100000000E-03 0.  1.
        -12    1    3    3    0    0 -0.67821780694E+01 -0.48910620960E+01 -0.81333702952E+01  0.11664996363E+02  0.00000000000E+00 0.  1.
</event>
<event>
 7    1  0.2492468E-009  0.4778727E+02  0.7816164E-02  0.1312668E+00
        -11   -1    0    0    0    0  0.00000000000E+00  0.00000000000E+00  0.45593999997E+02  0.45594000000E+02  0.51100000000E-03 0.  1.
         11   -1    0    0    0    0 -0.00000000000E+00 -0.00000000000E+00 -0.45593999997E+02  0.45594000000E+02  0.51100000000E-03 0. -1.
    9900012    2    1    2    0    0 -0.14084500483E+02 -0.30269275549E+02  0.27731226550E+02  0.47787272793E+02  0.20000007973E+02 0.  0.
         12    1    1    2    0    0  0.14084500483E+02  0.30269275549E+02 -0.27731226550E+02  0.43400727207E+02  0.00000000000E+00 0. -1.
         11    1    3    3    0    0 -0.87094475922E+00  0.62911931840E+00 -0.33471880067E+00  0.11253323185E+01  0.51100000000E-03 0. -1.
        -11    1    3    3    0    0  0.10877743009E+01 -0.15623659780E+02  0.16516962753E+02  0.22761635634E+02  0.51100000000E-03 0.  1.
        -12    1    3    3    0    0 -0.14301330025E+02 -0.15274735087E+02  0.11548982598E+02  0.23900304841E+02  0.00000000000E+00 0.  1.
</event>
<event>
 7    1  0.2492468E-009  0.4778727E+02  0.7816164E-02  0.1312668E+00
        -11   -1    0    0    0    0  0.00000000000E+00  0.00000000000E+00  0.45593999997E+02  0.45594000000E+02  0.51100000000E-03 0.  1.
         11   -1    0    0    0    0 -0.00000000000E+00 -0.00000000000E+00 -0.45593999997E+02  0.45594000000E+02  0.51100000000E-03 0. -1.
    9900012    2    1    2    0    0  0.14910298889E+02  0.15316791008E+02  0.37771709451E+02  0.47787272649E+02  0.20000007315E+02 0.  0.
         12    1    1    2    0    0 -0.14910298889E+02 -0.15316791008E+02 -0.37771709451E+02  0.43400727351E+02  0.00000000000E+00 0. -1.
         11    1    3    3    0    0 -0.22123428439E+01 -0.84200320398E+00  0.47942988040E+01  0.53468431375E+01  0.51100000000E-03 0. -1.
        -11    1    3    3    0    0  0.58682769350E+01  0.77275410409E+01  0.23657601794E+02  0.25570171834E+02  0.51100000000E-03 0.  1.
        -12    1    3    3    0    0  0.11254364798E+02  0.84312531708E+01  0.93198088534E+01  0.16870257677E+02  0.00000000000E+00 0.  1.
</event>
<event>
 7    1  0.2492468E-009  0.4778727E+02  0.7816164E-02  0.1312668E+00
        -11   -1    0    0    0    0  0.00000000000E+00  0.00000000000E+00  0.45593999997E+02  0.45594000000E+02  0.51100000000E-03 0. -1.
         11   -1    0    0    0    0 -0.00000000000E+00 -0.00000000000E+00 -0.45593999997E+02  0.45594000000E+02  0.51100000000E-03 0.  1.
    9900012    2    1    2    0    0 -0.77865452303E+01 -0.89040116836E+01 -0.41757772189E+02  0.47787271332E+02  0.20000001313E+02 0.  0.
         12    1    1    2    0    0  0.77865452303E+01  0.89040116836E+01  0.41757772189E+02  0.43400728668E+02  0.00000000000E+00 0. -1.
         11    1    3    3    0    0  0.84615526904E+00  0.38861027833E+01 -0.59029373467E+01  0.71177554863E+01  0.51100000000E-03 0. -1.
        -11    1    3    3    0    0  0.12894006577E+01  0.12475873162E+01 -0.19124937682E+01  0.26223388115E+01  0.51100000000E-03 0.  1.
        -12    1    3    3    0    0 -0.99221011570E+01 -0.14037701783E+02 -0.33942341074E+02  0.38047177035E+02  0.00000000000E+00 0.  1.
</event>
<event>
 7    1  0.2492468E-009  0.4778727E+02  0.7816164E-02  0.1312668E+00
        -11   -1    0    0    0    0  0.00000000000E+00  0.00000000000E+00  0.45593999997E+02  0.45594000000E+02  0.51100000000E-03 0. -1.
         11   -1    0    0    0    0 -0.00000000000E+00 -0.00000000000E+00 -0.45593999997E+02  0.45594000000E+02  0.51100000000E-03 0.  1.
    9900012    2    1    2    0    0 -0.24153620352E+02  0.25266228176E+02  0.25726323090E+02  0.47787270028E+02  0.19999995367E+02 0.  0.
         12    1    1    2    0    0  0.24153620352E+02 -0.25266228176E+02 -0.25726323090E+02  0.43400729972E+02  0.00000000000E+00 0. -1.
         11    1    3    3    0    0 -0.33228689376E+01  0.25114341097E+01 -0.83990813094E+00  0.42490240283E+01  0.51100000000E-03 0. -1.
        -11    1    3    3    0    0  0.18118621694E+00  0.51043636172E+01 -0.32405960982E+00  0.51178483050E+01  0.51100000000E-03 0.  1.
         12    1    3    3    0    0 -0.21011937631E+02  0.17650430449E+02  0.26890290831E+02  0.38420397695E+02  0.00000000000E+00 0. -1.
</event>
<event>
 7    1  0.2492468E-009  0.4778727E+02  0.7816164E-02  0.1312668E+00
        -11   -1    0    0    0    0  0.00000000000E+00  0.00000000000E+00  0.45593999997E+02  0.45594000000E+02  0.51100000000E-03 0. -1.
         11   -1    0    0    0    0 -0.00000000000E+00 -0.00000000000E+00 -0.45593999997E+02  0.45594000000E+02  0.51100000000E-03 0.  1.
    9900012    2    1    2    0    0  0.39307223221E+02 -0.93688331945E+01 -0.15836362399E+02  0.47787271817E+02  0.20000003523E+02 0.  0.
         12    1    1    2    0    0 -0.39307223221E+02  0.93688331945E+01  0.15836362399E+02  0.43400728183E+02  0.00000000000E+00 0. -1.
         11    1    3    3    0    0  0.64191718219E+00 -0.20789037275E+01  0.30409593821E+01  0.37391620187E+01  0.51100000000E-03 0. -1.
        -11    1    3    3    0    0  0.13594161731E+02 -0.37985960717E+01 -0.39322332423E+01  0.14652406758E+02  0.51100000000E-03 0.  1.
         12    1    3    3    0    0  0.25071144308E+02 -0.34913333953E+01 -0.14945088538E+02  0.29395703040E+02  0.00000000000E+00 0. -1.
</event>
<event>
 7    1  0.2492468E-009  0.4778727E+02  0.7816164E-02  0.1312668E+00
        -11   -1    0    0    0    0  0.00000000000E+00  0.00000000000E+00  0.45593999997E+02  0.45594000000E+02  0.51100000000E-03 0. -1.
         11   -1    0    0    0    0 -0.00000000000E+00 -0.00000000000E+00 -0.45593999997E+02  0.45594000000E+02  0.51100000000E-03 0.  1.
    9900012    2    1    2    0    0  0.37822904489E+01 -0.41468473073E+02 -0.12234526281E+02  0.47787267133E+02  0.19999982167E+02 0.  0.
         12    1    1    2    0    0 -0.37822904489E+01  0.41468473073E+02  0.12234526281E+02  0.43400732867E+02  0.00000000000E+00 0. -1.
         11    1    3    3    0    0  0.21941885078E+00 -0.25606360257E+02 -0.48696537145E+01  0.26066211036E+02  0.51100000000E-03 0. -1.
        -11    1    3    3    0    0  0.21174263115E+01 -0.14750324915E+02 -0.81690405141E+00  0.14923904039E+02  0.51100000000E-03 0.  1.
         12    1    3    3    0    0  0.14454452866E+01 -0.11117879013E+01 -0.65479685155E+01  0.67971520576E+01  0.00000000000E+00 0. -1.
</event>
<event>
 7    1  0.2492468E-009  0.4778727E+02  0.7816164E-02  0.1312668E+00
        -11   -1    0    0    0    0  0.00000000000E+00  0.00000000000E+00  0.45593999997E+02  0.45594000000E+02  0.51100000000E-03 0.  1.
         11   -1    0    0    0    0 -0.00000000000E+00 -0.00000000000E+00 -0.45593999997E+02  0.45594000000E+02  0.51100000000E-03 0. -1.
    9900012    2    1    2    0    0 -0.14044885394E+01 -0.31662017598E+02  0.29650758011E+02  0.47787269626E+02  0.19999993531E+02 0.  0.
         12    1    1    2    0    0  0.14044885394E+01  0.31662017598E+02 -0.29650758011E+02  0.43400730374E+02  0.00000000000E+00 0. -1.
         11    1    3    3    0    0  0.10185724731E+00 -0.14178659858E+01  0.83012020620E+01  0.84220350740E+01  0.51100000000E-03 0. -1.
        -11    1    3    3    0    0 -0.70484334788E+01 -0.11175202171E+02  0.82877007788E+01  0.15596523412E+02  0.51100000000E-03 0.  1.
         12    1    3    3    0    0  0.55420876921E+01 -0.19068949441E+02  0.13061855170E+02  0.23768711140E+02  0.00000000000E+00 0. -1.
</event>
<event>
 7    1  0.2492468E-009  0.4778727E+02  0.7816164E-02  0.1312668E+00
        -11   -1    0    0    0    0  0.00000000000E+00  0.00000000000E+00  0.45593999997E+02  0.45594000000E+02  0.51100000000E-03 0. -1.
         11   -1    0    0    0    0 -0.00000000000E+00 -0.00000000000E+00 -0.45593999997E+02  0.45594000000E+02  0.51100000000E-03 0.  1.
    9900012    2    1    2    0    0  0.40907094237E+02  0.14394200546E+02 -0.17435706467E+01  0.47787269512E+02  0.19999993013E+02 0.  0.
         12    1    1    2    0    0 -0.40907094237E+02 -0.14394200546E+02  0.17435706467E+01  0.43400730488E+02  0.00000000000E+00 0. -1.
         11    1    3    3    0    0  0.24245019790E+01  0.65452229067E+00 -0.25762988356E+01  0.35977666999E+01  0.51100000000E-03 0. -1.
        -11    1    3    3    0    0  0.35857190834E+02  0.12715631225E+02 -0.43472297980E+01  0.38292607892E+02  0.51100000000E-03 0.  1.
         12    1    3    3    0    0  0.26254014243E+01  0.10240470298E+01  0.51799579870E+01  0.58968949206E+01  0.00000000000E+00 0. -1.
</event>
<event>
 7    1  0.2492468E-009  0.4778727E+02  0.7816164E-02  0.1312668E+00
        -11   -1    0    0    0    0  0.00000000000E+00  0.00000000000E+00  0.45593999997E+02  0.45594000000E+02  0.51100000000E-03 0. -1.
         11   -1    0    0    0    0 -0.00000000000E+00 -0.00000000000E+00 -0.45593999997E+02  0.45594000000E+02  0.51100000000E-03 0.  1.
    9900012    2    1    2    0    0  0.24740795096E+02  0.27051000674E+02 -0.23232729063E+02  0.47787270983E+02  0.19999999722E+02 0.  0.
         12    1    1    2    0    0 -0.24740795096E+02 -0.27051000674E+02  0.23232729063E+02  0.43400729017E+02  0.00000000000E+00 0. -1.
         11    1    3    3    0    0  0.12442308221E+02  0.93859956869E+01 -0.17206572764E+02  0.23215815632E+02  0.51100000000E-03 0. -1.
        -11    1    3    3    0    0  0.11437431204E+02  0.15460328273E+02 -0.86072556008E+01  0.21069443089E+02  0.51100000000E-03 0.  1.
         12    1    3    3    0    0  0.86105567115E+00  0.22046767136E+01  0.25810993016E+01  0.35020122623E+01  0.00000000000E+00 0. -1.
</event>
<event>
 7    1  0.2492468E-009  0.4778727E+02  0.7816164E-02  0.1312668E+00
        -11   -1    0    0    0    0  0.00000000000E+00  0.00000000000E+00  0.45593999997E+02  0.45594000000E+02  0.51100000000E-03 0.  1.
         11   -1    0    0    0    0 -0.00000000000E+00 -0.00000000000E+00 -0.45593999997E+02  0.45594000000E+02  0.51100000000E-03 0. -1.
    9900012    2    1    2    0    0 -0.26413517107E+02  0.26172507060E+02  0.22381892610E+02  0.47787272718E+02  0.20000007632E+02 0.  0.
         12    1    1    2    0    0  0.26413517107E+02 -0.26172507060E+02 -0.22381892610E+02  0.43400727282E+02  0.00000000000E+00 0. -1.
         11    1    3    3    0    0 -0.11024067781E+01 -0.21878296453E+01  0.31329158883E+00  0.24698281605E+01  0.51100000000E-03 0. -1.
        -11    1    3    3    0    0 -0.11851656877E+02  0.62820946188E+01  0.49063638501E+01  0.14282818000E+02  0.51100000000E-03 0.  1.
        -12    1    3    3    0    0 -0.13459453451E+02  0.22078242087E+02  0.17162237171E+02  0.31034626558E+02  0.00000000000E+00 0.  1.
</event>
<event>
 7    1  0.2492468E-009  0.4778727E+02  0.7816164E-02  0.1312668E+00
        -11   -1    0    0    0    0  0.00000000000E+00  0.00000000000E+00  0.45593999997E+02  0.45594000000E+02  0.51100000000E-03 0.  1.
         11   -1    0    0    0    0 -0.00000000000E+00 -0.00000000000E+00 -0.45593999997E+02  0.45594000000E+02  0.51100000000E-03 0. -1.
    9900012    2    1    2    0    0 -0.14374816732E+02 -0.40948805515E+02 -0.42793533706E+00  0.47787272381E+02  0.20000006094E+02 0.  0.
         12    1    1    2    0    0  0.14374816732E+02  0.40948805515E+02  0.42793533706E+00  0.43400727619E+02  0.00000000000E+00 0. -1.
         11    1    3    3    0    0 -0.13990123477E+01 -0.55262199698E+01  0.32941881946E+01  0.65839212348E+01  0.51100000000E-03 0. -1.
        -11    1    3    3    0    0  0.23420490896E+01 -0.15579412311E+02  0.59957722065E+00  0.15765873746E+02  0.51100000000E-03 0.  1.
         12    1    3    3    0    0 -0.15317853474E+02 -0.19843173235E+02 -0.43217007523E+01  0.25437477400E+02  0.00000000000E+00 0. -1.
</event>
<event>
 7    1  0.2492468E-009  0.4778727E+02  0.7816164E-02  0.1312668E+00
        -11   -1    0    0    0    0  0.00000000000E+00  0.00000000000E+00  0.45593999997E+02  0.45594000000E+02  0.51100000000E-03 0.  1.
         11   -1    0    0    0    0 -0.00000000000E+00 -0.00000000000E+00 -0.45593999997E+02  0.45594000000E+02  0.51100000000E-03 0. -1.
    9900012    2    1    2    0    0  0.37055990536E+02 -0.40852903545E-01  0.22593699590E+02  0.47787269998E+02  0.19999995228E+02 0.  0.
         12    1    1    2    0    0 -0.37055990536E+02  0.40852903545E-01 -0.22593699590E+02  0.43400730002E+02  0.00000000000E+00 0. -1.
         11    1    3    3    0    0  0.12248461698E+02 -0.50241821474E+01  0.31161705730E+01  0.13600652172E+02  0.51100000000E-03 0. -1.
        -11    1    3    3    0    0  0.18887594039E+02  0.44202776480E+01  0.74687338517E+01  0.20786102296E+02  0.51100000000E-03 0.  1.
         12    1    3    3    0    0  0.59199347992E+01  0.56305159588E+00  0.12008795165E+02  0.13400515529E+02  0.00000000000E+00 0. -1.
</event>
<event>
 7    1  0.2492468E-009  0.4778727E+02  0.7816164E-02  0.1312668E+00
        -11   -1    0    0    0    0  0.00000000000E+00  0.00000000000E+00  0.45593999997E+02  0.45594000000E+02  0.51100000000E-03 0.  1.
         11   -1    0    0    0    0 -0.00000000000E+00 -0.00000000000E+00 -0.45593999997E+02  0.45594000000E+02  0.51100000000E-03 0. -1.
    9900012    2    1    2    0    0 -0.33066763937E+02  0.23711036089E+02  0.15099645048E+02  0.47787269704E+02  0.19999993887E+02 0.  0.
         12    1    1    2    0    0  0.33066763937E+02 -0.23711036089E+02 -0.15099645048E+02  0.43400730296E+02  0.00000000000E+00 0. -1.
         11    1    3    3    0    0  0.10275456810E+01  0.14810174383E+01  0.35938357756E+01  0.40205619784E+01  0.51100000000E-03 0. -1.
        -11    1    3    3    0    0 -0.50685813693E+01  0.54874988360E+01  0.64692539534E+01  0.98820244660E+01  0.51100000000E-03 0.  1.
         12    1    3    3    0    0 -0.29025728248E+02  0.16742519815E+02  0.50365553194E+01  0.33884683259E+02  0.00000000000E+00 0. -1.
</event>
<event>
 7    1  0.2492468E-009  0.4778727E+02  0.7816164E-02  0.1312668E+00
        -11   -1    0    0    0    0  0.00000000000E+00  0.00000000000E+00  0.45593999997E+02  0.45594000000E+02  0.51100000000E-03 0. -1.
         11   -1    0    0    0    0 -0.00000000000E+00 -0.00000000000E+00 -0.45593999997E+02  0.45594000000E+02  0.51100000000E-03 0.  1.
    9900012    2    1    2    0    0 -0.37835470206E+02  0.14080967881E+02 -0.15931942114E+02  0.47787271415E+02  0.20000001688E+02 0.  0.
         12    1    1    2    0    0  0.37835470206E+02 -0.14080967881E+02  0.15931942114E+02  0.43400728585E+02  0.00000000000E+00 0. -1.
         11    1    3    3    0    0 -0.17599703044E+02  0.12783562767E+02 -0.53334388722E+01  0.22396754111E+02  0.51100000000E-03 0.  1.
        -11    1    3    3    0    0 -0.39435085094E+01  0.92790210086E+00  0.22537311174E+01  0.46358996844E+01  0.51100000000E-03 0. -1.
        -12    1    3    3    0    0 -0.16292258653E+02  0.36950301360E+00 -0.12852234360E+02  0.20754617619E+02  0.00000000000E+00 0.  1.
</event>
<event>
 7    1  0.2492468E-009  0.4778728E+02  0.7816164E-02  0.1312668E+00
        -11   -1    0    0    0    0  0.00000000000E+00  0.00000000000E+00  0.45593999997E+02  0.45594000000E+02  0.51100000000E-03 0. -1.
         11   -1    0    0    0    0 -0.00000000000E+00 -0.00000000000E+00 -0.45593999997E+02  0.45594000000E+02  0.51100000000E-03 0.  1.
    9900012    2    1    2    0    0 -0.14524588556E+02 -0.40895672245E+02 -0.45070221834E+00  0.47787276348E+02  0.20000024179E+02 0.  0.
         12    1    1    2    0    0  0.14524588556E+02  0.40895672245E+02  0.45070221834E+00  0.43400723652E+02  0.00000000000E+00 0. -1.
         11    1    3    3    0    0 -0.80824241871E-01 -0.32207174679E+01 -0.33719761631E+01  0.46636656261E+01  0.51100000000E-03 0. -1.
        -11    1    3    3    0    0 -0.89933370243E+01 -0.35297016353E+02 -0.16234078093E+00  0.36425071435E+02  0.51100000000E-03 0.  1.
         12    1    3    3    0    0 -0.54504272902E+01 -0.23779384233E+01  0.30836147257E+01  0.66985392861E+01  0.00000000000E+00 0. -1.
</event>
<event>
 7    1  0.2492468E-009  0.4778727E+02  0.7816164E-02  0.1312668E+00
        -11   -1    0    0    0    0  0.00000000000E+00  0.00000000000E+00  0.45593999997E+02  0.45594000000E+02  0.51100000000E-03 0.  1.
         11   -1    0    0    0    0 -0.00000000000E+00 -0.00000000000E+00 -0.45593999997E+02  0.45594000000E+02  0.51100000000E-03 0. -1.
    9900012    2    1    2    0    0 -0.29052563607E+02 -0.17265707548E+01  0.32196129178E+02  0.47787271518E+02  0.20000002161E+02 0.  0.
         12    1    1    2    0    0  0.29052563607E+02  0.17265707548E+01 -0.32196129178E+02  0.43400728482E+02  0.00000000000E+00 0. -1.
         11    1    3    3    0    0  0.14165288406E+01 -0.32779039540E+01  0.34868995622E+01  0.49909595376E+01  0.51100000000E-03 0. -1.
        -11    1    3    3    0    0 -0.54079044225E+01  0.21791283444E+01  0.97694804224E+01  0.11377028547E+02  0.51100000000E-03 0.  1.
        -12    1    3    3    0    0 -0.25061188025E+02 -0.62779514523E+00  0.18939749194E+02  0.31419283433E+02  0.00000000000E+00 0.  1.
</event>
<event>
 7    1  0.2492468E-009  0.4778727E+02  0.7816164E-02  0.1312668E+00
        -11   -1    0    0    0    0  0.00000000000E+00  0.00000000000E+00  0.45593999997E+02  0.45594000000E+02  0.51100000000E-03 0.  1.
         11   -1    0    0    0    0 -0.00000000000E+00 -0.00000000000E+00 -0.45593999997E+02  0.45594000000E+02  0.51100000000E-03 0. -1.
    9900012    2    1    2    0    0 -0.34041401115E+02  0.22173541643E+02  0.15268927440E+02  0.47787273231E+02  0.20000009970E+02 0.  0.
         12    1    1    2    0    0  0.34041401115E+02 -0.22173541643E+02 -0.15268927440E+02  0.43400726769E+02  0.00000000000E+00 0. -1.
         11    1    3    3    0    0 -0.13802695085E+02  0.11978159672E+02  0.28171583194E+01  0.18491270426E+02  0.51100000000E-03 0. -1.
        -11    1    3    3    0    0 -0.97004167215E+01  0.93990776341E+01  0.74939996898E+00  0.13527835951E+02  0.51100000000E-03 0.  1.
         12    1    3    3    0    0 -0.10538289309E+02  0.79630433722E+00  0.11702369152E+02  0.15768166854E+02  0.00000000000E+00 0. -1.
</event>
<event>
 7    1  0.2492468E-009  0.4778727E+02  0.7816164E-02  0.1312668E+00
        -11   -1    0    0    0    0  0.00000000000E+00  0.00000000000E+00  0.45593999997E+02  0.45594000000E+02  0.51100000000E-03 0.  1.
         11   -1    0    0    0    0 -0.00000000000E+00 -0.00000000000E+00 -0.45593999997E+02  0.45594000000E+02  0.51100000000E-03 0. -1.
    9900012    2    1    2    0    0  0.10642499695E+02 -0.35147448274E+02  0.23130443187E+02  0.47787270490E+02  0.19999997472E+02 0.  0.
         12    1    1    2    0    0 -0.10642499695E+02  0.35147448274E+02 -0.23130443187E+02  0.43400729510E+02  0.00000000000E+00 0. -1.
         11    1    3    3    0    0  0.15794849072E+02 -0.23196743211E+02  0.14170952530E+02  0.31438543998E+02  0.51100000000E-03 0. -1.
        -11    1    3    3    0    0  0.67618228557E+00 -0.23324490803E+01  0.15603842137E+01  0.28865793512E+01  0.51100000000E-03 0.  1.
        -12    1    3    3    0    0 -0.58285316623E+01 -0.96182559825E+01  0.73991064436E+01  0.13462147141E+02  0.00000000000E+00 0.  1.
</event>
<event>
 7    1  0.2492468E-009  0.4778727E+02  0.7816164E-02  0.1312668E+00
        -11   -1    0    0    0    0  0.00000000000E+00  0.00000000000E+00  0.45593999997E+02  0.45594000000E+02  0.51100000000E-03 0.  1.
         11   -1    0    0    0    0 -0.00000000000E+00 -0.00000000000E+00 -0.45593999997E+02  0.45594000000E+02  0.51100000000E-03 0. -1.
    9900012    2    1    2    0    0 -0.75289476588E+01 -0.39925436865E+01  0.42555821761E+02  0.47787269318E+02  0.19999992131E+02 0.  0.
         12    1    1    2    0    0  0.75289476588E+01  0.39925436865E+01 -0.42555821761E+02  0.43400730682E+02  0.00000000000E+00 0. -1.
         11    1    3    3    0    0 -0.14529919600E+01 -0.46544399723E+00  0.79887168896E-02  0.15257417315E+01  0.51100000000E-03 0. -1.
        -11    1    3    3    0    0  0.52201036433E+01 -0.39526262329E+01  0.11697205792E+02  0.13405124385E+02  0.51100000000E-03 0.  1.
         12    1    3    3    0    0 -0.11296059342E+02  0.42552654365E+00  0.30850627252E+02  0.32856403202E+02  0.00000000000E+00 0. -1.
</event>
<event>
 7    1  0.2492468E-009  0.4778727E+02  0.7816164E-02  0.1312668E+00
        -11   -1    0    0    0    0  0.00000000000E+00  0.00000000000E+00  0.45593999997E+02  0.45594000000E+02  0.51100000000E-03 0.  1.
         11   -1    0    0    0    0 -0.00000000000E+00 -0.00000000000E+00 -0.45593999997E+02  0.45594000000E+02  0.51100000000E-03 0. -1.
    9900012    2    1    2    0    0  0.54923356936E+01 -0.33016511578E+02  0.27629106790E+02  0.47787270396E+02  0.19999997045E+02 0.  0.
         12    1    1    2    0    0 -0.54923356936E+01  0.33016511578E+02 -0.27629106790E+02  0.43400729604E+02  0.00000000000E+00 0. -1.
         11    1    3    3    0    0  0.53989068170E+00 -0.28525915169E+01  0.47278037527E+01  0.55480527120E+01  0.51100000000E-03 0. -1.
        -11    1    3    3    0    0 -0.48918064412E+01 -0.10868195332E+02  0.15051781707E+02  0.19199051353E+02  0.51100000000E-03 0.  1.
         12    1    3    3    0    0  0.98442514531E+01 -0.19295724729E+02  0.78495213301E+01  0.23040166332E+02  0.00000000000E+00 0. -1.
</event>
<event>
 7    1  0.2492468E-009  0.4778726E+02  0.7816164E-02  0.1312668E+00
        -11   -1    0    0    0    0  0.00000000000E+00  0.00000000000E+00  0.45593999997E+02  0.45594000000E+02  0.51100000000E-03 0.  1.
         11   -1    0    0    0    0 -0.00000000000E+00 -0.00000000000E+00 -0.45593999997E+02  0.45594000000E+02  0.51100000000E-03 0. -1.
    9900012    2    1    2    0    0  0.58409281813E+01 -0.13840134724E+02  0.40718032197E+02  0.47787263633E+02  0.19999966209E+02 0.  0.
         12    1    1    2    0    0 -0.58409281813E+01  0.13840134724E+02 -0.40718032197E+02  0.43400736367E+02  0.00000000000E+00 0. -1.
         11    1    3    3    0    0  0.67187865297E+01 -0.22881844688E+01  0.16140551420E+02  0.17632222804E+02  0.51100000000E-03 0. -1.
        -11    1    3    3    0    0  0.76010577728E+00  0.11791990686E+01 -0.87187546403E+00  0.16517985113E+01  0.51100000000E-03 0.  1.
        -12    1    3    3    0    0 -0.16379641257E+01 -0.12731149324E+02  0.25449356240E+02  0.28503242318E+02  0.00000000000E+00 0.  1.
</event>
<event>
 7    1  0.2492468E-009  0.4778727E+02  0.7816164E-02  0.1312668E+00
        -11   -1    0    0    0    0  0.00000000000E+00  0.00000000000E+00  0.45593999997E+02  0.45594000000E+02  0.51100000000E-03 0.  1.
         11   -1    0    0    0    0 -0.00000000000E+00 -0.00000000000E+00 -0.45593999997E+02  0.45594000000E+02  0.51100000000E-03 0. -1.
    9900012    2    1    2    0    0 -0.17829434206E+02 -0.11764880044E+02  0.37779914401E+02  0.47787273524E+02  0.20000011304E+02 0.  0.
         12    1    1    2    0    0  0.17829434206E+02  0.11764880044E+02 -0.37779914401E+02  0.43400726476E+02  0.00000000000E+00 0. -1.
         11    1    3    3    0    0 -0.10831210930E+02  0.10935242861E+01  0.89568608313E+01  0.14097385637E+02  0.51100000000E-03 0. -1.
        -11    1    3    3    0    0 -0.84527529914E+01 -0.59274266215E+01  0.16012866932E+02  0.19052436252E+02  0.51100000000E-03 0.  1.
        -12    1    3    3    0    0  0.14545297155E+01 -0.69309777082E+01  0.12810186638E+02  0.14637451635E+02  0.00000000000E+00 0.  1.
</event>
<event>
 7    1  0.2492468E-009  0.4778730E+02  0.7816164E-02  0.1312668E+00
        -11   -1    0    0    0    0  0.00000000000E+00  0.00000000000E+00  0.45593999997E+02  0.45594000000E+02  0.51100000000E-03 0. -1.
         11   -1    0    0    0    0 -0.00000000000E+00 -0.00000000000E+00 -0.45593999997E+02  0.45594000000E+02  0.51100000000E-03 0.  1.
    9900012    2    1    2    0    0 -0.34608722466E+01 -0.40590614426E+02 -0.14968146318E+02  0.47787297006E+02  0.20000118370E+02 0.  0.
         12    1    1    2    0    0  0.34608722466E+01  0.40590614426E+02  0.14968146318E+02  0.43400702994E+02  0.00000000000E+00 0. -1.
         11    1    3    3    0    0  0.12982521961E+00 -0.25976384363E+02 -0.83358534595E+01  0.27281419544E+02  0.51100000000E-03 0. -1.
        -11    1    3    3    0    0 -0.13812411876E+01 -0.16464172548E+02 -0.56601672323E+01  0.17464658550E+02  0.51100000000E-03 0.  1.
         12    1    3    3    0    0 -0.22094562786E+01  0.18499424848E+01 -0.97212562585E+00  0.30412189130E+01  0.00000000000E+00 0. -1.
</event>
<event>
 7    1  0.5449470E-009  0.4778727E+02  0.7816164E-02  0.1312668E+00
        -11   -1    0    0    0    0  0.00000000000E+00  0.00000000000E+00  0.45593999997E+02  0.45594000000E+02  0.51100000000E-03 0. -1.
         11   -1    0    0    0    0 -0.00000000000E+00 -0.00000000000E+00 -0.45593999997E+02  0.45594000000E+02  0.51100000000E-03 0.  1.
    9900012    2    1    2    0    0 -0.46876907748E+01 -0.11524945455E+02 -0.41579137114E+02  0.47787268950E+02  0.19999990449E+02 0.  0.
         12    1    1    2    0    0  0.46876907748E+01  0.11524945455E+02  0.41579137114E+02  0.43400731050E+02  0.00000000000E+00 0. -1.
         11    1    3    3    0    0 -0.14612229658E+01  0.31319457838E+01 -0.21087364273E+01  0.40485832743E+01  0.51100000000E-03 0. -1.
        -11    1    3    3    0    0 -0.62137955199E+01 -0.38132826714E+01 -0.19506122824E+02  0.20824053577E+02  0.51100000000E-03 0.  1.
         12    1    3    3    0    0  0.29873277108E+01 -0.10843608567E+02 -0.19964277863E+02  0.22914632098E+02  0.00000000000E+00 0. -1.
</event>
<event>
 7    1  0.2492468E-009  0.4778727E+02  0.7816164E-02  0.1312668E+00
        -11   -1    0    0    0    0  0.00000000000E+00  0.00000000000E+00  0.45593999997E+02  0.45594000000E+02  0.51100000000E-03 0. -1.
         11   -1    0    0    0    0 -0.00000000000E+00 -0.00000000000E+00 -0.45593999997E+02  0.45594000000E+02  0.51100000000E-03 0.  1.
    9900012    2    1    2    0    0 -0.94599621195E+01 -0.23209364915E+02 -0.35432445693E+02  0.47787266010E+02  0.19999977045E+02 0.  0.
         12    1    1    2    0    0  0.94599621195E+01  0.23209364915E+02  0.35432445693E+02  0.43400733990E+02  0.00000000000E+00 0. -1.
         11    1    3    3    0    0 -0.13890070777E+01 -0.19125107317E+01 -0.43780694065E+01  0.49753924419E+01  0.51100000000E-03 0. -1.
        -11    1    3    3    0    0 -0.13995525593E+02 -0.17438648113E+02 -0.22623320842E+02  0.31808738278E+02  0.51100000000E-03 0.  1.
         12    1    3    3    0    0  0.59245705513E+01 -0.38582060702E+01 -0.84310554444E+01  0.11003135290E+02  0.00000000000E+00 0. -1.
</event>
<event>
 7    1  0.2492468E-009  0.4778726E+02  0.7816164E-02  0.1312668E+00
        -11   -1    0    0    0    0  0.00000000000E+00  0.00000000000E+00  0.45593999997E+02  0.45594000000E+02  0.51100000000E-03 0. -1.
         11   -1    0    0    0    0 -0.00000000000E+00 -0.00000000000E+00 -0.45593999997E+02  0.45594000000E+02  0.51100000000E-03 0.  1.
    9900012    2    1    2    0    0 -0.23797392881E+02  0.20456877834E+02 -0.29980395409E+02  0.47787264205E+02  0.19999968815E+02 0.  0.
         12    1    1    2    0    0  0.23797392881E+02 -0.20456877834E+02  0.29980395409E+02  0.43400735795E+02  0.00000000000E+00 0. -1.
         11    1    3    3    0    0 -0.15203319850E+01  0.81852718451E+01 -0.58429685762E+01  0.10171055332E+02  0.51100000000E-03 0. -1.
        -11    1    3    3    0    0 -0.18387152205E+01  0.76836721496E+01 -0.63642108494E+01  0.10145090998E+02  0.51100000000E-03 0.  1.
        -12    1    3    3    0    0 -0.20438345676E+02  0.45879338392E+01 -0.17773215984E+02  0.27471117875E+02  0.00000000000E+00 0.  1.
</event>
<event>
 7    1  0.2492468E-009  0.4778727E+02  0.7816164E-02  0.1312668E+00
        -11   -1    0    0    0    0  0.00000000000E+00  0.00000000000E+00  0.45593999997E+02  0.45594000000E+02  0.51100000000E-03 0. -1.
         11   -1    0    0    0    0 -0.00000000000E+00 -0.00000000000E+00 -0.45593999997E+02  0.45594000000E+02  0.51100000000E-03 0.  1.
    9900012    2    1    2    0    0 -0.36851269468E+02  0.22911791700E+02 -0.81052661458E+00  0.47787271737E+02  0.20000003160E+02 0.  0.
         12    1    1    2    0    0  0.36851269468E+02 -0.22911791700E+02  0.81052661458E+00  0.43400728263E+02  0.00000000000E+00 0. -1.
         11    1    3    3    0    0 -0.43409603294E+01  0.58098465948E+01  0.62115733849E+01  0.95489213115E+01  0.51100000000E-03 0. -1.
        -11    1    3    3    0    0 -0.82427268156E+01  0.59008786868E+01  0.13574894972E+01  0.10227692439E+02  0.51100000000E-03 0.  1.
        -12    1    3    3    0    0 -0.24267582323E+02  0.11201066419E+02 -0.83795894967E+01  0.28010657987E+02  0.00000000000E+00 0.  1.
</event>
<event>
 7    1  0.2492468E-009  0.4778728E+02  0.7816164E-02  0.1312668E+00
        -11   -1    0    0    0    0  0.00000000000E+00  0.00000000000E+00  0.45593999997E+02  0.45594000000E+02  0.51100000000E-03 0. -1.
         11   -1    0    0    0    0 -0.00000000000E+00 -0.00000000000E+00 -0.45593999997E+02  0.45594000000E+02  0.51100000000E-03 0.  1.
    9900012    2    1    2    0    0  0.25472102287E+02 -0.26208537478E+02 -0.23407409258E+02  0.47787282957E+02  0.20000054314E+02 0.  0.
         12    1    1    2    0    0 -0.25472102287E+02  0.26208537478E+02  0.23407409258E+02  0.43400717043E+02  0.00000000000E+00 0. -1.
         11    1    3    3    0    0  0.35110806282E+01 -0.27429868812E+01 -0.10675565555E+01  0.45816308743E+01  0.51100000000E-03 0. -1.
        -11    1    3    3    0    0  0.20650204530E+02 -0.23360331451E+02 -0.25179221644E+02  0.40076542209E+02  0.51100000000E-03 0.  1.
         12    1    3    3    0    0  0.13108171293E+01 -0.10521914568E+00  0.28393689410E+01  0.31291098732E+01  0.00000000000E+00 0. -1.
</event>
<event>
 7    1  0.2492468E-009  0.4778727E+02  0.7816164E-02  0.1312668E+00
        -11   -1    0    0    0    0  0.00000000000E+00  0.00000000000E+00  0.45593999997E+02  0.45594000000E+02  0.51100000000E-03 0. -1.
         11   -1    0    0    0    0 -0.00000000000E+00 -0.00000000000E+00 -0.45593999997E+02  0.45594000000E+02  0.51100000000E-03 0.  1.
    9900012    2    1    2    0    0 -0.38476832894E+02 -0.20002896173E+02  0.17437409430E+01  0.47787272387E+02  0.20000006122E+02 0.  0.
         12    1    1    2    0    0  0.38476832894E+02  0.20002896173E+02 -0.17437409430E+01  0.43400727613E+02  0.00000000000E+00 0. -1.
         11    1    3    3    0    0 -0.24104417238E+02 -0.10034142239E+02 -0.45007255632E+01  0.26494593255E+02  0.51100000000E-03 0. -1.
        -11    1    3    3    0    0 -0.15070005460E+02 -0.98696346835E+01  0.33619831225E+01  0.18325329032E+02  0.51100000000E-03 0.  1.
         12    1    3    3    0    0  0.69758980470E+00 -0.99119250313E-01  0.28824833837E+01  0.29673501004E+01  0.00000000000E+00 0. -1.
</event>
<event>
 7    1  0.2492468E-009  0.4778727E+02  0.7816164E-02  0.1312668E+00
        -11   -1    0    0    0    0  0.00000000000E+00  0.00000000000E+00  0.45593999997E+02  0.45594000000E+02  0.51100000000E-03 0. -1.
         11   -1    0    0    0    0 -0.00000000000E+00 -0.00000000000E+00 -0.45593999997E+02  0.45594000000E+02  0.51100000000E-03 0.  1.
    9900012    2    1    2    0    0 -0.41450992667E+02  0.90222098281E+01 -0.91672582916E+01  0.47787266276E+02  0.19999978257E+02 0.  0.
         12    1    1    2    0    0  0.41450992667E+02 -0.90222098281E+01  0.91672582916E+01  0.43400733724E+02  0.00000000000E+00 0. -1.
         11    1    3    3    0    0 -0.71500695978E+01 -0.19183947834E+00  0.19696868098E+01  0.74188923721E+01  0.51100000000E-03 0. -1.
        -11    1    3    3    0    0 -0.13420704303E+02 -0.13556795789E+01  0.18308649034E+01  0.13612686644E+02  0.51100000000E-03 0.  1.
        -12    1    3    3    0    0 -0.20880218766E+02  0.10569728885E+02 -0.12967810005E+02  0.26755687260E+02  0.00000000000E+00 0.  1.
</event>
<event>
 7    1  0.2492468E-009  0.4778727E+02  0.7816164E-02  0.1312668E+00
        -11   -1    0    0    0    0  0.00000000000E+00  0.00000000000E+00  0.45593999997E+02  0.45594000000E+02  0.51100000000E-03 0.  1.
         11   -1    0    0    0    0 -0.00000000000E+00 -0.00000000000E+00 -0.45593999997E+02  0.45594000000E+02  0.51100000000E-03 0. -1.
    9900012    2    1    2    0    0 -0.24774014789E+02 -0.19388887567E+02  0.29898868100E+02  0.47787273238E+02  0.20000010000E+02 0.  0.
         12    1    1    2    0    0  0.24774014789E+02  0.19388887567E+02 -0.29898868100E+02  0.43400726762E+02  0.00000000000E+00 0. -1.
         11    1    3    3    0    0 -0.27499601563E+01 -0.71302477420E+01  0.62804762085E+01  0.98917690728E+01  0.51100000000E-03 0. -1.
        -11    1    3    3    0    0 -0.28771077121E+01 -0.49075018925E+01  0.14257777825E+02  0.15350750873E+02  0.51100000000E-03 0.  1.
         12    1    3    3    0    0 -0.19146946920E+02 -0.73511379325E+01  0.93606140668E+01  0.22544753292E+02  0.00000000000E+00 0. -1.
</event>
<event>
 7    1  0.2492468E-009  0.4778727E+02  0.7816164E-02  0.1312668E+00
        -11   -1    0    0    0    0  0.00000000000E+00  0.00000000000E+00  0.45593999997E+02  0.45594000000E+02  0.51100000000E-03 0. -1.
         11   -1    0    0    0    0 -0.00000000000E+00 -0.00000000000E+00 -0.45593999997E+02  0.45594000000E+02  0.51100000000E-03 0.  1.
    9900012    2    1    2    0    0  0.26742051151E+02  0.12109351850E+02 -0.31966379082E+02  0.47787273121E+02  0.20000009468E+02 0.  0.
         12    1    1    2    0    0 -0.26742051151E+02 -0.12109351850E+02  0.31966379082E+02  0.43400726879E+02  0.00000000000E+00 0. -1.
         11    1    3    3    0    0  0.11883574977E+02  0.55652943934E+01 -0.55001154241E+01  0.14228250977E+02  0.51100000000E-03 0. -1.
        -11    1    3    3    0    0 -0.13876963882E+01  0.36951713797E+01 -0.34465979143E+01  0.52401364710E+01  0.51100000000E-03 0.  1.
        -12    1    3    3    0    0  0.16246172562E+02  0.28488860767E+01 -0.23019665744E+02  0.28318885673E+02  0.00000000000E+00 0.  1.
</event>
<event>
 7    1  0.2492468E-009  0.4778727E+02  0.7816164E-02  0.1312668E+00
        -11   -1    0    0    0    0  0.00000000000E+00  0.00000000000E+00  0.45593999997E+02  0.45594000000E+02  0.51100000000E-03 0.  1.
         11   -1    0    0    0    0 -0.00000000000E+00 -0.00000000000E+00 -0.45593999997E+02  0.45594000000E+02  0.51100000000E-03 0. -1.
    9900012    2    1    2    0    0  0.40537417085E+02 -0.65345468030E+01 -0.14058474528E+02  0.47787271989E+02  0.20000004307E+02 0.  0.
         12    1    1    2    0    0 -0.40537417085E+02  0.65345468030E+01  0.14058474528E+02  0.43400728011E+02  0.00000000000E+00 0. -1.
         11    1    3    3    0    0  0.10011654583E+02  0.36502889581E+01  0.14513993634E+01  0.10754738367E+02  0.51100000000E-03 0. -1.
        -11    1    3    3    0    0  0.61253372986E+01 -0.34788184378E+01  0.54289208975E+00  0.70651728094E+01  0.51100000000E-03 0.  1.
        -12    1    3    3    0    0  0.24400425203E+02 -0.67060173233E+01 -0.16052765981E+02  0.29967360813E+02  0.00000000000E+00 0.  1.
</event>
<event>
 7    1  0.2492468E-009  0.4778727E+02  0.7816164E-02  0.1312668E+00
        -11   -1    0    0    0    0  0.00000000000E+00  0.00000000000E+00  0.45593999997E+02  0.45594000000E+02  0.51100000000E-03 0.  1.
         11   -1    0    0    0    0 -0.00000000000E+00 -0.00000000000E+00 -0.45593999997E+02  0.45594000000E+02  0.51100000000E-03 0. -1.
    9900012    2    1    2    0    0  0.24206632177E+02 -0.20179685308E+02  0.29840281795E+02  0.47787272378E+02  0.20000006080E+02 0.  0.
         12    1    1    2    0    0 -0.24206632177E+02  0.20179685308E+02 -0.29840281795E+02  0.43400727622E+02  0.00000000000E+00 0. -1.
         11    1    3    3    0    0 -0.56126006311E+00 -0.13623474645E+01  0.39616581001E+00  0.15257624594E+01  0.51100000000E-03 0. -1.
        -11    1    3    3    0    0  0.14816216364E+02 -0.14268377739E+01  0.79423754354E+01  0.16871202127E+02  0.51100000000E-03 0.  1.
        -12    1    3    3    0    0  0.99516758757E+01 -0.17390500070E+02  0.21501740550E+02  0.29390307792E+02  0.00000000000E+00 0.  1.
</event>
<event>
 7    1  0.2492468E-009  0.4778727E+02  0.7816164E-02  0.1312668E+00
        -11   -1    0    0    0    0  0.00000000000E+00  0.00000000000E+00  0.45593999997E+02  0.45594000000E+02  0.51100000000E-03 0.  1.
         11   -1    0    0    0    0 -0.00000000000E+00 -0.00000000000E+00 -0.45593999997E+02  0.45594000000E+02  0.51100000000E-03 0. -1.
    9900012    2    1    2    0    0 -0.37933994026E+02 -0.20578476141E+02 -0.46002150501E+01  0.47787267730E+02  0.19999984889E+02 0.  0.
         12    1    1    2    0    0  0.37933994026E+02  0.20578476141E+02  0.46002150501E+01  0.43400732270E+02  0.00000000000E+00 0. -1.
         11    1    3    3    0    0 -0.52686375973E+01  0.16031927706E+01  0.45639891525E+01  0.71525356648E+01  0.51100000000E-03 0. -1.
        -11    1    3    3    0    0 -0.47798701802E+01 -0.25142339723E+01 -0.20554544916E+01  0.57787044254E+01  0.51100000000E-03 0.  1.
         12    1    3    3    0    0 -0.27885486248E+02 -0.19667434939E+02 -0.71087497110E+01  0.34856027640E+02  0.00000000000E+00 0. -1.
</event>
<event>
 7    1  0.2492468E-009  0.4778727E+02  0.7816164E-02  0.1312668E+00
        -11   -1    0    0    0    0  0.00000000000E+00  0.00000000000E+00  0.45593999997E+02  0.45594000000E+02  0.51100000000E-03 0. -1.
         11   -1    0    0    0    0 -0.00000000000E+00 -0.00000000000E+00 -0.45593999997E+02  0.45594000000E+02  0.51100000000E-03 0.  1.
    9900012    2    1    2    0    0  0.30479296688E+02  0.38312444115E-01 -0.30897156358E+02  0.47787271142E+02  0.20000000443E+02 0.  0.
         12    1    1    2    0    0 -0.30479296688E+02 -0.38312444115E-01  0.30897156358E+02  0.43400728858E+02  0.00000000000E+00 0. -1.
         11    1    3    3    0    0  0.10872468787E+02  0.32184903471E+01 -0.15052477076E+02  0.18845326318E+02  0.51100000000E-03 0. -1.
        -11    1    3    3    0    0  0.11634199987E+02  0.48132345443E+01 -0.59319211126E+01  0.13917956907E+02  0.51100000000E-03 0.  1.
         12    1    3    3    0    0  0.79726279151E+01 -0.79934124473E+01 -0.99127581689E+01  0.15023987917E+02  0.00000000000E+00 0. -1.
</event>
<event>
 7    1  0.2492468E-009  0.4778726E+02  0.7816164E-02  0.1312668E+00
        -11   -1    0    0    0    0  0.00000000000E+00  0.00000000000E+00  0.45593999997E+02  0.45594000000E+02  0.51100000000E-03 0.  1.
         11   -1    0    0    0    0 -0.00000000000E+00 -0.00000000000E+00 -0.45593999997E+02  0.45594000000E+02  0.51100000000E-03 0. -1.
    9900012    2    1    2    0    0 -0.18692397156E+02  0.23574589279E+02  0.31280301726E+02  0.47787259831E+02  0.19999948875E+02 0.  0.
         12    1    1    2    0    0  0.18692397156E+02 -0.23574589279E+02 -0.31280301726E+02  0.43400740169E+02  0.00000000000E+00 0. -1.
         11    1    3    3    0    0  0.12809524424E+01 -0.56983923932E+00  0.14601996092E+01  0.20242873013E+01  0.51100000000E-03 0. -1.
        -11    1    3    3    0    0 -0.21462397350E+02  0.17598310492E+02  0.26042491965E+02  0.38059774306E+02  0.51100000000E-03 0.  1.
         12    1    3    3    0    0  0.14890477524E+01  0.65461180257E+01  0.37776101521E+01  0.77031982239E+01  0.00000000000E+00 0. -1.
</event>
<event>
 7    1  0.2492468E-009  0.4778729E+02  0.7816164E-02  0.1312668E+00
        -11   -1    0    0    0    0  0.00000000000E+00  0.00000000000E+00  0.45593999997E+02  0.45594000000E+02  0.51100000000E-03 0.  1.
         11   -1    0    0    0    0 -0.00000000000E+00 -0.00000000000E+00 -0.45593999997E+02  0.45594000000E+02  0.51100000000E-03 0. -1.
    9900012    2    1    2    0    0 -0.21988440694E+02 -0.36610711864E+02  0.77321277605E+01  0.47787290938E+02  0.20000090704E+02 0.  0.
         12    1    1    2    0    0  0.21988440694E+02  0.36610711864E+02 -0.77321277605E+01  0.43400709062E+02  0.00000000000E+00 0. -1.
         11    1    3    3    0    0 -0.30062969566E+01 -0.61287677749E+01 -0.42629513974E+01  0.80481283978E+01  0.51100000000E-03 0. -1.
        -11    1    3    3    0    0  0.49980445680E+00  0.83841275054E+00  0.89205637705E-01  0.98015220360E+00  0.51100000000E-03 0.  1.
        -12    1    3    3    0    0 -0.19481948194E+02 -0.31320356840E+02  0.11905873520E+02  0.38759010337E+02  0.00000000000E+00 0.  1.
</event>
<event>
 7    1  0.2492468E-009  0.4778727E+02  0.7816164E-02  0.1312668E+00
        -11   -1    0    0    0    0  0.00000000000E+00  0.00000000000E+00  0.45593999997E+02  0.45594000000E+02  0.51100000000E-03 0.  1.
         11   -1    0    0    0    0 -0.00000000000E+00 -0.00000000000E+00 -0.45593999997E+02  0.45594000000E+02  0.51100000000E-03 0. -1.
    9900012    2    1    2    0    0 -0.21044448073E+02  0.37392586747E+02 -0.65229564942E+01  0.47787270746E+02  0.19999998641E+02 0.  0.
         12    1    1    2    0    0  0.21044448073E+02 -0.37392586747E+02  0.65229564942E+01  0.43400729254E+02  0.00000000000E+00 0. -1.
         11    1    3    3    0    0 -0.65022417447E+01  0.73206685555E+01  0.41658450360E+01  0.10640751897E+02  0.51100000000E-03 0. -1.
        -11    1    3    3    0    0 -0.55925090340E+01  0.10860203795E+02  0.20973158116E+01  0.12394309890E+02  0.51100000000E-03 0.  1.
         12    1    3    3    0    0 -0.89496972939E+01  0.19211714397E+02 -0.12786117342E+02  0.24752208960E+02  0.00000000000E+00 0. -1.
</event>
<event>
 7    1  0.2492468E-009  0.4778727E+02  0.7816164E-02  0.1312668E+00
        -11   -1    0    0    0    0  0.00000000000E+00  0.00000000000E+00  0.45593999997E+02  0.45594000000E+02  0.51100000000E-03 0. -1.
         11   -1    0    0    0    0 -0.00000000000E+00 -0.00000000000E+00 -0.45593999997E+02  0.45594000000E+02  0.51100000000E-03 0.  1.
    9900012    2    1    2    0    0  0.20046223810E+02  0.20927478744E+02 -0.32308089868E+02  0.47787272741E+02  0.20000007737E+02 0.  0.
         12    1    1    2    0    0 -0.20046223810E+02 -0.20927478744E+02  0.32308089868E+02  0.43400727259E+02  0.00000000000E+00 0. -1.
         11    1    3    3    0    0  0.10517044934E+02  0.12337833293E+02 -0.54245533794E+01  0.17095500699E+02  0.51100000000E-03 0. -1.
        -11    1    3    3    0    0  0.20195955561E+01  0.38336495217E+01 -0.31754103223E+01  0.53720448473E+01  0.51100000000E-03 0.  1.
        -12    1    3    3    0    0  0.75095833200E+01  0.47559959293E+01 -0.23708126167E+02  0.25319727195E+02  0.00000000000E+00 0.  1.
</event>
<event>
 7    1  0.2492468E-009  0.4778727E+02  0.7816164E-02  0.1312668E+00
        -11   -1    0    0    0    0  0.00000000000E+00  0.00000000000E+00  0.45593999997E+02  0.45594000000E+02  0.51100000000E-03 0. -1.
         11   -1    0    0    0    0 -0.00000000000E+00 -0.00000000000E+00 -0.45593999997E+02  0.45594000000E+02  0.51100000000E-03 0.  1.
    9900012    2    1    2    0    0  0.25582995103E+02 -0.27108211073E+02 -0.22232378004E+02  0.47787269848E+02  0.19999994545E+02 0.  0.
         12    1    1    2    0    0 -0.25582995103E+02  0.27108211073E+02  0.22232378004E+02  0.43400730152E+02  0.00000000000E+00 0. -1.
         11    1    3    3    0    0  0.10661681113E+02 -0.54493000037E+01 -0.19781623339E+01  0.12135874141E+02  0.51100000000E-03 0.  1.
        -11    1    3    3    0    0  0.10606917813E+02 -0.54048330071E+01 -0.12054373243E+02  0.16941866481E+02  0.51100000000E-03 0. -1.
         12    1    3    3    0    0  0.43143961769E+01 -0.16254078062E+02 -0.81998424272E+01  0.18709529226E+02  0.00000000000E+00 0. -1.
</event>
<event>
 7    1  0.2492468E-009  0.4778727E+02  0.7816164E-02  0.1312668E+00
        -11   -1    0    0    0    0  0.00000000000E+00  0.00000000000E+00  0.45593999997E+02  0.45594000000E+02  0.51100000000E-03 0. -1.
         11   -1    0    0    0    0 -0.00000000000E+00 -0.00000000000E+00 -0.45593999997E+02  0.45594000000E+02  0.51100000000E-03 0.  1.
    9900012    2    1    2    0    0  0.46610830019E+01 -0.39907890165E+02 -0.16409080758E+02  0.47787270473E+02  0.19999997393E+02 0.  0.
         12    1    1    2    0    0 -0.46610830019E+01  0.39907890165E+02  0.16409080758E+02  0.43400729527E+02  0.00000000000E+00 0. -1.
         11    1    3    3    0    0 -0.17124870310E+01 -0.10258502486E+02 -0.69122376345E+00  0.10423400388E+02  0.51100000000E-03 0. -1.
        -11    1    3    3    0    0 -0.26572974423E+01 -0.20910667484E+02 -0.76191104408E+01  0.22413569294E+02  0.51100000000E-03 0.  1.
        -12    1    3    3    0    0  0.90308674753E+01 -0.87387201947E+01 -0.80987465536E+01  0.14950300791E+02  0.00000000000E+00 0.  1.
</event>
<event>
 7    1  0.2492468E-009  0.4778727E+02  0.7816164E-02  0.1312668E+00
        -11   -1    0    0    0    0  0.00000000000E+00  0.00000000000E+00  0.45593999997E+02  0.45594000000E+02  0.51100000000E-03 0. -1.
         11   -1    0    0    0    0 -0.00000000000E+00 -0.00000000000E+00 -0.45593999997E+02  0.45594000000E+02  0.51100000000E-03 0.  1.
    9900012    2    1    2    0    0  0.34699578307E+02  0.25827684658E+02  0.35345663669E+01  0.47787272024E+02  0.20000004465E+02 0.  0.
         12    1    1    2    0    0 -0.34699578307E+02 -0.25827684658E+02 -0.35345663669E+01  0.43400727976E+02  0.00000000000E+00 0. -1.
         11    1    3    3    0    0 -0.93017478048E+00 -0.56079380093E-02  0.27459447993E+01  0.28992188039E+01  0.51100000000E-03 0. -1.
        -11    1    3    3    0    0  0.60267267086E+01  0.72397367733E+01  0.29285058530E+01  0.98646525615E+01  0.51100000000E-03 0.  1.
        -12    1    3    3    0    0  0.29603026379E+02  0.18593555823E+02 -0.21398842854E+01  0.35023400658E+02  0.00000000000E+00 0.  1.
</event>
<event>
 7    1  0.2492468E-009  0.4778727E+02  0.7816164E-02  0.1312668E+00
        -11   -1    0    0    0    0  0.00000000000E+00  0.00000000000E+00  0.45593999997E+02  0.45594000000E+02  0.51100000000E-03 0. -1.
         11   -1    0    0    0    0 -0.00000000000E+00 -0.00000000000E+00 -0.45593999997E+02  0.45594000000E+02  0.51100000000E-03 0.  1.
    9900012    2    1    2    0    0 -0.18911980897E+02 -0.17349873604E+02 -0.34999177810E+02  0.47787267484E+02  0.19999983767E+02 0.  0.
         12    1    1    2    0    0  0.18911980897E+02  0.17349873604E+02  0.34999177810E+02  0.43400732516E+02  0.00000000000E+00 0. -1.
         11    1    3    3    0    0 -0.56208316636E+01 -0.82779435350E+01 -0.69220998702E+01  0.12166904480E+02  0.51100000000E-03 0. -1.
        -11    1    3    3    0    0  0.14760503269E+01 -0.68237988198E+01 -0.91079461403E+01  0.11475959135E+02  0.51100000000E-03 0.  1.
        -12    1    3    3    0    0 -0.14767199561E+02 -0.22481312492E+01 -0.18969131800E+02  0.24144403869E+02  0.00000000000E+00 0.  1.
</event>
<event>
 7    1  0.2492468E-009  0.4778727E+02  0.7816164E-02  0.1312668E+00
        -11   -1    0    0    0    0  0.00000000000E+00  0.00000000000E+00  0.45593999997E+02  0.45594000000E+02  0.51100000000E-03 0.  1.
         11   -1    0    0    0    0 -0.00000000000E+00 -0.00000000000E+00 -0.45593999997E+02  0.45594000000E+02  0.51100000000E-03 0. -1.
    9900012    2    1    2    0    0 -0.11483635459E+02 -0.27317813815E+02  0.31709408842E+02  0.47787269084E+02  0.19999991061E+02 0.  0.
         12    1    1    2    0    0  0.11483635459E+02  0.27317813815E+02 -0.31709408842E+02  0.43400730916E+02  0.00000000000E+00 0. -1.
         11    1    3    3    0    0  0.88340489776E+00 -0.46619834102E+00  0.76605727443E+00  0.12588046375E+01  0.51100000000E-03 0. -1.
        -11    1    3    3    0    0 -0.10405325969E+02 -0.34216084177E+01  0.71658417430E+01  0.13089213148E+02  0.51100000000E-03 0.  1.
         12    1    3    3    0    0 -0.19617143879E+01 -0.23430007056E+02  0.23777509824E+02  0.33439251299E+02  0.00000000000E+00 0. -1.
</event>
<event>
 7    1  0.2492468E-009  0.4778727E+02  0.7816164E-02  0.1312668E+00
        -11   -1    0    0    0    0  0.00000000000E+00  0.00000000000E+00  0.45593999997E+02  0.45594000000E+02  0.51100000000E-03 0.  1.
         11   -1    0    0    0    0 -0.00000000000E+00 -0.00000000000E+00 -0.45593999997E+02  0.45594000000E+02  0.51100000000E-03 0. -1.
    9900012    2    1    2    0    0 -0.79419199563E+01 -0.18849586927E+02  0.38278485552E+02  0.47787268716E+02  0.19999989382E+02 0.  0.
         12    1    1    2    0    0  0.79419199563E+01  0.18849586927E+02 -0.38278485552E+02  0.43400731284E+02  0.00000000000E+00 0. -1.
         11    1    3    3    0    0 -0.39712218694E+01 -0.98166553343E+01  0.15656820024E+02  0.18901675551E+02  0.51100000000E-03 0. -1.
        -11    1    3    3    0    0  0.42958580841E+01 -0.83120174085E+01  0.93088127449E+01  0.13198409944E+02  0.51100000000E-03 0.  1.
         12    1    3    3    0    0 -0.82665561709E+01 -0.72091418376E+00  0.13312852783E+02  0.15687183221E+02  0.00000000000E+00 0. -1.
</event>
<event>
 7    1  0.2492468E-009  0.4778727E+02  0.7816164E-02  0.1312668E+00
        -11   -1    0    0    0    0  0.00000000000E+00  0.00000000000E+00  0.45593999997E+02  0.45594000000E+02  0.51100000000E-03 0.  1.
         11   -1    0    0    0    0 -0.00000000000E+00 -0.00000000000E+00 -0.45593999997E+02  0.45594000000E+02  0.51100000000E-03 0. -1.
    9900012    2    1    2    0    0  0.15812526478E+02  0.34824148695E+02 -0.20515022900E+02  0.47787268548E+02  0.19999988619E+02 0.  0.
         12    1    1    2    0    0 -0.15812526478E+02 -0.34824148695E+02  0.20515022900E+02  0.43400731452E+02  0.00000000000E+00 0. -1.
         11    1    3    3    0    0  0.68981310096E+01  0.12283100500E+02 -0.82981270710E+01  0.16349852674E+02  0.51100000000E-03 0. -1.
        -11    1    3    3    0    0  0.10799606547E+02  0.19854142371E+02 -0.15006709728E+02  0.27129684996E+02  0.51100000000E-03 0.  1.
         12    1    3    3    0    0 -0.18852110792E+01  0.26869058242E+01  0.27898138994E+01  0.43077308777E+01  0.00000000000E+00 0. -1.
</event>
<event>
 7    1  0.2492468E-009  0.4778727E+02  0.7816164E-02  0.1312668E+00
        -11   -1    0    0    0    0  0.00000000000E+00  0.00000000000E+00  0.45593999997E+02  0.45594000000E+02  0.51100000000E-03 0. -1.
         11   -1    0    0    0    0 -0.00000000000E+00 -0.00000000000E+00 -0.45593999997E+02  0.45594000000E+02  0.51100000000E-03 0.  1.
    9900012    2    1    2    0    0  0.27246930360E+02 -0.33483399688E+02 -0.44821893153E+01  0.47787270862E+02  0.19999999166E+02 0.  0.
         12    1    1    2    0    0 -0.27246930360E+02  0.33483399688E+02  0.44821893153E+01  0.43400729138E+02  0.00000000000E+00 0. -1.
         11    1    3    3    0    0  0.37883811241E+00  0.38566802376E+00  0.24281493500E+01  0.24876027953E+01  0.51100000000E-03 0. -1.
        -11    1    3    3    0    0  0.75188523979E+01 -0.44442615407E+01 -0.49252935705E+01  0.10027119180E+02  0.51100000000E-03 0.  1.
         12    1    3    3    0    0  0.19349239850E+02 -0.29424806171E+02 -0.19850450949E+01  0.35272548887E+02  0.00000000000E+00 0. -1.
</event>
<event>
 7    1  0.2492468E-009  0.4778727E+02  0.7816164E-02  0.1312668E+00
        -11   -1    0    0    0    0  0.00000000000E+00  0.00000000000E+00  0.45593999997E+02  0.45594000000E+02  0.51100000000E-03 0.  1.
         11   -1    0    0    0    0 -0.00000000000E+00 -0.00000000000E+00 -0.45593999997E+02  0.45594000000E+02  0.51100000000E-03 0. -1.
    9900012    2    1    2    0    0 -0.19004749209E+02 -0.34780030687E+02  0.17685932947E+02  0.47787271304E+02  0.20000001186E+02 0.  0.
         12    1    1    2    0    0  0.19004749209E+02  0.34780030687E+02 -0.17685932947E+02  0.43400728696E+02  0.00000000000E+00 0. -1.
         11    1    3    3    0    0 -0.22898359200E+01 -0.67165207610E+01  0.30041717138E+00  0.71024819895E+01  0.51100000000E-03 0. -1.
        -11    1    3    3    0    0 -0.11903131499E+02 -0.49112429845E+01  0.84720611539E+01  0.15413651988E+02  0.51100000000E-03 0.  1.
        -12    1    3    3    0    0 -0.48117817904E+01 -0.23152266942E+02  0.89134546214E+01  0.25271137327E+02  0.00000000000E+00 0.  1.
</event>
<event>
 7    1  0.2492468E-009  0.4778727E+02  0.7816164E-02  0.1312668E+00
        -11   -1    0    0    0    0  0.00000000000E+00  0.00000000000E+00  0.45593999997E+02  0.45594000000E+02  0.51100000000E-03 0.  1.
         11   -1    0    0    0    0 -0.00000000000E+00 -0.00000000000E+00 -0.45593999997E+02  0.45594000000E+02  0.51100000000E-03 0. -1.
    9900012    2    1    2    0    0 -0.28339925808E+02 -0.32466233772E+02 -0.51395942936E+01  0.47787272360E+02  0.20000006000E+02 0.  0.
         12    1    1    2    0    0  0.28339925808E+02  0.32466233772E+02  0.51395942936E+01  0.43400727640E+02  0.00000000000E+00 0. -1.
         11    1    3    3    0    0 -0.69004448778E+01 -0.15610681122E+02  0.43819400974E+01  0.17621319584E+02  0.51100000000E-03 0. -1.
        -11    1    3    3    0    0 -0.14240266794E+01 -0.12317810152E+01  0.15759944500E+01  0.24553808708E+01  0.51100000000E-03 0.  1.
        -12    1    3    3    0    0 -0.20015454251E+02 -0.15623771635E+02 -0.11097528841E+02  0.27710571906E+02  0.00000000000E+00 0.  1.
</event>
<event>
 7    1  0.2492468E-009  0.4778727E+02  0.7816164E-02  0.1312668E+00
        -11   -1    0    0    0    0  0.00000000000E+00  0.00000000000E+00  0.45593999997E+02  0.45594000000E+02  0.51100000000E-03 0. -1.
         11   -1    0    0    0    0 -0.00000000000E+00 -0.00000000000E+00 -0.45593999997E+02  0.45594000000E+02  0.51100000000E-03 0.  1.
    9900012    2    1    2    0    0 -0.35109592873E+02  0.27269532527E+01 -0.25367365978E+02  0.47787273711E+02  0.20000012158E+02 0.  0.
         12    1    1    2    0    0  0.35109592873E+02 -0.27269532527E+01  0.25367365978E+02  0.43400726289E+02  0.00000000000E+00 0. -1.
         11    1    3    3    0    0 -0.60992148208E+01  0.34131126553E+01 -0.81209589922E+01  0.10714463806E+02  0.51100000000E-03 0. -1.
        -11    1    3    3    0    0 -0.22124489342E+02  0.54744389974E+01 -0.15771149911E+02  0.27716271047E+02  0.51100000000E-03 0.  1.
         12    1    3    3    0    0 -0.68858887104E+01 -0.61605984000E+01 -0.14752570755E+01  0.93565388589E+01  0.00000000000E+00 0. -1.
</event>
<event>
 7    1  0.2492468E-009  0.4778727E+02  0.7816164E-02  0.1312668E+00
        -11   -1    0    0    0    0  0.00000000000E+00  0.00000000000E+00  0.45593999997E+02  0.45594000000E+02  0.51100000000E-03 0. -1.
         11   -1    0    0    0    0 -0.00000000000E+00 -0.00000000000E+00 -0.45593999997E+02  0.45594000000E+02  0.51100000000E-03 0.  1.
    9900012    2    1    2    0    0 -0.37951670475E+02  0.17500061062E+02 -0.11706482948E+02  0.47787272218E+02  0.20000005349E+02 0.  0.
         12    1    1    2    0    0  0.37951670475E+02 -0.17500061062E+02  0.11706482948E+02  0.43400727782E+02  0.00000000000E+00 0. -1.
         11    1    3    3    0    0 -0.11049347078E+02  0.89870364660E+01 -0.12521701556E+01  0.14297651053E+02  0.51100000000E-03 0. -1.
        -11    1    3    3    0    0 -0.13794388582E+02  0.11960667158E+02 -0.57170824441E+01  0.19131851639E+02  0.51100000000E-03 0.  1.
         12    1    3    3    0    0 -0.13107934816E+02 -0.34476425618E+01 -0.47372303479E+01  0.14357769525E+02  0.00000000000E+00 0. -1.
</event>
<event>
 7    1  0.2492468E-009  0.4778725E+02  0.7816164E-02  0.1312668E+00
        -11   -1    0    0    0    0  0.00000000000E+00  0.00000000000E+00  0.45593999997E+02  0.45594000000E+02  0.51100000000E-03 0.  1.
         11   -1    0    0    0    0 -0.00000000000E+00 -0.00000000000E+00 -0.45593999997E+02  0.45594000000E+02  0.51100000000E-03 0. -1.
    9900012    2    1    2    0    0  0.19366947226E+02  0.35578129888E+02  0.15580204080E+02  0.47787254265E+02  0.19999923496E+02 0.  0.
         12    1    1    2    0    0 -0.19366947226E+02 -0.35578129888E+02 -0.15580204080E+02  0.43400745735E+02  0.00000000000E+00 0. -1.
         11    1    3    3    0    0  0.16038927667E+02  0.21794853836E+02  0.86780679868E+01  0.28417806367E+02  0.51100000000E-03 0. -1.
        -11    1    3    3    0    0  0.58100130057E+01  0.69060221313E+01  0.78950902098E+01  0.11990906658E+02  0.51100000000E-03 0.  1.
         12    1    3    3    0    0 -0.24819934471E+01  0.68772539200E+01 -0.99295411616E+00  0.73785412398E+01  0.00000000000E+00 0. -1.
</event>
<event>
 7    1  0.2492468E-009  0.4778727E+02  0.7816164E-02  0.1312668E+00
        -11   -1    0    0    0    0  0.00000000000E+00  0.00000000000E+00  0.45593999997E+02  0.45594000000E+02  0.51100000000E-03 0.  1.
         11   -1    0    0    0    0 -0.00000000000E+00 -0.00000000000E+00 -0.45593999997E+02  0.45594000000E+02  0.51100000000E-03 0. -1.
    9900012    2    1    2    0    0  0.39861819290E+01  0.37884954594E+02  0.20795766243E+02  0.47787270460E+02  0.19999997336E+02 0.  0.
         12    1    1    2    0    0 -0.39861819290E+01 -0.37884954594E+02 -0.20795766243E+02  0.43400729540E+02  0.00000000000E+00 0. -1.
         11    1    3    3    0    0  0.11983968646E+01  0.29535448352E+01  0.63892989690E+01  0.71402187442E+01  0.51100000000E-03 0. -1.
        -11    1    3    3    0    0 -0.48080643246E+01  0.74614390809E+01  0.38713387779E+00  0.88848426327E+01  0.51100000000E-03 0.  1.
        -12    1    3    3    0    0  0.75958493890E+01  0.27469970678E+02  0.14019333396E+02  0.31762209083E+02  0.00000000000E+00 0.  1.
</event>
<event>
 7    1  0.2492468E-009  0.4778727E+02  0.7816164E-02  0.1312668E+00
        -11   -1    0    0    0    0  0.00000000000E+00  0.00000000000E+00  0.45593999997E+02  0.45594000000E+02  0.51100000000E-03 0.  1.
         11   -1    0    0    0    0 -0.00000000000E+00 -0.00000000000E+00 -0.45593999997E+02  0.45594000000E+02  0.51100000000E-03 0. -1.
    9900012    2    1    2    0    0 -0.20498656303E+02  0.37133834704E+02  0.91927411430E+01  0.47787273280E+02  0.20000010194E+02 0.  0.
         12    1    1    2    0    0  0.20498656303E+02 -0.37133834704E+02 -0.91927411430E+01  0.43400726720E+02  0.00000000000E+00 0. -1.
         11    1    3    3    0    0 -0.12460263219E+02  0.12501189910E+02  0.54670551632E+01  0.18477732574E+02  0.51100000000E-03 0. -1.
        -11    1    3    3    0    0 -0.11383649986E+02  0.21938678020E+02  0.24966871621E+01  0.24842031465E+02  0.51100000000E-03 0.  1.
         12    1    3    3    0    0  0.33452569023E+01  0.26939667741E+01  0.12289988177E+01  0.44675092407E+01  0.00000000000E+00 0. -1.
</event>
<event>
 7    1  0.2492468E-009  0.4778727E+02  0.7816164E-02  0.1312668E+00
        -11   -1    0    0    0    0  0.00000000000E+00  0.00000000000E+00  0.45593999997E+02  0.45594000000E+02  0.51100000000E-03 0.  1.
         11   -1    0    0    0    0 -0.00000000000E+00 -0.00000000000E+00 -0.45593999997E+02  0.45594000000E+02  0.51100000000E-03 0. -1.
    9900012    2    1    2    0    0 -0.41614357152E+02  0.46241004914E+01  0.11423067038E+02  0.47787268588E+02  0.19999988799E+02 0.  0.
         12    1    1    2    0    0  0.41614357152E+02 -0.46241004914E+01 -0.11423067038E+02  0.43400731412E+02  0.00000000000E+00 0. -1.
         11    1    3    3    0    0 -0.12350641216E+02 -0.60529526918E+01 -0.15990077126E+01  0.13846783044E+02  0.51100000000E-03 0. -1.
        -11    1    3    3    0    0 -0.61206092059E+01  0.21474847341E+01  0.42843476823E+01  0.77736209747E+01  0.51100000000E-03 0.  1.
         12    1    3    3    0    0 -0.23143106730E+02  0.85295684491E+01  0.87377270686E+01  0.26166864569E+02  0.00000000000E+00 0. -1.
</event>
<event>
 7    1  0.2492468E-009  0.4778727E+02  0.7816164E-02  0.1312668E+00
        -11   -1    0    0    0    0  0.00000000000E+00  0.00000000000E+00  0.45593999997E+02  0.45594000000E+02  0.51100000000E-03 0.  1.
         11   -1    0    0    0    0 -0.00000000000E+00 -0.00000000000E+00 -0.45593999997E+02  0.45594000000E+02  0.51100000000E-03 0. -1.
    9900012    2    1    2    0    0  0.20505475723E+02 -0.12189472336E+02  0.36256936979E+02  0.47787271325E+02  0.20000001279E+02 0.  0.
         12    1    1    2    0    0 -0.20505475723E+02  0.12189472336E+02 -0.36256936979E+02  0.43400728675E+02  0.00000000000E+00 0. -1.
         11    1    3    3    0    0 -0.39518785379E+00 -0.88244796062E+00 -0.42233038410E+00  0.10551071308E+01  0.51100000000E-03 0. -1.
        -11    1    3    3    0    0  0.70875092143E+01 -0.11138089285E+02  0.95685038832E+01  0.16304787229E+02  0.51100000000E-03 0.  1.
         12    1    3    3    0    0  0.13813154362E+02 -0.16893509069E+00  0.27110763480E+02  0.30427376965E+02  0.00000000000E+00 0. -1.
</event>
<event>
 7    1  0.2492468E-009  0.4778727E+02  0.7816164E-02  0.1312668E+00
        -11   -1    0    0    0    0  0.00000000000E+00  0.00000000000E+00  0.45593999997E+02  0.45594000000E+02  0.51100000000E-03 0.  1.
         11   -1    0    0    0    0 -0.00000000000E+00 -0.00000000000E+00 -0.45593999997E+02  0.45594000000E+02  0.51100000000E-03 0. -1.
    9900012    2    1    2    0    0  0.40991495582E+02 -0.28512133400E+01 -0.13971086948E+02  0.47787269614E+02  0.19999993478E+02 0.  0.
         12    1    1    2    0    0 -0.40991495582E+02  0.28512133400E+01  0.13971086948E+02  0.43400730386E+02  0.00000000000E+00 0. -1.
         11    1    3    3    0    0  0.13103070025E+02  0.43512350858E+01 -0.21973613276E+00  0.13808402336E+02  0.51100000000E-03 0. -1.
        -11    1    3    3    0    0  0.92945989997E+01 -0.26420986396E+01  0.11325406272E+01  0.97289724185E+01  0.51100000000E-03 0.  1.
         12    1    3    3    0    0  0.18593826557E+02 -0.45603497863E+01 -0.14883891443E+02  0.24249894859E+02  0.00000000000E+00 0. -1.
</event>
<event>
 7    1  0.2492468E-009  0.4778727E+02  0.7816164E-02  0.1312668E+00
        -11   -1    0    0    0    0  0.00000000000E+00  0.00000000000E+00  0.45593999997E+02  0.45594000000E+02  0.51100000000E-03 0. -1.
         11   -1    0    0    0    0 -0.00000000000E+00 -0.00000000000E+00 -0.45593999997E+02  0.45594000000E+02  0.51100000000E-03 0.  1.
    9900012    2    1    2    0    0 -0.38142047149E+02 -0.79228926167E+01  0.19132055863E+02  0.47787267867E+02  0.19999985514E+02 0.  0.
         12    1    1    2    0    0  0.38142047149E+02  0.79228926167E+01 -0.19132055863E+02  0.43400732133E+02  0.00000000000E+00 0. -1.
         11    1    3    3    0    0 -0.24411645453E+01  0.29126589581E+01  0.56620127366E+01  0.68191828714E+01  0.51100000000E-03 0. -1.
        -11    1    3    3    0    0 -0.12552500451E+01 -0.95250581181E+00  0.33957437395E+01  0.37435271874E+01  0.51100000000E-03 0.  1.
        -12    1    3    3    0    0 -0.34445632559E+02 -0.98830457629E+01  0.10074299387E+02  0.37224557809E+02  0.00000000000E+00 0.  1.
</event>
<event>
 7    1  0.2492468E-009  0.4778727E+02  0.7816164E-02  0.1312668E+00
        -11   -1    0    0    0    0  0.00000000000E+00  0.00000000000E+00  0.45593999997E+02  0.45594000000E+02  0.51100000000E-03 0.  1.
         11   -1    0    0    0    0 -0.00000000000E+00 -0.00000000000E+00 -0.45593999997E+02  0.45594000000E+02  0.51100000000E-03 0. -1.
    9900012    2    1    2    0    0 -0.34328469253E+02  0.25745980236E+02  0.65057014037E+01  0.47787269012E+02  0.19999990732E+02 0.  0.
         12    1    1    2    0    0  0.34328469253E+02 -0.25745980236E+02 -0.65057014037E+01  0.43400730988E+02  0.00000000000E+00 0. -1.
         11    1    3    3    0    0 -0.11858729514E+02  0.19538521023E+01  0.25713183705E+01  0.12290593238E+02  0.51100000000E-03 0. -1.
        -11    1    3    3    0    0 -0.15747711183E+02  0.20647775901E+02  0.78203592674E+01  0.27119717485E+02  0.51100000000E-03 0.  1.
         12    1    3    3    0    0 -0.67220285565E+01  0.31443522329E+01 -0.38859762341E+01  0.83769582887E+01  0.00000000000E+00 0. -1.
</event>
<event>
 7    1  0.2492468E-009  0.4778727E+02  0.7816164E-02  0.1312668E+00
        -11   -1    0    0    0    0  0.00000000000E+00  0.00000000000E+00  0.45593999997E+02  0.45594000000E+02  0.51100000000E-03 0. -1.
         11   -1    0    0    0    0 -0.00000000000E+00 -0.00000000000E+00 -0.45593999997E+02  0.45594000000E+02  0.51100000000E-03 0.  1.
    9900012    2    1    2    0    0 -0.31307108125E+02  0.98319437010E+01 -0.28404605556E+02  0.47787265525E+02  0.19999974837E+02 0.  0.
         12    1    1    2    0    0  0.31307108125E+02 -0.98319437010E+01  0.28404605556E+02  0.43400734475E+02  0.00000000000E+00 0. -1.
         11    1    3    3    0    0 -0.24661624164E+01 -0.10285356201E+01 -0.35907128901E+01  0.44758308621E+01  0.51100000000E-03 0. -1.
        -11    1    3    3    0    0 -0.29196981277E+02  0.49951596797E+01 -0.20843117374E+02  0.36219482023E+02  0.51100000000E-03 0.  1.
        -12    1    3    3    0    0  0.35603556826E+00  0.58653196415E+01 -0.39707752926E+01  0.70919526399E+01  0.00000000000E+00 0.  1.
</event>
<event>
 7    1  0.2492468E-009  0.4778728E+02  0.7816164E-02  0.1312668E+00
        -11   -1    0    0    0    0  0.00000000000E+00  0.00000000000E+00  0.45593999997E+02  0.45594000000E+02  0.51100000000E-03 0.  1.
         11   -1    0    0    0    0 -0.00000000000E+00 -0.00000000000E+00 -0.45593999997E+02  0.45594000000E+02  0.51100000000E-03 0. -1.
    9900012    2    1    2    0    0 -0.13573991989E+02  0.26501347986E+02  0.31576058829E+02  0.47787283477E+02  0.20000056684E+02 0.  0.
         12    1    1    2    0    0  0.13573991989E+02 -0.26501347986E+02 -0.31576058829E+02  0.43400716523E+02  0.00000000000E+00 0. -1.
         11    1    3    3    0    0 -0.12697503788E+01 -0.31679547615E+00  0.73659825531E+00  0.15017332150E+01  0.51100000000E-03 0. -1.
        -11    1    3    3    0    0 -0.66297387126E+01  0.26026595087E+02  0.30361983345E+02  0.40536244524E+02  0.51100000000E-03 0.  1.
        -12    1    3    3    0    0 -0.56745028975E+01  0.79154837506E+00  0.47747722882E+00  0.57493057379E+01  0.00000000000E+00 0.  1.
</event>
<event>
 7    1  0.2492468E-009  0.4778726E+02  0.7816164E-02  0.1312668E+00
        -11   -1    0    0    0    0  0.00000000000E+00  0.00000000000E+00  0.45593999997E+02  0.45594000000E+02  0.51100000000E-03 0.  1.
         11   -1    0    0    0    0 -0.00000000000E+00 -0.00000000000E+00 -0.45593999997E+02  0.45594000000E+02  0.51100000000E-03 0. -1.
    9900012    2    1    2    0    0 -0.27808565577E+02 -0.15253679583E+00  0.33320931401E+02  0.47787262030E+02  0.19999958900E+02 0.  0.
         12    1    1    2    0    0  0.27808565577E+02  0.15253679583E+00 -0.33320931401E+02  0.43400737970E+02  0.00000000000E+00 0. -1.
         11    1    3    3    0    0 -0.11369562902E+02 -0.12857788111E+01  0.10776645609E+02  0.15718024003E+02  0.51100000000E-03 0. -1.
        -11    1    3    3    0    0 -0.15895578212E+02 -0.12196283454E+01  0.24314603734E+02  0.29075021152E+02  0.51100000000E-03 0.  1.
         12    1    3    3    0    0 -0.54342446363E+00  0.23528703606E+01 -0.17703179416E+01  0.29942168752E+01  0.00000000000E+00 0. -1.
</event>
<event>
 7    1  0.2492468E-009  0.4778727E+02  0.7816164E-02  0.1312668E+00
        -11   -1    0    0    0    0  0.00000000000E+00  0.00000000000E+00  0.45593999997E+02  0.45594000000E+02  0.51100000000E-03 0.  1.
         11   -1    0    0    0    0 -0.00000000000E+00 -0.00000000000E+00 -0.45593999997E+02  0.45594000000E+02  0.51100000000E-03 0. -1.
    9900012    2    1    2    0    0  0.17757370701E+02 -0.18196608329E+02  0.35173603021E+02  0.47787272836E+02  0.20000008166E+02 0.  0.
         12    1    1    2    0    0 -0.17757370701E+02  0.18196608329E+02 -0.35173603021E+02  0.43400727164E+02  0.00000000000E+00 0. -1.
         11    1    3    3    0    0  0.58341633687E+01  0.63365387253E+00  0.30952444511E+01  0.66347206358E+01  0.51100000000E-03 0.  1.
        -11    1    3    3    0    0  0.12237948077E+02 -0.20216279531E+02  0.27010541623E+02  0.35889200189E+02  0.51100000000E-03 0. -1.
         12    1    3    3    0    0 -0.31474074523E+00  0.13860173289E+01  0.50678169473E+01  0.52633520103E+01  0.00000000000E+00 0. -1.
</event>
<event>
 7    1  0.2492468E-009  0.4778727E+02  0.7816164E-02  0.1312668E+00
        -11   -1    0    0    0    0  0.00000000000E+00  0.00000000000E+00  0.45593999997E+02  0.45594000000E+02  0.51100000000E-03 0.  1.
         11   -1    0    0    0    0 -0.00000000000E+00 -0.00000000000E+00 -0.45593999997E+02  0.45594000000E+02  0.51100000000E-03 0. -1.
    9900012    2    1    2    0    0 -0.20193484659E+01  0.37110221511E+02 -0.22413760013E+02  0.47787274813E+02  0.20000017183E+02 0.  0.
         12    1    1    2    0    0  0.20193484659E+01 -0.37110221511E+02  0.22413760013E+02  0.43400725187E+02  0.00000000000E+00 0. -1.
         11    1    3    3    0    0 -0.34492124936E+01  0.16243778775E+02 -0.12831821292E+02  0.20986020434E+02  0.51100000000E-03 0. -1.
        -11    1    3    3    0    0 -0.56936964577E+01  0.12316330194E+02 -0.30855984181E+01  0.13915138758E+02  0.51100000000E-03 0.  1.
        -12    1    3    3    0    0  0.71235604855E+01  0.85501125422E+01 -0.64963403030E+01  0.12886115621E+02  0.00000000000E+00 0.  1.
</event>
<event>
 7    1  0.2492468E-009  0.4778727E+02  0.7816164E-02  0.1312668E+00
        -11   -1    0    0    0    0  0.00000000000E+00  0.00000000000E+00  0.45593999997E+02  0.45594000000E+02  0.51100000000E-03 0.  1.
         11   -1    0    0    0    0 -0.00000000000E+00 -0.00000000000E+00 -0.45593999997E+02  0.45594000000E+02  0.51100000000E-03 0. -1.
    9900012    2    1    2    0    0  0.25186031621E+01 -0.42751791563E+02 -0.70401847770E+01  0.47787271372E+02  0.20000001492E+02 0.  0.
         12    1    1    2    0    0 -0.25186031621E+01  0.42751791563E+02  0.70401847770E+01  0.43400728628E+02  0.00000000000E+00 0. -1.
         11    1    3    3    0    0 -0.15838272170E+01 -0.27526918915E+02 -0.69356154894E+01  0.28431365358E+02  0.51100000000E-03 0. -1.
        -11    1    3    3    0    0  0.68766231100E+01 -0.13537999035E+02  0.22432254387E+01  0.15349183167E+02  0.51100000000E-03 0.  1.
         12    1    3    3    0    0 -0.27741927309E+01 -0.16868736132E+01 -0.23477947263E+01  0.40067228469E+01  0.00000000000E+00 0. -1.
</event>
<event>
 7    1  0.2492468E-009  0.4778727E+02  0.7816164E-02  0.1312668E+00
        -11   -1    0    0    0    0  0.00000000000E+00  0.00000000000E+00  0.45593999997E+02  0.45594000000E+02  0.51100000000E-03 0. -1.
         11   -1    0    0    0    0 -0.00000000000E+00 -0.00000000000E+00 -0.45593999997E+02  0.45594000000E+02  0.51100000000E-03 0.  1.
    9900012    2    1    2    0    0  0.40256484109E+02  0.28451150444E+01 -0.15966962125E+02  0.47787273371E+02  0.20000010609E+02 0.  0.
         12    1    1    2    0    0 -0.40256484109E+02 -0.28451150444E+01  0.15966962125E+02  0.43400726629E+02  0.00000000000E+00 0. -1.
         11    1    3    3    0    0  0.18515933573E+02  0.38118922318E+01 -0.87530832682E+01  0.20832349493E+02  0.51100000000E-03 0.  1.
        -11    1    3    3    0    0  0.93172421881E+01 -0.22170645124E+01 -0.10329164273E+02  0.14086092854E+02  0.51100000000E-03 0. -1.
         12    1    3    3    0    0  0.12423308348E+02  0.12502873250E+01  0.31152854161E+01  0.12868831024E+02  0.00000000000E+00 0. -1.
</event>
<event>
 7    1  0.2492468E-009  0.4778727E+02  0.7816164E-02  0.1312668E+00
        -11   -1    0    0    0    0  0.00000000000E+00  0.00000000000E+00  0.45593999997E+02  0.45594000000E+02  0.51100000000E-03 0. -1.
         11   -1    0    0    0    0 -0.00000000000E+00 -0.00000000000E+00 -0.45593999997E+02  0.45594000000E+02  0.51100000000E-03 0.  1.
    9900012    2    1    2    0    0  0.35903613184E+02  0.14888953583E+02 -0.19309920128E+02  0.47787269663E+02  0.19999993701E+02 0.  0.
         12    1    1    2    0    0 -0.35903613184E+02 -0.14888953583E+02  0.19309920128E+02  0.43400730337E+02  0.00000000000E+00 0. -1.
         11    1    3    3    0    0  0.24023962801E+02  0.86323741849E+01 -0.13022635061E+02  0.28657594054E+02  0.51100000000E-03 0. -1.
        -11    1    3    3    0    0  0.80229425982E+01  0.33987499086E+01 -0.98508400217E+01  0.13151355758E+02  0.51100000000E-03 0.  1.
         12    1    3    3    0    0  0.38567077843E+01  0.28578294895E+01  0.35635549552E+01  0.59783198512E+01  0.00000000000E+00 0. -1.
</event>
<event>
 7    1  0.2492468E-009  0.4778727E+02  0.7816164E-02  0.1312668E+00
        -11   -1    0    0    0    0  0.00000000000E+00  0.00000000000E+00  0.45593999997E+02  0.45594000000E+02  0.51100000000E-03 0.  1.
         11   -1    0    0    0    0 -0.00000000000E+00 -0.00000000000E+00 -0.45593999997E+02  0.45594000000E+02  0.51100000000E-03 0. -1.
    9900012    2    1    2    0    0  0.94561028187E+01 -0.39552529540E+02  0.15159246780E+02  0.47787271476E+02  0.20000001966E+02 0.  0.
         12    1    1    2    0    0 -0.94561028187E+01  0.39552529540E+02 -0.15159246780E+02  0.43400728524E+02  0.00000000000E+00 0. -1.
         11    1    3    3    0    0  0.10462113863E+01 -0.48099895801E+00  0.36501270034E+01  0.38274463633E+01  0.51100000000E-03 0. -1.
        -11    1    3    3    0    0  0.40608201815E+01 -0.12471851643E+02  0.10811673813E+02  0.16997930311E+02  0.51100000000E-03 0.  1.
         12    1    3    3    0    0  0.43490712509E+01 -0.26599678939E+02  0.69744596317E+00  0.26961894801E+02  0.00000000000E+00 0. -1.
</event>
<event>
 7    1  0.2492468E-009  0.4778727E+02  0.7816164E-02  0.1312668E+00
        -11   -1    0    0    0    0  0.00000000000E+00  0.00000000000E+00  0.45593999997E+02  0.45594000000E+02  0.51100000000E-03 0.  1.
         11   -1    0    0    0    0 -0.00000000000E+00 -0.00000000000E+00 -0.45593999997E+02  0.45594000000E+02  0.51100000000E-03 0. -1.
    9900012    2    1    2    0    0 -0.33153712633E+02 -0.85256775053E+01  0.26678965394E+02  0.47787273822E+02  0.20000012666E+02 0.  0.
         12    1    1    2    0    0  0.33153712633E+02  0.85256775053E+01 -0.26678965394E+02  0.43400726178E+02  0.00000000000E+00 0. -1.
         11    1    3    3    0    0 -0.76195727530E+01 -0.45786810348E+01  0.54773015090E+00  0.89063021247E+01  0.51100000000E-03 0. -1.
        -11    1    3    3    0    0 -0.64428934905E+01 -0.69305272337E+01  0.89227922255E+01  0.13006125696E+02  0.51100000000E-03 0.  1.
         12    1    3    3    0    0 -0.19091246389E+02  0.29835307633E+01  0.17208443017E+02  0.25874846001E+02  0.00000000000E+00 0. -1.
</event>
<event>
 7    1  0.2492468E-009  0.4778727E+02  0.7816164E-02  0.1312668E+00
        -11   -1    0    0    0    0  0.00000000000E+00  0.00000000000E+00  0.45593999997E+02  0.45594000000E+02  0.51100000000E-03 0.  1.
         11   -1    0    0    0    0 -0.00000000000E+00 -0.00000000000E+00 -0.45593999997E+02  0.45594000000E+02  0.51100000000E-03 0. -1.
    9900012    2    1    2    0    0  0.15994487886E+02 -0.11475097135E+02  0.38679731030E+02  0.47787273168E+02  0.20000009684E+02 0.  0.
         12    1    1    2    0    0 -0.15994487886E+02  0.11475097135E+02 -0.38679731030E+02  0.43400726832E+02  0.00000000000E+00 0. -1.
         11    1    3    3    0    0  0.36411334123E+00 -0.61798430828E+01  0.30739203406E+01  0.69117310114E+01  0.51100000000E-03 0. -1.
        -11    1    3    3    0    0  0.40721863264E+01 -0.26305262228E+01  0.20113983404E+01  0.52486277474E+01  0.51100000000E-03 0.  1.
        -12    1    3    3    0    0  0.11558188219E+02 -0.26647278289E+01  0.33594412349E+02  0.35626914410E+02  0.00000000000E+00 0.  1.
</event>
<event>
 7    1  0.2492468E-009  0.4778725E+02  0.7816164E-02  0.1312668E+00
        -11   -1    0    0    0    0  0.00000000000E+00  0.00000000000E+00  0.45593999997E+02  0.45594000000E+02  0.51100000000E-03 0. -1.
         11   -1    0    0    0    0 -0.00000000000E+00 -0.00000000000E+00 -0.45593999997E+02  0.45594000000E+02  0.51100000000E-03 0.  1.
    9900012    2    1    2    0    0  0.39683180560E+01  0.18265052551E+02 -0.39169694998E+02  0.47787254625E+02  0.19999925137E+02 0.  0.
         12    1    1    2    0    0 -0.39683180560E+01 -0.18265052551E+02  0.39169694998E+02  0.43400745375E+02  0.00000000000E+00 0. -1.
         11    1    3    3    0    0  0.10666001718E+02  0.79662463647E+01 -0.22545473939E+02  0.26182495473E+02  0.51100000000E-03 0. -1.
        -11    1    3    3    0    0 -0.65708328337E-01  0.26099646842E+01 -0.67330705628E+00  0.26962151046E+01  0.51100000000E-03 0.  1.
        -12    1    3    3    0    0 -0.66319753340E+01  0.76888415016E+01 -0.15950914003E+02  0.18908544047E+02  0.00000000000E+00 0.  1.
</event>
<event>
 7    1  0.2492468E-009  0.4778727E+02  0.7816164E-02  0.1312668E+00
        -11   -1    0    0    0    0  0.00000000000E+00  0.00000000000E+00  0.45593999997E+02  0.45594000000E+02  0.51100000000E-03 0.  1.
         11   -1    0    0    0    0 -0.00000000000E+00 -0.00000000000E+00 -0.45593999997E+02  0.45594000000E+02  0.51100000000E-03 0. -1.
    9900012    2    1    2    0    0  0.17192171691E+02 -0.80939833446E+01  0.39019738668E+02  0.47787270288E+02  0.19999996549E+02 0.  0.
         12    1    1    2    0    0 -0.17192171691E+02  0.80939833446E+01 -0.39019738668E+02  0.43400729712E+02  0.00000000000E+00 0. -1.
         11    1    3    3    0    0 -0.19827031467E+01  0.39557851746E+00  0.30391493397E+01  0.36502086381E+01  0.51100000000E-03 0. -1.
        -11    1    3    3    0    0  0.82558543578E+01  0.26582877272E+01  0.20008889621E+02  0.21807826324E+02  0.51100000000E-03 0.  1.
         12    1    3    3    0    0  0.10919020480E+02 -0.11147849589E+02  0.15971699707E+02  0.22329235326E+02  0.00000000000E+00 0. -1.
</event>
<event>
 7    1  0.2592528E-009  0.4778727E+02  0.7816164E-02  0.1312668E+00
        -11   -1    0    0    0    0  0.00000000000E+00  0.00000000000E+00  0.45593999997E+02  0.45594000000E+02  0.51100000000E-03 0.  1.
         11   -1    0    0    0    0 -0.00000000000E+00 -0.00000000000E+00 -0.45593999997E+02  0.45594000000E+02  0.51100000000E-03 0. -1.
    9900012    2    1    2    0    0 -0.43086702241E+02  0.41022749970E+01 -0.32141566802E+01  0.47787269899E+02  0.19999994779E+02 0.  0.
         12    1    1    2    0    0  0.43086702241E+02 -0.41022749970E+01  0.32141566802E+01  0.43400730101E+02  0.00000000000E+00 0. -1.
         11    1    3    3    0    0 -0.87657916040E+01 -0.43070795500E+01 -0.63475295821E+00  0.97873872036E+01  0.51100000000E-03 0. -1.
        -11    1    3    3    0    0 -0.30415301354E+02  0.35490569438E+01  0.13125971556E+01  0.30649784227E+02  0.51100000000E-03 0.  1.
         12    1    3    3    0    0 -0.39056092828E+01  0.48602976032E+01 -0.38920008776E+01  0.73500984683E+01  0.00000000000E+00 0. -1.
</event>
<event>
 7    1  0.2492468E-009  0.4778727E+02  0.7816164E-02  0.1312668E+00
        -11   -1    0    0    0    0  0.00000000000E+00  0.00000000000E+00  0.45593999997E+02  0.45594000000E+02  0.51100000000E-03 0. -1.
         11   -1    0    0    0    0 -0.00000000000E+00 -0.00000000000E+00 -0.45593999997E+02  0.45594000000E+02  0.51100000000E-03 0.  1.
    9900012    2    1    2    0    0 -0.40311289067E+02  0.79150906382E+01 -0.13999093518E+02  0.47787270681E+02  0.19999998345E+02 0.  0.
         12    1    1    2    0    0  0.40311289067E+02 -0.79150906382E+01  0.13999093518E+02  0.43400729319E+02  0.00000000000E+00 0. -1.
         11    1    3    3    0    0 -0.11418269346E+02  0.56132550810E+00  0.26948418068E+01  0.11745387767E+02  0.51100000000E-03 0. -1.
        -11    1    3    3    0    0 -0.11563709895E+02  0.80160081423E+01 -0.42535095518E+01  0.14699255656E+02  0.51100000000E-03 0.  1.
        -12    1    3    3    0    0 -0.17329309826E+02 -0.66224301217E+00 -0.12440425773E+02  0.21342627258E+02  0.00000000000E+00 0.  1.
</event>
<event>
 7    1  0.2492468E-009  0.4778727E+02  0.7816164E-02  0.1312668E+00
        -11   -1    0    0    0    0  0.00000000000E+00  0.00000000000E+00  0.45593999997E+02  0.45594000000E+02  0.51100000000E-03 0.  1.
         11   -1    0    0    0    0 -0.00000000000E+00 -0.00000000000E+00 -0.45593999997E+02  0.45594000000E+02  0.51100000000E-03 0. -1.
    9900012    2    1    2    0    0 -0.41566584744E+02  0.43915162957E+01  0.11685761313E+02  0.47787269590E+02  0.19999993369E+02 0.  0.
         12    1    1    2    0    0  0.41566584744E+02 -0.43915162957E+01 -0.11685761313E+02  0.43400730410E+02  0.00000000000E+00 0. -1.
         11    1    3    3    0    0 -0.61177734856E+01  0.17182417780E+01 -0.28938891680E+01  0.69824137665E+01  0.51100000000E-03 0. -1.
        -11    1    3    3    0    0 -0.28992790659E+02 -0.27507354715E+01  0.14106326649E+02  0.32359494861E+02  0.51100000000E-03 0.  1.
         12    1    3    3    0    0 -0.64560205995E+01  0.54240099892E+01  0.47332383119E+00  0.84453609629E+01  0.00000000000E+00 0. -1.
</event>
<event>
 7    1  0.2492468E-009  0.4778727E+02  0.7816164E-02  0.1312668E+00
        -11   -1    0    0    0    0  0.00000000000E+00  0.00000000000E+00  0.45593999997E+02  0.45594000000E+02  0.51100000000E-03 0.  1.
         11   -1    0    0    0    0 -0.00000000000E+00 -0.00000000000E+00 -0.45593999997E+02  0.45594000000E+02  0.51100000000E-03 0. -1.
    9900012    2    1    2    0    0 -0.21285675672E+02  0.27225272271E+02  0.26255049682E+02  0.47787273361E+02  0.20000010561E+02 0.  0.
         12    1    1    2    0    0  0.21285675672E+02 -0.27225272271E+02 -0.26255049682E+02  0.43400726639E+02  0.00000000000E+00 0. -1.
         11    1    3    3    0    0 -0.63846552731E+00 -0.19264514051E+01  0.34648923521E+01  0.40155114890E+01  0.51100000000E-03 0. -1.
        -11    1    3    3    0    0 -0.68663131512E+00  0.77666633178E+01  0.72513540892E+01  0.10647753662E+02  0.51100000000E-03 0.  1.
        -12    1    3    3    0    0 -0.19960578830E+02  0.21385060358E+02  0.15538803240E+02  0.33124008210E+02  0.00000000000E+00 0.  1.
</event>
<event>
 7    1  0.2492468E-009  0.4778727E+02  0.7816164E-02  0.1312668E+00
        -11   -1    0    0    0    0  0.00000000000E+00  0.00000000000E+00  0.45593999997E+02  0.45594000000E+02  0.51100000000E-03 0.  1.
         11   -1    0    0    0    0 -0.00000000000E+00 -0.00000000000E+00 -0.45593999997E+02  0.45594000000E+02  0.51100000000E-03 0. -1.
    9900012    2    1    2    0    0  0.25797854108E+02  0.34871776983E+02 -0.14328694880E+01  0.47787271648E+02  0.20000002753E+02 0.  0.
         12    1    1    2    0    0 -0.25797854108E+02 -0.34871776983E+02  0.14328694880E+01  0.43400728352E+02  0.00000000000E+00 0. -1.
         11    1    3    3    0    0  0.83108556149E+01  0.73429227845E+01 -0.29600111090E+01  0.11478262155E+02  0.51100000000E-03 0. -1.
        -11    1    3    3    0    0  0.73714568110E+01  0.17146391658E+02 -0.64704919714E+01  0.19753591800E+02  0.51100000000E-03 0.  1.
        -12    1    3    3    0    0  0.10115541682E+02  0.10382462540E+02  0.79976335924E+01  0.16555417693E+02  0.00000000000E+00 0.  1.
</event>
<event>
 7    1  0.2492468E-009  0.4778727E+02  0.7816164E-02  0.1312668E+00
        -11   -1    0    0    0    0  0.00000000000E+00  0.00000000000E+00  0.45593999997E+02  0.45594000000E+02  0.51100000000E-03 0. -1.
         11   -1    0    0    0    0 -0.00000000000E+00 -0.00000000000E+00 -0.45593999997E+02  0.45594000000E+02  0.51100000000E-03 0.  1.
    9900012    2    1    2    0    0  0.14728012203E+02 -0.23605216152E+02 -0.33309198956E+02  0.47787270650E+02  0.19999998201E+02 0.  0.
         12    1    1    2    0    0 -0.14728012203E+02  0.23605216152E+02  0.33309198956E+02  0.43400729350E+02  0.00000000000E+00 0. -1.
         11    1    3    3    0    0 -0.23217109074E+01 -0.33301154200E+01 -0.95120491342E+01  0.10342102748E+02  0.51100000000E-03 0. -1.
        -11    1    3    3    0    0  0.74648396726E+01 -0.37457460346E+01 -0.22567305265E+01  0.86514321140E+01  0.51100000000E-03 0.  1.
        -12    1    3    3    0    0  0.95848834380E+01 -0.16529354697E+02 -0.21540419295E+02  0.28793735788E+02  0.00000000000E+00 0.  1.
</event>
<event>
 7    1  0.2492468E-009  0.4778727E+02  0.7816164E-02  0.1312668E+00
        -11   -1    0    0    0    0  0.00000000000E+00  0.00000000000E+00  0.45593999997E+02  0.45594000000E+02  0.51100000000E-03 0.  1.
         11   -1    0    0    0    0 -0.00000000000E+00 -0.00000000000E+00 -0.45593999997E+02  0.45594000000E+02  0.51100000000E-03 0. -1.
    9900012    2    1    2    0    0 -0.54268452152E+01 -0.27951923798E+02  0.32754582837E+02  0.47787269709E+02  0.19999993910E+02 0.  0.
         12    1    1    2    0    0  0.54268452152E+01  0.27951923798E+02 -0.32754582837E+02  0.43400730291E+02  0.00000000000E+00 0. -1.
         11    1    3    3    0    0  0.17503534146E+01 -0.13916363282E+02  0.97576886162E+01  0.17086292502E+02  0.51100000000E-03 0. -1.
        -11    1    3    3    0    0 -0.72090056438E+01 -0.14501639648E+02  0.13199472769E+02  0.20892424381E+02  0.51100000000E-03 0.  1.
         12    1    3    3    0    0  0.31807014013E-01  0.46607913204E+00  0.97974214513E+01  0.98085528259E+01  0.00000000000E+00 0. -1.
</event>
<event>
 7    1  0.2492468E-009  0.4778727E+02  0.7816164E-02  0.1312668E+00
        -11   -1    0    0    0    0  0.00000000000E+00  0.00000000000E+00  0.45593999997E+02  0.45594000000E+02  0.51100000000E-03 0.  1.
         11   -1    0    0    0    0 -0.00000000000E+00 -0.00000000000E+00 -0.45593999997E+02  0.45594000000E+02  0.51100000000E-03 0. -1.
    9900012    2    1    2    0    0  0.22542248194E+01  0.41509771813E+01  0.43142916795E+02  0.47787269468E+02  0.19999992814E+02 0.  0.
         12    1    1    2    0    0 -0.22542248194E+01 -0.41509771813E+01 -0.43142916795E+02  0.43400730532E+02  0.00000000000E+00 0. -1.
         11    1    3    3    0    0 -0.13279491129E+01 -0.11647633154E+01 -0.10242616086E+01  0.20418703513E+01  0.51100000000E-03 0. -1.
        -11    1    3    3    0    0 -0.26122932014E+00  0.50340572480E+01  0.85878000831E+01  0.99579256706E+01  0.51100000000E-03 0.  1.
        -12    1    3    3    0    0  0.38434032524E+01  0.28168324868E+00  0.35579378321E+02  0.35787473447E+02  0.00000000000E+00 0.  1.
</event>
<event>
 7    1  0.2492468E-009  0.4778728E+02  0.7816164E-02  0.1312668E+00
        -11   -1    0    0    0    0  0.00000000000E+00  0.00000000000E+00  0.45593999997E+02  0.45594000000E+02  0.51100000000E-03 0.  1.
         11   -1    0    0    0    0 -0.00000000000E+00 -0.00000000000E+00 -0.45593999997E+02  0.45594000000E+02  0.51100000000E-03 0. -1.
    9900012    2    1    2    0    0 -0.36276620311E+02 -0.68429578923E+01  0.22821122185E+02  0.47787275678E+02  0.20000021124E+02 0.  0.
         12    1    1    2    0    0  0.36276620311E+02  0.68429578923E+01 -0.22821122185E+02  0.43400724322E+02  0.00000000000E+00 0. -1.
         11    1    3    3    0    0 -0.20211721953E+02 -0.42772077907E+01  0.11900250408E+02  0.23841647821E+02  0.51100000000E-03 0. -1.
        -11    1    3    3    0    0 -0.17262711498E+02 -0.42927226940E+01  0.63032280780E+01  0.18872184846E+02  0.51100000000E-03 0.  1.
        -12    1    3    3    0    0  0.11978131393E+01  0.17269725924E+01  0.46176436998E+01  0.50734430113E+01  0.00000000000E+00 0.  1.
</event>
<event>
 7    1  0.2492468E-009  0.4778727E+02  0.7816164E-02  0.1312668E+00
        -11   -1    0    0    0    0  0.00000000000E+00  0.00000000000E+00  0.45593999997E+02  0.45594000000E+02  0.51100000000E-03 0.  1.
         11   -1    0    0    0    0 -0.00000000000E+00 -0.00000000000E+00 -0.45593999997E+02  0.45594000000E+02  0.51100000000E-03 0. -1.
    9900012    2    1    2    0    0 -0.41749543771E+02 -0.50667854650E+01  0.10720376679E+02  0.47787271939E+02  0.20000004080E+02 0.  0.
         12    1    1    2    0    0  0.41749543771E+02  0.50667854650E+01 -0.10720376679E+02  0.43400728061E+02  0.00000000000E+00 0. -1.
         11    1    3    3    0    0 -0.41659286046E+01  0.34079227919E+01 -0.83649120257E+00  0.54468905522E+01  0.51100000000E-03 0. -1.
        -11    1    3    3    0    0 -0.42800211373E+01 -0.15053062230E+01  0.65219814840E+01  0.79448581170E+01  0.51100000000E-03 0.  1.
        -12    1    3    3    0    0 -0.33303594029E+02 -0.69694020340E+01  0.50348863978E+01  0.34395523270E+02  0.00000000000E+00 0.  1.
</event>
<event>
 7    1  0.2492468E-009  0.4778728E+02  0.7816164E-02  0.1312668E+00
        -11   -1    0    0    0    0  0.00000000000E+00  0.00000000000E+00  0.45593999997E+02  0.45594000000E+02  0.51100000000E-03 0.  1.
         11   -1    0    0    0    0 -0.00000000000E+00 -0.00000000000E+00 -0.45593999997E+02  0.45594000000E+02  0.51100000000E-03 0. -1.
    9900012    2    1    2    0    0 -0.93827529028E-01 -0.22228799280E+02  0.37275922184E+02  0.47787277705E+02  0.20000030370E+02 0.  0.
         12    1    1    2    0    0  0.93827529028E-01  0.22228799280E+02 -0.37275922184E+02  0.43400722295E+02  0.00000000000E+00 0. -1.
         11    1    3    3    0    0  0.19384954286E+01  0.81340152659E+00  0.82106984555E-01  0.21038365878E+01  0.51100000000E-03 0. -1.
        -11    1    3    3    0    0 -0.67642999307E+01 -0.71693966662E+01  0.11944809880E+02  0.15486590504E+02  0.51100000000E-03 0.  1.
        -12    1    3    3    0    0  0.47319769731E+01 -0.15872804141E+02  0.25249005320E+02  0.30196850614E+02  0.00000000000E+00 0.  1.
</event>
<event>
 7    1  0.2492468E-009  0.4778727E+02  0.7816164E-02  0.1312668E+00
        -11   -1    0    0    0    0  0.00000000000E+00  0.00000000000E+00  0.45593999997E+02  0.45594000000E+02  0.51100000000E-03 0. -1.
         11   -1    0    0    0    0 -0.00000000000E+00 -0.00000000000E+00 -0.45593999997E+02  0.45594000000E+02  0.51100000000E-03 0.  1.
    9900012    2    1    2    0    0 -0.19361212452E+02  0.36865152109E+02 -0.12236303124E+02  0.47787273027E+02  0.20000009041E+02 0.  0.
         12    1    1    2    0    0  0.19361212452E+02 -0.36865152109E+02  0.12236303124E+02  0.43400726973E+02  0.00000000000E+00 0. -1.
         11    1    3    3    0    0 -0.50388129965E+01  0.10523074077E+02 -0.29506693799E+00  0.11670980644E+02  0.51100000000E-03 0. -1.
        -11    1    3    3    0    0 -0.14824147907E+02  0.19702836127E+02 -0.28114626193E+01  0.24816555662E+02  0.51100000000E-03 0.  1.
         12    1    3    3    0    0  0.50174845128E+00  0.66392419045E+01 -0.91297735671E+01  0.11299736721E+02  0.00000000000E+00 0. -1.
</event>
<event>
 7    1  0.2492468E-009  0.4778726E+02  0.7816164E-02  0.1312668E+00
        -11   -1    0    0    0    0  0.00000000000E+00  0.00000000000E+00  0.45593999997E+02  0.45594000000E+02  0.51100000000E-03 0.  1.
         11   -1    0    0    0    0 -0.00000000000E+00 -0.00000000000E+00 -0.45593999997E+02  0.45594000000E+02  0.51100000000E-03 0. -1.
    9900012    2    1    2    0    0 -0.37788938603E+02 -0.96619599043E+01  0.19033305319E+02  0.47787261973E+02  0.19999958641E+02 0.  0.
         12    1    1    2    0    0  0.37788938603E+02  0.96619599043E+01 -0.19033305319E+02  0.43400738027E+02  0.00000000000E+00 0. -1.
         11    1    3    3    0    0 -0.10606036480E+02  0.17384797585E+00  0.33054277590E+01  0.11110539405E+02  0.51100000000E-03 0.  1.
        -11    1    3    3    0    0 -0.20771807776E+02 -0.14388518940E+02  0.11839740347E+02  0.27904783234E+02  0.51100000000E-03 0. -1.
         12    1    3    3    0    0 -0.64110943458E+01  0.45527110594E+01  0.38881372133E+01  0.87719393346E+01  0.00000000000E+00 0. -1.
</event>
<event>
 7    1  0.2492468E-009  0.4778726E+02  0.7816164E-02  0.1312668E+00
        -11   -1    0    0    0    0  0.00000000000E+00  0.00000000000E+00  0.45593999997E+02  0.45594000000E+02  0.51100000000E-03 0. -1.
         11   -1    0    0    0    0 -0.00000000000E+00 -0.00000000000E+00 -0.45593999997E+02  0.45594000000E+02  0.51100000000E-03 0.  1.
    9900012    2    1    2    0    0 -0.15642890225E+01  0.18808381925E+02 -0.39082244457E+02  0.47787261958E+02  0.19999958572E+02 0.  0.
         12    1    1    2    0    0  0.15642890225E+01 -0.18808381925E+02  0.39082244457E+02  0.43400738042E+02  0.00000000000E+00 0. -1.
         11    1    3    3    0    0 -0.66867368670E+01  0.63543297999E+01 -0.15036414020E+02  0.17640399768E+02  0.51100000000E-03 0. -1.
        -11    1    3    3    0    0  0.49756276022E+00  0.13417747720E+02 -0.16981275104E+02  0.21648261523E+02  0.51100000000E-03 0.  1.
        -12    1    3    3    0    0  0.46248850842E+01 -0.96369559440E+00 -0.70645553326E+01  0.84986006664E+01  0.00000000000E+00 0.  1.
</event>
<event>
 7    1  0.2492468E-009  0.4778727E+02  0.7816164E-02  0.1312668E+00
        -11   -1    0    0    0    0  0.00000000000E+00  0.00000000000E+00  0.45593999997E+02  0.45594000000E+02  0.51100000000E-03 0.  1.
         11   -1    0    0    0    0 -0.00000000000E+00 -0.00000000000E+00 -0.45593999997E+02  0.45594000000E+02  0.51100000000E-03 0. -1.
    9900012    2    1    2    0    0 -0.18808515912E+02  0.11095909733E+02  0.37506585903E+02  0.47787268788E+02  0.19999989712E+02 0.  0.
         12    1    1    2    0    0  0.18808515912E+02 -0.11095909733E+02 -0.37506585903E+02  0.43400731212E+02  0.00000000000E+00 0. -1.
         11    1    3    3    0    0 -0.18749988134E+02  0.73295350402E+01  0.23397738265E+02  0.30866459063E+02  0.51100000000E-03 0. -1.
        -11    1    3    3    0    0 -0.26910165192E+01  0.46716072614E+01  0.12708273971E+02  0.13804554028E+02  0.51100000000E-03 0.  1.
        -12    1    3    3    0    0  0.26324887408E+01 -0.90523256855E+00  0.14005736675E+01  0.31162556975E+01  0.00000000000E+00 0.  1.
</event>
<event>
 7    1  0.2492468E-009  0.4778727E+02  0.7816164E-02  0.1312668E+00
        -11   -1    0    0    0    0  0.00000000000E+00  0.00000000000E+00  0.45593999997E+02  0.45594000000E+02  0.51100000000E-03 0. -1.
         11   -1    0    0    0    0 -0.00000000000E+00 -0.00000000000E+00 -0.45593999997E+02  0.45594000000E+02  0.51100000000E-03 0.  1.
    9900012    2    1    2    0    0 -0.23659481380E+02  0.19341085345E+02 -0.30818415223E+02  0.47787270071E+02  0.19999995563E+02 0.  0.
         12    1    1    2    0    0  0.23659481380E+02 -0.19341085345E+02  0.30818415223E+02  0.43400729929E+02  0.00000000000E+00 0. -1.
         11    1    3    3    0    0  0.61050729081E-01  0.17470404014E+01 -0.15520600063E+01  0.23376842986E+01  0.51100000000E-03 0. -1.
        -11    1    3    3    0    0 -0.10007677763E+01 -0.32810804074E+01 -0.55890007621E+01  0.65577400499E+01  0.51100000000E-03 0.  1.
        -12    1    3    3    0    0 -0.22719764333E+02  0.20875125351E+02 -0.23677354455E+02  0.38891845723E+02  0.00000000000E+00 0.  1.
</event>
<event>
 7    1  0.2492468E-009  0.4778726E+02  0.7816164E-02  0.1312668E+00
        -11   -1    0    0    0    0  0.00000000000E+00  0.00000000000E+00  0.45593999997E+02  0.45594000000E+02  0.51100000000E-03 0.  1.
         11   -1    0    0    0    0 -0.00000000000E+00 -0.00000000000E+00 -0.45593999997E+02  0.45594000000E+02  0.51100000000E-03 0. -1.
    9900012    2    1    2    0    0  0.92194753829E+01 -0.19030569244E+02  0.37900694228E+02  0.47787263658E+02  0.19999966322E+02 0.  0.
         12    1    1    2    0    0 -0.92194753829E+01  0.19030569244E+02 -0.37900694228E+02  0.43400736342E+02  0.00000000000E+00 0. -1.
         11    1    3    3    0    0 -0.49311475112E+00  0.56653030016E+00 -0.10778534127E+01  0.13137301775E+01  0.51100000000E-03 0. -1.
        -11    1    3    3    0    0  0.82315884402E+01 -0.44152808918E+01  0.97405009881E+01  0.13495596073E+02  0.51100000000E-03 0.  1.
        -12    1    3    3    0    0  0.14810016938E+01 -0.15181818653E+02  0.29238046652E+02  0.32977937408E+02  0.00000000000E+00 0.  1.
</event>
<event>
 7    1  0.2492468E-009  0.4778727E+02  0.7816164E-02  0.1312668E+00
        -11   -1    0    0    0    0  0.00000000000E+00  0.00000000000E+00  0.45593999997E+02  0.45594000000E+02  0.51100000000E-03 0.  1.
         11   -1    0    0    0    0 -0.00000000000E+00 -0.00000000000E+00 -0.45593999997E+02  0.45594000000E+02  0.51100000000E-03 0. -1.
    9900012    2    1    2    0    0 -0.43231127401E+02 -0.19275627683E-01 -0.38330903190E+01  0.47787270406E+02  0.19999997088E+02 0.  0.
         12    1    1    2    0    0  0.43231127401E+02  0.19275627683E-01  0.38330903190E+01  0.43400729594E+02  0.00000000000E+00 0. -1.
         11    1    3    3    0    0 -0.12039020783E+02  0.32556426353E+01 -0.22467801743E+01  0.12672223632E+02  0.51100000000E-03 0. -1.
        -11    1    3    3    0    0 -0.32457286046E+02 -0.17374725621E+01 -0.30460725264E+01  0.32646175679E+02  0.51100000000E-03 0.  1.
         12    1    3    3    0    0  0.12651794278E+01 -0.15374457008E+01  0.14597623817E+01  0.24688710939E+01  0.00000000000E+00 0. -1.
</event>
<event>
 7    1  0.2492468E-009  0.4778727E+02  0.7816164E-02  0.1312668E+00
        -11   -1    0    0    0    0  0.00000000000E+00  0.00000000000E+00  0.45593999997E+02  0.45594000000E+02  0.51100000000E-03 0.  1.
         11   -1    0    0    0    0 -0.00000000000E+00 -0.00000000000E+00 -0.45593999997E+02  0.45594000000E+02  0.51100000000E-03 0. -1.
    9900012    2    1    2    0    0  0.26904133711E+02 -0.27518894324E+02  0.20062430736E+02  0.47787273249E+02  0.20000010049E+02 0.  0.
         12    1    1    2    0    0 -0.26904133711E+02  0.27518894324E+02 -0.20062430736E+02  0.43400726751E+02  0.00000000000E+00 0. -1.
         11    1    3    3    0    0  0.58889414619E+01 -0.66973154603E+01  0.81300252913E+01  0.12067766049E+02  0.51100000000E-03 0. -1.
        -11    1    3    3    0    0  0.14034622194E+02 -0.14935415118E+02  0.15724788041E+02  0.25832270594E+02  0.51100000000E-03 0.  1.
         12    1    3    3    0    0  0.69805700547E+01 -0.58861637456E+01 -0.37923825963E+01  0.98872366051E+01  0.00000000000E+00 0. -1.
</event>
<event>
 7    1  0.2492468E-009  0.4778727E+02  0.7816164E-02  0.1312668E+00
        -11   -1    0    0    0    0  0.00000000000E+00  0.00000000000E+00  0.45593999997E+02  0.45594000000E+02  0.51100000000E-03 0. -1.
         11   -1    0    0    0    0 -0.00000000000E+00 -0.00000000000E+00 -0.45593999997E+02  0.45594000000E+02  0.51100000000E-03 0.  1.
    9900012    2    1    2    0    0 -0.36115997897E+02  0.21424578949E+02 -0.10965643371E+02  0.47787271644E+02  0.20000002735E+02 0.  0.
         12    1    1    2    0    0  0.36115997897E+02 -0.21424578949E+02  0.10965643371E+02  0.43400728356E+02  0.00000000000E+00 0. -1.
         11    1    3    3    0    0  0.11085203897E+01 -0.14406967869E+01 -0.24886002436E+00  0.18347632706E+01  0.51100000000E-03 0. -1.
        -11    1    3    3    0    0 -0.12433750467E+02  0.41032920524E+01 -0.63679253371E+01  0.14559726292E+02  0.51100000000E-03 0.  1.
         12    1    3    3    0    0 -0.24790767820E+02  0.18761983684E+02 -0.43488580101E+01  0.31392782082E+02  0.00000000000E+00 0. -1.
</event>
<event>
 7    1  0.2492468E-009  0.4778728E+02  0.7816164E-02  0.1312668E+00
        -11   -1    0    0    0    0  0.00000000000E+00  0.00000000000E+00  0.45593999997E+02  0.45594000000E+02  0.51100000000E-03 0.  1.
         11   -1    0    0    0    0 -0.00000000000E+00 -0.00000000000E+00 -0.45593999997E+02  0.45594000000E+02  0.51100000000E-03 0. -1.
    9900012    2    1    2    0    0 -0.20974382395E+02  0.13968036434E+02  0.35335422118E+02  0.47787276332E+02  0.20000024106E+02 0.  0.
         12    1    1    2    0    0  0.20974382395E+02 -0.13968036434E+02 -0.35335422118E+02  0.43400723668E+02  0.00000000000E+00 0. -1.
         11    1    3    3    0    0 -0.10951440255E+02  0.66588459536E+01  0.78394645160E+01  0.15024362790E+02  0.51100000000E-03 0. -1.
        -11    1    3    3    0    0 -0.11859555917E+02  0.90357133537E+01  0.20667804063E+02  0.25484334549E+02  0.51100000000E-03 0.  1.
         12    1    3    3    0    0  0.18366137769E+01 -0.17265228733E+01  0.68281535394E+01  0.72785789928E+01  0.00000000000E+00 0. -1.
</event>
<event>
 7    1  0.2492468E-009  0.4778727E+02  0.7816164E-02  0.1312668E+00
        -11   -1    0    0    0    0  0.00000000000E+00  0.00000000000E+00  0.45593999997E+02  0.45594000000E+02  0.51100000000E-03 0.  1.
         11   -1    0    0    0    0 -0.00000000000E+00 -0.00000000000E+00 -0.45593999997E+02  0.45594000000E+02  0.51100000000E-03 0. -1.
    9900012    2    1    2    0    0  0.15927561512E+01 -0.30890287147E+02 -0.30444647703E+02  0.47787270906E+02  0.19999999367E+02 0.  0.
         12    1    1    2    0    0 -0.15927561512E+01  0.30890287147E+02  0.30444647703E+02  0.43400729094E+02  0.00000000000E+00 0. -1.
         11    1    3    3    0    0 -0.16005414597E+01 -0.78837628292E+01 -0.67185191307E+01  0.10481123455E+02  0.51100000000E-03 0. -1.
        -11    1    3    3    0    0 -0.24019461891E+01 -0.18260849803E+02 -0.82549042521E+01  0.20183444342E+02  0.51100000000E-03 0.  1.
         12    1    3    3    0    0  0.55952438000E+01 -0.47456745145E+01 -0.15471224320E+02  0.17122703108E+02  0.00000000000E+00 0. -1.
</event>
<event>
 7    1  0.2492468E-009  0.4778727E+02  0.7816164E-02  0.1312668E+00
        -11   -1    0    0    0    0  0.00000000000E+00  0.00000000000E+00  0.45593999997E+02  0.45594000000E+02  0.51100000000E-03 0. -1.
         11   -1    0    0    0    0 -0.00000000000E+00 -0.00000000000E+00 -0.45593999997E+02  0.45594000000E+02  0.51100000000E-03 0.  1.
    9900012    2    1    2    0    0 -0.14367867713E+02 -0.25678406519E+02 -0.31903088472E+02  0.47787271458E+02  0.20000001884E+02 0.  0.
         12    1    1    2    0    0  0.14367867713E+02  0.25678406519E+02  0.31903088472E+02  0.43400728542E+02  0.00000000000E+00 0. -1.
         11    1    3    3    0    0 -0.13058793426E+02 -0.67421643148E+01 -0.84376248490E+01  0.16946456230E+02  0.51100000000E-03 0.  1.
        -11    1    3    3    0    0  0.16284114098E+01 -0.19685318850E+01 -0.16230547606E+01  0.30267389248E+01  0.51100000000E-03 0. -1.
        -12    1    3    3    0    0 -0.29374856967E+01 -0.16967710319E+02 -0.21842408862E+02  0.27814076303E+02  0.00000000000E+00 0.  1.
</event>
<event>
 7    1  0.2492468E-009  0.4778726E+02  0.7816164E-02  0.1312668E+00
        -11   -1    0    0    0    0  0.00000000000E+00  0.00000000000E+00  0.45593999997E+02  0.45594000000E+02  0.51100000000E-03 0.  1.
         11   -1    0    0    0    0 -0.00000000000E+00 -0.00000000000E+00 -0.45593999997E+02  0.45594000000E+02  0.51100000000E-03 0. -1.
    9900012    2    1    2    0    0  0.83473733461E+00  0.41385485241E+01  0.43194901052E+02  0.47787264439E+02  0.19999969885E+02 0.  0.
         12    1    1    2    0    0 -0.83473733461E+00 -0.41385485241E+01 -0.43194901052E+02  0.43400735561E+02  0.00000000000E+00 0. -1.
         11    1    3    3    0    0  0.77473449387E+01 -0.14943105615E+01  0.24532918260E+02  0.25770494684E+02  0.51100000000E-03 0. -1.
        -11    1    3    3    0    0  0.61440498114E+00  0.24939560174E+01  0.90691492491E+01  0.94258569086E+01  0.51100000000E-03 0.  1.
         12    1    3    3    0    0 -0.75270125853E+01  0.31389030682E+01  0.95928335427E+01  0.12590912846E+02  0.00000000000E+00 0. -1.
</event>
<event>
 7    1  0.2492468E-009  0.4778727E+02  0.7816164E-02  0.1312668E+00
        -11   -1    0    0    0    0  0.00000000000E+00  0.00000000000E+00  0.45593999997E+02  0.45594000000E+02  0.51100000000E-03 0. -1.
         11   -1    0    0    0    0 -0.00000000000E+00 -0.00000000000E+00 -0.45593999997E+02  0.45594000000E+02  0.51100000000E-03 0.  1.
    9900012    2    1    2    0    0 -0.38543496600E+02 -0.17234707667E+02 -0.10049230027E+02  0.47787270713E+02  0.19999998487E+02 0.  0.
         12    1    1    2    0    0  0.38543496600E+02  0.17234707667E+02  0.10049230027E+02  0.43400729287E+02  0.00000000000E+00 0. -1.
         11    1    3    3    0    0 -0.11360558934E+02 -0.20965001282E+01 -0.76008294932E+01  0.13828601568E+02  0.51100000000E-03 0. -1.
        -11    1    3    3    0    0 -0.13962038776E+02 -0.90576028092E+01 -0.78953153207E+01  0.18420496728E+02  0.51100000000E-03 0.  1.
         12    1    3    3    0    0 -0.13220898890E+02 -0.60806047296E+01  0.54469147873E+01  0.15538172416E+02  0.00000000000E+00 0. -1.
</event>
<event>
 7    1  0.2492468E-009  0.4778726E+02  0.7816164E-02  0.1312668E+00
        -11   -1    0    0    0    0  0.00000000000E+00  0.00000000000E+00  0.45593999997E+02  0.45594000000E+02  0.51100000000E-03 0. -1.
         11   -1    0    0    0    0 -0.00000000000E+00 -0.00000000000E+00 -0.45593999997E+02  0.45594000000E+02  0.51100000000E-03 0.  1.
    9900012    2    1    2    0    0 -0.16145349711E+02 -0.39682161720E+02 -0.69482588108E+01  0.47787256037E+02  0.19999931575E+02 0.  0.
         12    1    1    2    0    0  0.16145349711E+02  0.39682161720E+02  0.69482588108E+01  0.43400743963E+02  0.00000000000E+00 0. -1.
         11    1    3    3    0    0 -0.11260801420E+02 -0.16546079299E+02 -0.69762108589E+01  0.21195421841E+02  0.51100000000E-03 0. -1.
        -11    1    3    3    0    0  0.56743989842E+00 -0.53182587494E+01 -0.49686768499E+01  0.73002475344E+01  0.51100000000E-03 0.  1.
        -12    1    3    3    0    0 -0.54519881902E+01 -0.17817823671E+02  0.49966288980E+01  0.19291586662E+02  0.00000000000E+00 0.  1.
</event>
<event>
 7    1  0.2715130E-009  0.4778727E+02  0.7816164E-02  0.1312668E+00
        -11   -1    0    0    0    0  0.00000000000E+00  0.00000000000E+00  0.45593999997E+02  0.45594000000E+02  0.51100000000E-03 0. -1.
         11   -1    0    0    0    0 -0.00000000000E+00 -0.00000000000E+00 -0.45593999997E+02  0.45594000000E+02  0.51100000000E-03 0.  1.
    9900012    2    1    2    0    0 -0.85843138844E+01 -0.31648484182E+02 -0.28430725230E+02  0.47787272668E+02  0.20000007403E+02 0.  0.
         12    1    1    2    0    0  0.85843138844E+01  0.31648484182E+02  0.28430725230E+02  0.43400727332E+02  0.00000000000E+00 0. -1.
         11    1    3    3    0    0 -0.23031819423E+01 -0.16227098954E+02 -0.16890371959E+02  0.23535251278E+02  0.51100000000E-03 0.  1.
        -11    1    3    3    0    0 -0.69707200454E+01 -0.90015858160E+01 -0.13351029938E+02  0.17546210013E+02  0.51100000000E-03 0. -1.
         12    1    3    3    0    0  0.68958810327E+00 -0.64197994119E+01  0.18106766674E+01  0.67058113778E+01  0.00000000000E+00 0. -1.
</event>
<event>
 7    1  0.2492468E-009  0.4778726E+02  0.7816164E-02  0.1312668E+00
        -11   -1    0    0    0    0  0.00000000000E+00  0.00000000000E+00  0.45593999997E+02  0.45594000000E+02  0.51100000000E-03 0.  1.
         11   -1    0    0    0    0 -0.00000000000E+00 -0.00000000000E+00 -0.45593999997E+02  0.45594000000E+02  0.51100000000E-03 0. -1.
    9900012    2    1    2    0    0  0.43334044917E+02  0.32786543519E+00  0.23827572312E+01  0.47787257188E+02  0.19999936822E+02 0.  0.
         12    1    1    2    0    0 -0.43334044917E+02 -0.32786543519E+00 -0.23827572312E+01  0.43400742812E+02  0.00000000000E+00 0. -1.
         11    1    3    3    0    0  0.12325857416E+01 -0.27312736863E+01 -0.41046214336E+00  0.30245004533E+01  0.51100000000E-03 0. -1.
        -11    1    3    3    0    0  0.38757618618E+00  0.13681091635E+01 -0.23010460815E+01  0.27049494105E+01  0.51100000000E-03 0.  1.
        -12    1    3    3    0    0  0.41713882989E+02  0.16910299580E+01  0.50942654561E+01  0.42057807324E+02  0.00000000000E+00 0.  1.
</event>
<event>
 7    1  0.2492468E-009  0.4778727E+02  0.7816164E-02  0.1312668E+00
        -11   -1    0    0    0    0  0.00000000000E+00  0.00000000000E+00  0.45593999997E+02  0.45594000000E+02  0.51100000000E-03 0.  1.
         11   -1    0    0    0    0 -0.00000000000E+00 -0.00000000000E+00 -0.45593999997E+02  0.45594000000E+02  0.51100000000E-03 0. -1.
    9900012    2    1    2    0    0  0.20222550299E+02 -0.29654018359E+02  0.24398993677E+02  0.47787271459E+02  0.20000001890E+02 0.  0.
         12    1    1    2    0    0 -0.20222550299E+02  0.29654018359E+02 -0.24398993677E+02  0.43400728541E+02  0.00000000000E+00 0. -1.
         11    1    3    3    0    0 -0.58016579553E+00 -0.18850264349E+01 -0.59061081121E+00  0.20588196623E+01  0.51100000000E-03 0. -1.
        -11    1    3    3    0    0  0.12612152420E+02 -0.60268127317E+01  0.14802915938E+02  0.20359645893E+02  0.51100000000E-03 0.  1.
        -12    1    3    3    0    0  0.81905636747E+01 -0.21742179192E+02  0.10186688550E+02  0.25368805903E+02  0.00000000000E+00 0.  1.
</event>
<event>
 7    1  0.2492468E-009  0.4778727E+02  0.7816164E-02  0.1312668E+00
        -11   -1    0    0    0    0  0.00000000000E+00  0.00000000000E+00  0.45593999997E+02  0.45594000000E+02  0.51100000000E-03 0.  1.
         11   -1    0    0    0    0 -0.00000000000E+00 -0.00000000000E+00 -0.45593999997E+02  0.45594000000E+02  0.51100000000E-03 0. -1.
    9900012    2    1    2    0    0  0.46340830633E+01 -0.24509651295E+02  0.35516552727E+02  0.47787271319E+02  0.20000001252E+02 0.  0.
         12    1    1    2    0    0 -0.46340830633E+01  0.24509651295E+02 -0.35516552727E+02  0.43400728681E+02  0.00000000000E+00 0. -1.
         11    1    3    3    0    0 -0.19681015318E+01 -0.20638754110E+00  0.95599517407E+01  0.97626173234E+01  0.51100000000E-03 0. -1.
        -11    1    3    3    0    0 -0.31284966936E+01 -0.31771079068E+01  0.32336429445E+01  0.55079899390E+01  0.51100000000E-03 0.  1.
        -12    1    3    3    0    0  0.97306812887E+01 -0.21126155847E+02  0.22722958042E+02  0.32516664057E+02  0.00000000000E+00 0.  1.
</event>
<event>
 7    1  0.2492468E-009  0.4778727E+02  0.7816164E-02  0.1312668E+00
        -11   -1    0    0    0    0  0.00000000000E+00  0.00000000000E+00  0.45593999997E+02  0.45594000000E+02  0.51100000000E-03 0.  1.
         11   -1    0    0    0    0 -0.00000000000E+00 -0.00000000000E+00 -0.45593999997E+02  0.45594000000E+02  0.51100000000E-03 0. -1.
    9900012    2    1    2    0    0  0.41732534638E+02 -0.95700054453E+01  0.71016704528E+01  0.47787272186E+02  0.20000005205E+02 0.  0.
         12    1    1    2    0    0 -0.41732534638E+02  0.95700054453E+01 -0.71016704528E+01  0.43400727814E+02  0.00000000000E+00 0. -1.
         11    1    3    3    0    0  0.62999936272E+01  0.19541477080E+01 -0.88851782029E+00  0.66556800663E+01  0.51100000000E-03 0. -1.
        -11    1    3    3    0    0  0.28342500261E+02 -0.19442768650E+01  0.62292636928E+01  0.29084037890E+02  0.51100000000E-03 0.  1.
         12    1    3    3    0    0  0.70900407496E+01 -0.95798762884E+01  0.17609245803E+01  0.12047554229E+02  0.00000000000E+00 0. -1.
</event>
<event>
 7    1  0.2492468E-009  0.4778724E+02  0.7816164E-02  0.1312668E+00
        -11   -1    0    0    0    0  0.00000000000E+00  0.00000000000E+00  0.45593999997E+02  0.45594000000E+02  0.51100000000E-03 0.  1.
         11   -1    0    0    0    0 -0.00000000000E+00 -0.00000000000E+00 -0.45593999997E+02  0.45594000000E+02  0.51100000000E-03 0. -1.
    9900012    2    1    2    0    0 -0.31620633582E+02  0.29427217898E+02 -0.42189997322E+01  0.47787244475E+02  0.19999878860E+02 0.  0.
         12    1    1    2    0    0  0.31620633582E+02 -0.29427217898E+02  0.42189997322E+01  0.43400755525E+02  0.00000000000E+00 0. -1.
         11    1    3    3    0    0 -0.90742827474E+01  0.64573625687E+01  0.38903569153E+00  0.11144123463E+02  0.51100000000E-03 0. -1.
        -11    1    3    3    0    0 -0.17957860983E+02  0.24792369785E+02 -0.66051368637E+01  0.31317314762E+02  0.51100000000E-03 0.  1.
         12    1    3    3    0    0 -0.45884898513E+01 -0.18225144553E+01  0.19971014399E+01  0.53258062504E+01  0.00000000000E+00 0. -1.
</event>
<event>
 7    1  0.2492468E-009  0.4778727E+02  0.7816164E-02  0.1312668E+00
        -11   -1    0    0    0    0  0.00000000000E+00  0.00000000000E+00  0.45593999997E+02  0.45594000000E+02  0.51100000000E-03 0.  1.
         11   -1    0    0    0    0 -0.00000000000E+00 -0.00000000000E+00 -0.45593999997E+02  0.45594000000E+02  0.51100000000E-03 0. -1.
    9900012    2    1    2    0    0  0.31291679326E+02  0.88457802382E+01  0.28743807100E+02  0.47787268789E+02  0.19999989716E+02 0.  0.
         12    1    1    2    0    0 -0.31291679326E+02 -0.88457802382E+01 -0.28743807100E+02  0.43400731211E+02  0.00000000000E+00 0. -1.
         11    1    3    3    0    0  0.74271168293E+01  0.11189617317E+01  0.17651111823E+02  0.19182697636E+02  0.51100000000E-03 0.  1.
        -11    1    3    3    0    0  0.88493397298E+01  0.50898337873E+01  0.86224798423E+00  0.10245032625E+02  0.51100000000E-03 0. -1.
        -12    1    3    3    0    0  0.15015222767E+02  0.26369847192E+01  0.10230447293E+02  0.18359538528E+02  0.00000000000E+00 0.  1.
</event>
<event>
 7    1  0.2492468E-009  0.4778727E+02  0.7816164E-02  0.1312668E+00
        -11   -1    0    0    0    0  0.00000000000E+00  0.00000000000E+00  0.45593999997E+02  0.45594000000E+02  0.51100000000E-03 0. -1.
         11   -1    0    0    0    0 -0.00000000000E+00 -0.00000000000E+00 -0.45593999997E+02  0.45594000000E+02  0.51100000000E-03 0.  1.
    9900012    2    1    2    0    0  0.37484632650E+02 -0.10773769134E+00 -0.21874962311E+02  0.47787271107E+02  0.20000000284E+02 0.  0.
         12    1    1    2    0    0 -0.37484632650E+02  0.10773769134E+00  0.21874962311E+02  0.43400728893E+02  0.00000000000E+00 0. -1.
         11    1    3    3    0    0  0.82345802025E+01  0.12299500111E+01  0.19282454543E+01  0.85462985517E+01  0.51100000000E-03 0. -1.
        -11    1    3    3    0    0  0.14121548939E+02 -0.47090246824E+01 -0.72283791799E+01  0.16548187929E+02  0.51100000000E-03 0.  1.
         12    1    3    3    0    0  0.15128503509E+02  0.33713369800E+01 -0.16574828586E+02  0.22692784626E+02  0.00000000000E+00 0. -1.
</event>
<event>
 7    1  0.2492468E-009  0.4778727E+02  0.7816164E-02  0.1312668E+00
        -11   -1    0    0    0    0  0.00000000000E+00  0.00000000000E+00  0.45593999997E+02  0.45594000000E+02  0.51100000000E-03 0. -1.
         11   -1    0    0    0    0 -0.00000000000E+00 -0.00000000000E+00 -0.45593999997E+02  0.45594000000E+02  0.51100000000E-03 0.  1.
    9900012    2    1    2    0    0  0.39404443517E+02 -0.12762075767E+02 -0.12963125050E+02  0.47787270077E+02  0.19999995590E+02 0.  0.
         12    1    1    2    0    0 -0.39404443517E+02  0.12762075767E+02  0.12963125050E+02  0.43400729923E+02  0.00000000000E+00 0. -1.
         11    1    3    3    0    0  0.31094823448E+01 -0.31776864693E+01  0.11287180923E+01  0.45870008222E+01  0.51100000000E-03 0. -1.
        -11    1    3    3    0    0  0.10472970592E+02  0.88931831873E+00 -0.10917562635E+02  0.15154773975E+02  0.51100000000E-03 0.  1.
        -12    1    3    3    0    0  0.25821990580E+02 -0.10473707617E+02 -0.31742805076E+01  0.28045495280E+02  0.00000000000E+00 0.  1.
</event>
<event>
 7    1  0.2492468E-009  0.4778727E+02  0.7816164E-02  0.1312668E+00
        -11   -1    0    0    0    0  0.00000000000E+00  0.00000000000E+00  0.45593999997E+02  0.45594000000E+02  0.51100000000E-03 0.  1.
         11   -1    0    0    0    0 -0.00000000000E+00 -0.00000000000E+00 -0.45593999997E+02  0.45594000000E+02  0.51100000000E-03 0. -1.
    9900012    2    1    2    0    0 -0.38633933166E+02  0.11998496769E+02  0.15718723511E+02  0.47787274367E+02  0.20000015150E+02 0.  0.
         12    1    1    2    0    0  0.38633933166E+02 -0.11998496769E+02 -0.15718723511E+02  0.43400725633E+02  0.00000000000E+00 0. -1.
         11    1    3    3    0    0 -0.17207474832E+02  0.91333357144E+01  0.96618039022E+01  0.21745470018E+02  0.51100000000E-03 0. -1.
        -11    1    3    3    0    0 -0.11752069277E+02  0.34008440501E+01  0.97790365377E+01  0.15662261280E+02  0.51100000000E-03 0.  1.
         12    1    3    3    0    0 -0.96743890570E+01 -0.53568299544E+00 -0.37221169285E+01  0.10379543069E+02  0.00000000000E+00 0. -1.
</event>
<event>
 7    1  0.2492468E-009  0.4778726E+02  0.7816164E-02  0.1312668E+00
        -11   -1    0    0    0    0  0.00000000000E+00  0.00000000000E+00  0.45593999997E+02  0.45594000000E+02  0.51100000000E-03 0.  1.
         11   -1    0    0    0    0 -0.00000000000E+00 -0.00000000000E+00 -0.45593999997E+02  0.45594000000E+02  0.51100000000E-03 0. -1.
    9900012    2    1    2    0    0 -0.40702882404E+02  0.29557945139E+01  0.14770327845E+02  0.47787263349E+02  0.19999964913E+02 0.  0.
         12    1    1    2    0    0  0.40702882404E+02 -0.29557945139E+01 -0.14770327845E+02  0.43400736651E+02  0.00000000000E+00 0. -1.
         11    1    3    3    0    0 -0.29167860945E+02  0.50548315509E+01  0.57174495148E+01  0.30149704200E+02  0.51100000000E-03 0. -1.
        -11    1    3    3    0    0 -0.98647217527E+01 -0.38914176587E+01  0.28686078657E+01  0.10985662383E+02  0.51100000000E-03 0.  1.
        -12    1    3    3    0    0 -0.16702997060E+01  0.17923806217E+01  0.61842704646E+01  0.66518967656E+01  0.00000000000E+00 0.  1.
</event>
<event>
 7    1  0.2492468E-009  0.4778727E+02  0.7816164E-02  0.1312668E+00
        -11   -1    0    0    0    0  0.00000000000E+00  0.00000000000E+00  0.45593999997E+02  0.45594000000E+02  0.51100000000E-03 0.  1.
         11   -1    0    0    0    0 -0.00000000000E+00 -0.00000000000E+00 -0.45593999997E+02  0.45594000000E+02  0.51100000000E-03 0. -1.
    9900012    2    1    2    0    0 -0.33695637135E+02 -0.18725609436E+02  0.19939386757E+02  0.47787267806E+02  0.19999985236E+02 0.  0.
         12    1    1    2    0    0  0.33695637135E+02  0.18725609436E+02 -0.19939386757E+02  0.43400732194E+02  0.00000000000E+00 0. -1.
         11    1    3    3    0    0 -0.65158574628E+01  0.30572447989E+01  0.42839122246E+01  0.83758610569E+01  0.51100000000E-03 0. -1.
        -11    1    3    3    0    0 -0.82202765980E+01 -0.43695419462E+01  0.53150600337E-01  0.93096009267E+01  0.51100000000E-03 0.  1.
        -12    1    3    3    0    0 -0.18959503074E+02 -0.17413312289E+02  0.15602323932E+02  0.30101805823E+02  0.00000000000E+00 0.  1.
</event>
<event>
 7    1  0.2644294E-009  0.4778733E+02  0.7816164E-02  0.1312667E+00
        -11   -1    0    0    0    0  0.00000000000E+00  0.00000000000E+00  0.45593999997E+02  0.45594000000E+02  0.51100000000E-03 0. -1.
         11   -1    0    0    0    0 -0.00000000000E+00 -0.00000000000E+00 -0.45593999997E+02  0.45594000000E+02  0.51100000000E-03 0.  1.
    9900012    2    1    2    0    0  0.29168917988E+02  0.31290061071E+02 -0.73296890437E+01  0.47787331343E+02  0.20000274924E+02 0.  0.
         12    1    1    2    0    0 -0.29168917988E+02 -0.31290061071E+02  0.73296890437E+01  0.43400668657E+02  0.00000000000E+00 0. -1.
         11    1    3    3    0    0  0.12818799147E+02  0.21462039309E+02 -0.13910166243E+01  0.25037485305E+02  0.51100000000E-03 0. -1.
        -11    1    3    3    0    0  0.14839707553E+02  0.12014699013E+02 -0.41303113120E+01  0.19535336814E+02  0.51100000000E-03 0.  1.
         12    1    3    3    0    0  0.15104112877E+01 -0.21866772515E+01 -0.18083611074E+01  0.32145092246E+01  0.00000000000E+00 0. -1.
</event>
<event>
 7    1  0.2492468E-009  0.4778727E+02  0.7816164E-02  0.1312668E+00
        -11   -1    0    0    0    0  0.00000000000E+00  0.00000000000E+00  0.45593999997E+02  0.45594000000E+02  0.51100000000E-03 0.  1.
         11   -1    0    0    0    0 -0.00000000000E+00 -0.00000000000E+00 -0.45593999997E+02  0.45594000000E+02  0.51100000000E-03 0. -1.
    9900012    2    1    2    0    0  0.23513148695E+02  0.27858901093E+02  0.23550733568E+02  0.47787267480E+02  0.19999983749E+02 0.  0.
         12    1    1    2    0    0 -0.23513148695E+02 -0.27858901093E+02 -0.23550733568E+02  0.43400732520E+02  0.00000000000E+00 0. -1.
         11    1    3    3    0    0  0.24185171663E+02  0.29804037013E+02  0.20158485913E+02  0.43353981423E+02  0.51100000000E-03 0. -1.
        -11    1    3    3    0    0  0.52889175430E+00 -0.73616360086E+00  0.40205582823E+00  0.99162113992E+00  0.51100000000E-03 0.  1.
         12    1    3    3    0    0 -0.12009147223E+01 -0.12089723195E+01  0.29901918273E+01  0.34416649174E+01  0.00000000000E+00 0. -1.
</event>
<event>
 7    1  0.2492468E-009  0.4778727E+02  0.7816164E-02  0.1312668E+00
        -11   -1    0    0    0    0  0.00000000000E+00  0.00000000000E+00  0.45593999997E+02  0.45594000000E+02  0.51100000000E-03 0.  1.
         11   -1    0    0    0    0 -0.00000000000E+00 -0.00000000000E+00 -0.45593999997E+02  0.45594000000E+02  0.51100000000E-03 0. -1.
    9900012    2    1    2    0    0 -0.29086789334E+02  0.31825402110E+02  0.49724723091E+01  0.47787274037E+02  0.20000013645E+02 0.  0.
         12    1    1    2    0    0  0.29086789334E+02 -0.31825402110E+02 -0.49724723091E+01  0.43400725963E+02  0.00000000000E+00 0. -1.
         11    1    3    3    0    0 -0.57452639574E+01  0.38196630231E+01  0.18004977103E+01  0.71301946549E+01  0.51100000000E-03 0.  1.
        -11    1    3    3    0    0 -0.17599394473E+02  0.75976897482E+01  0.33276516792E+01  0.19456023265E+02  0.51100000000E-03 0. -1.
         12    1    3    3    0    0 -0.57421309031E+01  0.20408049339E+02 -0.15567708045E+00  0.21201056117E+02  0.00000000000E+00 0. -1.
</event>
<event>
 7    1  0.2492468E-009  0.4778727E+02  0.7816164E-02  0.1312668E+00
        -11   -1    0    0    0    0  0.00000000000E+00  0.00000000000E+00  0.45593999997E+02  0.45594000000E+02  0.51100000000E-03 0.  1.
         11   -1    0    0    0    0 -0.00000000000E+00 -0.00000000000E+00 -0.45593999997E+02  0.45594000000E+02  0.51100000000E-03 0. -1.
    9900012    2    1    2    0    0 -0.20196594720E+02  0.19917497224E+02  0.32848348072E+02  0.47787272990E+02  0.20000008870E+02 0.  0.
         12    1    1    2    0    0  0.20196594720E+02 -0.19917497224E+02 -0.32848348072E+02  0.43400727010E+02  0.00000000000E+00 0. -1.
         11    1    3    3    0    0 -0.74870080709E+01  0.19505470131E+01  0.64106502319E+00  0.77634327542E+01  0.51100000000E-03 0. -1.
        -11    1    3    3    0    0 -0.91225983544E+01  0.55268297998E+01  0.12346567748E+02  0.16315801660E+02  0.51100000000E-03 0.  1.
        -12    1    3    3    0    0 -0.35869882944E+01  0.12440120411E+02  0.19860715301E+02  0.23708038576E+02  0.00000000000E+00 0.  1.
</event>
<event>
 7    1  0.2492468E-009  0.4778728E+02  0.7816164E-02  0.1312668E+00
        -11   -1    0    0    0    0  0.00000000000E+00  0.00000000000E+00  0.45593999997E+02  0.45594000000E+02  0.51100000000E-03 0.  1.
         11   -1    0    0    0    0 -0.00000000000E+00 -0.00000000000E+00 -0.45593999997E+02  0.45594000000E+02  0.51100000000E-03 0. -1.
    9900012    2    1    2    0    0  0.77666099386E+01  0.40534803531E+02  0.13425047695E+02  0.47787280733E+02  0.20000044174E+02 0.  0.
         12    1    1    2    0    0 -0.77666099386E+01 -0.40534803531E+02 -0.13425047695E+02  0.43400719267E+02  0.00000000000E+00 0. -1.
         11    1    3    3    0    0  0.71782424957E+01  0.27874993576E+02  0.10814422519E+02  0.30748888872E+02  0.51100000000E-03 0.  1.
        -11    1    3    3    0    0 -0.17692358390E+01  0.90021254938E+01  0.64664565701E+01  0.11224238045E+02  0.51100000000E-03 0. -1.
         12    1    3    3    0    0  0.23576032820E+01  0.36576844616E+01 -0.38558313936E+01  0.58141538156E+01  0.00000000000E+00 0. -1.
</event>
<event>
 7    1  0.2492468E-009  0.4778727E+02  0.7816164E-02  0.1312668E+00
        -11   -1    0    0    0    0  0.00000000000E+00  0.00000000000E+00  0.45593999997E+02  0.45594000000E+02  0.51100000000E-03 0.  1.
         11   -1    0    0    0    0 -0.00000000000E+00 -0.00000000000E+00 -0.45593999997E+02  0.45594000000E+02  0.51100000000E-03 0. -1.
    9900012    2    1    2    0    0  0.35071411384E+02 -0.19708904440E+02 -0.16284310936E+02  0.47787267364E+02  0.19999983219E+02 0.  0.
         12    1    1    2    0    0 -0.35071411384E+02  0.19708904440E+02  0.16284310936E+02  0.43400732636E+02  0.00000000000E+00 0. -1.
         11    1    3    3    0    0  0.10382766795E+02 -0.13115070876E+02 -0.22481064966E+01  0.16877823126E+02  0.51100000000E-03 0. -1.
        -11    1    3    3    0    0  0.19770747471E+00  0.16741996782E+01 -0.98636759898E+00  0.19531907509E+01  0.51100000000E-03 0.  1.
        -12    1    3    3    0    0  0.24490937114E+02 -0.82680332427E+01 -0.13049836840E+02  0.28956253487E+02  0.00000000000E+00 0.  1.
</event>
<event>
 7    1  0.2492468E-009  0.4778727E+02  0.7816164E-02  0.1312668E+00
        -11   -1    0    0    0    0  0.00000000000E+00  0.00000000000E+00  0.45593999997E+02  0.45594000000E+02  0.51100000000E-03 0. -1.
         11   -1    0    0    0    0 -0.00000000000E+00 -0.00000000000E+00 -0.45593999997E+02  0.45594000000E+02  0.51100000000E-03 0.  1.
    9900012    2    1    2    0    0  0.11673159625E+02 -0.40698769513E+02 -0.95378702977E+01  0.47787268839E+02  0.19999989944E+02 0.  0.
         12    1    1    2    0    0 -0.11673159625E+02  0.40698769513E+02  0.95378702977E+01  0.43400731161E+02  0.00000000000E+00 0. -1.
         11    1    3    3    0    0  0.70042489259E+01 -0.20589559553E+02  0.38850542986E+01  0.22092603124E+02  0.51100000000E-03 0. -1.
        -11    1    3    3    0    0  0.50217352758E+01 -0.64530659556E+01 -0.40271965453E+01  0.91147242242E+01  0.51100000000E-03 0.  1.
         12    1    3    3    0    0 -0.35282457665E+00 -0.13656144004E+02 -0.93957280510E+01  0.16579941491E+02  0.00000000000E+00 0. -1.
</event>
<event>
 7    1  0.2492468E-009  0.4778727E+02  0.7816164E-02  0.1312668E+00
        -11   -1    0    0    0    0  0.00000000000E+00  0.00000000000E+00  0.45593999997E+02  0.45594000000E+02  0.51100000000E-03 0.  1.
         11   -1    0    0    0    0 -0.00000000000E+00 -0.00000000000E+00 -0.45593999997E+02  0.45594000000E+02  0.51100000000E-03 0. -1.
    9900012    2    1    2    0    0 -0.43039999928E+02 -0.44809003185E+01  0.33321684812E+01  0.47787269496E+02  0.19999992941E+02 0.  0.
         12    1    1    2    0    0  0.43039999928E+02  0.44809003185E+01 -0.33321684812E+01  0.43400730504E+02  0.00000000000E+00 0. -1.
         11    1    3    3    0    0 -0.33093158798E+01 -0.10659375034E+01  0.42319203625E+00  0.35024114713E+01  0.51100000000E-03 0. -1.
        -11    1    3    3    0    0 -0.41000438873E+02 -0.57181169783E+00  0.20541464210E+01  0.41055845798E+02  0.51100000000E-03 0.  1.
         12    1    3    3    0    0  0.12697548249E+01 -0.28431511173E+01  0.85483002391E+00  0.32290122268E+01  0.00000000000E+00 0. -1.
</event>
<event>
 7    1  0.2492468E-009  0.4778727E+02  0.7816164E-02  0.1312668E+00
        -11   -1    0    0    0    0  0.00000000000E+00  0.00000000000E+00  0.45593999997E+02  0.45594000000E+02  0.51100000000E-03 0. -1.
         11   -1    0    0    0    0 -0.00000000000E+00 -0.00000000000E+00 -0.45593999997E+02  0.45594000000E+02  0.51100000000E-03 0.  1.
    9900012    2    1    2    0    0  0.41494480320E+02  0.12515320097E+02  0.22799424832E+01  0.47787271067E+02  0.20000000103E+02 0.  0.
         12    1    1    2    0    0 -0.41494480320E+02 -0.12515320097E+02 -0.22799424832E+01  0.43400728933E+02  0.00000000000E+00 0. -1.
         11    1    3    3    0    0  0.19256467812E+02  0.95919860393E+01  0.31253150620E+01  0.21739028112E+02  0.51100000000E-03 0.  1.
        -11    1    3    3    0    0  0.15693329387E+02 -0.65231099378E+00  0.50962848822E+01  0.16512971166E+02  0.51100000000E-03 0. -1.
        -12    1    3    3    0    0  0.65446831219E+01  0.35756450513E+01 -0.59416574611E+01  0.95352717887E+01  0.00000000000E+00 0.  1.
</event>
<event>
 7    1  0.2492468E-009  0.4778727E+02  0.7816164E-02  0.1312668E+00
        -11   -1    0    0    0    0  0.00000000000E+00  0.00000000000E+00  0.45593999997E+02  0.45594000000E+02  0.51100000000E-03 0. -1.
         11   -1    0    0    0    0 -0.00000000000E+00 -0.00000000000E+00 -0.45593999997E+02  0.45594000000E+02  0.51100000000E-03 0.  1.
    9900012    2    1    2    0    0 -0.41572291620E+01  0.39559177459E+02 -0.17361231914E+02  0.47787269026E+02  0.19999990797E+02 0.  0.
         12    1    1    2    0    0  0.41572291620E+01 -0.39559177459E+02  0.17361231914E+02  0.43400730974E+02  0.00000000000E+00 0. -1.
         11    1    3    3    0    0  0.46691989393E-01 -0.16417007037E+01 -0.28417313982E+00  0.16667681233E+01  0.51100000000E-03 0. -1.
        -11    1    3    3    0    0 -0.57403071618E+01  0.96530378912E+01 -0.51959294486E+01  0.12374568677E+02  0.51100000000E-03 0.  1.
         12    1    3    3    0    0  0.15363860104E+01  0.31547840271E+02 -0.11881129326E+02  0.33745932226E+02  0.00000000000E+00 0. -1.
</event>
<event>
 7    1  0.2492468E-009  0.4778727E+02  0.7816164E-02  0.1312668E+00
        -11   -1    0    0    0    0  0.00000000000E+00  0.00000000000E+00  0.45593999997E+02  0.45594000000E+02  0.51100000000E-03 0. -1.
         11   -1    0    0    0    0 -0.00000000000E+00 -0.00000000000E+00 -0.45593999997E+02  0.45594000000E+02  0.51100000000E-03 0.  1.
    9900012    2    1    2    0    0  0.12481292857E+02  0.39780192929E+02 -0.12057246675E+02  0.47787267077E+02  0.19999981912E+02 0.  0.
         12    1    1    2    0    0 -0.12481292857E+02 -0.39780192929E+02  0.12057246675E+02  0.43400732923E+02  0.00000000000E+00 0. -1.
         11    1    3    3    0    0  0.45673565703E+01  0.48410338657E+01  0.15662058610E+01  0.68373500707E+01  0.51100000000E-03 0. -1.
        -11    1    3    3    0    0  0.10432490093E+02  0.15692175348E+02 -0.39134371402E+01  0.19245680222E+02  0.51100000000E-03 0.  1.
        -12    1    3    3    0    0 -0.25185538064E+01  0.19246983716E+02 -0.97100153956E+01  0.21704236785E+02  0.00000000000E+00 0.  1.
</event>
<event>
 7    1  0.2492468E-009  0.4778727E+02  0.7816164E-02  0.1312668E+00
        -11   -1    0    0    0    0  0.00000000000E+00  0.00000000000E+00  0.45593999997E+02  0.45594000000E+02  0.51100000000E-03 0.  1.
         11   -1    0    0    0    0 -0.00000000000E+00 -0.00000000000E+00 -0.45593999997E+02  0.45594000000E+02  0.51100000000E-03 0. -1.
    9900012    2    1    2    0    0 -0.60780904116E+01  0.34112216964E+02  0.26134971467E+02  0.47787271172E+02  0.20000000583E+02 0.  0.
         12    1    1    2    0    0  0.60780904116E+01 -0.34112216964E+02 -0.26134971467E+02  0.43400728828E+02  0.00000000000E+00 0. -1.
         11    1    3    3    0    0 -0.10548210390E+02  0.18694009455E+02  0.10338824505E+02  0.23824819502E+02  0.51100000000E-03 0. -1.
        -11    1    3    3    0    0  0.15090969966E+01  0.59600520514E+01  0.11138591550E+01  0.62482218814E+01  0.51100000000E-03 0.  1.
        -12    1    3    3    0    0  0.29610229816E+01  0.94581554574E+01  0.14682287807E+02  0.17714229789E+02  0.00000000000E+00 0.  1.
</event>
<event>
 7    1  0.2492468E-009  0.4778727E+02  0.7816164E-02  0.1312668E+00
        -11   -1    0    0    0    0  0.00000000000E+00  0.00000000000E+00  0.45593999997E+02  0.45594000000E+02  0.51100000000E-03 0. -1.
         11   -1    0    0    0    0 -0.00000000000E+00 -0.00000000000E+00 -0.45593999997E+02  0.45594000000E+02  0.51100000000E-03 0.  1.
    9900012    2    1    2    0    0 -0.31748257627E+02 -0.84195633638E+01 -0.28368689397E+02  0.47787269042E+02  0.19999990870E+02 0.  0.
         12    1    1    2    0    0  0.31748257627E+02  0.84195633638E+01  0.28368689397E+02  0.43400730958E+02  0.00000000000E+00 0. -1.
         11    1    3    3    0    0  0.25580807612E+00  0.40459273829E+00  0.18159547771E+01  0.18779843101E+01  0.51100000000E-03 0. -1.
        -11    1    3    3    0    0 -0.11911108329E+02  0.10032311963E+01 -0.78523801746E+01  0.14301777831E+02  0.51100000000E-03 0.  1.
        -12    1    3    3    0    0 -0.20092957375E+02 -0.98273872983E+01 -0.22332263999E+02  0.31607506901E+02  0.00000000000E+00 0.  1.
</event>
<event>
 7    1  0.2492468E-009  0.4778727E+02  0.7816164E-02  0.1312668E+00
        -11   -1    0    0    0    0  0.00000000000E+00  0.00000000000E+00  0.45593999997E+02  0.45594000000E+02  0.51100000000E-03 0. -1.
         11   -1    0    0    0    0 -0.00000000000E+00 -0.00000000000E+00 -0.45593999997E+02  0.45594000000E+02  0.51100000000E-03 0.  1.
    9900012    2    1    2    0    0  0.20289773026E+02  0.93814959095E+01 -0.37201296084E+02  0.47787265153E+02  0.19999973138E+02 0.  0.
         12    1    1    2    0    0 -0.20289773026E+02 -0.93814959095E+01  0.37201296084E+02  0.43400734847E+02  0.00000000000E+00 0. -1.
         11    1    3    3    0    0  0.75074683137E+00 -0.33543136657E+01 -0.53647516875E+01  0.63714677982E+01  0.51100000000E-03 0. -1.
        -11    1    3    3    0    0  0.11469037380E+01  0.52753726786E+01 -0.12898212180E+02  0.13982446953E+02  0.51100000000E-03 0.  1.
         12    1    3    3    0    0  0.18392122456E+02  0.74604368966E+01 -0.18938332217E+02  0.27433350402E+02  0.00000000000E+00 0. -1.
</event>
<event>
 7    1  0.2492468E-009  0.4778726E+02  0.7816164E-02  0.1312668E+00
        -11   -1    0    0    0    0  0.00000000000E+00  0.00000000000E+00  0.45593999997E+02  0.45594000000E+02  0.51100000000E-03 0. -1.
         11   -1    0    0    0    0 -0.00000000000E+00 -0.00000000000E+00 -0.45593999997E+02  0.45594000000E+02  0.51100000000E-03 0.  1.
    9900012    2    1    2    0    0 -0.35172690792E+02  0.24147143161E+02  0.79637560910E+01  0.47787261395E+02  0.19999956006E+02 0.  0.
         12    1    1    2    0    0  0.35172690792E+02 -0.24147143161E+02 -0.79637560910E+01  0.43400738605E+02  0.00000000000E+00 0. -1.
         11    1    3    3    0    0 -0.15285984983E+01  0.71510021992E+01  0.54068486913E+01  0.90943641259E+01  0.51100000000E-03 0. -1.
        -11    1    3    3    0    0 -0.37568578467E+01 -0.28664060328E+00  0.17615569495E+01  0.41592339275E+01  0.51100000000E-03 0.  1.
        -12    1    3    3    0    0 -0.29887234447E+02  0.17282781565E+02  0.79535045012E+00  0.34533663342E+02  0.00000000000E+00 0.  1.
</event>
<event>
 7    1  0.2492468E-009  0.4778727E+02  0.7816164E-02  0.1312668E+00
        -11   -1    0    0    0    0  0.00000000000E+00  0.00000000000E+00  0.45593999997E+02  0.45594000000E+02  0.51100000000E-03 0. -1.
         11   -1    0    0    0    0 -0.00000000000E+00 -0.00000000000E+00 -0.45593999997E+02  0.45594000000E+02  0.51100000000E-03 0.  1.
    9900012    2    1    2    0    0  0.33310787132E+02  0.26877293503E+02 -0.71851042164E+01  0.47787272264E+02  0.20000005559E+02 0.  0.
         12    1    1    2    0    0 -0.33310787132E+02 -0.26877293503E+02  0.71851042164E+01  0.43400727736E+02  0.00000000000E+00 0. -1.
         11    1    3    3    0    0  0.11335068982E+02  0.47011368899E+01 -0.39142942464E+01  0.12880457157E+02  0.51100000000E-03 0. -1.
        -11    1    3    3    0    0  0.22648014681E+02  0.22934070786E+02 -0.52752653542E+01  0.32660872564E+02  0.51100000000E-03 0.  1.
         12    1    3    3    0    0 -0.67229653014E+00 -0.75791417277E+00  0.20044553841E+01  0.22459425426E+01  0.00000000000E+00 0. -1.
</event>
<event>
 7    1  0.2492468E-009  0.4778728E+02  0.7816164E-02  0.1312668E+00
        -11   -1    0    0    0    0  0.00000000000E+00  0.00000000000E+00  0.45593999997E+02  0.45594000000E+02  0.51100000000E-03 0.  1.
         11   -1    0    0    0    0 -0.00000000000E+00 -0.00000000000E+00 -0.45593999997E+02  0.45594000000E+02  0.51100000000E-03 0. -1.
    9900012    2    1    2    0    0  0.12236246422E+02  0.27474214419E+02  0.31290006623E+02  0.47787277668E+02  0.20000030201E+02 0.  0.
         12    1    1    2    0    0 -0.12236246422E+02 -0.27474214419E+02 -0.31290006623E+02  0.43400722332E+02  0.00000000000E+00 0. -1.
         11    1    3    3    0    0  0.10697771108E+01 -0.15708979676E+01  0.17648292729E+01  0.25936009938E+01  0.51100000000E-03 0. -1.
        -11    1    3    3    0    0  0.11146459837E+02  0.10833980877E+02  0.17311913532E+02  0.23266307377E+02  0.51100000000E-03 0.  1.
         12    1    3    3    0    0  0.20009475053E-01  0.18211131510E+02  0.12213263817E+02  0.21927369298E+02  0.00000000000E+00 0. -1.
</event>
<event>
 7    1  0.2492468E-009  0.4778727E+02  0.7816164E-02  0.1312668E+00
        -11   -1    0    0    0    0  0.00000000000E+00  0.00000000000E+00  0.45593999997E+02  0.45594000000E+02  0.51100000000E-03 0.  1.
         11   -1    0    0    0    0 -0.00000000000E+00 -0.00000000000E+00 -0.45593999997E+02  0.45594000000E+02  0.51100000000E-03 0. -1.
    9900012    2    1    2    0    0 -0.13027676112E+02 -0.19128623462E+02  0.36715098649E+02  0.47787273632E+02  0.20000011799E+02 0.  0.
         12    1    1    2    0    0  0.13027676112E+02  0.19128623462E+02 -0.36715098649E+02  0.43400726368E+02  0.00000000000E+00 0. -1.
         11    1    3    3    0    0 -0.72112367056E+01 -0.62174172801E+01  0.17746756912E+02  0.20139652272E+02  0.51100000000E-03 0.  1.
        -11    1    3    3    0    0 -0.59123758351E+01 -0.31154613123E+00  0.11671386664E+02  0.13087189000E+02  0.51100000000E-03 0. -1.
         12    1    3    3    0    0  0.95936428631E-01 -0.12599660051E+02  0.72969550732E+01  0.14560432361E+02  0.00000000000E+00 0. -1.
</event>
<event>
 7    1  0.2492468E-009  0.4778729E+02  0.7816164E-02  0.1312668E+00
        -11   -1    0    0    0    0  0.00000000000E+00  0.00000000000E+00  0.45593999997E+02  0.45594000000E+02  0.51100000000E-03 0.  1.
         11   -1    0    0    0    0 -0.00000000000E+00 -0.00000000000E+00 -0.45593999997E+02  0.45594000000E+02  0.51100000000E-03 0. -1.
    9900012    2    1    2    0    0 -0.41886388249E+01  0.12373535057E+02  0.41388075922E+02  0.47787286947E+02  0.20000072505E+02 0.  0.
         12    1    1    2    0    0  0.41886388249E+01 -0.12373535057E+02 -0.41388075922E+02  0.43400713053E+02  0.00000000000E+00 0. -1.
         11    1    3    3    0    0 -0.12249944287E+00 -0.35175363186E+01  0.13253715574E+02  0.13713097558E+02  0.51100000000E-03 0. -1.
        -11    1    3    3    0    0 -0.14730887474E+01  0.60609115390E+01  0.20307849252E+02  0.21244137560E+02  0.51100000000E-03 0.  1.
        -12    1    3    3    0    0 -0.25930506347E+01  0.98301598362E+01  0.78265110960E+01  0.12830051829E+02  0.00000000000E+00 0.  1.
</event>
<event>
 7    1  0.2492468E-009  0.4778727E+02  0.7816164E-02  0.1312668E+00
        -11   -1    0    0    0    0  0.00000000000E+00  0.00000000000E+00  0.45593999997E+02  0.45594000000E+02  0.51100000000E-03 0. -1.
         11   -1    0    0    0    0 -0.00000000000E+00 -0.00000000000E+00 -0.45593999997E+02  0.45594000000E+02  0.51100000000E-03 0.  1.
    9900012    2    1    2    0    0  0.20535695988E+02 -0.53780444551E+01 -0.37854791603E+02  0.47787269371E+02  0.19999992368E+02 0.  0.
         12    1    1    2    0    0 -0.20535695988E+02  0.53780444551E+01  0.37854791603E+02  0.43400730629E+02  0.00000000000E+00 0. -1.
         11    1    3    3    0    0  0.34643425982E+01 -0.36426440115E+01 -0.19604630789E+02  0.20238875306E+02  0.51100000000E-03 0. -1.
        -11    1    3    3    0    0  0.40355351783E+01  0.15839400274E+01 -0.11915566356E+02  0.12679713405E+02  0.51100000000E-03 0.  1.
         12    1    3    3    0    0  0.13035818211E+02 -0.33193404709E+01 -0.63345944579E+01  0.14868680659E+02  0.00000000000E+00 0. -1.
</event>
<event>
 7    1  0.2492468E-009  0.4778727E+02  0.7816164E-02  0.1312668E+00
        -11   -1    0    0    0    0  0.00000000000E+00  0.00000000000E+00  0.45593999997E+02  0.45594000000E+02  0.51100000000E-03 0.  1.
         11   -1    0    0    0    0 -0.00000000000E+00 -0.00000000000E+00 -0.45593999997E+02  0.45594000000E+02  0.51100000000E-03 0. -1.
    9900012    2    1    2    0    0 -0.13588568947E+02  0.24181492368E+02  0.33380078986E+02  0.47787268989E+02  0.19999990628E+02 0.  0.
         12    1    1    2    0    0  0.13588568947E+02 -0.24181492368E+02 -0.33380078986E+02  0.43400731011E+02  0.00000000000E+00 0. -1.
         11    1    3    3    0    0  0.20714348765E+01  0.84626677722E+00  0.77758835915E+01  0.80914384256E+01  0.51100000000E-03 0. -1.
        -11    1    3    3    0    0 -0.76395355972E+00  0.10859594436E+02  0.98522343412E+01  0.14682674761E+02  0.51100000000E-03 0.  1.
        -12    1    3    3    0    0 -0.14896050263E+02  0.12475631155E+02  0.15751961054E+02  0.25013155802E+02  0.00000000000E+00 0.  1.
</event>
<event>
 7    1  0.2492468E-009  0.4778727E+02  0.7816164E-02  0.1312668E+00
        -11   -1    0    0    0    0  0.00000000000E+00  0.00000000000E+00  0.45593999997E+02  0.45594000000E+02  0.51100000000E-03 0. -1.
         11   -1    0    0    0    0 -0.00000000000E+00 -0.00000000000E+00 -0.45593999997E+02  0.45594000000E+02  0.51100000000E-03 0.  1.
    9900012    2    1    2    0    0  0.33909961341E+02 -0.11099975014E+02 -0.24708872887E+02  0.47787270481E+02  0.19999997429E+02 0.  0.
         12    1    1    2    0    0 -0.33909961341E+02  0.11099975014E+02  0.24708872887E+02  0.43400729519E+02  0.00000000000E+00 0. -1.
         11    1    3    3    0    0  0.28519648975E+01  0.24914988114E-01 -0.11043206069E+02  0.11405556764E+02  0.51100000000E-03 0. -1.
        -11    1    3    3    0    0  0.27653364927E+02 -0.10990446080E+02 -0.10037913137E+02  0.31404748005E+02  0.51100000000E-03 0.  1.
        -12    1    3    3    0    0  0.34046315163E+01 -0.13444392217E+00 -0.36277536811E+01  0.49769657123E+01  0.00000000000E+00 0.  1.
</event>
<event>
 7    1  0.2492468E-009  0.4778728E+02  0.7816164E-02  0.1312668E+00
        -11   -1    0    0    0    0  0.00000000000E+00  0.00000000000E+00  0.45593999997E+02  0.45594000000E+02  0.51100000000E-03 0.  1.
         11   -1    0    0    0    0 -0.00000000000E+00 -0.00000000000E+00 -0.45593999997E+02  0.45594000000E+02  0.51100000000E-03 0. -1.
    9900012    2    1    2    0    0 -0.10135324659E+02  0.41644474386E+02 -0.68290273553E+01  0.47787278030E+02  0.20000031852E+02 0.  0.
         12    1    1    2    0    0  0.10135324659E+02 -0.41644474386E+02  0.68290273553E+01  0.43400721970E+02  0.00000000000E+00 0. -1.
         11    1    3    3    0    0 -0.91346629234E+01  0.14135402187E+02 -0.49312267290E+01  0.17537635503E+02  0.51100000000E-03 0.  1.
        -11    1    3    3    0    0  0.67170387212E+00  0.98718829058E+01 -0.66320036071E+01  0.11911705600E+02  0.51100000000E-03 0. -1.
        -12    1    3    3    0    0 -0.16723656080E+01  0.17637189293E+02  0.47342029809E+01  0.18337936928E+02  0.00000000000E+00 0.  1.
</event>
<event>
 7    1  0.2492468E-009  0.4778727E+02  0.7816164E-02  0.1312668E+00
        -11   -1    0    0    0    0  0.00000000000E+00  0.00000000000E+00  0.45593999997E+02  0.45594000000E+02  0.51100000000E-03 0.  1.
         11   -1    0    0    0    0 -0.00000000000E+00 -0.00000000000E+00 -0.45593999997E+02  0.45594000000E+02  0.51100000000E-03 0. -1.
    9900012    2    1    2    0    0  0.15146393620E+02  0.79631173371E+01  0.39884820137E+02  0.47787270113E+02  0.19999995751E+02 0.  0.
         12    1    1    2    0    0 -0.15146393620E+02 -0.79631173371E+01 -0.39884820137E+02  0.43400729887E+02  0.00000000000E+00 0. -1.
         11    1    3    3    0    0  0.45503579176E+01 -0.49732732349E+01  0.78894147619E+01  0.10376997128E+02  0.51100000000E-03 0. -1.
        -11    1    3    3    0    0  0.75095972184E+01  0.35489328895E+01  0.83245925419E+01  0.11759584018E+02  0.51100000000E-03 0.  1.
         12    1    3    3    0    0  0.30864384836E+01  0.93874576825E+01  0.23670812833E+02  0.25650688966E+02  0.00000000000E+00 0. -1.
</event>
<event>
 7    1  0.2492468E-009  0.4778727E+02  0.7816164E-02  0.1312668E+00
        -11   -1    0    0    0    0  0.00000000000E+00  0.00000000000E+00  0.45593999997E+02  0.45594000000E+02  0.51100000000E-03 0.  1.
         11   -1    0    0    0    0 -0.00000000000E+00 -0.00000000000E+00 -0.45593999997E+02  0.45594000000E+02  0.51100000000E-03 0. -1.
    9900012    2    1    2    0    0 -0.16678957173E+02  0.10743660073E+02  0.38600646082E+02  0.47787265880E+02  0.19999976455E+02 0.  0.
         12    1    1    2    0    0  0.16678957173E+02 -0.10743660073E+02 -0.38600646082E+02  0.43400734120E+02  0.00000000000E+00 0. -1.
         11    1    3    3    0    0 -0.72964756622E+01 -0.68608908218E+00  0.99460651006E+01  0.12354492566E+02  0.51100000000E-03 0. -1.
        -11    1    3    3    0    0 -0.64310227624E+01  0.43446393393E+01  0.26274743039E+02  0.27397008355E+02  0.51100000000E-03 0.  1.
         12    1    3    3    0    0 -0.29514587485E+01  0.70851098162E+01  0.23798379423E+01  0.80357649595E+01  0.00000000000E+00 0. -1.
</event>
<event>
 7    1  0.2492468E-009  0.4778729E+02  0.7816164E-02  0.1312668E+00
        -11   -1    0    0    0    0  0.00000000000E+00  0.00000000000E+00  0.45593999997E+02  0.45594000000E+02  0.51100000000E-03 0.  1.
         11   -1    0    0    0    0 -0.00000000000E+00 -0.00000000000E+00 -0.45593999997E+02  0.45594000000E+02  0.51100000000E-03 0. -1.
    9900012    2    1    2    0    0  0.25535037767E+02 -0.33199540370E+02  0.11374264947E+02  0.47787291047E+02  0.20000091200E+02 0.  0.
         12    1    1    2    0    0 -0.25535037767E+02  0.33199540370E+02 -0.11374264947E+02  0.43400708953E+02  0.00000000000E+00 0. -1.
         11    1    3    3    0    0  0.18902695898E+02 -0.20525789358E+02  0.66182065157E+01  0.28677876469E+02  0.51100000000E-03 0. -1.
        -11    1    3    3    0    0  0.41151401984E+01 -0.12479692263E+02 -0.63549983766E+00  0.13156023645E+02  0.51100000000E-03 0.  1.
         12    1    3    3    0    0  0.25172016705E+01 -0.19405874821E+00  0.53915582686E+01  0.59533909338E+01  0.00000000000E+00 0. -1.
</event>
<event>
 7    1  0.2492468E-009  0.4778727E+02  0.7816164E-02  0.1312668E+00
        -11   -1    0    0    0    0  0.00000000000E+00  0.00000000000E+00  0.45593999997E+02  0.45594000000E+02  0.51100000000E-03 0.  1.
         11   -1    0    0    0    0 -0.00000000000E+00 -0.00000000000E+00 -0.45593999997E+02  0.45594000000E+02  0.51100000000E-03 0. -1.
    9900012    2    1    2    0    0  0.87901173291E+01  0.37231030041E+02  0.20498975603E+02  0.47787265428E+02  0.19999974395E+02 0.  0.
         12    1    1    2    0    0 -0.87901173291E+01 -0.37231030041E+02 -0.20498975603E+02  0.43400734572E+02  0.00000000000E+00 0. -1.
         11    1    3    3    0    0  0.22725643921E+01  0.94303693637E+01  0.20623592984E+00  0.97025228045E+01  0.51100000000E-03 0. -1.
        -11    1    3    3    0    0  0.47494190673E+01  0.26081564731E+02  0.11402239669E+02  0.28858552805E+02  0.51100000000E-03 0.  1.
        -12    1    3    3    0    0  0.17681338697E+01  0.17190959470E+01  0.88905000039E+01  0.92261898189E+01  0.00000000000E+00 0.  1.
</event>
<event>
 7    1  0.2505860E-009  0.4778727E+02  0.7816164E-02  0.1312668E+00
        -11   -1    0    0    0    0  0.00000000000E+00  0.00000000000E+00  0.45593999997E+02  0.45594000000E+02  0.51100000000E-03 0. -1.
         11   -1    0    0    0    0 -0.00000000000E+00 -0.00000000000E+00 -0.45593999997E+02  0.45594000000E+02  0.51100000000E-03 0.  1.
    9900012    2    1    2    0    0  0.92472481278E+01  0.35451608323E+02 -0.23265756797E+02  0.47787267633E+02  0.19999984448E+02 0.  0.
         12    1    1    2    0    0 -0.92472481278E+01 -0.35451608323E+02  0.23265756797E+02  0.43400732367E+02  0.00000000000E+00 0. -1.
         11    1    3    3    0    0 -0.18059386261E+01  0.55484365372E+01  0.10672882042E+01  0.59317507281E+01  0.51100000000E-03 0. -1.
        -11    1    3    3    0    0  0.64195742687E+01  0.19825617765E+02 -0.84594241493E+01  0.22490618283E+02  0.51100000000E-03 0.  1.
         12    1    3    3    0    0  0.46336124852E+01  0.10077554021E+02 -0.15873620852E+02  0.19364898622E+02  0.00000000000E+00 0. -1.
</event>
<event>
 7    1  0.2492468E-009  0.4778727E+02  0.7816164E-02  0.1312668E+00
        -11   -1    0    0    0    0  0.00000000000E+00  0.00000000000E+00  0.45593999997E+02  0.45594000000E+02  0.51100000000E-03 0.  1.
         11   -1    0    0    0    0 -0.00000000000E+00 -0.00000000000E+00 -0.45593999997E+02  0.45594000000E+02  0.51100000000E-03 0. -1.
    9900012    2    1    2    0    0  0.12599519707E+02  0.22476705475E+02  0.34923814697E+02  0.47787273983E+02  0.20000013396E+02 0.  0.
         12    1    1    2    0    0 -0.12599519707E+02 -0.22476705475E+02 -0.34923814697E+02  0.43400726017E+02  0.00000000000E+00 0. -1.
         11    1    3    3    0    0  0.10710925695E+01  0.41021504515E+01  0.30190864212E+01  0.52047824833E+01  0.51100000000E-03 0. -1.
        -11    1    3    3    0    0  0.10388639814E+02  0.62499016210E+01  0.51224809802E+01  0.13161493803E+02  0.51100000000E-03 0.  1.
         12    1    3    3    0    0  0.11397873235E+01  0.12124653403E+02  0.26782247295E+02  0.29420997697E+02  0.00000000000E+00 0. -1.
</event>
<event>
 7    1  0.2492468E-009  0.4778727E+02  0.7816164E-02  0.1312668E+00
        -11   -1    0    0    0    0  0.00000000000E+00  0.00000000000E+00  0.45593999997E+02  0.45594000000E+02  0.51100000000E-03 0. -1.
         11   -1    0    0    0    0 -0.00000000000E+00 -0.00000000000E+00 -0.45593999997E+02  0.45594000000E+02  0.51100000000E-03 0.  1.
    9900012    2    1    2    0    0  0.37595879610E+02  0.21642665537E+02 -0.13297973896E+01  0.47787268482E+02  0.19999988318E+02 0.  0.
         12    1    1    2    0    0 -0.37595879610E+02 -0.21642665537E+02  0.13297973896E+01  0.43400731518E+02  0.00000000000E+00 0. -1.
         11    1    3    3    0    0  0.14081209164E+02  0.80120409862E+01 -0.38167734267E+01  0.16644549016E+02  0.51100000000E-03 0. -1.
        -11    1    3    3    0    0  0.28211765544E+01 -0.48213692342E+00 -0.43240321822E+01  0.51854361183E+01  0.51100000000E-03 0.  1.
         12    1    3    3    0    0  0.20693493891E+02  0.14112761474E+02  0.68110082193E+01  0.25957283348E+02  0.00000000000E+00 0. -1.
</event>
<event>
 7    1  0.2492468E-009  0.4778727E+02  0.7816164E-02  0.1312668E+00
        -11   -1    0    0    0    0  0.00000000000E+00  0.00000000000E+00  0.45593999997E+02  0.45594000000E+02  0.51100000000E-03 0.  1.
         11   -1    0    0    0    0 -0.00000000000E+00 -0.00000000000E+00 -0.45593999997E+02  0.45594000000E+02  0.51100000000E-03 0. -1.
    9900012    2    1    2    0    0 -0.52320825743E+01  0.41390592261E+02  0.11961070139E+02  0.47787274031E+02  0.20000013618E+02 0.  0.
         12    1    1    2    0    0  0.52320825743E+01 -0.41390592261E+02 -0.11961070139E+02  0.43400725969E+02  0.00000000000E+00 0. -1.
         11    1    3    3    0    0 -0.79260013067E+01  0.11517359124E+02 -0.18146154199E+01  0.14098364703E+02  0.51100000000E-03 0. -1.
        -11    1    3    3    0    0 -0.21208962866E+01  0.92576817338E+01  0.53727392376E+01  0.10911883399E+02  0.51100000000E-03 0.  1.
         12    1    3    3    0    0  0.48148150191E+01  0.20615551402E+02  0.84029463209E+01  0.22777025929E+02  0.00000000000E+00 0. -1.
</event>
<event>
 7    1  0.2492468E-009  0.4778727E+02  0.7816164E-02  0.1312668E+00
        -11   -1    0    0    0    0  0.00000000000E+00  0.00000000000E+00  0.45593999997E+02  0.45594000000E+02  0.51100000000E-03 0.  1.
         11   -1    0    0    0    0 -0.00000000000E+00 -0.00000000000E+00 -0.45593999997E+02  0.45594000000E+02  0.51100000000E-03 0. -1.
    9900012    2    1    2    0    0  0.41338353107E+01 -0.24688057678E+02  0.35454679894E+02  0.47787272902E+02  0.20000008469E+02 0.  0.
         12    1    1    2    0    0 -0.41338353107E+01  0.24688057678E+02 -0.35454679894E+02  0.43400727098E+02  0.00000000000E+00 0. -1.
         11    1    3    3    0    0 -0.34399961712E+01 -0.14130756109E+02  0.25790007828E+02  0.29608045290E+02  0.51100000000E-03 0.  1.
        -11    1    3    3    0    0  0.19414287395E+00 -0.14895651057E+01  0.56057159061E+01  0.58034943560E+01  0.51100000000E-03 0. -1.
        -12    1    3    3    0    0  0.73796886080E+01 -0.90677364632E+01  0.40589561595E+01  0.12375733256E+02  0.00000000000E+00 0.  1.
</event>
<event>
 7    1  0.2492468E-009  0.4778727E+02  0.7816164E-02  0.1312668E+00
        -11   -1    0    0    0    0  0.00000000000E+00  0.00000000000E+00  0.45593999997E+02  0.45594000000E+02  0.51100000000E-03 0. -1.
         11   -1    0    0    0    0 -0.00000000000E+00 -0.00000000000E+00 -0.45593999997E+02  0.45594000000E+02  0.51100000000E-03 0.  1.
    9900012    2    1    2    0    0  0.33921662210E+02 -0.26927870940E+02  0.27989262697E+01  0.47787269721E+02  0.19999993966E+02 0.  0.
         12    1    1    2    0    0 -0.33921662210E+02  0.26927870940E+02 -0.27989262697E+01  0.43400730279E+02  0.00000000000E+00 0. -1.
         11    1    3    3    0    0  0.15767203152E+02 -0.12506851045E+02  0.49565522326E+01  0.20726635728E+02  0.51100000000E-03 0. -1.
        -11    1    3    3    0    0  0.10273299094E+02 -0.13436825035E+02  0.35467482509E+01  0.17282024323E+02  0.51100000000E-03 0.  1.
        -12    1    3    3    0    0  0.78811599644E+01 -0.98419486069E+00 -0.57043742138E+01  0.97786096701E+01  0.00000000000E+00 0.  1.
</event>
<event>
 7    1  0.2492468E-009  0.4778727E+02  0.7816164E-02  0.1312668E+00
        -11   -1    0    0    0    0  0.00000000000E+00  0.00000000000E+00  0.45593999997E+02  0.45594000000E+02  0.51100000000E-03 0.  1.
         11   -1    0    0    0    0 -0.00000000000E+00 -0.00000000000E+00 -0.45593999997E+02  0.45594000000E+02  0.51100000000E-03 0. -1.
    9900012    2    1    2    0    0  0.29214607410E+00 -0.26900341682E+02  0.34057444628E+02  0.47787271129E+02  0.20000000386E+02 0.  0.
         12    1    1    2    0    0 -0.29214607410E+00  0.26900341682E+02 -0.34057444628E+02  0.43400728871E+02  0.00000000000E+00 0. -1.
         11    1    3    3    0    0 -0.60796292547E+00 -0.12770452765E+02  0.47031617978E+01  0.13622547996E+02  0.51100000000E-03 0. -1.
        -11    1    3    3    0    0  0.49145896813E+01 -0.33188319585E+01  0.10702364466E+02  0.12235540149E+02  0.51100000000E-03 0.  1.
        -12    1    3    3    0    0 -0.40144806817E+01 -0.10811056958E+02  0.18651918364E+02  0.21929182984E+02  0.00000000000E+00 0.  1.
</event>
<event>
 7    1  0.2492468E-009  0.4778726E+02  0.7816164E-02  0.1312668E+00
        -11   -1    0    0    0    0  0.00000000000E+00  0.00000000000E+00  0.45593999997E+02  0.45594000000E+02  0.51100000000E-03 0. -1.
         11   -1    0    0    0    0 -0.00000000000E+00 -0.00000000000E+00 -0.45593999997E+02  0.45594000000E+02  0.51100000000E-03 0.  1.
    9900012    2    1    2    0    0  0.11956002200E+02 -0.20575346290E+02  0.36295089759E+02  0.47787258023E+02  0.19999940630E+02 0.  0.
         12    1    1    2    0    0 -0.11956002200E+02  0.20575346290E+02 -0.36295089759E+02  0.43400741977E+02  0.00000000000E+00 0. -1.
         11    1    3    3    0    0  0.80115686513E+01 -0.68185305681E+01  0.18713889605E+02  0.21468284881E+02  0.51100000000E-03 0. -1.
        -11    1    3    3    0    0  0.48502945024E+01 -0.12295760052E+02  0.19616929223E+02  0.23654491845E+02  0.51100000000E-03 0.  1.
         12    1    3    3    0    0 -0.90586095407E+00 -0.14610556701E+01 -0.20357290689E+01  0.26644812969E+01  0.00000000000E+00 0. -1.
</event>
<event>
 7    1  0.2492468E-009  0.4778728E+02  0.7816164E-02  0.1312668E+00
        -11   -1    0    0    0    0  0.00000000000E+00  0.00000000000E+00  0.45593999997E+02  0.45594000000E+02  0.51100000000E-03 0.  1.
         11   -1    0    0    0    0 -0.00000000000E+00 -0.00000000000E+00 -0.45593999997E+02  0.45594000000E+02  0.51100000000E-03 0. -1.
    9900012    2    1    2    0    0  0.10099107120E+02 -0.10435747407E+02  0.40898974250E+02  0.47787275544E+02  0.20000020517E+02 0.  0.
         12    1    1    2    0    0 -0.10099107120E+02  0.10435747407E+02 -0.40898974250E+02  0.43400724456E+02  0.00000000000E+00 0. -1.
         11    1    3    3    0    0  0.24030936131E+01  0.23788922857E+01  0.99145720640E+01  0.10475338987E+02  0.51100000000E-03 0. -1.
        -11    1    3    3    0    0  0.11587084297E+02 -0.70721425032E+01  0.23248409790E+02  0.26921446472E+02  0.51100000000E-03 0.  1.
        -12    1    3    3    0    0 -0.38910707904E+01 -0.57424971899E+01  0.77359923958E+01  0.10390490086E+02  0.00000000000E+00 0.  1.
</event>
<event>
 7    1  0.2492468E-009  0.4778729E+02  0.7816164E-02  0.1312668E+00
        -11   -1    0    0    0    0  0.00000000000E+00  0.00000000000E+00  0.45593999997E+02  0.45594000000E+02  0.51100000000E-03 0.  1.
         11   -1    0    0    0    0 -0.00000000000E+00 -0.00000000000E+00 -0.45593999997E+02  0.45594000000E+02  0.51100000000E-03 0. -1.
    9900012    2    1    2    0    0 -0.33460275381E+02 -0.16449573653E+02  0.22213585896E+02  0.47787286869E+02  0.20000072150E+02 0.  0.
         12    1    1    2    0    0  0.33460275381E+02  0.16449573653E+02 -0.22213585896E+02  0.43400713131E+02  0.00000000000E+00 0. -1.
         11    1    3    3    0    0 -0.41149074694E+01 -0.37681611290E+01 -0.25204393186E+01  0.61224273287E+01  0.51100000000E-03 0. -1.
        -11    1    3    3    0    0 -0.27769678521E+01  0.15222983374E+01  0.10281233641E+01  0.33295616217E+01  0.51100000000E-03 0.  1.
        -12    1    3    3    0    0 -0.26568400059E+02 -0.14203710862E+02  0.23705901850E+02  0.38335297918E+02  0.00000000000E+00 0.  1.
</event>
<event>
 7    1  0.2492468E-009  0.4778727E+02  0.7816164E-02  0.1312668E+00
        -11   -1    0    0    0    0  0.00000000000E+00  0.00000000000E+00  0.45593999997E+02  0.45594000000E+02  0.51100000000E-03 0.  1.
         11   -1    0    0    0    0 -0.00000000000E+00 -0.00000000000E+00 -0.45593999997E+02  0.45594000000E+02  0.51100000000E-03 0. -1.
    9900012    2    1    2    0    0 -0.68794904758E+01  0.31146806435E+02  0.29430808228E+02  0.47787269439E+02  0.19999992681E+02 0.  0.
         12    1    1    2    0    0  0.68794904758E+01 -0.31146806435E+02 -0.29430808228E+02  0.43400730561E+02  0.00000000000E+00 0. -1.
         11    1    3    3    0    0  0.83943952792E+00  0.26560193248E+01  0.52114235944E+01  0.59091482902E+01  0.51100000000E-03 0. -1.
        -11    1    3    3    0    0 -0.74843068356E+01  0.14456771800E+02  0.22449896116E+02  0.27731046420E+02  0.51100000000E-03 0.  1.
         12    1    3    3    0    0 -0.23462316807E+00  0.14034015310E+02  0.17694885167E+01  0.14147074728E+02  0.00000000000E+00 0. -1.
</event>
<event>
 7    1  0.2492468E-009  0.4778726E+02  0.7816164E-02  0.1312668E+00
        -11   -1    0    0    0    0  0.00000000000E+00  0.00000000000E+00  0.45593999997E+02  0.45594000000E+02  0.51100000000E-03 0.  1.
         11   -1    0    0    0    0 -0.00000000000E+00 -0.00000000000E+00 -0.45593999997E+02  0.45594000000E+02  0.51100000000E-03 0. -1.
    9900012    2    1    2    0    0 -0.31790372295E+02 -0.70118958245E+01  0.28702431857E+02  0.47787262124E+02  0.19999959328E+02 0.  0.
         12    1    1    2    0    0  0.31790372295E+02  0.70118958245E+01 -0.28702431857E+02  0.43400737876E+02  0.00000000000E+00 0. -1.
         11    1    3    3    0    0 -0.39287296932E+01  0.40807836692E+01  0.24697248647E+01  0.61795836046E+01  0.51100000000E-03 0. -1.
        -11    1    3    3    0    0 -0.11548833242E+02  0.15117663761E+01  0.10392186207E+02  0.15609565056E+02  0.51100000000E-03 0.  1.
        -12    1    3    3    0    0 -0.16312809360E+02 -0.12604445870E+02  0.15840520785E+02  0.25998113463E+02  0.00000000000E+00 0.  1.
</event>
<event>
 7    1  0.2492468E-009  0.4778727E+02  0.7816164E-02  0.1312668E+00
        -11   -1    0    0    0    0  0.00000000000E+00  0.00000000000E+00  0.45593999997E+02  0.45594000000E+02  0.51100000000E-03 0. -1.
         11   -1    0    0    0    0 -0.00000000000E+00 -0.00000000000E+00 -0.45593999997E+02  0.45594000000E+02  0.51100000000E-03 0.  1.
    9900012    2    1    2    0    0  0.41932461681E+02 -0.26574289547E+01  0.10873355452E+02  0.47787272701E+02  0.20000007553E+02 0.  0.
         12    1    1    2    0    0 -0.41932461681E+02  0.26574289547E+01 -0.10873355452E+02  0.43400727299E+02  0.00000000000E+00 0. -1.
         11    1    3    3    0    0  0.22374948127E+02  0.10773365509E+01  0.43803248937E+01  0.22825122215E+02  0.51100000000E-03 0. -1.
        -11    1    3    3    0    0  0.16772524710E+02 -0.24462572551E+00 -0.36542123194E+00  0.16778288347E+02  0.51100000000E-03 0.  1.
         12    1    3    3    0    0  0.27849888440E+01 -0.34901397800E+01  0.68584517907E+01  0.81838621390E+01  0.00000000000E+00 0. -1.
</event>
<event>
 7    1  0.2492468E-009  0.4778727E+02  0.7816164E-02  0.1312668E+00
        -11   -1    0    0    0    0  0.00000000000E+00  0.00000000000E+00  0.45593999997E+02  0.45594000000E+02  0.51100000000E-03 0.  1.
         11   -1    0    0    0    0 -0.00000000000E+00 -0.00000000000E+00 -0.45593999997E+02  0.45594000000E+02  0.51100000000E-03 0. -1.
    9900012    2    1    2    0    0  0.30093764135E+02 -0.30589173703E+02  0.65031409175E+01  0.47787273861E+02  0.20000012840E+02 0.  0.
         12    1    1    2    0    0 -0.30093764135E+02  0.30589173703E+02 -0.65031409175E+01  0.43400726139E+02  0.00000000000E+00 0. -1.
         11    1    3    3    0    0  0.63934214606E+01 -0.51917372917E+01  0.45464657505E+01  0.94074611432E+01  0.51100000000E-03 0. -1.
        -11    1    3    3    0    0  0.22680072157E+02 -0.18207526647E+02  0.65158820251E+01  0.29805308562E+02  0.51100000000E-03 0.  1.
         12    1    3    3    0    0  0.10202705181E+01 -0.71899097638E+01 -0.45592068581E+01  0.85745041557E+01  0.00000000000E+00 0. -1.
</event>
<event>
 7    1  0.2492468E-009  0.4778727E+02  0.7816164E-02  0.1312668E+00
        -11   -1    0    0    0    0  0.00000000000E+00  0.00000000000E+00  0.45593999997E+02  0.45594000000E+02  0.51100000000E-03 0. -1.
         11   -1    0    0    0    0 -0.00000000000E+00 -0.00000000000E+00 -0.45593999997E+02  0.45594000000E+02  0.51100000000E-03 0.  1.
    9900012    2    1    2    0    0 -0.42487356169E+02  0.64799535106E+01  0.60380296212E+01  0.47787273814E+02  0.20000012629E+02 0.  0.
         12    1    1    2    0    0  0.42487356169E+02 -0.64799535106E+01 -0.60380296212E+01  0.43400726186E+02  0.00000000000E+00 0. -1.
         11    1    3    3    0    0 -0.21793214731E+02  0.23724493998E+01  0.52201542350E+01  0.22534922564E+02  0.51100000000E-03 0. -1.
        -11    1    3    3    0    0 -0.20696199588E+02  0.63398047436E+01 -0.19076225847E+01  0.21729354012E+02  0.51100000000E-03 0.  1.
         12    1    3    3    0    0  0.20581505857E-02 -0.22323006329E+01  0.27254979709E+01  0.35229972383E+01  0.00000000000E+00 0. -1.
</event>
<event>
 7    1  0.2492468E-009  0.4778727E+02  0.7816164E-02  0.1312668E+00
        -11   -1    0    0    0    0  0.00000000000E+00  0.00000000000E+00  0.45593999997E+02  0.45594000000E+02  0.51100000000E-03 0. -1.
         11   -1    0    0    0    0 -0.00000000000E+00 -0.00000000000E+00 -0.45593999997E+02  0.45594000000E+02  0.51100000000E-03 0.  1.
    9900012    2    1    2    0    0  0.59059415083E+01  0.19293739694E+02 -0.38425183711E+02  0.47787270978E+02  0.19999999696E+02 0.  0.
         12    1    1    2    0    0 -0.59059415083E+01 -0.19293739694E+02  0.38425183711E+02  0.43400729022E+02  0.00000000000E+00 0. -1.
         11    1    3    3    0    0  0.34857599235E+00 -0.16359633011E+01 -0.89686226854E+01  0.91232710296E+01  0.51100000000E-03 0. -1.
        -11    1    3    3    0    0 -0.19303267287E+00  0.48043183801E+01 -0.25624474930E+00  0.48150180002E+01  0.51100000000E-03 0.  1.
        -12    1    3    3    0    0  0.57503981888E+01  0.16125384615E+02 -0.29200316276E+02  0.33848981948E+02  0.00000000000E+00 0.  1.
</event>
<event>
 7    1  0.2492468E-009  0.4778727E+02  0.7816164E-02  0.1312668E+00
        -11   -1    0    0    0    0  0.00000000000E+00  0.00000000000E+00  0.45593999997E+02  0.45594000000E+02  0.51100000000E-03 0.  1.
         11   -1    0    0    0    0 -0.00000000000E+00 -0.00000000000E+00 -0.45593999997E+02  0.45594000000E+02  0.51100000000E-03 0. -1.
    9900012    2    1    2    0    0 -0.16761260671E+02 -0.24237052664E+02  0.31862965739E+02  0.47787272278E+02  0.20000005623E+02 0.  0.
         12    1    1    2    0    0  0.16761260671E+02  0.24237052664E+02 -0.31862965739E+02  0.43400727722E+02  0.00000000000E+00 0. -1.
         11    1    3    3    0    0 -0.29515589772E+01 -0.50973657185E+01 -0.53436529614E+00  0.59144217126E+01  0.51100000000E-03 0. -1.
        -11    1    3    3    0    0  0.99262551168E+00 -0.61119833515E+01  0.42681836371E+01  0.75205742944E+01  0.51100000000E-03 0.  1.
        -12    1    3    3    0    0 -0.14802327206E+02 -0.13027703594E+02  0.28129147398E+02  0.34352276271E+02  0.00000000000E+00 0.  1.
</event>
<event>
 7    1  0.2492468E-009  0.4778727E+02  0.7816164E-02  0.1312668E+00
        -11   -1    0    0    0    0  0.00000000000E+00  0.00000000000E+00  0.45593999997E+02  0.45594000000E+02  0.51100000000E-03 0.  1.
         11   -1    0    0    0    0 -0.00000000000E+00 -0.00000000000E+00 -0.45593999997E+02  0.45594000000E+02  0.51100000000E-03 0. -1.
    9900012    2    1    2    0    0  0.39260100522E+02  0.15440064739E+02  0.10191768980E+02  0.47787271354E+02  0.20000001409E+02 0.  0.
         12    1    1    2    0    0 -0.39260100522E+02 -0.15440064739E+02 -0.10191768980E+02  0.43400728646E+02  0.00000000000E+00 0. -1.
         11    1    3    3    0    0  0.16745457068E+01 -0.34485958460E+00 -0.14370244404E+01  0.22333989703E+01  0.51100000000E-03 0. -1.
        -11    1    3    3    0    0  0.87762863218E+01  0.11019160544E+02 -0.95280181053E-01  0.14087376593E+02  0.51100000000E-03 0.  1.
         12    1    3    3    0    0  0.28809268493E+02  0.47657637790E+01  0.11724073601E+02  0.31466495790E+02  0.00000000000E+00 0. -1.
</event>
<event>
 7    1  0.2492468E-009  0.4778732E+02  0.7816164E-02  0.1312668E+00
        -11   -1    0    0    0    0  0.00000000000E+00  0.00000000000E+00  0.45593999997E+02  0.45594000000E+02  0.51100000000E-03 0. -1.
         11   -1    0    0    0    0 -0.00000000000E+00 -0.00000000000E+00 -0.45593999997E+02  0.45594000000E+02  0.51100000000E-03 0.  1.
    9900012    2    1    2    0    0 -0.13121903113E+01  0.15956112374E+02 -0.40339797139E+02  0.47787324905E+02  0.20000245568E+02 0.  0.
         12    1    1    2    0    0  0.13121903113E+01 -0.15956112374E+02  0.40339797139E+02  0.43400675095E+02  0.00000000000E+00 0. -1.
         11    1    3    3    0    0 -0.20599167699E+01  0.16331932604E+01 -0.46376173133E+01  0.53308603368E+01  0.51100000000E-03 0. -1.
        -11    1    3    3    0    0  0.60538782658E+01  0.48560352141E+01 -0.28237483299E+02  0.29284569032E+02  0.51100000000E-03 0.  1.
        -12    1    3    3    0    0 -0.53061518073E+01  0.94668838995E+01 -0.74646965268E+01  0.13171895536E+02  0.00000000000E+00 0.  1.
</event>
<event>
 7    1  0.2492468E-009  0.4778727E+02  0.7816164E-02  0.1312668E+00
        -11   -1    0    0    0    0  0.00000000000E+00  0.00000000000E+00  0.45593999997E+02  0.45594000000E+02  0.51100000000E-03 0.  1.
         11   -1    0    0    0    0 -0.00000000000E+00 -0.00000000000E+00 -0.45593999997E+02  0.45594000000E+02  0.51100000000E-03 0. -1.
    9900012    2    1    2    0    0 -0.15858304817E+02  0.40170014289E+02 -0.43020137500E+01  0.47787271873E+02  0.20000003778E+02 0.  0.
         12    1    1    2    0    0  0.15858304817E+02 -0.40170014289E+02  0.43020137500E+01  0.43400728127E+02  0.00000000000E+00 0. -1.
         11    1    3    3    0    0  0.13719248600E+01  0.11956745554E+02  0.34974561361E+01  0.12533081893E+02  0.51100000000E-03 0. -1.
        -11    1    3    3    0    0 -0.85214830212E+01  0.14208623430E+02  0.93109359945E+00  0.16594203452E+02  0.51100000000E-03 0.  1.
         12    1    3    3    0    0 -0.87087466555E+01  0.14004645305E+02 -0.87305634856E+01  0.18659986528E+02  0.00000000000E+00 0. -1.
</event>
<event>
 7    1  0.2492468E-009  0.4778733E+02  0.7816164E-02  0.1312668E+00
        -11   -1    0    0    0    0  0.00000000000E+00  0.00000000000E+00  0.45593999997E+02  0.45594000000E+02  0.51100000000E-03 0.  1.
         11   -1    0    0    0    0 -0.00000000000E+00 -0.00000000000E+00 -0.45593999997E+02  0.45594000000E+02  0.51100000000E-03 0. -1.
    9900012    2    1    2    0    0 -0.35412757699E+02 -0.19323373077E+02 -0.16005074833E+02  0.47787325174E+02  0.20000246799E+02 0.  0.
         12    1    1    2    0    0  0.35412757699E+02  0.19323373077E+02  0.16005074833E+02  0.43400674826E+02  0.00000000000E+00 0. -1.
         11    1    3    3    0    0 -0.61279541470E+01 -0.82512744295E+01 -0.18915736810E+00  0.10279646517E+02  0.51100000000E-03 0. -1.
        -11    1    3    3    0    0 -0.74471630662E+01 -0.52401934023E+01  0.12421248373E+01  0.91903612007E+01  0.51100000000E-03 0.  1.
         12    1    3    3    0    0 -0.21837640486E+02 -0.58319052452E+01 -0.17058042302E+02  0.28317317457E+02  0.00000000000E+00 0. -1.
</event>
<event>
 7    1  0.2492468E-009  0.4778727E+02  0.7816164E-02  0.1312668E+00
        -11   -1    0    0    0    0  0.00000000000E+00  0.00000000000E+00  0.45593999997E+02  0.45594000000E+02  0.51100000000E-03 0.  1.
         11   -1    0    0    0    0 -0.00000000000E+00 -0.00000000000E+00 -0.45593999997E+02  0.45594000000E+02  0.51100000000E-03 0. -1.
    9900012    2    1    2    0    0  0.30201296859E+02  0.31073069193E+02 -0.24431949291E+01  0.47787272328E+02  0.20000005851E+02 0.  0.
         12    1    1    2    0    0 -0.30201296859E+02 -0.31073069193E+02  0.24431949291E+01  0.43400727672E+02  0.00000000000E+00 0. -1.
         11    1    3    3    0    0  0.18678303136E+01  0.80380763059E+01 -0.58591636447E+01  0.10120734146E+02  0.51100000000E-03 0. -1.
        -11    1    3    3    0    0  0.10086194285E+02  0.12002606622E+02 -0.16064124801E+01  0.15759899815E+02  0.51100000000E-03 0.  1.
        -12    1    3    3    0    0  0.18247272260E+02  0.11032386265E+02  0.50223811957E+01  0.21906638366E+02  0.00000000000E+00 0.  1.
</event>
<event>
 7    1  0.2492468E-009  0.4778727E+02  0.7816164E-02  0.1312668E+00
        -11   -1    0    0    0    0  0.00000000000E+00  0.00000000000E+00  0.45593999997E+02  0.45594000000E+02  0.51100000000E-03 0.  1.
         11   -1    0    0    0    0 -0.00000000000E+00 -0.00000000000E+00 -0.45593999997E+02  0.45594000000E+02  0.51100000000E-03 0. -1.
    9900012    2    1    2    0    0 -0.20419538670E+02 -0.37336579184E+02 -0.85232513707E+01  0.47787268226E+02  0.19999987149E+02 0.  0.
         12    1    1    2    0    0  0.20419538670E+02  0.37336579184E+02  0.85232513707E+01  0.43400731774E+02  0.00000000000E+00 0. -1.
         11    1    3    3    0    0 -0.74415110640E+00 -0.36590246441E+01 -0.28478515973E+01  0.46960069417E+01  0.51100000000E-03 0. -1.
        -11    1    3    3    0    0 -0.65871823438E+01 -0.23585354849E+02 -0.92588506567E+01  0.26179882550E+02  0.51100000000E-03 0.  1.
         12    1    3    3    0    0 -0.13088205219E+02 -0.10092199690E+02  0.35834508832E+01  0.16911378734E+02  0.00000000000E+00 0. -1.
</event>
<event>
 7    1  0.2492468E-009  0.4778727E+02  0.7816164E-02  0.1312668E+00
        -11   -1    0    0    0    0  0.00000000000E+00  0.00000000000E+00  0.45593999997E+02  0.45594000000E+02  0.51100000000E-03 0.  1.
         11   -1    0    0    0    0 -0.00000000000E+00 -0.00000000000E+00 -0.45593999997E+02  0.45594000000E+02  0.51100000000E-03 0. -1.
    9900012    2    1    2    0    0 -0.98122941732E+01  0.35815944047E+02  0.22462428172E+02  0.47787266777E+02  0.19999980543E+02 0.  0.
         12    1    1    2    0    0  0.98122941732E+01 -0.35815944047E+02 -0.22462428172E+02  0.43400733223E+02  0.00000000000E+00 0. -1.
         11    1    3    3    0    0 -0.77970719501E+01  0.43471330450E+01  0.29664902951E+01  0.94070166173E+01  0.51100000000E-03 0.  1.
        -11    1    3    3    0    0 -0.36976757993E+01  0.59683586740E+01  0.16564140397E+01  0.72137243717E+01  0.51100000000E-03 0. -1.
        -12    1    3    3    0    0  0.16824535762E+01  0.25500452328E+02  0.17839523838E+02  0.31166525788E+02  0.00000000000E+00 0.  1.
</event>
<event>
 7    1  0.2492468E-009  0.4778723E+02  0.7816164E-02  0.1312668E+00
        -11   -1    0    0    0    0  0.00000000000E+00  0.00000000000E+00  0.45593999997E+02  0.45594000000E+02  0.51100000000E-03 0.  1.
         11   -1    0    0    0    0 -0.00000000000E+00 -0.00000000000E+00 -0.45593999997E+02  0.45594000000E+02  0.51100000000E-03 0. -1.
    9900012    2    1    2    0    0 -0.22898338552E+01  0.35626964075E+02  0.24680002008E+02  0.47787234945E+02  0.19999835407E+02 0.  0.
         12    1    1    2    0    0  0.22898338552E+01 -0.35626964075E+02 -0.24680002008E+02  0.43400765055E+02  0.00000000000E+00 0. -1.
         11    1    3    3    0    0 -0.99703740167E+00  0.37722436051E+01 -0.14662302007E+01  0.41681814570E+01  0.51100000000E-03 0. -1.
        -11    1    3    3    0    0  0.63853772496E+01  0.13367290651E+02  0.12602117287E+02  0.19449186675E+02  0.51100000000E-03 0.  1.
         12    1    3    3    0    0 -0.76781737031E+01  0.18487429819E+02  0.13544114922E+02  0.24169866812E+02  0.00000000000E+00 0. -1.
</event>
<event>
 7    1  0.2492468E-009  0.4778727E+02  0.7816164E-02  0.1312668E+00
        -11   -1    0    0    0    0  0.00000000000E+00  0.00000000000E+00  0.45593999997E+02  0.45594000000E+02  0.51100000000E-03 0. -1.
         11   -1    0    0    0    0 -0.00000000000E+00 -0.00000000000E+00 -0.45593999997E+02  0.45594000000E+02  0.51100000000E-03 0.  1.
    9900012    2    1    2    0    0  0.14101923952E+02  0.27279715261E+01 -0.40955067183E+02  0.47787267106E+02  0.19999982042E+02 0.  0.
         12    1    1    2    0    0 -0.14101923952E+02 -0.27279715261E+01  0.40955067183E+02  0.43400732894E+02  0.00000000000E+00 0. -1.
         11    1    3    3    0    0 -0.53379455383E+00 -0.20688799960E+01 -0.26362615810E+01  0.33933871645E+01  0.51100000000E-03 0. -1.
        -11    1    3    3    0    0  0.16950168381E+02 -0.14116161870E+00 -0.29602814811E+02  0.34112384550E+02  0.51100000000E-03 0.  1.
         12    1    3    3    0    0 -0.23144498747E+01  0.49380131408E+01 -0.87159907911E+01  0.10281495391E+02  0.00000000000E+00 0. -1.
</event>
<event>
 7    1  0.2492468E-009  0.4778728E+02  0.7816164E-02  0.1312668E+00
        -11   -1    0    0    0    0  0.00000000000E+00  0.00000000000E+00  0.45593999997E+02  0.45594000000E+02  0.51100000000E-03 0.  1.
         11   -1    0    0    0    0 -0.00000000000E+00 -0.00000000000E+00 -0.45593999997E+02  0.45594000000E+02  0.51100000000E-03 0. -1.
    9900012    2    1    2    0    0  0.36799289503E+02  0.79865111047E+01  0.21578930941E+02  0.47787281940E+02  0.20000049678E+02 0.  0.
         12    1    1    2    0    0 -0.36799289503E+02 -0.79865111047E+01 -0.21578930941E+02  0.43400718060E+02  0.00000000000E+00 0. -1.
         11    1    3    3    0    0  0.12245764395E+02 -0.12475601953E+01  0.91474424736E+01  0.15335933494E+02  0.51100000000E-03 0. -1.
        -11    1    3    3    0    0  0.73676831836E+01  0.10367939639E+02  0.60402265449E+01  0.14080527860E+02  0.51100000000E-03 0.  1.
        -12    1    3    3    0    0  0.17185841924E+02 -0.11338683386E+01  0.63912619229E+01  0.18370820586E+02  0.00000000000E+00 0.  1.
</event>
<event>
 7    1  0.2492468E-009  0.4778726E+02  0.7816164E-02  0.1312668E+00
        -11   -1    0    0    0    0  0.00000000000E+00  0.00000000000E+00  0.45593999997E+02  0.45594000000E+02  0.51100000000E-03 0.  1.
         11   -1    0    0    0    0 -0.00000000000E+00 -0.00000000000E+00 -0.45593999997E+02  0.45594000000E+02  0.51100000000E-03 0. -1.
    9900012    2    1    2    0    0  0.30722583638E+01  0.36864928908E+02  0.22697183825E+02  0.47787263735E+02  0.19999966672E+02 0.  0.
         12    1    1    2    0    0 -0.30722583638E+01 -0.36864928908E+02 -0.22697183825E+02  0.43400736265E+02  0.00000000000E+00 0. -1.
         11    1    3    3    0    0  0.29402525880E+01  0.14699243235E+02  0.53698572407E+01  0.15923197041E+02  0.51100000000E-03 0. -1.
        -11    1    3    3    0    0  0.73280922402E+01  0.12278388719E+02  0.11331439885E+02  0.18244486716E+02  0.51100000000E-03 0.  1.
        -12    1    3    3    0    0 -0.71960864644E+01  0.98872969541E+01  0.59958866987E+01  0.13619579978E+02  0.00000000000E+00 0.  1.
</event>
<event>
 7    1  0.2492468E-009  0.4778726E+02  0.7816164E-02  0.1312668E+00
        -11   -1    0    0    0    0  0.00000000000E+00  0.00000000000E+00  0.45593999997E+02  0.45594000000E+02  0.51100000000E-03 0.  1.
         11   -1    0    0    0    0 -0.00000000000E+00 -0.00000000000E+00 -0.45593999997E+02  0.45594000000E+02  0.51100000000E-03 0. -1.
    9900012    2    1    2    0    0  0.28552671922E+02 -0.33359627471E+01  0.32515231207E+02  0.47787262889E+02  0.19999962815E+02 0.  0.
         12    1    1    2    0    0 -0.28552671922E+02  0.33359627471E+01 -0.32515231207E+02  0.43400737111E+02  0.00000000000E+00 0. -1.
         11    1    3    3    0    0  0.98109962360E-01  0.29378132593E+01  0.65437482174E+01  0.71736332011E+01  0.51100000000E-03 0. -1.
        -11    1    3    3    0    0  0.60246406562E+01 -0.60029945212E+01  0.97090898767E+01  0.12907310516E+02  0.51100000000E-03 0.  1.
        -12    1    3    3    0    0  0.22429921303E+02 -0.27078148519E+00  0.16262393113E+02  0.27706319172E+02  0.00000000000E+00 0.  1.
</event>
<event>
 7    1  0.2492468E-009  0.4778727E+02  0.7816164E-02  0.1312668E+00
        -11   -1    0    0    0    0  0.00000000000E+00  0.00000000000E+00  0.45593999997E+02  0.45594000000E+02  0.51100000000E-03 0.  1.
         11   -1    0    0    0    0 -0.00000000000E+00 -0.00000000000E+00 -0.45593999997E+02  0.45594000000E+02  0.51100000000E-03 0. -1.
    9900012    2    1    2    0    0 -0.38897133977E+02 -0.13125735103E+02 -0.14083728898E+02  0.47787269899E+02  0.19999994776E+02 0.  0.
         12    1    1    2    0    0  0.38897133977E+02  0.13125735103E+02  0.14083728898E+02  0.43400730101E+02  0.00000000000E+00 0. -1.
         11    1    3    3    0    0 -0.10924874123E+02  0.31209921142E+01 -0.61695385917E+01  0.12928908425E+02  0.51100000000E-03 0. -1.
        -11    1    3    3    0    0 -0.14606685524E+02 -0.26450496275E+01 -0.26871878889E+01  0.15085507235E+02  0.51100000000E-03 0.  1.
        -12    1    3    3    0    0 -0.13365574330E+02 -0.13601677590E+02 -0.52270024177E+01  0.19772854238E+02  0.00000000000E+00 0.  1.
</event>
<event>
 7    1  0.2492468E-009  0.4778727E+02  0.7816164E-02  0.1312668E+00
        -11   -1    0    0    0    0  0.00000000000E+00  0.00000000000E+00  0.45593999997E+02  0.45594000000E+02  0.51100000000E-03 0. -1.
         11   -1    0    0    0    0 -0.00000000000E+00 -0.00000000000E+00 -0.45593999997E+02  0.45594000000E+02  0.51100000000E-03 0.  1.
    9900012    2    1    2    0    0  0.30853093228E+02 -0.14049706853E+02 -0.27098258013E+02  0.47787271761E+02  0.20000003265E+02 0.  0.
         12    1    1    2    0    0 -0.30853093228E+02  0.14049706853E+02  0.27098258013E+02  0.43400728239E+02  0.00000000000E+00 0. -1.
         11    1    3    3    0    0  0.96858648504E+01 -0.11375639582E+02 -0.60230706282E+01  0.16108958186E+02  0.51100000000E-03 0. -1.
        -11    1    3    3    0    0  0.76099067047E+01 -0.54112373134E+01 -0.11700195338E+02  0.14969527064E+02  0.51100000000E-03 0.  1.
         12    1    3    3    0    0  0.13557321673E+02  0.27371700419E+01 -0.93749920470E+01  0.16708786510E+02  0.00000000000E+00 0. -1.
</event>
<event>
 7    1  0.2492468E-009  0.4778727E+02  0.7816164E-02  0.1312668E+00
        -11   -1    0    0    0    0  0.00000000000E+00  0.00000000000E+00  0.45593999997E+02  0.45594000000E+02  0.51100000000E-03 0.  1.
         11   -1    0    0    0    0 -0.00000000000E+00 -0.00000000000E+00 -0.45593999997E+02  0.45594000000E+02  0.51100000000E-03 0. -1.
    9900012    2    1    2    0    0  0.39755321849E+02 -0.38610125989E+01  0.16977349235E+02  0.47787269354E+02  0.19999992291E+02 0.  0.
         12    1    1    2    0    0 -0.39755321849E+02  0.38610125989E+01 -0.16977349235E+02  0.43400730646E+02  0.00000000000E+00 0. -1.
         11    1    3    3    0    0  0.87814888532E+01  0.20908408079E+01 -0.14825444252E+01  0.91479013985E+01  0.51100000000E-03 0. -1.
        -11    1    3    3    0    0  0.54608997814E+01  0.22861164172E+01  0.77898532316E+01  0.97841488300E+01  0.51100000000E-03 0.  1.
         12    1    3    3    0    0  0.25512933214E+02 -0.82379698240E+01  0.10670040429E+02  0.28855219125E+02  0.00000000000E+00 0. -1.
</event>
<event>
 7    1  0.2492468E-009  0.4778727E+02  0.7816164E-02  0.1312668E+00
        -11   -1    0    0    0    0  0.00000000000E+00  0.00000000000E+00  0.45593999997E+02  0.45594000000E+02  0.51100000000E-03 0.  1.
         11   -1    0    0    0    0 -0.00000000000E+00 -0.00000000000E+00 -0.45593999997E+02  0.45594000000E+02  0.51100000000E-03 0. -1.
    9900012    2    1    2    0    0 -0.86191732487E+01 -0.37719957988E+02  0.19660569043E+02  0.47787270131E+02  0.19999995834E+02 0.  0.
         12    1    1    2    0    0  0.86191732487E+01  0.37719957988E+02 -0.19660569043E+02  0.43400729869E+02  0.00000000000E+00 0. -1.
         11    1    3    3    0    0 -0.27771716678E+01 -0.11656226460E+02  0.36614484734E-02  0.11982500216E+02  0.51100000000E-03 0. -1.
        -11    1    3    3    0    0 -0.23565883337E+01 -0.25534551509E+02  0.14211469297E+02  0.29317787931E+02  0.51100000000E-03 0.  1.
         12    1    3    3    0    0 -0.34854132472E+01 -0.52918001830E+00  0.54454382976E+01  0.64869819831E+01  0.00000000000E+00 0. -1.
</event>
<event>
 7    1  0.2492468E-009  0.4778727E+02  0.7816164E-02  0.1312668E+00
        -11   -1    0    0    0    0  0.00000000000E+00  0.00000000000E+00  0.45593999997E+02  0.45594000000E+02  0.51100000000E-03 0. -1.
         11   -1    0    0    0    0 -0.00000000000E+00 -0.00000000000E+00 -0.45593999997E+02  0.45594000000E+02  0.51100000000E-03 0.  1.
    9900012    2    1    2    0    0  0.16610160252E+02  0.17465858504E+02 -0.36092516186E+02  0.47787270034E+02  0.19999995395E+02 0.  0.
         12    1    1    2    0    0 -0.16610160252E+02 -0.17465858504E+02  0.36092516186E+02  0.43400729966E+02  0.00000000000E+00 0. -1.
         11    1    3    3    0    0 -0.25831105823E+01  0.61035483192E+01 -0.53294583486E+01  0.85046392584E+01  0.51100000000E-03 0. -1.
        -11    1    3    3    0    0  0.94893265068E+01  0.10883833429E+02 -0.15448652372E+02  0.21146300103E+02  0.51100000000E-03 0.  1.
         12    1    3    3    0    0  0.97039443272E+01  0.47847675591E+00 -0.15314405466E+02  0.18136330673E+02  0.00000000000E+00 0. -1.
</event>
<event>
 7    1  0.2492468E-009  0.4778727E+02  0.7816164E-02  0.1312668E+00
        -11   -1    0    0    0    0  0.00000000000E+00  0.00000000000E+00  0.45593999997E+02  0.45594000000E+02  0.51100000000E-03 0.  1.
         11   -1    0    0    0    0 -0.00000000000E+00 -0.00000000000E+00 -0.45593999997E+02  0.45594000000E+02  0.51100000000E-03 0. -1.
    9900012    2    1    2    0    0 -0.13802116808E+02 -0.20958748477E+02  0.35409830870E+02  0.47787266270E+02  0.19999978231E+02 0.  0.
         12    1    1    2    0    0  0.13802116808E+02  0.20958748477E+02 -0.35409830870E+02  0.43400733730E+02  0.00000000000E+00 0. -1.
         11    1    3    3    0    0 -0.11925510052E+02 -0.23431026384E+01  0.10180301312E+02  0.15853909771E+02  0.51100000000E-03 0. -1.
        -11    1    3    3    0    0  0.11047929411E+01 -0.19655141384E+01  0.12196249906E+01  0.25634544369E+01  0.51100000000E-03 0.  1.
         12    1    3    3    0    0 -0.29813996962E+01 -0.16650131700E+02  0.24009904568E+02  0.29369902062E+02  0.00000000000E+00 0. -1.
</event>
<event>
 7    1  0.2492468E-009  0.4778728E+02  0.7816164E-02  0.1312668E+00
        -11   -1    0    0    0    0  0.00000000000E+00  0.00000000000E+00  0.45593999997E+02  0.45594000000E+02  0.51100000000E-03 0.  1.
         11   -1    0    0    0    0 -0.00000000000E+00 -0.00000000000E+00 -0.45593999997E+02  0.45594000000E+02  0.51100000000E-03 0. -1.
    9900012    2    1    2    0    0 -0.26776021080E+02 -0.74227569796E+01  0.33340219457E+02  0.47787275818E+02  0.20000021766E+02 0.  0.
         12    1    1    2    0    0  0.26776021080E+02  0.74227569796E+01 -0.33340219457E+02  0.43400724182E+02  0.00000000000E+00 0. -1.
         11    1    3    3    0    0 -0.43747039548E+01  0.63397831365E+01  0.73740894022E+01  0.10663399068E+02  0.51100000000E-03 0. -1.
        -11    1    3    3    0    0 -0.39991324540E+01 -0.41536954295E+01  0.53184925910E+01  0.78442724206E+01  0.51100000000E-03 0.  1.
         12    1    3    3    0    0 -0.18402184671E+02 -0.96088446866E+01  0.20647637464E+02  0.29279604330E+02  0.00000000000E+00 0. -1.
</event>
<event>
 7    1  0.2492468E-009  0.4778728E+02  0.7816164E-02  0.1312668E+00
        -11   -1    0    0    0    0  0.00000000000E+00  0.00000000000E+00  0.45593999997E+02  0.45594000000E+02  0.51100000000E-03 0. -1.
         11   -1    0    0    0    0 -0.00000000000E+00 -0.00000000000E+00 -0.45593999997E+02  0.45594000000E+02  0.51100000000E-03 0.  1.
    9900012    2    1    2    0    0 -0.39011224603E+02  0.38867620726E+01 -0.18618275657E+02  0.47787277046E+02  0.20000027364E+02 0.  0.
         12    1    1    2    0    0  0.39011224603E+02 -0.38867620726E+01  0.18618275657E+02  0.43400722954E+02  0.00000000000E+00 0. -1.
         11    1    3    3    0    0 -0.30158997310E+01  0.23978803737E+01 -0.82510325075E-01  0.38538668489E+01  0.51100000000E-03 0. -1.
        -11    1    3    3    0    0 -0.21764539883E+02 -0.74274396143E+01 -0.11699314507E+02  0.25801860703E+02  0.51100000000E-03 0.  1.
        -12    1    3    3    0    0 -0.14230784989E+02  0.89163213132E+01 -0.68364508257E+01  0.18131549494E+02  0.00000000000E+00 0.  1.
</event>
<event>
 7    1  0.2492468E-009  0.4778727E+02  0.7816164E-02  0.1312668E+00
        -11   -1    0    0    0    0  0.00000000000E+00  0.00000000000E+00  0.45593999997E+02  0.45594000000E+02  0.51100000000E-03 0. -1.
         11   -1    0    0    0    0 -0.00000000000E+00 -0.00000000000E+00 -0.45593999997E+02  0.45594000000E+02  0.51100000000E-03 0.  1.
    9900012    2    1    2    0    0  0.37937456389E+02  0.19201912651E+02 -0.86982189847E+01  0.47787273506E+02  0.20000011223E+02 0.  0.
         12    1    1    2    0    0 -0.37937456389E+02 -0.19201912651E+02  0.86982189847E+01  0.43400726494E+02  0.00000000000E+00 0. -1.
         11    1    3    3    0    0  0.50110489347E+01  0.55308342328E+01 -0.61931621461E+01  0.96982470770E+01  0.51100000000E-03 0. -1.
        -11    1    3    3    0    0  0.10969139985E+02  0.10914608412E+02  0.16869230499E+01  0.15565873520E+02  0.51100000000E-03 0.  1.
        -12    1    3    3    0    0  0.21957267469E+02  0.27564700068E+01 -0.41919798885E+01  0.22523152909E+02  0.00000000000E+00 0.  1.
</event>
<event>
 7    1  0.2492468E-009  0.4778727E+02  0.7816164E-02  0.1312668E+00
        -11   -1    0    0    0    0  0.00000000000E+00  0.00000000000E+00  0.45593999997E+02  0.45594000000E+02  0.51100000000E-03 0.  1.
         11   -1    0    0    0    0 -0.00000000000E+00 -0.00000000000E+00 -0.45593999997E+02  0.45594000000E+02  0.51100000000E-03 0. -1.
    9900012    2    1    2    0    0 -0.16448955937E+02 -0.12649798676E+01  0.40142933210E+02  0.47787269451E+02  0.19999992737E+02 0.  0.
         12    1    1    2    0    0  0.16448955937E+02  0.12649798676E+01 -0.40142933210E+02  0.43400730549E+02  0.00000000000E+00 0. -1.
         11    1    3    3    0    0 -0.32608909576E+01  0.42021254340E+01  0.45715380489E+01  0.70135745803E+01  0.51100000000E-03 0. -1.
        -11    1    3    3    0    0 -0.70011082838E+01  0.28047155527E+01  0.66219062438E+01  0.10036512796E+02  0.51100000000E-03 0.  1.
        -12    1    3    3    0    0 -0.61869566954E+01 -0.82718208543E+01  0.28949488917E+02  0.30737182076E+02  0.00000000000E+00 0.  1.
</event>
<event>
 7    1  0.2492468E-009  0.4778727E+02  0.7816164E-02  0.1312668E+00
        -11   -1    0    0    0    0  0.00000000000E+00  0.00000000000E+00  0.45593999997E+02  0.45594000000E+02  0.51100000000E-03 0. -1.
         11   -1    0    0    0    0 -0.00000000000E+00 -0.00000000000E+00 -0.45593999997E+02  0.45594000000E+02  0.51100000000E-03 0.  1.
    9900012    2    1    2    0    0 -0.25963945329E+02  0.31858277545E+02 -0.13948008303E+02  0.47787271426E+02  0.20000001739E+02 0.  0.
         12    1    1    2    0    0  0.25963945329E+02 -0.31858277545E+02  0.13948008303E+02  0.43400728574E+02  0.00000000000E+00 0. -1.
         11    1    3    3    0    0 -0.13970259786E+02  0.18004048420E+02 -0.79898753254E+01  0.24148540866E+02  0.51100000000E-03 0. -1.
        -11    1    3    3    0    0 -0.13867113143E+02  0.84957603479E+01 -0.72682572280E+01  0.17812982181E+02  0.51100000000E-03 0.  1.
         12    1    3    3    0    0  0.18734276003E+01  0.53584687775E+01  0.13101242508E+01  0.58257483782E+01  0.00000000000E+00 0. -1.
</event>
<event>
 7    1  0.2492468E-009  0.4778727E+02  0.7816164E-02  0.1312668E+00
        -11   -1    0    0    0    0  0.00000000000E+00  0.00000000000E+00  0.45593999997E+02  0.45594000000E+02  0.51100000000E-03 0.  1.
         11   -1    0    0    0    0 -0.00000000000E+00 -0.00000000000E+00 -0.45593999997E+02  0.45594000000E+02  0.51100000000E-03 0. -1.
    9900012    2    1    2    0    0  0.41918418928E+02  0.80142338634E+01  0.78893105410E+01  0.47787274077E+02  0.20000013828E+02 0.  0.
         12    1    1    2    0    0 -0.41918418928E+02 -0.80142338634E+01 -0.78893105410E+01  0.43400725923E+02  0.00000000000E+00 0. -1.
         11    1    3    3    0    0  0.20881827053E+02  0.11357003210E+02  0.35686896193E+01  0.24036800304E+02  0.51100000000E-03 0. -1.
        -11    1    3    3    0    0  0.10751060207E+02  0.27978005226E+01  0.29500678576E+00  0.11113055952E+02  0.51100000000E-03 0.  1.
        -12    1    3    3    0    0  0.10285531668E+02 -0.61405698696E+01  0.40256141360E+01  0.12637417821E+02  0.00000000000E+00 0.  1.
</event>
<event>
 7    1  0.2492468E-009  0.4778727E+02  0.7816164E-02  0.1312668E+00
        -11   -1    0    0    0    0  0.00000000000E+00  0.00000000000E+00  0.45593999997E+02  0.45594000000E+02  0.51100000000E-03 0.  1.
         11   -1    0    0    0    0 -0.00000000000E+00 -0.00000000000E+00 -0.45593999997E+02  0.45594000000E+02  0.51100000000E-03 0. -1.
    9900012    2    1    2    0    0  0.32565517396E+02 -0.26224874483E+02  0.11634704531E+02  0.47787270577E+02  0.19999997870E+02 0.  0.
         12    1    1    2    0    0 -0.32565517396E+02  0.26224874483E+02 -0.11634704531E+02  0.43400729423E+02  0.00000000000E+00 0. -1.
         11    1    3    3    0    0  0.15263964065E+02 -0.15071053723E+02 -0.86302034714E+00  0.21467884471E+02  0.51100000000E-03 0. -1.
        -11    1    3    3    0    0  0.66105037133E+01 -0.89844297944E+01  0.23056574470E+01  0.11390118287E+02  0.51100000000E-03 0.  1.
         12    1    3    3    0    0  0.10691049617E+02 -0.21693909658E+01  0.10192067431E+02  0.14929267819E+02  0.00000000000E+00 0. -1.
</event>
<event>
 7    1  0.2492468E-009  0.4778726E+02  0.7816164E-02  0.1312668E+00
        -11   -1    0    0    0    0  0.00000000000E+00  0.00000000000E+00  0.45593999997E+02  0.45594000000E+02  0.51100000000E-03 0.  1.
         11   -1    0    0    0    0 -0.00000000000E+00 -0.00000000000E+00 -0.45593999997E+02  0.45594000000E+02  0.51100000000E-03 0. -1.
    9900012    2    1    2    0    0  0.12046964530E+02  0.14091018911E+02  0.39242044670E+02  0.47787259935E+02  0.19999949346E+02 0.  0.
         12    1    1    2    0    0 -0.12046964530E+02 -0.14091018911E+02 -0.39242044670E+02  0.43400740065E+02  0.00000000000E+00 0. -1.
         11    1    3    3    0    0  0.18069092207E+01  0.32979613119E+01  0.11115950656E+01  0.39213662922E+01  0.51100000000E-03 0. -1.
        -11    1    3    3    0    0  0.91034562560E+00  0.57533298723E+01  0.19175733125E+01  0.61324237824E+01  0.51100000000E-03 0.  1.
         12    1    3    3    0    0  0.93297096833E+01  0.50397277267E+01  0.36212876292E+02  0.37733469860E+02  0.00000000000E+00 0. -1.
</event>
<event>
 7    1  0.2492468E-009  0.4778725E+02  0.7816164E-02  0.1312668E+00
        -11   -1    0    0    0    0  0.00000000000E+00  0.00000000000E+00  0.45593999997E+02  0.45594000000E+02  0.51100000000E-03 0.  1.
         11   -1    0    0    0    0 -0.00000000000E+00 -0.00000000000E+00 -0.45593999997E+02  0.45594000000E+02  0.51100000000E-03 0. -1.
    9900012    2    1    2    0    0  0.17744014724E+02  0.20180837598E+02  0.34080912610E+02  0.47787252668E+02  0.19999916213E+02 0.  0.
         12    1    1    2    0    0 -0.17744014724E+02 -0.20180837598E+02 -0.34080912610E+02  0.43400747332E+02  0.00000000000E+00 0. -1.
         11    1    3    3    0    0 -0.96509100911E+00 -0.17867532039E+01  0.46738782172E+01  0.50959813106E+01  0.51100000000E-03 0. -1.
        -11    1    3    3    0    0  0.30979062324E+01  0.87031551859E+01  0.15109281094E+02  0.17709667096E+02  0.51100000000E-03 0.  1.
        -12    1    3    3    0    0  0.15611199501E+02  0.13264435616E+02  0.14297753298E+02  0.24981604261E+02  0.00000000000E+00 0.  1.
</event>
<event>
 7    1  0.2492468E-009  0.4778727E+02  0.7816164E-02  0.1312668E+00
        -11   -1    0    0    0    0  0.00000000000E+00  0.00000000000E+00  0.45593999997E+02  0.45594000000E+02  0.51100000000E-03 0.  1.
         11   -1    0    0    0    0 -0.00000000000E+00 -0.00000000000E+00 -0.45593999997E+02  0.45594000000E+02  0.51100000000E-03 0. -1.
    9900012    2    1    2    0    0 -0.17665799027E+02  0.22522747136E+02  0.32623130778E+02  0.47787271255E+02  0.20000000961E+02 0.  0.
         12    1    1    2    0    0  0.17665799027E+02 -0.22522747136E+02 -0.32623130778E+02  0.43400728745E+02  0.00000000000E+00 0. -1.
         11    1    3    3    0    0 -0.83310942466E+01  0.41761264632E+01  0.18544194475E+02  0.20754139649E+02  0.51100000000E-03 0. -1.
        -11    1    3    3    0    0 -0.28912657864E+01 -0.63424058917E+00  0.25657617764E+01  0.39172455535E+01  0.51100000000E-03 0.  1.
        -12    1    3    3    0    0 -0.64434389942E+01  0.18980861262E+02  0.11513174527E+02  0.23115886053E+02  0.00000000000E+00 0.  1.
</event>
<event>
 7    1  0.2492468E-009  0.4778728E+02  0.7816164E-02  0.1312668E+00
        -11   -1    0    0    0    0  0.00000000000E+00  0.00000000000E+00  0.45593999997E+02  0.45594000000E+02  0.51100000000E-03 0.  1.
         11   -1    0    0    0    0 -0.00000000000E+00 -0.00000000000E+00 -0.45593999997E+02  0.45594000000E+02  0.51100000000E-03 0. -1.
    9900012    2    1    2    0    0 -0.53862476280E+01 -0.42408654192E+02 -0.74911347232E+01  0.47787277503E+02  0.20000029445E+02 0.  0.
         12    1    1    2    0    0  0.53862476280E+01  0.42408654192E+02  0.74911347232E+01  0.43400722497E+02  0.00000000000E+00 0. -1.
         11    1    3    3    0    0 -0.48361019993E+00 -0.65213963993E+00  0.23139211897E+01  0.24522227608E+01  0.51100000000E-03 0. -1.
        -11    1    3    3    0    0 -0.79794986816E+01 -0.15999254613E+02 -0.71638235152E+01  0.19260553341E+02  0.51100000000E-03 0.  1.
         12    1    3    3    0    0  0.30768612535E+01 -0.25757259939E+02 -0.26412323977E+01  0.26074501401E+02  0.00000000000E+00 0. -1.
</event>
<event>
 7    1  0.2492468E-009  0.4778727E+02  0.7816164E-02  0.1312668E+00
        -11   -1    0    0    0    0  0.00000000000E+00  0.00000000000E+00  0.45593999997E+02  0.45594000000E+02  0.51100000000E-03 0.  1.
         11   -1    0    0    0    0 -0.00000000000E+00 -0.00000000000E+00 -0.45593999997E+02  0.45594000000E+02  0.51100000000E-03 0. -1.
    9900012    2    1    2    0    0  0.28580375715E+02 -0.12901080031E+02  0.30005789640E+02  0.47787272426E+02  0.20000006301E+02 0.  0.
         12    1    1    2    0    0 -0.28580375715E+02  0.12901080031E+02 -0.30005789640E+02  0.43400727574E+02  0.00000000000E+00 0. -1.
         11    1    3    3    0    0  0.98020920740E+01  0.95152535746E+00  0.57194436065E+01  0.11388522510E+02  0.51100000000E-03 0. -1.
        -11    1    3    3    0    0  0.19828784448E+02 -0.95388811693E+01  0.16757687151E+02  0.27658471136E+02  0.51100000000E-03 0.  1.
        -12    1    3    3    0    0 -0.10505008077E+01 -0.43137242194E+01  0.75286588823E+01  0.87402787802E+01  0.00000000000E+00 0.  1.
</event>
<event>
 7    1  0.2492468E-009  0.4778727E+02  0.7816164E-02  0.1312668E+00
        -11   -1    0    0    0    0  0.00000000000E+00  0.00000000000E+00  0.45593999997E+02  0.45594000000E+02  0.51100000000E-03 0.  1.
         11   -1    0    0    0    0 -0.00000000000E+00 -0.00000000000E+00 -0.45593999997E+02  0.45594000000E+02  0.51100000000E-03 0. -1.
    9900012    2    1    2    0    0 -0.14988919124E+02  0.37751850547E+02  0.15289002486E+02  0.47787268287E+02  0.19999987426E+02 0.  0.
         12    1    1    2    0    0  0.14988919124E+02 -0.37751850547E+02 -0.15289002486E+02  0.43400731713E+02  0.00000000000E+00 0. -1.
         11    1    3    3    0    0 -0.12851192161E+02  0.21366680987E+02  0.15811846730E+02  0.29524611660E+02  0.51100000000E-03 0.  1.
        -11    1    3    3    0    0 -0.47125514764E+01  0.10916132017E+02  0.12699995597E+01  0.11957549029E+02  0.51100000000E-03 0. -1.
         12    1    3    3    0    0  0.25748245143E+01  0.54690375429E+01 -0.17928438030E+01  0.63051075984E+01  0.00000000000E+00 0. -1.
</event>
<event>
 7    1  0.2492468E-009  0.4778727E+02  0.7816164E-02  0.1312668E+00
        -11   -1    0    0    0    0  0.00000000000E+00  0.00000000000E+00  0.45593999997E+02  0.45594000000E+02  0.51100000000E-03 0. -1.
         11   -1    0    0    0    0 -0.00000000000E+00 -0.00000000000E+00 -0.45593999997E+02  0.45594000000E+02  0.51100000000E-03 0.  1.
    9900012    2    1    2    0    0  0.12273635025E+01  0.29197822729E+02 -0.32087444314E+02  0.47787270099E+02  0.19999995692E+02 0.  0.
         12    1    1    2    0    0 -0.12273635025E+01 -0.29197822729E+02  0.32087444314E+02  0.43400729901E+02  0.00000000000E+00 0. -1.
         11    1    3    3    0    0 -0.14967303895E+01  0.43364944862E+01 -0.97601242640E-01  0.45885632339E+01  0.51100000000E-03 0. -1.
        -11    1    3    3    0    0  0.32474829080E+01  0.16408299608E+02 -0.96575332687E+01  0.19314408879E+02  0.51100000000E-03 0.  1.
        -12    1    3    3    0    0 -0.52338901600E+00  0.84530286348E+01 -0.22332309803E+02  0.23884297986E+02  0.00000000000E+00 0.  1.
</event>
<event>
 7    1  0.2492468E-009  0.4778727E+02  0.7816164E-02  0.1312668E+00
        -11   -1    0    0    0    0  0.00000000000E+00  0.00000000000E+00  0.45593999997E+02  0.45594000000E+02  0.51100000000E-03 0.  1.
         11   -1    0    0    0    0 -0.00000000000E+00 -0.00000000000E+00 -0.45593999997E+02  0.45594000000E+02  0.51100000000E-03 0. -1.
    9900012    2    1    2    0    0  0.14068525635E+02  0.40716768058E+02  0.52768071207E+01  0.47787270651E+02  0.19999998208E+02 0.  0.
         12    1    1    2    0    0 -0.14068525635E+02 -0.40716768058E+02 -0.52768071207E+01  0.43400729349E+02  0.00000000000E+00 0. -1.
         11    1    3    3    0    0  0.32036239865E+01  0.95962420176E+01 -0.62355806200E+01  0.11884171550E+02  0.51100000000E-03 0. -1.
        -11    1    3    3    0    0 -0.40934620311E+00  0.10386933826E+02  0.30883527960E+01  0.10844071277E+02  0.51100000000E-03 0.  1.
        -12    1    3    3    0    0  0.11274247851E+02  0.20733592215E+02  0.84240349447E+01  0.25059027824E+02  0.00000000000E+00 0.  1.
</event>
<event>
 7    1  0.2492468E-009  0.4778727E+02  0.7816164E-02  0.1312668E+00
        -11   -1    0    0    0    0  0.00000000000E+00  0.00000000000E+00  0.45593999997E+02  0.45594000000E+02  0.51100000000E-03 0.  1.
         11   -1    0    0    0    0 -0.00000000000E+00 -0.00000000000E+00 -0.45593999997E+02  0.45594000000E+02  0.51100000000E-03 0. -1.
    9900012    2    1    2    0    0 -0.32188006487E+02  0.14548585499E+02  0.25216941789E+02  0.47787271264E+02  0.20000001000E+02 0.  0.
         12    1    1    2    0    0  0.32188006487E+02 -0.14548585499E+02 -0.25216941789E+02  0.43400728736E+02  0.00000000000E+00 0. -1.
         11    1    3    3    0    0 -0.62615582216E+01  0.65057390011E+01  0.16780275875E+02  0.19055429935E+02  0.51100000000E-03 0. -1.
        -11    1    3    3    0    0 -0.68283563744E+01  0.33230932421E+00  0.27166762936E+01  0.73564400771E+01  0.51100000000E-03 0.  1.
        -12    1    3    3    0    0 -0.19098091891E+02  0.77105371740E+01  0.57199896197E+01  0.21375401251E+02  0.00000000000E+00 0.  1.
</event>
<event>
 7    1  0.2492468E-009  0.4778726E+02  0.7816164E-02  0.1312668E+00
        -11   -1    0    0    0    0  0.00000000000E+00  0.00000000000E+00  0.45593999997E+02  0.45594000000E+02  0.51100000000E-03 0.  1.
         11   -1    0    0    0    0 -0.00000000000E+00 -0.00000000000E+00 -0.45593999997E+02  0.45594000000E+02  0.51100000000E-03 0. -1.
    9900012    2    1    2    0    0  0.62944879801E+01  0.31794689993E+02  0.28863488413E+02  0.47787264360E+02  0.19999969525E+02 0.  0.
         12    1    1    2    0    0 -0.62944879801E+01 -0.31794689993E+02 -0.28863488413E+02  0.43400735640E+02  0.00000000000E+00 0. -1.
         11    1    3    3    0    0  0.55476096935E+01  0.22759670405E+02  0.99415447733E+01  0.25448239290E+02  0.51100000000E-03 0. -1.
        -11    1    3    3    0    0 -0.18869981479E+01  0.89345292334E+01  0.13340266042E+02  0.16166300535E+02  0.51100000000E-03 0.  1.
         12    1    3    3    0    0  0.26338764346E+01  0.10049035474E+00  0.55816775979E+01  0.61727245354E+01  0.00000000000E+00 0. -1.
</event>
<event>
 7    1  0.3047102E-009  0.4778726E+02  0.7816164E-02  0.1312668E+00
        -11   -1    0    0    0    0  0.00000000000E+00  0.00000000000E+00  0.45593999997E+02  0.45594000000E+02  0.51100000000E-03 0. -1.
         11   -1    0    0    0    0 -0.00000000000E+00 -0.00000000000E+00 -0.45593999997E+02  0.45594000000E+02  0.51100000000E-03 0.  1.
    9900012    2    1    2    0    0  0.16526008316E+00 -0.43085121134E+02 -0.52220229706E+01  0.47787256942E+02  0.19999935703E+02 0.  0.
         12    1    1    2    0    0 -0.16526008316E+00  0.43085121134E+02  0.52220229706E+01  0.43400743058E+02  0.00000000000E+00 0. -1.
         11    1    3    3    0    0  0.34605304746E+01 -0.92679129105E+01  0.18537088897E+01  0.10065074157E+02  0.51100000000E-03 0. -1.
        -11    1    3    3    0    0  0.18228965164E+01 -0.29124818458E+02 -0.22542850324E+01  0.29268751309E+02  0.51100000000E-03 0.  1.
         12    1    3    3    0    0 -0.51181669078E+01 -0.46923897661E+01 -0.48214468279E+01  0.84534314765E+01  0.00000000000E+00 0. -1.
</event>
<event>
 7    1  0.2492468E-009  0.4778727E+02  0.7816164E-02  0.1312668E+00
        -11   -1    0    0    0    0  0.00000000000E+00  0.00000000000E+00  0.45593999997E+02  0.45594000000E+02  0.51100000000E-03 0.  1.
         11   -1    0    0    0    0 -0.00000000000E+00 -0.00000000000E+00 -0.45593999997E+02  0.45594000000E+02  0.51100000000E-03 0. -1.
    9900012    2    1    2    0    0  0.27407818013E+02  0.28380342657E+02  0.18082890992E+02  0.47787270926E+02  0.19999999458E+02 0.  0.
         12    1    1    2    0    0 -0.27407818013E+02 -0.28380342657E+02 -0.18082890992E+02  0.43400729074E+02  0.00000000000E+00 0. -1.
         11    1    3    3    0    0  0.23752065166E+01 -0.10984821659E+01  0.34354400297E+01  0.43186244944E+01  0.51100000000E-03 0. -1.
        -11    1    3    3    0    0  0.31694112515E+01  0.44146020367E+01  0.78077010865E+01  0.95128373969E+01  0.51100000000E-03 0.  1.
        -12    1    3    3    0    0  0.21863200245E+02  0.25064222786E+02  0.68397498763E+01  0.33955809034E+02  0.00000000000E+00 0.  1.
</event>
<event>
 7    1  0.2646443E-009  0.4778727E+02  0.7816164E-02  0.1312668E+00
        -11   -1    0    0    0    0  0.00000000000E+00  0.00000000000E+00  0.45593999997E+02  0.45594000000E+02  0.51100000000E-03 0.  1.
         11   -1    0    0    0    0 -0.00000000000E+00 -0.00000000000E+00 -0.45593999997E+02  0.45594000000E+02  0.51100000000E-03 0. -1.
    9900012    2    1    2    0    0  0.12284222036E+00 -0.32407828514E+02  0.28867642572E+02  0.47787271586E+02  0.20000002469E+02 0.  0.
         12    1    1    2    0    0 -0.12284222036E+00  0.32407828514E+02 -0.28867642572E+02  0.43400728414E+02  0.00000000000E+00 0. -1.
         11    1    3    3    0    0 -0.48575938048E+01 -0.16869300927E+02  0.10840922725E+02  0.20632380791E+02  0.51100000000E-03 0. -1.
        -11    1    3    3    0    0  0.69044206962E+00 -0.15916137676E+02  0.15082054852E+02  0.21937833247E+02  0.51100000000E-03 0.  1.
         12    1    3    3    0    0  0.42899939555E+01  0.37761008899E+00  0.29446649959E+01  0.52170575476E+01  0.00000000000E+00 0. -1.
</event>
<event>
 7    1  0.2492468E-009  0.4778727E+02  0.7816164E-02  0.1312668E+00
        -11   -1    0    0    0    0  0.00000000000E+00  0.00000000000E+00  0.45593999997E+02  0.45594000000E+02  0.51100000000E-03 0. -1.
         11   -1    0    0    0    0 -0.00000000000E+00 -0.00000000000E+00 -0.45593999997E+02  0.45594000000E+02  0.51100000000E-03 0.  1.
    9900012    2    1    2    0    0  0.19218514850E+02  0.17393838929E+02 -0.34809862098E+02  0.47787269073E+02  0.19999991012E+02 0.  0.
         12    1    1    2    0    0 -0.19218514850E+02 -0.17393838929E+02  0.34809862098E+02  0.43400730927E+02  0.00000000000E+00 0. -1.
         11    1    3    3    0    0  0.56863704440E+01  0.26685932936E+01 -0.10828148102E+02  0.12518186393E+02  0.51100000000E-03 0. -1.
        -11    1    3    3    0    0  0.25908537115E+01  0.76586329140E+00 -0.15272953207E+02  0.15510066714E+02  0.51100000000E-03 0.  1.
         12    1    3    3    0    0  0.10941290694E+02  0.13959382344E+02 -0.87087607886E+01  0.19759015966E+02  0.00000000000E+00 0. -1.
</event>
<event>
 7    1  0.2492468E-009  0.4778727E+02  0.7816164E-02  0.1312668E+00
        -11   -1    0    0    0    0  0.00000000000E+00  0.00000000000E+00  0.45593999997E+02  0.45594000000E+02  0.51100000000E-03 0.  1.
         11   -1    0    0    0    0 -0.00000000000E+00 -0.00000000000E+00 -0.45593999997E+02  0.45594000000E+02  0.51100000000E-03 0. -1.
    9900012    2    1    2    0    0 -0.85154817673E+01  0.35365933366E+02  0.23671933929E+02  0.47787272720E+02  0.20000007638E+02 0.  0.
         12    1    1    2    0    0  0.85154817673E+01 -0.35365933366E+02 -0.23671933929E+02  0.43400727280E+02  0.00000000000E+00 0. -1.
         11    1    3    3    0    0 -0.56761014569E+01  0.10578328662E+02  0.22499941786E+01  0.12213993577E+02  0.51100000000E-03 0. -1.
        -11    1    3    3    0    0  0.12229622655E+00  0.29078162361E+01 -0.18858678308E+01  0.34679748221E+01  0.51100000000E-03 0.  1.
        -12    1    3    3    0    0 -0.29616765370E+01  0.21879788467E+02  0.23307807581E+02  0.32105304320E+02  0.00000000000E+00 0.  1.
</event>
<event>
 7    1  0.2492468E-009  0.4778727E+02  0.7816164E-02  0.1312668E+00
        -11   -1    0    0    0    0  0.00000000000E+00  0.00000000000E+00  0.45593999997E+02  0.45594000000E+02  0.51100000000E-03 0. -1.
         11   -1    0    0    0    0 -0.00000000000E+00 -0.00000000000E+00 -0.45593999997E+02  0.45594000000E+02  0.51100000000E-03 0.  1.
    9900012    2    1    2    0    0 -0.32997390687E+02 -0.28038382851E+02 -0.29401765564E+01  0.47787270245E+02  0.19999996357E+02 0.  0.
         12    1    1    2    0    0  0.32997390687E+02  0.28038382851E+02  0.29401765564E+01  0.43400729755E+02  0.00000000000E+00 0. -1.
         11    1    3    3    0    0 -0.72697236194E+00  0.11037168758E-01  0.31213494272E+01  0.32049076651E+01  0.51100000000E-03 0. -1.
        -11    1    3    3    0    0 -0.46781234691E+01 -0.97565730274E+01 -0.35256013574E+01  0.11380044887E+02  0.51100000000E-03 0.  1.
         12    1    3    3    0    0 -0.27592294856E+02 -0.18292846992E+02 -0.25359246262E+01  0.33202317693E+02  0.00000000000E+00 0. -1.
</event>
<event>
 7    1  0.2492468E-009  0.4778728E+02  0.7816164E-02  0.1312668E+00
        -11   -1    0    0    0    0  0.00000000000E+00  0.00000000000E+00  0.45593999997E+02  0.45594000000E+02  0.51100000000E-03 0.  1.
         11   -1    0    0    0    0 -0.00000000000E+00 -0.00000000000E+00 -0.45593999997E+02  0.45594000000E+02  0.51100000000E-03 0. -1.
    9900012    2    1    2    0    0  0.39181188841E+02 -0.31028495012E+01 -0.18407309410E+02  0.47787282566E+02  0.20000052532E+02 0.  0.
         12    1    1    2    0    0 -0.39181188841E+02  0.31028495012E+01  0.18407309410E+02  0.43400717434E+02  0.00000000000E+00 0. -1.
         11    1    3    3    0    0  0.67588509639E+01  0.45267927847E+01 -0.61545468612E+01  0.10200606188E+02  0.51100000000E-03 0. -1.
        -11    1    3    3    0    0  0.84863036216E+01 -0.50185564884E+01 -0.88892299182E+01  0.13274850929E+02  0.51100000000E-03 0.  1.
         12    1    3    3    0    0  0.23936034256E+02 -0.26110857975E+01 -0.33635326311E+01  0.24311825450E+02  0.00000000000E+00 0. -1.
</event>
<event>
 7    1  0.2492468E-009  0.4778727E+02  0.7816164E-02  0.1312668E+00
        -11   -1    0    0    0    0  0.00000000000E+00  0.00000000000E+00  0.45593999997E+02  0.45594000000E+02  0.51100000000E-03 0. -1.
         11   -1    0    0    0    0 -0.00000000000E+00 -0.00000000000E+00 -0.45593999997E+02  0.45594000000E+02  0.51100000000E-03 0.  1.
    9900012    2    1    2    0    0  0.48250177584E+01 -0.17019731052E+02 -0.39631697521E+02  0.47787268556E+02  0.19999988654E+02 0.  0.
         12    1    1    2    0    0 -0.48250177584E+01  0.17019731052E+02  0.39631697521E+02  0.43400731444E+02  0.00000000000E+00 0. -1.
         11    1    3    3    0    0  0.67382363768E+01 -0.31044745638E+00 -0.99538577235E+01  0.12024121213E+02  0.51100000000E-03 0. -1.
        -11    1    3    3    0    0  0.36116238883E+01 -0.59445473364E+01 -0.60555826402E+01  0.92223398072E+01  0.51100000000E-03 0.  1.
        -12    1    3    3    0    0 -0.55248425067E+01 -0.10764736259E+02 -0.23622257158E+02  0.26540807536E+02  0.00000000000E+00 0.  1.
</event>
<event>
 7    1  0.2492468E-009  0.4778727E+02  0.7816164E-02  0.1312668E+00
        -11   -1    0    0    0    0  0.00000000000E+00  0.00000000000E+00  0.45593999997E+02  0.45594000000E+02  0.51100000000E-03 0.  1.
         11   -1    0    0    0    0 -0.00000000000E+00 -0.00000000000E+00 -0.45593999997E+02  0.45594000000E+02  0.51100000000E-03 0. -1.
    9900012    2    1    2    0    0  0.26346982501E+02  0.22708424674E+02  0.25957421387E+02  0.47787265408E+02  0.19999974301E+02 0.  0.
         12    1    1    2    0    0 -0.26346982501E+02 -0.22708424674E+02 -0.25957421387E+02  0.43400734592E+02  0.00000000000E+00 0. -1.
         11    1    3    3    0    0  0.13537840500E+02  0.17176617694E+02  0.17816344752E+02  0.28208712509E+02  0.51100000000E-03 0.  1.
        -11    1    3    3    0    0  0.13444426042E+02  0.58996141455E+01  0.98761852191E+01  0.17694549257E+02  0.51100000000E-03 0. -1.
         12    1    3    3    0    0 -0.63528404118E+00 -0.36780716538E+00 -0.17351085846E+01  0.18840036423E+01  0.00000000000E+00 0. -1.
</event>
<event>
 7    1  0.2492468E-009  0.4778727E+02  0.7816164E-02  0.1312668E+00
        -11   -1    0    0    0    0  0.00000000000E+00  0.00000000000E+00  0.45593999997E+02  0.45594000000E+02  0.51100000000E-03 0.  1.
         11   -1    0    0    0    0 -0.00000000000E+00 -0.00000000000E+00 -0.45593999997E+02  0.45594000000E+02  0.51100000000E-03 0. -1.
    9900012    2    1    2    0    0  0.39825951674E+02 -0.16300478260E+02  0.56401282957E+01  0.47787273446E+02  0.20000010949E+02 0.  0.
         12    1    1    2    0    0 -0.39825951674E+02  0.16300478260E+02 -0.56401282957E+01  0.43400726554E+02  0.00000000000E+00 0. -1.
         11    1    3    3    0    0  0.13989262277E+01 -0.13167580927E+01 -0.34769983300E+01  0.39724506432E+01  0.51100000000E-03 0. -1.
        -11    1    3    3    0    0  0.22608521541E+02 -0.74818220888E+01 -0.54053141091E+00  0.23820476118E+02  0.51100000000E-03 0.  1.
         12    1    3    3    0    0  0.15818503905E+02 -0.75018980787E+01  0.96576580366E+01  0.19994346684E+02  0.00000000000E+00 0. -1.
</event>
<event>
 7    1  0.2492468E-009  0.4778727E+02  0.7816164E-02  0.1312668E+00
        -11   -1    0    0    0    0  0.00000000000E+00  0.00000000000E+00  0.45593999997E+02  0.45594000000E+02  0.51100000000E-03 0.  1.
         11   -1    0    0    0    0 -0.00000000000E+00 -0.00000000000E+00 -0.45593999997E+02  0.45594000000E+02  0.51100000000E-03 0. -1.
    9900012    2    1    2    0    0  0.19615130555E+02 -0.35722507066E+02  0.14925567404E+02  0.47787269360E+02  0.19999992319E+02 0.  0.
         12    1    1    2    0    0 -0.19615130555E+02  0.35722507066E+02 -0.14925567404E+02  0.43400730640E+02  0.00000000000E+00 0. -1.
         11    1    3    3    0    0  0.30840941649E+00  0.14268425616E+01  0.25460928642E+01  0.29348910027E+01  0.51100000000E-03 0. -1.
        -11    1    3    3    0    0  0.58726016778E+01 -0.36165418004E+01  0.94016228035E+00  0.69606558912E+01  0.51100000000E-03 0.  1.
        -12    1    3    3    0    0  0.13434119461E+02 -0.33532807827E+02  0.11439312260E+02  0.37891722466E+02  0.00000000000E+00 0.  1.
</event>
<event>
 7    1  0.2492468E-009  0.4778728E+02  0.7816164E-02  0.1312668E+00
        -11   -1    0    0    0    0  0.00000000000E+00  0.00000000000E+00  0.45593999997E+02  0.45594000000E+02  0.51100000000E-03 0.  1.
         11   -1    0    0    0    0 -0.00000000000E+00 -0.00000000000E+00 -0.45593999997E+02  0.45594000000E+02  0.51100000000E-03 0. -1.
    9900012    2    1    2    0    0  0.22868813819E+01  0.24217898200E+02  0.35942821356E+02  0.47787276196E+02  0.20000023489E+02 0.  0.
         12    1    1    2    0    0 -0.22868813819E+01 -0.24217898200E+02 -0.35942821356E+02  0.43400723804E+02  0.00000000000E+00 0. -1.
         11    1    3    3    0    0 -0.48225522490E+00  0.54522926453E+01  0.19375009115E+01  0.58063736734E+01  0.51100000000E-03 0. -1.
        -11    1    3    3    0    0  0.70325766070E+01  0.20334130977E+01  0.91893784794E+01  0.11748896955E+02  0.51100000000E-03 0.  1.
        -12    1    3    3    0    0 -0.42634400002E+01  0.16732192457E+02  0.24815941965E+02  0.30232005568E+02  0.00000000000E+00 0.  1.
</event>
<event>
 7    1  0.2492468E-009  0.4778727E+02  0.7816164E-02  0.1312668E+00
        -11   -1    0    0    0    0  0.00000000000E+00  0.00000000000E+00  0.45593999997E+02  0.45594000000E+02  0.51100000000E-03 0. -1.
         11   -1    0    0    0    0 -0.00000000000E+00 -0.00000000000E+00 -0.45593999997E+02  0.45594000000E+02  0.51100000000E-03 0.  1.
    9900012    2    1    2    0    0  0.33750837191E+02 -0.26900871867E+02  0.45658901309E+01  0.47787271078E+02  0.20000000154E+02 0.  0.
         12    1    1    2    0    0 -0.33750837191E+02  0.26900871867E+02 -0.45658901309E+01  0.43400728922E+02  0.00000000000E+00 0. -1.
         11    1    3    3    0    0  0.15728899489E+02 -0.20846358858E+02  0.33515746966E+00  0.26116685999E+02  0.51100000000E-03 0. -1.
        -11    1    3    3    0    0 -0.90067552535E+00 -0.92562531414E+00 -0.67994077499E+00  0.14595610103E+01  0.51100000000E-03 0.  1.
        -12    1    3    3    0    0  0.18922613227E+02 -0.51288876946E+01  0.49106734362E+01  0.20211024069E+02  0.00000000000E+00 0.  1.
</event>
<event>
 7    1  0.2492468E-009  0.4778730E+02  0.7816164E-02  0.1312668E+00
        -11   -1    0    0    0    0  0.00000000000E+00  0.00000000000E+00  0.45593999997E+02  0.45594000000E+02  0.51100000000E-03 0.  1.
         11   -1    0    0    0    0 -0.00000000000E+00 -0.00000000000E+00 -0.45593999997E+02  0.45594000000E+02  0.51100000000E-03 0. -1.
    9900012    2    1    2    0    0  0.31044523564E+02  0.16339897875E+02  0.25551245923E+02  0.47787298691E+02  0.20000126052E+02 0.  0.
         12    1    1    2    0    0 -0.31044523564E+02 -0.16339897875E+02 -0.25551245923E+02  0.43400701309E+02  0.00000000000E+00 0. -1.
         11    1    3    3    0    0 -0.12285975664E+01  0.21378579560E+01  0.19684463239E+01  0.31551021872E+01  0.51100000000E-03 0. -1.
        -11    1    3    3    0    0  0.11035422096E+01  0.49013030958E+01  0.12539517205E+01  0.51781244311E+01  0.51100000000E-03 0.  1.
        -12    1    3    3    0    0  0.31169578921E+02  0.93007368230E+01  0.22328847878E+02  0.39454072073E+02  0.00000000000E+00 0.  1.
</event>
<event>
 7    1  0.2492468E-009  0.4778728E+02  0.7816164E-02  0.1312668E+00
        -11   -1    0    0    0    0  0.00000000000E+00  0.00000000000E+00  0.45593999997E+02  0.45594000000E+02  0.51100000000E-03 0. -1.
         11   -1    0    0    0    0 -0.00000000000E+00 -0.00000000000E+00 -0.45593999997E+02  0.45594000000E+02  0.51100000000E-03 0.  1.
    9900012    2    1    2    0    0 -0.26063797149E+02  0.34377354232E+02  0.47432683928E+01  0.47787278798E+02  0.20000035352E+02 0.  0.
         12    1    1    2    0    0  0.26063797149E+02 -0.34377354232E+02 -0.47432683928E+01  0.43400721202E+02  0.00000000000E+00 0. -1.
         11    1    3    3    0    0  0.10452833595E+00 -0.11335112620E+01  0.10289046797E+01  0.15344116316E+01  0.51100000000E-03 0. -1.
        -11    1    3    3    0    0 -0.13186787050E+01  0.11135372819E+02 -0.27073127237E+00  0.11216449395E+02  0.51100000000E-03 0.  1.
        -12    1    3    3    0    0 -0.24849646780E+02  0.24375492674E+02  0.39850949855E+01  0.35036417771E+02  0.00000000000E+00 0.  1.
</event>
<event>
 7    1  0.2492468E-009  0.4778726E+02  0.7816164E-02  0.1312668E+00
        -11   -1    0    0    0    0  0.00000000000E+00  0.00000000000E+00  0.45593999997E+02  0.45594000000E+02  0.51100000000E-03 0.  1.
         11   -1    0    0    0    0 -0.00000000000E+00 -0.00000000000E+00 -0.45593999997E+02  0.45594000000E+02  0.51100000000E-03 0. -1.
    9900012    2    1    2    0    0 -0.26847863241E+02  0.21252548461E+02  0.26667309451E+02  0.47787263024E+02  0.19999963432E+02 0.  0.
         12    1    1    2    0    0  0.26847863241E+02 -0.21252548461E+02 -0.26667309451E+02  0.43400736976E+02  0.00000000000E+00 0. -1.
         11    1    3    3    0    0 -0.19540173005E+01  0.10608982095E+02  0.63041832036E+01  0.12494455204E+02  0.51100000000E-03 0. -1.
        -11    1    3    3    0    0 -0.13937894458E+02  0.11075335858E+02  0.13686735337E+02  0.22455616018E+02  0.51100000000E-03 0.  1.
        -12    1    3    3    0    0 -0.10955951483E+02 -0.43176949277E+00  0.66763909095E+01  0.12837191803E+02  0.00000000000E+00 0.  1.
</event>
<event>
 7    1  0.2492468E-009  0.4778727E+02  0.7816164E-02  0.1312668E+00
        -11   -1    0    0    0    0  0.00000000000E+00  0.00000000000E+00  0.45593999997E+02  0.45594000000E+02  0.51100000000E-03 0. -1.
         11   -1    0    0    0    0 -0.00000000000E+00 -0.00000000000E+00 -0.45593999997E+02  0.45594000000E+02  0.51100000000E-03 0.  1.
    9900012    2    1    2    0    0  0.30218192075E+02 -0.22488355263E+02 -0.21558250442E+02  0.47787269397E+02  0.19999992490E+02 0.  0.
         12    1    1    2    0    0 -0.30218192075E+02  0.22488355263E+02  0.21558250442E+02  0.43400730603E+02  0.00000000000E+00 0. -1.
         11    1    3    3    0    0 -0.11154616541E+00 -0.33502723153E+01 -0.10602667305E+01  0.35158118458E+01  0.51100000000E-03 0. -1.
        -11    1    3    3    0    0  0.19325515554E+02 -0.15212516347E+02 -0.53993820451E+01  0.25180340184E+02  0.51100000000E-03 0.  1.
         12    1    3    3    0    0  0.11004222687E+02 -0.39255666011E+01 -0.15098601666E+02  0.19091117368E+02  0.00000000000E+00 0. -1.
</event>
<event>
 7    1  0.2492468E-009  0.4778724E+02  0.7816164E-02  0.1312668E+00
        -11   -1    0    0    0    0  0.00000000000E+00  0.00000000000E+00  0.45593999997E+02  0.45594000000E+02  0.51100000000E-03 0. -1.
         11   -1    0    0    0    0 -0.00000000000E+00 -0.00000000000E+00 -0.45593999997E+02  0.45594000000E+02  0.51100000000E-03 0.  1.
    9900012    2    1    2    0    0 -0.74655098563E+01 -0.23059036335E+02 -0.36002400239E+02  0.47787241745E+02  0.19999866413E+02 0.  0.
         12    1    1    2    0    0  0.74655098563E+01  0.23059036335E+02  0.36002400239E+02  0.43400758255E+02  0.00000000000E+00 0. -1.
         11    1    3    3    0    0  0.21336235659E+01 -0.56830463035E+00 -0.11372624008E+01  0.24836838976E+01  0.51100000000E-03 0. -1.
        -11    1    3    3    0    0  0.80896985280E+00 -0.20357959304E+01  0.12431029841E+01  0.25187700536E+01  0.51100000000E-03 0.  1.
        -12    1    3    3    0    0 -0.10408103275E+02 -0.20454935775E+02 -0.36108240822E+02  0.42784787794E+02  0.00000000000E+00 0.  1.
</event>
<event>
 7    1  0.2492468E-009  0.4778728E+02  0.7816164E-02  0.1312668E+00
        -11   -1    0    0    0    0  0.00000000000E+00  0.00000000000E+00  0.45593999997E+02  0.45594000000E+02  0.51100000000E-03 0.  1.
         11   -1    0    0    0    0 -0.00000000000E+00 -0.00000000000E+00 -0.45593999997E+02  0.45594000000E+02  0.51100000000E-03 0. -1.
    9900012    2    1    2    0    0 -0.38079339646E+02  0.40328892063E+01  0.20428474191E+02  0.47787275801E+02  0.20000021685E+02 0.  0.
         12    1    1    2    0    0  0.38079339646E+02 -0.40328892063E+01 -0.20428474191E+02  0.43400724199E+02  0.00000000000E+00 0. -1.
         11    1    3    3    0    0 -0.20024257523E+02  0.54295423339E+01  0.10800951170E+02  0.23390411833E+02  0.51100000000E-03 0. -1.
        -11    1    3    3    0    0 -0.17811913648E+02 -0.50430539203E+01  0.93299121414E+01  0.20730265832E+02  0.51100000000E-03 0.  1.
         12    1    3    3    0    0 -0.24316847572E+00  0.36464007927E+01  0.29761087940E+00  0.36665981351E+01  0.00000000000E+00 0. -1.
</event>
<event>
 7    1  0.2492468E-009  0.4778727E+02  0.7816164E-02  0.1312668E+00
        -11   -1    0    0    0    0  0.00000000000E+00  0.00000000000E+00  0.45593999997E+02  0.45594000000E+02  0.51100000000E-03 0.  1.
         11   -1    0    0    0    0 -0.00000000000E+00 -0.00000000000E+00 -0.45593999997E+02  0.45594000000E+02  0.51100000000E-03 0. -1.
    9900012    2    1    2    0    0 -0.43380137632E+02  0.93214135242E+00 -0.95811463854E+00  0.47787271755E+02  0.20000003242E+02 0.  0.
         12    1    1    2    0    0  0.43380137632E+02 -0.93214135242E+00  0.95811463854E+00  0.43400728245E+02  0.00000000000E+00 0. -1.
         11    1    3    3    0    0 -0.28625594334E+02  0.31386024109E+01 -0.23896218961E+01  0.28896120313E+02  0.51100000000E-03 0. -1.
        -11    1    3    3    0    0 -0.12028170123E+02  0.28559962582E+01  0.33863854429E+01  0.12818002878E+02  0.51100000000E-03 0.  1.
         12    1    3    3    0    0 -0.27263731748E+01 -0.50624573167E+01 -0.19548781853E+01  0.60731485649E+01  0.00000000000E+00 0. -1.
</event>
<event>
 7    1  0.2492468E-009  0.4778727E+02  0.7816164E-02  0.1312668E+00
        -11   -1    0    0    0    0  0.00000000000E+00  0.00000000000E+00  0.45593999997E+02  0.45594000000E+02  0.51100000000E-03 0. -1.
         11   -1    0    0    0    0 -0.00000000000E+00 -0.00000000000E+00 -0.45593999997E+02  0.45594000000E+02  0.51100000000E-03 0.  1.
    9900012    2    1    2    0    0 -0.31929987172E+02  0.90108179545E+00 -0.29381750013E+02  0.47787271169E+02  0.20000000567E+02 0.  0.
         12    1    1    2    0    0  0.31929987172E+02 -0.90108179545E+00  0.29381750013E+02  0.43400728831E+02  0.00000000000E+00 0. -1.
         11    1    3    3    0    0 -0.91038312689E+00 -0.95095911967E-01  0.43133126896E+00  0.10118733097E+01  0.51100000000E-03 0. -1.
        -11    1    3    3    0    0 -0.51494825340E+01  0.77077899952E+01 -0.87411857058E+01  0.12741095902E+02  0.51100000000E-03 0.  1.
        -12    1    3    3    0    0 -0.25870121512E+02 -0.67116122878E+01 -0.21071895577E+02  0.34034301957E+02  0.00000000000E+00 0.  1.
</event>
<event>
 7    1  0.2492468E-009  0.4778727E+02  0.7816164E-02  0.1312668E+00
        -11   -1    0    0    0    0  0.00000000000E+00  0.00000000000E+00  0.45593999997E+02  0.45594000000E+02  0.51100000000E-03 0.  1.
         11   -1    0    0    0    0 -0.00000000000E+00 -0.00000000000E+00 -0.45593999997E+02  0.45594000000E+02  0.51100000000E-03 0. -1.
    9900012    2    1    2    0    0 -0.53321639303E+01 -0.15667048550E+02  0.40121500631E+02  0.47787271949E+02  0.20000004124E+02 0.  0.
         12    1    1    2    0    0  0.53321639303E+01  0.15667048550E+02 -0.40121500631E+02  0.43400728051E+02  0.00000000000E+00 0. -1.
         11    1    3    3    0    0 -0.60220973038E+01  0.14311365160E+00  0.15394975355E+02  0.16531527573E+02  0.51100000000E-03 0. -1.
        -11    1    3    3    0    0 -0.26653217688E+01 -0.43614394566E+00  0.72607245443E+01  0.77467595059E+01  0.51100000000E-03 0.  1.
        -12    1    3    3    0    0  0.33552551423E+01 -0.15374018256E+02  0.17465800732E+02  0.23508984870E+02  0.00000000000E+00 0.  1.
</event>
<event>
 7    1  0.2492468E-009  0.4778727E+02  0.7816164E-02  0.1312668E+00
        -11   -1    0    0    0    0  0.00000000000E+00  0.00000000000E+00  0.45593999997E+02  0.45594000000E+02  0.51100000000E-03 0. -1.
         11   -1    0    0    0    0 -0.00000000000E+00 -0.00000000000E+00 -0.45593999997E+02  0.45594000000E+02  0.51100000000E-03 0.  1.
    9900012    2    1    2    0    0 -0.11112469406E+02  0.31619270690E+02 -0.27574587514E+02  0.47787272681E+02  0.20000007461E+02 0.  0.
         12    1    1    2    0    0  0.11112469406E+02 -0.31619270690E+02  0.27574587514E+02  0.43400727319E+02  0.00000000000E+00 0. -1.
         11    1    3    3    0    0  0.24784145928E+01  0.56189047462E+01 -0.11174255246E+01  0.62420565125E+01  0.51100000000E-03 0. -1.
        -11    1    3    3    0    0 -0.10831707094E+01  0.10040604318E+01  0.14341743988E+01  0.20587016792E+01  0.51100000000E-03 0.  1.
        -12    1    3    3    0    0 -0.12507713289E+02  0.24996305512E+02 -0.27891336389E+02  0.39486514489E+02  0.00000000000E+00 0.  1.
</event>
<event>
 7    1  0.2492468E-009  0.4778727E+02  0.7816164E-02  0.1312668E+00
        -11   -1    0    0    0    0  0.00000000000E+00  0.00000000000E+00  0.45593999997E+02  0.45594000000E+02  0.51100000000E-03 0.  1.
         11   -1    0    0    0    0 -0.00000000000E+00 -0.00000000000E+00 -0.45593999997E+02  0.45594000000E+02  0.51100000000E-03 0. -1.
    9900012    2    1    2    0    0 -0.24448525180E+02 -0.15795050018E+02  0.32193308689E+02  0.47787272899E+02  0.20000008454E+02 0.  0.
         12    1    1    2    0    0  0.24448525180E+02  0.15795050018E+02 -0.32193308689E+02  0.43400727101E+02  0.00000000000E+00 0. -1.
         11    1    3    3    0    0 -0.76685071366E+01  0.15853246135E+01  0.32198335182E+01  0.84667930163E+01  0.51100000000E-03 0. -1.
        -11    1    3    3    0    0  0.75991029646E+00  0.16915113884E+00 -0.39572327494E+00  0.87331147816E+00  0.51100000000E-03 0.  1.
        -12    1    3    3    0    0 -0.17539928340E+02 -0.17549525770E+02  0.29369198446E+02  0.38447168404E+02  0.00000000000E+00 0.  1.
</event>
<event>
 7    1  0.2492468E-009  0.4778726E+02  0.7816164E-02  0.1312668E+00
        -11   -1    0    0    0    0  0.00000000000E+00  0.00000000000E+00  0.45593999997E+02  0.45594000000E+02  0.51100000000E-03 0.  1.
         11   -1    0    0    0    0 -0.00000000000E+00 -0.00000000000E+00 -0.45593999997E+02  0.45594000000E+02  0.51100000000E-03 0. -1.
    9900012    2    1    2    0    0 -0.38889247901E+01 -0.16259153282E+02  0.40051719413E+02  0.47787262340E+02  0.19999960314E+02 0.  0.
         12    1    1    2    0    0  0.38889247901E+01  0.16259153282E+02 -0.40051719413E+02  0.43400737660E+02  0.00000000000E+00 0. -1.
         11    1    3    3    0    0 -0.44424554855E+01 -0.58858503805E+01  0.12321297650E+02  0.14359422742E+02  0.51100000000E-03 0. -1.
        -11    1    3    3    0    0 -0.67619176479E+01 -0.47931435407E+01  0.73950272303E+01  0.11107843322E+02  0.51100000000E-03 0.  1.
        -12    1    3    3    0    0  0.73154483433E+01 -0.55801593607E+01  0.20335394532E+02  0.22319996275E+02  0.00000000000E+00 0.  1.
</event>
<event>
 7    1  0.2492468E-009  0.4778727E+02  0.7816164E-02  0.1312668E+00
        -11   -1    0    0    0    0  0.00000000000E+00  0.00000000000E+00  0.45593999997E+02  0.45594000000E+02  0.51100000000E-03 0.  1.
         11   -1    0    0    0    0 -0.00000000000E+00 -0.00000000000E+00 -0.45593999997E+02  0.45594000000E+02  0.51100000000E-03 0. -1.
    9900012    2    1    2    0    0  0.39496724812E+02 -0.17469886840E+02  0.42936481936E+01  0.47787266920E+02  0.19999981194E+02 0.  0.
         12    1    1    2    0    0 -0.39496724812E+02  0.17469886840E+02 -0.42936481936E+01  0.43400733080E+02  0.00000000000E+00 0. -1.
         11    1    3    3    0    0 -0.59929217821E+00 -0.35727598667E+01 -0.20054642774E+01  0.41407307820E+01  0.51100000000E-03 0. -1.
        -11    1    3    3    0    0  0.33341593131E+00 -0.81640953090E+00  0.11838674871E+01  0.14762226097E+01  0.51100000000E-03 0.  1.
        -12    1    3    3    0    0  0.39762601059E+02 -0.13080717442E+02  0.51152449839E+01  0.42170313528E+02  0.00000000000E+00 0.  1.
</event>
<event>
 7    1  0.2492468E-009  0.4778727E+02  0.7816164E-02  0.1312668E+00
        -11   -1    0    0    0    0  0.00000000000E+00  0.00000000000E+00  0.45593999997E+02  0.45594000000E+02  0.51100000000E-03 0. -1.
         11   -1    0    0    0    0 -0.00000000000E+00 -0.00000000000E+00 -0.45593999997E+02  0.45594000000E+02  0.51100000000E-03 0.  1.
    9900012    2    1    2    0    0  0.33153305458E+01 -0.76595456035E+00 -0.43267137257E+02  0.47787271096E+02  0.20000000234E+02 0.  0.
         12    1    1    2    0    0 -0.33153305458E+01  0.76595456035E+00  0.43267137257E+02  0.43400728904E+02  0.00000000000E+00 0. -1.
         11    1    3    3    0    0  0.34374667777E+01 -0.11422326151E+01 -0.16176536579E+01  0.39670740872E+01  0.51100000000E-03 0. -1.
        -11    1    3    3    0    0  0.49049948725E+01 -0.14572147407E+00 -0.57178902157E+01  0.75348840886E+01  0.51100000000E-03 0.  1.
         12    1    3    3    0    0 -0.50271311045E+01  0.52199952885E+00 -0.35931593383E+02  0.36285312920E+02  0.00000000000E+00 0. -1.
</event>
<event>
 7    1  0.3786677E-009  0.4778727E+02  0.7816164E-02  0.1312668E+00
        -11   -1    0    0    0    0  0.00000000000E+00  0.00000000000E+00  0.45593999997E+02  0.45594000000E+02  0.51100000000E-03 0. -1.
         11   -1    0    0    0    0 -0.00000000000E+00 -0.00000000000E+00 -0.45593999997E+02  0.45594000000E+02  0.51100000000E-03 0.  1.
    9900012    2    1    2    0    0  0.43146272175E+00  0.71200654398E+01 -0.42810534761E+02  0.47787269840E+02  0.19999994507E+02 0.  0.
         12    1    1    2    0    0 -0.43146272175E+00 -0.71200654398E+01  0.42810534761E+02  0.43400730160E+02  0.00000000000E+00 0. -1.
         11    1    3    3    0    0 -0.62304306768E+01  0.36451858621E+00 -0.15504612892E+02  0.16713592116E+02  0.51100000000E-03 0. -1.
        -11    1    3    3    0    0  0.47652982285E+00  0.78372096465E+01 -0.19722919611E+02  0.21228341762E+02  0.51100000000E-03 0.  1.
         12    1    3    3    0    0  0.61853635757E+01 -0.10816627929E+01 -0.75830022572E+01  0.98453359614E+01  0.00000000000E+00 0. -1.
</event>
<event>
 7    1  0.2492468E-009  0.4778727E+02  0.7816164E-02  0.1312668E+00
        -11   -1    0    0    0    0  0.00000000000E+00  0.00000000000E+00  0.45593999997E+02  0.45594000000E+02  0.51100000000E-03 0.  1.
         11   -1    0    0    0    0 -0.00000000000E+00 -0.00000000000E+00 -0.45593999997E+02  0.45594000000E+02  0.51100000000E-03 0. -1.
    9900012    2    1    2    0    0 -0.20044468258E+02 -0.23952803283E+02  0.30134796298E+02  0.47787269122E+02  0.19999991233E+02 0.  0.
         12    1    1    2    0    0  0.20044468258E+02  0.23952803283E+02 -0.30134796298E+02  0.43400730878E+02  0.00000000000E+00 0. -1.
         11    1    3    3    0    0  0.51905773566E+00 -0.45154633007E-02 -0.31137223361E+00  0.60530508947E+00  0.51100000000E-03 0. -1.
        -11    1    3    3    0    0 -0.15394171826E+02 -0.26211579862E+02  0.25900317985E+02  0.39935622157E+02  0.51100000000E-03 0.  1.
        -12    1    3    3    0    0 -0.51693541677E+01  0.22632920423E+01  0.45458505471E+01  0.72463418755E+01  0.00000000000E+00 0.  1.
</event>
<event>
 7    1  0.2492468E-009  0.4778726E+02  0.7816164E-02  0.1312668E+00
        -11   -1    0    0    0    0  0.00000000000E+00  0.00000000000E+00  0.45593999997E+02  0.45594000000E+02  0.51100000000E-03 0.  1.
         11   -1    0    0    0    0 -0.00000000000E+00 -0.00000000000E+00 -0.45593999997E+02  0.45594000000E+02  0.51100000000E-03 0. -1.
    9900012    2    1    2    0    0 -0.13233533933E+02  0.15303048357E+02  0.38396802021E+02  0.47787261357E+02  0.19999955829E+02 0.  0.
         12    1    1    2    0    0  0.13233533933E+02 -0.15303048357E+02 -0.38396802021E+02  0.43400738643E+02  0.00000000000E+00 0. -1.
         11    1    3    3    0    0 -0.21976319370E+01 -0.60302229154E+00  0.47925386285E+01  0.53067550142E+01  0.51100000000E-03 0. -1.
        -11    1    3    3    0    0 -0.12119283411E+02  0.40191391408E+01  0.10725810452E+02  0.16675536571E+02  0.51100000000E-03 0.  1.
         12    1    3    3    0    0  0.10833814148E+01  0.11886931507E+02  0.22878452940E+02  0.25804969771E+02  0.00000000000E+00 0. -1.
</event>
<event>
 7    1  0.2492468E-009  0.4778727E+02  0.7816164E-02  0.1312668E+00
        -11   -1    0    0    0    0  0.00000000000E+00  0.00000000000E+00  0.45593999997E+02  0.45594000000E+02  0.51100000000E-03 0. -1.
         11   -1    0    0    0    0 -0.00000000000E+00 -0.00000000000E+00 -0.45593999997E+02  0.45594000000E+02  0.51100000000E-03 0.  1.
    9900012    2    1    2    0    0  0.14495161649E+02 -0.38410160520E+02  0.14077413916E+02  0.47787265848E+02  0.19999976305E+02 0.  0.
         12    1    1    2    0    0 -0.14495161649E+02  0.38410160520E+02 -0.14077413916E+02  0.43400734152E+02  0.00000000000E+00 0. -1.
         11    1    3    3    0    0  0.78955069611E+01 -0.87678491977E+01  0.68179416187E+01  0.13627125078E+02  0.51100000000E-03 0. -1.
        -11    1    3    3    0    0  0.10510760548E+02 -0.17237355252E+02  0.26584954245E+01  0.20363450139E+02  0.51100000000E-03 0.  1.
         12    1    3    3    0    0 -0.39111058602E+01 -0.12404956070E+02  0.46009768733E+01  0.13796690630E+02  0.00000000000E+00 0. -1.
</event>
<event>
 7    1  0.2492468E-009  0.4778726E+02  0.7816164E-02  0.1312668E+00
        -11   -1    0    0    0    0  0.00000000000E+00  0.00000000000E+00  0.45593999997E+02  0.45594000000E+02  0.51100000000E-03 0.  1.
         11   -1    0    0    0    0 -0.00000000000E+00 -0.00000000000E+00 -0.45593999997E+02  0.45594000000E+02  0.51100000000E-03 0. -1.
    9900012    2    1    2    0    0  0.18027100216E+02 -0.17763620014E+01  0.39439733070E+02  0.47787258661E+02  0.19999943537E+02 0.  0.
         12    1    1    2    0    0 -0.18027100216E+02  0.17763620014E+01 -0.39439733070E+02  0.43400741339E+02  0.00000000000E+00 0. -1.
         11    1    3    3    0    0  0.70948043214E+00  0.36822548865E+01  0.10507551308E+01  0.38944126821E+01  0.51100000000E-03 0. -1.
        -11    1    3    3    0    0  0.64123061341E+01  0.23149817133E+01  0.70243945930E+01  0.97887144176E+01  0.51100000000E-03 0.  1.
        -12    1    3    3    0    0  0.10905313649E+02 -0.77735986012E+01  0.31364583347E+02  0.34104131561E+02  0.00000000000E+00 0.  1.
</event>
<event>
 7    1  0.2492468E-009  0.4778727E+02  0.7816164E-02  0.1312668E+00
        -11   -1    0    0    0    0  0.00000000000E+00  0.00000000000E+00  0.45593999997E+02  0.45594000000E+02  0.51100000000E-03 0. -1.
         11   -1    0    0    0    0 -0.00000000000E+00 -0.00000000000E+00 -0.45593999997E+02  0.45594000000E+02  0.51100000000E-03 0.  1.
    9900012    2    1    2    0    0 -0.17935812492E+02 -0.25644251289E+02 -0.30071626778E+02  0.47787265778E+02  0.19999975989E+02 0.  0.
         12    1    1    2    0    0  0.17935812492E+02  0.25644251289E+02  0.30071626778E+02  0.43400734222E+02  0.00000000000E+00 0. -1.
         11    1    3    3    0    0  0.12504936738E+00 -0.58828026087E+00  0.24725870750E+00  0.65026774422E+00  0.51100000000E-03 0. -1.
        -11    1    3    3    0    0 -0.11872629893E+02 -0.26764514247E+02 -0.21972371615E+02  0.36607153373E+02  0.51100000000E-03 0.  1.
        -12    1    3    3    0    0 -0.61882319659E+01  0.17085432185E+01 -0.83465138700E+01  0.10529844661E+02  0.00000000000E+00 0.  1.
</event>
<event>
 7    1  0.2492468E-009  0.4778727E+02  0.7816164E-02  0.1312668E+00
        -11   -1    0    0    0    0  0.00000000000E+00  0.00000000000E+00  0.45593999997E+02  0.45594000000E+02  0.51100000000E-03 0.  1.
         11   -1    0    0    0    0 -0.00000000000E+00 -0.00000000000E+00 -0.45593999997E+02  0.45594000000E+02  0.51100000000E-03 0. -1.
    9900012    2    1    2    0    0  0.12833459924E+02 -0.21949782967E+02  0.35172901033E+02  0.47787266908E+02  0.19999981138E+02 0.  0.
         12    1    1    2    0    0 -0.12833459924E+02  0.21949782967E+02 -0.35172901033E+02  0.43400733092E+02  0.00000000000E+00 0. -1.
         11    1    3    3    0    0  0.83843879622E+01 -0.81665935992E+01  0.11375265341E+02  0.16321393150E+02  0.51100000000E-03 0. -1.
        -11    1    3    3    0    0 -0.42616618160E+01 -0.80360761438E+01  0.62054540615E+01  0.11011264305E+02  0.51100000000E-03 0.  1.
        -12    1    3    3    0    0  0.87107337775E+01 -0.57471132238E+01  0.17592181631E+02  0.20454609453E+02  0.00000000000E+00 0.  1.
</event>
<event>
 7    1  0.2492468E-009  0.4778724E+02  0.7816164E-02  0.1312668E+00
        -11   -1    0    0    0    0  0.00000000000E+00  0.00000000000E+00  0.45593999997E+02  0.45594000000E+02  0.51100000000E-03 0.  1.
         11   -1    0    0    0    0 -0.00000000000E+00 -0.00000000000E+00 -0.45593999997E+02  0.45594000000E+02  0.51100000000E-03 0. -1.
    9900012    2    1    2    0    0  0.36256944377E+02 -0.61856672887E+01  0.23039034652E+02  0.47787244096E+02  0.19999877129E+02 0.  0.
         12    1    1    2    0    0 -0.36256944377E+02  0.61856672887E+01 -0.23039034652E+02  0.43400755904E+02  0.00000000000E+00 0. -1.
         11    1    3    3    0    0  0.56806477858E+01  0.52947549697E+01  0.33100306753E+00  0.77726284324E+01  0.51100000000E-03 0. -1.
        -11    1    3    3    0    0  0.16279087317E+01  0.20580514184E+00  0.54446871946E+00  0.17288403752E+01  0.51100000000E-03 0.  1.
         12    1    3    3    0    0  0.28948387860E+02 -0.11686227400E+02  0.22163562865E+02  0.38285775288E+02  0.00000000000E+00 0. -1.
</event>
<event>
 7    1  0.2492468E-009  0.4778727E+02  0.7816164E-02  0.1312668E+00
        -11   -1    0    0    0    0  0.00000000000E+00  0.00000000000E+00  0.45593999997E+02  0.45594000000E+02  0.51100000000E-03 0. -1.
         11   -1    0    0    0    0 -0.00000000000E+00 -0.00000000000E+00 -0.45593999997E+02  0.45594000000E+02  0.51100000000E-03 0.  1.
    9900012    2    1    2    0    0  0.14034286501E+01 -0.34199618911E+02 -0.26684074500E+02  0.47787269850E+02  0.19999994553E+02 0.  0.
         12    1    1    2    0    0 -0.14034286501E+01  0.34199618911E+02  0.26684074500E+02  0.43400730150E+02  0.00000000000E+00 0. -1.
         11    1    3    3    0    0 -0.24802705643E+00 -0.11947863039E+02 -0.99221171383E+01  0.15532590170E+02  0.51100000000E-03 0. -1.
        -11    1    3    3    0    0  0.10001019441E+00 -0.19853930293E+02 -0.54512072994E+01  0.20588934198E+02  0.51100000000E-03 0.  1.
         12    1    3    3    0    0  0.15514455121E+01 -0.23978255793E+01 -0.11310750062E+02  0.11665745482E+02  0.00000000000E+00 0. -1.
</event>
<event>
 7    1  0.2492468E-009  0.4778727E+02  0.7816164E-02  0.1312668E+00
        -11   -1    0    0    0    0  0.00000000000E+00  0.00000000000E+00  0.45593999997E+02  0.45594000000E+02  0.51100000000E-03 0.  1.
         11   -1    0    0    0    0 -0.00000000000E+00 -0.00000000000E+00 -0.45593999997E+02  0.45594000000E+02  0.51100000000E-03 0. -1.
    9900012    2    1    2    0    0 -0.32899207365E+02 -0.23920072979E+02  0.15135900577E+02  0.47787271633E+02  0.20000002682E+02 0.  0.
         12    1    1    2    0    0  0.32899207365E+02  0.23920072979E+02 -0.15135900577E+02  0.43400728367E+02  0.00000000000E+00 0. -1.
         11    1    3    3    0    0  0.54604900358E-01 -0.57801415571E+01  0.13470439526E+01  0.59352797564E+01  0.51100000000E-03 0. -1.
        -11    1    3    3    0    0 -0.10880572702E+02 -0.69956890134E+01  0.10977728359E+02  0.16965761029E+02  0.51100000000E-03 0.  1.
        -12    1    3    3    0    0 -0.22073239563E+02 -0.11144242409E+02  0.28111282648E+01  0.24886230847E+02  0.00000000000E+00 0.  1.
</event>
<event>
 7    1  0.2492468E-009  0.4778727E+02  0.7816164E-02  0.1312668E+00
        -11   -1    0    0    0    0  0.00000000000E+00  0.00000000000E+00  0.45593999997E+02  0.45594000000E+02  0.51100000000E-03 0. -1.
         11   -1    0    0    0    0 -0.00000000000E+00 -0.00000000000E+00 -0.45593999997E+02  0.45594000000E+02  0.51100000000E-03 0.  1.
    9900012    2    1    2    0    0 -0.16632131517E+02 -0.55232113206E+01 -0.39705029171E+02  0.47787274159E+02  0.20000014199E+02 0.  0.
         12    1    1    2    0    0  0.16632131517E+02  0.55232113206E+01  0.39705029171E+02  0.43400725841E+02  0.00000000000E+00 0. -1.
         11    1    3    3    0    0 -0.64564536755E+00  0.73419444530E+00  0.13238642542E+01  0.16457570443E+01  0.51100000000E-03 0. -1.
        -11    1    3    3    0    0  0.55674306226E+00 -0.34036157353E+01 -0.13182882320E+02  0.13626553101E+02  0.51100000000E-03 0.  1.
         12    1    3    3    0    0 -0.16543229212E+02 -0.28537900306E+01 -0.27846011105E+02  0.32514964013E+02  0.00000000000E+00 0. -1.
</event>
<event>
 7    1  0.2492468E-009  0.4778727E+02  0.7816164E-02  0.1312668E+00
        -11   -1    0    0    0    0  0.00000000000E+00  0.00000000000E+00  0.45593999997E+02  0.45594000000E+02  0.51100000000E-03 0. -1.
         11   -1    0    0    0    0 -0.00000000000E+00 -0.00000000000E+00 -0.45593999997E+02  0.45594000000E+02  0.51100000000E-03 0.  1.
    9900012    2    1    2    0    0  0.38539758913E+02  0.17466420973E+02 -0.96557976818E+01  0.47787270656E+02  0.19999998230E+02 0.  0.
         12    1    1    2    0    0 -0.38539758913E+02 -0.17466420973E+02  0.96557976818E+01  0.43400729344E+02  0.00000000000E+00 0. -1.
         11    1    3    3    0    0  0.12366009404E+02  0.62386235878E+01 -0.87017375154E+00  0.13877889446E+02  0.51100000000E-03 0. -1.
        -11    1    3    3    0    0  0.19809399489E+02  0.13829418920E+02 -0.19879976180E+01  0.24240818273E+02  0.51100000000E-03 0.  1.
         12    1    3    3    0    0  0.63643500204E+01 -0.26016215345E+01 -0.67976263122E+01  0.96685629373E+01  0.00000000000E+00 0. -1.
</event>
<event>
 7    1  0.2492468E-009  0.4778727E+02  0.7816164E-02  0.1312668E+00
        -11   -1    0    0    0    0  0.00000000000E+00  0.00000000000E+00  0.45593999997E+02  0.45594000000E+02  0.51100000000E-03 0.  1.
         11   -1    0    0    0    0 -0.00000000000E+00 -0.00000000000E+00 -0.45593999997E+02  0.45594000000E+02  0.51100000000E-03 0. -1.
    9900012    2    1    2    0    0 -0.21448487394E+02 -0.19904360950E+02  0.32053114090E+02  0.47787270522E+02  0.19999997620E+02 0.  0.
         12    1    1    2    0    0  0.21448487394E+02  0.19904360950E+02 -0.32053114090E+02  0.43400729478E+02  0.00000000000E+00 0. -1.
         11    1    3    3    0    0 -0.98797002192E+01 -0.96573477424E+01  0.69646790372E+01  0.15471896981E+02  0.51100000000E-03 0. -1.
        -11    1    3    3    0    0 -0.10096127997E+02 -0.13249594172E+02  0.18289286910E+02  0.24738261099E+02  0.51100000000E-03 0.  1.
        -12    1    3    3    0    0 -0.14726591781E+01  0.30025809644E+01  0.67991481425E+01  0.75771124425E+01  0.00000000000E+00 0.  1.
</event>
<event>
 7    1  0.2492468E-009  0.4778727E+02  0.7816164E-02  0.1312668E+00
        -11   -1    0    0    0    0  0.00000000000E+00  0.00000000000E+00  0.45593999997E+02  0.45594000000E+02  0.51100000000E-03 0.  1.
         11   -1    0    0    0    0 -0.00000000000E+00 -0.00000000000E+00 -0.45593999997E+02  0.45594000000E+02  0.51100000000E-03 0. -1.
    9900012    2    1    2    0    0 -0.31933865467E+01 -0.25289917820E+01  0.43209141782E+02  0.47787269008E+02  0.19999990717E+02 0.  0.
         12    1    1    2    0    0  0.31933865467E+01  0.25289917820E+01 -0.43209141782E+02  0.43400730992E+02  0.00000000000E+00 0. -1.
         11    1    3    3    0    0 -0.57511105249E+01  0.24698503901E+01  0.10864361386E+02  0.12538332497E+02  0.51100000000E-03 0. -1.
        -11    1    3    3    0    0 -0.16308401492E+01  0.10631868800E+01 -0.12769741429E+00  0.19509774024E+01  0.51100000000E-03 0.  1.
        -12    1    3    3    0    0  0.41885641274E+01 -0.60620290521E+01  0.32472477811E+02  0.33297959109E+02  0.00000000000E+00 0.  1.
</event>
<event>
 7    1  0.2492468E-009  0.4778727E+02  0.7816164E-02  0.1312668E+00
        -11   -1    0    0    0    0  0.00000000000E+00  0.00000000000E+00  0.45593999997E+02  0.45594000000E+02  0.51100000000E-03 0.  1.
         11   -1    0    0    0    0 -0.00000000000E+00 -0.00000000000E+00 -0.45593999997E+02  0.45594000000E+02  0.51100000000E-03 0. -1.
    9900012    2    1    2    0    0 -0.10293399709E+02  0.12340675683E+02  0.40315963862E+02  0.47787270790E+02  0.19999998838E+02 0.  0.
         12    1    1    2    0    0  0.10293399709E+02 -0.12340675683E+02 -0.40315963862E+02  0.43400729210E+02  0.00000000000E+00 0. -1.
         11    1    3    3    0    0 -0.11092998794E+01  0.50086924208E+01  0.21949167592E+01  0.55798929944E+01  0.51100000000E-03 0. -1.
        -11    1    3    3    0    0 -0.49647123030E+01  0.11211812398E+02  0.23586541014E+02  0.26583416311E+02  0.51100000000E-03 0.  1.
        -12    1    3    3    0    0 -0.42193875270E+01 -0.38798291357E+01  0.14534506088E+02  0.15623961484E+02  0.00000000000E+00 0.  1.
</event>
<event>
 7    1  0.2492468E-009  0.4778727E+02  0.7816164E-02  0.1312668E+00
        -11   -1    0    0    0    0  0.00000000000E+00  0.00000000000E+00  0.45593999997E+02  0.45594000000E+02  0.51100000000E-03 0.  1.
         11   -1    0    0    0    0 -0.00000000000E+00 -0.00000000000E+00 -0.45593999997E+02  0.45594000000E+02  0.51100000000E-03 0. -1.
    9900012    2    1    2    0    0 -0.11798486996E+01  0.27172397416E+02  0.33821474914E+02  0.47787269711E+02  0.19999993921E+02 0.  0.
         12    1    1    2    0    0  0.11798486996E+01 -0.27172397416E+02 -0.33821474914E+02  0.43400730289E+02  0.00000000000E+00 0. -1.
         11    1    3    3    0    0  0.21570523459E+01  0.10373517650E+02  0.64197380551E+01  0.12388534224E+02  0.51100000000E-03 0. -1.
        -11    1    3    3    0    0 -0.75010175798E+01  0.10843233223E+02  0.10023783413E+02  0.16562524132E+02  0.51100000000E-03 0.  1.
         12    1    3    3    0    0  0.41641165342E+01  0.59556465423E+01  0.17377953445E+02  0.18836211355E+02  0.00000000000E+00 0. -1.
</event>
<event>
 7    1  0.2492468E-009  0.4778727E+02  0.7816164E-02  0.1312668E+00
        -11   -1    0    0    0    0  0.00000000000E+00  0.00000000000E+00  0.45593999997E+02  0.45594000000E+02  0.51100000000E-03 0.  1.
         11   -1    0    0    0    0 -0.00000000000E+00 -0.00000000000E+00 -0.45593999997E+02  0.45594000000E+02  0.51100000000E-03 0. -1.
    9900012    2    1    2    0    0  0.23412809838E+02 -0.59338647534E+01  0.36059020413E+02  0.47787269954E+02  0.19999995027E+02 0.  0.
         12    1    1    2    0    0 -0.23412809838E+02  0.59338647534E+01 -0.36059020413E+02  0.43400730046E+02  0.00000000000E+00 0. -1.
         11    1    3    3    0    0  0.74277530048E+01 -0.34484381145E+01  0.20671778712E+02  0.22234785259E+02  0.51100000000E-03 0. -1.
        -11    1    3    3    0    0  0.11786099477E+02  0.33958880487E+01  0.13162086483E+02  0.17991240017E+02  0.51100000000E-03 0.  1.
         12    1    3    3    0    0  0.41989573560E+01 -0.58813146876E+01  0.22251552183E+01  0.75612446778E+01  0.00000000000E+00 0. -1.
</event>
<event>
 7    1  0.2492468E-009  0.4778726E+02  0.7816164E-02  0.1312668E+00
        -11   -1    0    0    0    0  0.00000000000E+00  0.00000000000E+00  0.45593999997E+02  0.45594000000E+02  0.51100000000E-03 0.  1.
         11   -1    0    0    0    0 -0.00000000000E+00 -0.00000000000E+00 -0.45593999997E+02  0.45594000000E+02  0.51100000000E-03 0. -1.
    9900012    2    1    2    0    0  0.41661585465E+02 -0.91655413811E+01  0.79955584443E+01  0.47787264902E+02  0.19999971993E+02 0.  0.
         12    1    1    2    0    0 -0.41661585465E+02  0.91655413811E+01 -0.79955584443E+01  0.43400735098E+02  0.00000000000E+00 0. -1.
         11    1    3    3    0    0  0.64280114566E+00 -0.15657070999E+01  0.24111969783E+01  0.29459299320E+01  0.51100000000E-03 0. -1.
        -11    1    3    3    0    0  0.12936734199E+02 -0.35418678391E-01 -0.50323445807E+01  0.13881096443E+02  0.51100000000E-03 0.  1.
         12    1    3    3    0    0  0.28082050120E+02 -0.75644156029E+01  0.10616706047E+02  0.30960238526E+02  0.00000000000E+00 0. -1.
</event>
<event>
 7    1  0.2492468E-009  0.4778725E+02  0.7816164E-02  0.1312668E+00
        -11   -1    0    0    0    0  0.00000000000E+00  0.00000000000E+00  0.45593999997E+02  0.45594000000E+02  0.51100000000E-03 0. -1.
         11   -1    0    0    0    0 -0.00000000000E+00 -0.00000000000E+00 -0.45593999997E+02  0.45594000000E+02  0.51100000000E-03 0.  1.
    9900012    2    1    2    0    0  0.37442327219E+02  0.19109283871E+02  0.10795028841E+02  0.47787248333E+02  0.19999896448E+02 0.  0.
         12    1    1    2    0    0 -0.37442327219E+02 -0.19109283871E+02 -0.10795028841E+02  0.43400751667E+02  0.00000000000E+00 0. -1.
         11    1    3    3    0    0  0.15881404253E+01  0.24979835311E+01  0.48058796867E+00  0.29988459095E+01  0.51100000000E-03 0.  1.
        -11    1    3    3    0    0 -0.11405006491E+01  0.20559734056E+01  0.38500978549E+01  0.45112107165E+01  0.51100000000E-03 0. -1.
         12    1    3    3    0    0  0.36994687442E+02  0.14555326934E+02  0.64643430176E+01  0.40277191707E+02  0.00000000000E+00 0. -1.
</event>
<event>
 7    1  0.2492468E-009  0.4778727E+02  0.7816164E-02  0.1312668E+00
        -11   -1    0    0    0    0  0.00000000000E+00  0.00000000000E+00  0.45593999997E+02  0.45594000000E+02  0.51100000000E-03 0.  1.
         11   -1    0    0    0    0 -0.00000000000E+00 -0.00000000000E+00 -0.45593999997E+02  0.45594000000E+02  0.51100000000E-03 0. -1.
    9900012    2    1    2    0    0  0.40804787254E+02  0.12325640114E+02  0.81652472413E+01  0.47787270402E+02  0.19999997072E+02 0.  0.
         12    1    1    2    0    0 -0.40804787254E+02 -0.12325640114E+02 -0.81652472413E+01  0.43400729598E+02  0.00000000000E+00 0. -1.
         11    1    3    3    0    0  0.81597816354E+01  0.75034841819E+00  0.67048866863E+01  0.10587755420E+02  0.51100000000E-03 0. -1.
        -11    1    3    3    0    0  0.28237925565E+02  0.62780368406E+01  0.51512755224E+01  0.29382474820E+02  0.51100000000E-03 0.  1.
        -12    1    3    3    0    0  0.44070800538E+01  0.52972548556E+01 -0.36909149674E+01  0.78170401625E+01  0.00000000000E+00 0.  1.
</event>
<event>
 7    1  0.2492468E-009  0.4778727E+02  0.7816164E-02  0.1312668E+00
        -11   -1    0    0    0    0  0.00000000000E+00  0.00000000000E+00  0.45593999997E+02  0.45594000000E+02  0.51100000000E-03 0.  1.
         11   -1    0    0    0    0 -0.00000000000E+00 -0.00000000000E+00 -0.45593999997E+02  0.45594000000E+02  0.51100000000E-03 0. -1.
    9900012    2    1    2    0    0 -0.72007455760E-01 -0.39942168137E+02  0.16977676856E+02  0.47787268531E+02  0.19999988542E+02 0.  0.
         12    1    1    2    0    0  0.72007455760E-01  0.39942168137E+02 -0.16977676856E+02  0.43400731469E+02  0.00000000000E+00 0. -1.
         11    1    3    3    0    0  0.45341571516E+01 -0.10806733683E+02  0.10136435580E+02  0.15494883043E+02  0.51100000000E-03 0. -1.
        -11    1    3    3    0    0 -0.54521405342E+01 -0.10843988887E+02  0.69393022606E+01  0.13981124687E+02  0.51100000000E-03 0.  1.
        -12    1    3    3    0    0  0.84597592684E+00 -0.18291445567E+02 -0.98060984344E-01  0.18311260802E+02  0.00000000000E+00 0.  1.
</event>
<event>
 7    1  0.2492468E-009  0.4778727E+02  0.7816164E-02  0.1312668E+00
        -11   -1    0    0    0    0  0.00000000000E+00  0.00000000000E+00  0.45593999997E+02  0.45594000000E+02  0.51100000000E-03 0. -1.
         11   -1    0    0    0    0 -0.00000000000E+00 -0.00000000000E+00 -0.45593999997E+02  0.45594000000E+02  0.51100000000E-03 0.  1.
    9900012    2    1    2    0    0 -0.40755248724E+02 -0.12176865318E+02 -0.86230566330E+01  0.47787268978E+02  0.19999990580E+02 0.  0.
         12    1    1    2    0    0  0.40755248724E+02  0.12176865318E+02  0.86230566330E+01  0.43400731022E+02  0.00000000000E+00 0. -1.
         11    1    3    3    0    0 -0.19302073997E+02 -0.60204711508E+01 -0.87680748478E+01  0.22038495190E+02  0.51100000000E-03 0. -1.
        -11    1    3    3    0    0 -0.13842321188E+02  0.24141204601E+01 -0.16470777643E+01  0.14147462631E+02  0.51100000000E-03 0.  1.
         12    1    3    3    0    0 -0.76108535391E+01 -0.85705146274E+01  0.17920959791E+01  0.11601311157E+02  0.00000000000E+00 0. -1.
</event>
<event>
 7    1  0.2492468E-009  0.4778727E+02  0.7816164E-02  0.1312668E+00
        -11   -1    0    0    0    0  0.00000000000E+00  0.00000000000E+00  0.45593999997E+02  0.45594000000E+02  0.51100000000E-03 0.  1.
         11   -1    0    0    0    0 -0.00000000000E+00 -0.00000000000E+00 -0.45593999997E+02  0.45594000000E+02  0.51100000000E-03 0. -1.
    9900012    2    1    2    0    0  0.33691056633E+02  0.21889428884E+02  0.16413075702E+02  0.47787269040E+02  0.19999990860E+02 0.  0.
         12    1    1    2    0    0 -0.33691056633E+02 -0.21889428884E+02 -0.16413075702E+02  0.43400730960E+02  0.00000000000E+00 0. -1.
         11    1    3    3    0    0  0.91464148373E+01  0.10115096217E+02  0.41861303461E+01  0.14265194124E+02  0.51100000000E-03 0. -1.
        -11    1    3    3    0    0  0.12883959275E+02  0.67841820991E+01  0.14598297792E+02  0.20618725277E+02  0.51100000000E-03 0.  1.
         12    1    3    3    0    0  0.11660682520E+02  0.49901505680E+01 -0.23713524367E+01  0.12903349639E+02  0.00000000000E+00 0. -1.
</event>
<event>
 7    1  0.2492468E-009  0.4778727E+02  0.7816164E-02  0.1312668E+00
        -11   -1    0    0    0    0  0.00000000000E+00  0.00000000000E+00  0.45593999997E+02  0.45594000000E+02  0.51100000000E-03 0. -1.
         11   -1    0    0    0    0 -0.00000000000E+00 -0.00000000000E+00 -0.45593999997E+02  0.45594000000E+02  0.51100000000E-03 0.  1.
    9900012    2    1    2    0    0  0.17497510762E+02  0.18903824766E+02 -0.34930010105E+02  0.47787273283E+02  0.20000010204E+02 0.  0.
         12    1    1    2    0    0 -0.17497510762E+02 -0.18903824766E+02  0.34930010105E+02  0.43400726717E+02  0.00000000000E+00 0. -1.
         11    1    3    3    0    0  0.27030694436E+01 -0.81744452229E+00 -0.64848214302E+01  0.70730268773E+01  0.51100000000E-03 0. -1.
        -11    1    3    3    0    0  0.20483014421E+01 -0.22223565483E+01 -0.67746046838E+00  0.30973150264E+01  0.51100000000E-03 0.  1.
        -12    1    3    3    0    0  0.12746139876E+02  0.21943625836E+02 -0.27767728207E+02  0.37616931379E+02  0.00000000000E+00 0.  1.
</event>
<event>
 7    1  0.2492468E-009  0.4778727E+02  0.7816164E-02  0.1312668E+00
        -11   -1    0    0    0    0  0.00000000000E+00  0.00000000000E+00  0.45593999997E+02  0.45594000000E+02  0.51100000000E-03 0.  1.
         11   -1    0    0    0    0 -0.00000000000E+00 -0.00000000000E+00 -0.45593999997E+02  0.45594000000E+02  0.51100000000E-03 0. -1.
    9900012    2    1    2    0    0  0.42949236539E+00 -0.73537862933E+01  0.42771025803E+02  0.47787270919E+02  0.19999999426E+02 0.  0.
         12    1    1    2    0    0 -0.42949236539E+00  0.73537862933E+01 -0.42771025803E+02  0.43400729081E+02  0.00000000000E+00 0. -1.
         11    1    3    3    0    0 -0.26554061635E+01 -0.20340454264E+01  0.13383024182E+02  0.13794704028E+02  0.51100000000E-03 0. -1.
        -11    1    3    3    0    0  0.75411151390E+01  0.11232991169E+01  0.21765266893E+02  0.23062026399E+02  0.51100000000E-03 0.  1.
         12    1    3    3    0    0 -0.44562166102E+01 -0.64430399837E+01  0.76227347285E+01  0.10930540492E+02  0.00000000000E+00 0. -1.
</event>
<event>
 7    1  0.2492468E-009  0.4778727E+02  0.7816164E-02  0.1312668E+00
        -11   -1    0    0    0    0  0.00000000000E+00  0.00000000000E+00  0.45593999997E+02  0.45594000000E+02  0.51100000000E-03 0.  1.
         11   -1    0    0    0    0 -0.00000000000E+00 -0.00000000000E+00 -0.45593999997E+02  0.45594000000E+02  0.51100000000E-03 0. -1.
    9900012    2    1    2    0    0  0.12127208471E+02  0.17434699051E+02  0.37849512944E+02  0.47787267905E+02  0.19999985684E+02 0.  0.
         12    1    1    2    0    0 -0.12127208471E+02 -0.17434699051E+02 -0.37849512944E+02  0.43400732095E+02  0.00000000000E+00 0. -1.
         11    1    3    3    0    0  0.82992291013E+01  0.76758211916E+01  0.40051167195E+01  0.11993181181E+02  0.51100000000E-03 0. -1.
        -11    1    3    3    0    0  0.28657257858E+01  0.41346453735E+01  0.90762799823E+01  0.10377212305E+02  0.51100000000E-03 0.  1.
         12    1    3    3    0    0  0.96225358424E+00  0.56242324862E+01  0.24768116242E+02  0.25416874419E+02  0.00000000000E+00 0. -1.
</event>
<event>
 7    1  0.2492468E-009  0.4778727E+02  0.7816164E-02  0.1312668E+00
        -11   -1    0    0    0    0  0.00000000000E+00  0.00000000000E+00  0.45593999997E+02  0.45594000000E+02  0.51100000000E-03 0.  1.
         11   -1    0    0    0    0 -0.00000000000E+00 -0.00000000000E+00 -0.45593999997E+02  0.45594000000E+02  0.51100000000E-03 0. -1.
    9900012    2    1    2    0    0  0.16288415809E+02  0.31042285606E+02  0.25586857715E+02  0.47787271055E+02  0.20000000050E+02 0.  0.
         12    1    1    2    0    0 -0.16288415809E+02 -0.31042285606E+02 -0.25586857715E+02  0.43400728945E+02  0.00000000000E+00 0. -1.
         11    1    3    3    0    0  0.31113581348E+01  0.38970030976E+01  0.10264374159E+02  0.11411597597E+02  0.51100000000E-03 0.  1.
        -11    1    3    3    0    0  0.60870811815E+01  0.94573595784E+01  0.12982258670E+02  0.17176531895E+02  0.51100000000E-03 0. -1.
         12    1    3    3    0    0  0.70899764928E+01  0.17687922930E+02  0.23402248857E+01  0.19199141563E+02  0.00000000000E+00 0. -1.
</event>
<event>
 7    1  0.2492468E-009  0.4778727E+02  0.7816164E-02  0.1312668E+00
        -11   -1    0    0    0    0  0.00000000000E+00  0.00000000000E+00  0.45593999997E+02  0.45594000000E+02  0.51100000000E-03 0.  1.
         11   -1    0    0    0    0 -0.00000000000E+00 -0.00000000000E+00 -0.45593999997E+02  0.45594000000E+02  0.51100000000E-03 0. -1.
    9900012    2    1    2    0    0 -0.26887331427E+02  0.19818373363E+02  0.27711488442E+02  0.47787272982E+02  0.20000008833E+02 0.  0.
         12    1    1    2    0    0  0.26887331427E+02 -0.19818373363E+02 -0.27711488442E+02  0.43400727018E+02  0.00000000000E+00 0. -1.
         11    1    3    3    0    0 -0.30087244934E+01  0.69487669618E+01  0.14496160827E+02  0.16354707713E+02  0.51100000000E-03 0. -1.
        -11    1    3    3    0    0 -0.10720180277E+02  0.62786443776E+01  0.10914583832E+02  0.16536982218E+02  0.51100000000E-03 0.  1.
        -12    1    3    3    0    0 -0.13158426656E+02  0.65909620236E+01  0.23007437826E+01  0.14895583051E+02  0.00000000000E+00 0.  1.
</event>
<event>
 7    1  0.2492468E-009  0.4778726E+02  0.7816164E-02  0.1312668E+00
        -11   -1    0    0    0    0  0.00000000000E+00  0.00000000000E+00  0.45593999997E+02  0.45594000000E+02  0.51100000000E-03 0. -1.
         11   -1    0    0    0    0 -0.00000000000E+00 -0.00000000000E+00 -0.45593999997E+02  0.45594000000E+02  0.51100000000E-03 0.  1.
    9900012    2    1    2    0    0  0.14443190141E+02 -0.24206997700E+02 -0.33000600647E+02  0.47787261272E+02  0.19999955444E+02 0.  0.
         12    1    1    2    0    0 -0.14443190141E+02  0.24206997700E+02  0.33000600647E+02  0.43400738728E+02  0.00000000000E+00 0. -1.
         11    1    3    3    0    0  0.47023254407E+01 -0.37386771410E+00 -0.52324468400E+01  0.70448663445E+01  0.51100000000E-03 0. -1.
        -11    1    3    3    0    0  0.51579830814E+01  0.32168982260E+00 -0.38776269548E+01  0.64609801789E+01  0.51100000000E-03 0.  1.
         12    1    3    3    0    0  0.45828816184E+01 -0.24154819808E+02 -0.23890526852E+02  0.34281414749E+02  0.00000000000E+00 0. -1.
</event>
<event>
 7    1  0.2492468E-009  0.4778727E+02  0.7816164E-02  0.1312668E+00
        -11   -1    0    0    0    0  0.00000000000E+00  0.00000000000E+00  0.45593999997E+02  0.45594000000E+02  0.51100000000E-03 0.  1.
         11   -1    0    0    0    0 -0.00000000000E+00 -0.00000000000E+00 -0.45593999997E+02  0.45594000000E+02  0.51100000000E-03 0. -1.
    9900012    2    1    2    0    0  0.16357344790E+02  0.23896034560E+02  0.32327081242E+02  0.47787269846E+02  0.19999994536E+02 0.  0.
         12    1    1    2    0    0 -0.16357344790E+02 -0.23896034560E+02 -0.32327081242E+02  0.43400730154E+02  0.00000000000E+00 0. -1.
         11    1    3    3    0    0  0.70241898409E+01  0.12293888138E+02  0.73248102887E+01  0.15941511048E+02  0.51100000000E-03 0. -1.
        -11    1    3    3    0    0  0.30968623133E+00  0.10550505504E+02  0.11961166539E+02  0.15952384686E+02  0.51100000000E-03 0.  1.
        -12    1    3    3    0    0  0.90234687174E+01  0.10516409190E+01  0.13041104415E+02  0.15893374112E+02  0.00000000000E+00 0.  1.
</event>
<event>
 7    1  0.2492468E-009  0.4778727E+02  0.7816164E-02  0.1312668E+00
        -11   -1    0    0    0    0  0.00000000000E+00  0.00000000000E+00  0.45593999997E+02  0.45594000000E+02  0.51100000000E-03 0.  1.
         11   -1    0    0    0    0 -0.00000000000E+00 -0.00000000000E+00 -0.45593999997E+02  0.45594000000E+02  0.51100000000E-03 0. -1.
    9900012    2    1    2    0    0  0.93326855573E+01  0.31427866236E+02  0.28439646510E+02  0.47787270865E+02  0.19999999180E+02 0.  0.
         12    1    1    2    0    0 -0.93326855573E+01 -0.31427866236E+02 -0.28439646510E+02  0.43400729135E+02  0.00000000000E+00 0. -1.
         11    1    3    3    0    0  0.14103374537E+01  0.16456969187E+02  0.13899840070E+02  0.21587645559E+02  0.51100000000E-03 0. -1.
        -11    1    3    3    0    0  0.96080110217E+01  0.16223143777E+02  0.10339636959E+02  0.21503775541E+02  0.51100000000E-03 0.  1.
        -12    1    3    3    0    0 -0.16856629181E+01 -0.12522467279E+01  0.42001694816E+01  0.46958497649E+01  0.00000000000E+00 0.  1.
</event>
<event>
 7    1  0.2492468E-009  0.4778726E+02  0.7816164E-02  0.1312668E+00
        -11   -1    0    0    0    0  0.00000000000E+00  0.00000000000E+00  0.45593999997E+02  0.45594000000E+02  0.51100000000E-03 0.  1.
         11   -1    0    0    0    0 -0.00000000000E+00 -0.00000000000E+00 -0.45593999997E+02  0.45594000000E+02  0.51100000000E-03 0. -1.
    9900012    2    1    2    0    0 -0.18172698344E+02  0.39274573718E+02  0.32992759621E+01  0.47787258903E+02  0.19999944644E+02 0.  0.
         12    1    1    2    0    0  0.18172698344E+02 -0.39274573718E+02 -0.32992759621E+01  0.43400741097E+02  0.00000000000E+00 0. -1.
         11    1    3    3    0    0  0.22915447476E+00  0.15532260068E+01 -0.32865610034E+00  0.16040691678E+01  0.51100000000E-03 0. -1.
        -11    1    3    3    0    0 -0.71757486507E+01  0.25712442569E+02  0.10064292409E+02  0.28529126406E+02  0.51100000000E-03 0.  1.
        -12    1    3    3    0    0 -0.11226104168E+02  0.12008905143E+02 -0.64363603466E+01  0.17654063329E+02  0.00000000000E+00 0.  1.
</event>
<event>
 7    1  0.2492468E-009  0.4778727E+02  0.7816164E-02  0.1312668E+00
        -11   -1    0    0    0    0  0.00000000000E+00  0.00000000000E+00  0.45593999997E+02  0.45594000000E+02  0.51100000000E-03 0.  1.
         11   -1    0    0    0    0 -0.00000000000E+00 -0.00000000000E+00 -0.45593999997E+02  0.45594000000E+02  0.51100000000E-03 0. -1.
    9900012    2    1    2    0    0 -0.21101369549E+02 -0.22884898136E+02  0.30242966523E+02  0.47787269780E+02  0.19999994233E+02 0.  0.
         12    1    1    2    0    0  0.21101369549E+02  0.22884898136E+02 -0.30242966523E+02  0.43400730220E+02  0.00000000000E+00 0. -1.
         11    1    3    3    0    0 -0.13176494296E+02 -0.32085719945E+01  0.12851129880E+02  0.18683320788E+02  0.51100000000E-03 0. -1.
        -11    1    3    3    0    0 -0.97999132401E+01 -0.13028585505E+02  0.13560304152E+02  0.21205286811E+02  0.51100000000E-03 0.  1.
        -12    1    3    3    0    0  0.18750379874E+01 -0.66477406365E+01  0.38315324899E+01  0.78986621807E+01  0.00000000000E+00 0.  1.
</event>
<event>
 7    1  0.2492468E-009  0.4778727E+02  0.7816164E-02  0.1312668E+00
        -11   -1    0    0    0    0  0.00000000000E+00  0.00000000000E+00  0.45593999997E+02  0.45594000000E+02  0.51100000000E-03 0.  1.
         11   -1    0    0    0    0 -0.00000000000E+00 -0.00000000000E+00 -0.45593999997E+02  0.45594000000E+02  0.51100000000E-03 0. -1.
    9900012    2    1    2    0    0  0.86084579355E+00  0.76022680369E+01  0.42721046423E+02  0.47787270257E+02  0.19999996409E+02 0.  0.
         12    1    1    2    0    0 -0.86084579355E+00 -0.76022680369E+01 -0.42721046423E+02  0.43400729743E+02  0.00000000000E+00 0. -1.
         11    1    3    3    0    0  0.45090829020E+01  0.15625710121E+01  0.90645857896E+01  0.10244031071E+02  0.51100000000E-03 0.  1.
        -11    1    3    3    0    0 -0.36010309105E+01  0.98251940884E+01  0.31486078351E+02  0.33179436292E+02  0.51100000000E-03 0. -1.
         12    1    3    3    0    0 -0.47206197906E-01 -0.37854970635E+01  0.21703822821E+01  0.43638028935E+01  0.00000000000E+00 0. -1.
</event>
<event>
 7    1  0.2492468E-009  0.4778727E+02  0.7816164E-02  0.1312668E+00
        -11   -1    0    0    0    0  0.00000000000E+00  0.00000000000E+00  0.45593999997E+02  0.45594000000E+02  0.51100000000E-03 0.  1.
         11   -1    0    0    0    0 -0.00000000000E+00 -0.00000000000E+00 -0.45593999997E+02  0.45594000000E+02  0.51100000000E-03 0. -1.
    9900012    2    1    2    0    0 -0.36621806911E+02 -0.22709142402E+02  0.51731369826E+01  0.47787271477E+02  0.20000001972E+02 0.  0.
         12    1    1    2    0    0  0.36621806911E+02  0.22709142402E+02 -0.51731369826E+01  0.43400728523E+02  0.00000000000E+00 0. -1.
         11    1    3    3    0    0 -0.12454693798E+02 -0.30157439314E+01  0.19105142462E+01  0.12956240736E+02  0.51100000000E-03 0. -1.
        -11    1    3    3    0    0 -0.22593965096E+02 -0.97653205335E+01  0.27310533521E+01  0.24765043843E+02  0.51100000000E-03 0.  1.
         12    1    3    3    0    0 -0.15731480170E+01 -0.99280779375E+01  0.53156938438E+00  0.10065986898E+02  0.00000000000E+00 0. -1.
</event>
<event>
 7    1  0.2492468E-009  0.4778727E+02  0.7816164E-02  0.1312668E+00
        -11   -1    0    0    0    0  0.00000000000E+00  0.00000000000E+00  0.45593999997E+02  0.45594000000E+02  0.51100000000E-03 0. -1.
         11   -1    0    0    0    0 -0.00000000000E+00 -0.00000000000E+00 -0.45593999997E+02  0.45594000000E+02  0.51100000000E-03 0.  1.
    9900012    2    1    2    0    0 -0.31123674679E+02  0.26297425749E+02 -0.14946098181E+02  0.47787267548E+02  0.19999984060E+02 0.  0.
         12    1    1    2    0    0  0.31123674679E+02 -0.26297425749E+02  0.14946098181E+02  0.43400732452E+02  0.00000000000E+00 0. -1.
         11    1    3    3    0    0 -0.11033649673E+02  0.96072863175E+01  0.11615830350E+01  0.14676193339E+02  0.51100000000E-03 0. -1.
        -11    1    3    3    0    0 -0.20099040539E+02  0.15156991940E+02 -0.10462053060E+02  0.27260968247E+02  0.51100000000E-03 0.  1.
        -12    1    3    3    0    0  0.90155333512E-02  0.15331474907E+01 -0.56456281555E+01  0.58501059630E+01  0.00000000000E+00 0.  1.
</event>
<event>
 7    1  0.2492468E-009  0.4778727E+02  0.7816164E-02  0.1312668E+00
        -11   -1    0    0    0    0  0.00000000000E+00  0.00000000000E+00  0.45593999997E+02  0.45594000000E+02  0.51100000000E-03 0.  1.
         11   -1    0    0    0    0 -0.00000000000E+00 -0.00000000000E+00 -0.45593999997E+02  0.45594000000E+02  0.51100000000E-03 0. -1.
    9900012    2    1    2    0    0  0.31528780332E+02 -0.51371036874E+01  0.29379752349E+02  0.47787266462E+02  0.19999979109E+02 0.  0.
         12    1    1    2    0    0 -0.31528780332E+02  0.51371036874E+01 -0.29379752349E+02  0.43400733538E+02  0.00000000000E+00 0. -1.
         11    1    3    3    0    0  0.36214324344E+01 -0.19956713139E+01 -0.12783330885E+01  0.43280033059E+01  0.51100000000E-03 0. -1.
        -11    1    3    3    0    0  0.32543609851E+01  0.39693066961E+01  0.46742624845E+01  0.69422612385E+01  0.51100000000E-03 0.  1.
         12    1    3    3    0    0  0.24652986912E+02 -0.71107390696E+01  0.25983822953E+02  0.36517001918E+02  0.00000000000E+00 0. -1.
</event>
<event>
 7    1  0.2492468E-009  0.4778727E+02  0.7816164E-02  0.1312668E+00
        -11   -1    0    0    0    0  0.00000000000E+00  0.00000000000E+00  0.45593999997E+02  0.45594000000E+02  0.51100000000E-03 0.  1.
         11   -1    0    0    0    0 -0.00000000000E+00 -0.00000000000E+00 -0.45593999997E+02  0.45594000000E+02  0.51100000000E-03 0. -1.
    9900012    2    1    2    0    0 -0.15893584041E+02 -0.31941380918E+02  0.24713667657E+02  0.47787271923E+02  0.20000004004E+02 0.  0.
         12    1    1    2    0    0  0.15893584041E+02  0.31941380918E+02 -0.24713667657E+02  0.43400728077E+02  0.00000000000E+00 0. -1.
         11    1    3    3    0    0  0.95219825296E+00 -0.90149360199E+01  0.31139440052E+01  0.95850091541E+01  0.51100000000E-03 0. -1.
        -11    1    3    3    0    0  0.14821900993E+01 -0.16515445613E+01  0.52707683260E+01  0.57188710368E+01  0.51100000000E-03 0.  1.
         12    1    3    3    0    0 -0.18327972393E+02 -0.21274900337E+02  0.16328955325E+02  0.32483391732E+02  0.00000000000E+00 0. -1.
</event>
<event>
 7    1  0.2492468E-009  0.4778727E+02  0.7816164E-02  0.1312668E+00
        -11   -1    0    0    0    0  0.00000000000E+00  0.00000000000E+00  0.45593999997E+02  0.45594000000E+02  0.51100000000E-03 0.  1.
         11   -1    0    0    0    0 -0.00000000000E+00 -0.00000000000E+00 -0.45593999997E+02  0.45594000000E+02  0.51100000000E-03 0. -1.
    9900012    2    1    2    0    0 -0.20124850569E+02  0.50557142503E+01  0.38118943239E+02  0.47787266243E+02  0.19999978107E+02 0.  0.
         12    1    1    2    0    0  0.20124850569E+02 -0.50557142503E+01 -0.38118943239E+02  0.43400733757E+02  0.00000000000E+00 0. -1.
         11    1    3    3    0    0 -0.14382555892E+01  0.20279223221E+01  0.12532911185E+02  0.12777124524E+02  0.51100000000E-03 0. -1.
        -11    1    3    3    0    0 -0.17232676584E+02  0.62315435511E+01  0.25611284019E+02  0.31491826664E+02  0.51100000000E-03 0.  1.
        -12    1    3    3    0    0 -0.14539183960E+01 -0.32037516228E+01 -0.25251964385E-01  0.35183150548E+01  0.00000000000E+00 0.  1.
</event>
<event>
 7    1  0.2492468E-009  0.4778727E+02  0.7816164E-02  0.1312668E+00
        -11   -1    0    0    0    0  0.00000000000E+00  0.00000000000E+00  0.45593999997E+02  0.45594000000E+02  0.51100000000E-03 0.  1.
         11   -1    0    0    0    0 -0.00000000000E+00 -0.00000000000E+00 -0.45593999997E+02  0.45594000000E+02  0.51100000000E-03 0. -1.
    9900012    2    1    2    0    0 -0.11470603840E+02 -0.13138010752E+02  0.39742182522E+02  0.47787272464E+02  0.20000006473E+02 0.  0.
         12    1    1    2    0    0  0.11470603840E+02  0.13138010752E+02 -0.39742182522E+02  0.43400727536E+02  0.00000000000E+00 0. -1.
         11    1    3    3    0    0 -0.18386470458E+01 -0.15905873569E+02  0.23307447220E+02  0.28277456271E+02  0.51100000000E-03 0. -1.
        -11    1    3    3    0    0 -0.30902184137E+01 -0.51408646849E+00  0.39950910728E+01  0.50768580522E+01  0.51100000000E-03 0.  1.
         12    1    3    3    0    0 -0.65417383811E+01  0.32819492854E+01  0.12439644229E+02  0.14432958141E+02  0.00000000000E+00 0. -1.
</event>
<event>
 7    1  0.2655413E-009  0.4778727E+02  0.7816164E-02  0.1312668E+00
        -11   -1    0    0    0    0  0.00000000000E+00  0.00000000000E+00  0.45593999997E+02  0.45594000000E+02  0.51100000000E-03 0.  1.
         11   -1    0    0    0    0 -0.00000000000E+00 -0.00000000000E+00 -0.45593999997E+02  0.45594000000E+02  0.51100000000E-03 0. -1.
    9900012    2    1    2    0    0 -0.35784240341E+02  0.21738872163E+02  0.11425083150E+02  0.47787274837E+02  0.20000017290E+02 0.  0.
         12    1    1    2    0    0  0.35784240341E+02 -0.21738872163E+02 -0.11425083150E+02  0.43400725163E+02  0.00000000000E+00 0. -1.
         11    1    3    3    0    0 -0.28119221174E+01  0.42718853150E+01  0.57971697893E+01  0.77306589606E+01  0.51100000000E-03 0. -1.
        -11    1    3    3    0    0 -0.18549122261E+02  0.12183002818E+02  0.96170832156E+01  0.24186438021E+02  0.51100000000E-03 0.  1.
         12    1    3    3    0    0 -0.14423195963E+02  0.52839840293E+01 -0.39891698546E+01  0.15870177855E+02  0.00000000000E+00 0. -1.
</event>
<event>
 7    1  0.2492468E-009  0.4778727E+02  0.7816164E-02  0.1312668E+00
        -11   -1    0    0    0    0  0.00000000000E+00  0.00000000000E+00  0.45593999997E+02  0.45594000000E+02  0.51100000000E-03 0.  1.
         11   -1    0    0    0    0 -0.00000000000E+00 -0.00000000000E+00 -0.45593999997E+02  0.45594000000E+02  0.51100000000E-03 0. -1.
    9900012    2    1    2    0    0  0.11438918998E+01  0.10124822471E+02  0.42187704524E+02  0.47787274986E+02  0.20000017972E+02 0.  0.
         12    1    1    2    0    0 -0.11438918998E+01 -0.10124822471E+02 -0.42187704524E+02  0.43400725014E+02  0.00000000000E+00 0. -1.
         11    1    3    3    0    0 -0.11551078297E+01  0.76230035938E-01 -0.89367226297E+00  0.14624416198E+01  0.51100000000E-03 0. -1.
        -11    1    3    3    0    0  0.66299920359E+01  0.10723198762E+01  0.12950760498E+02  0.14588655252E+02  0.51100000000E-03 0.  1.
        -12    1    3    3    0    0 -0.43309923064E+01  0.89762725590E+01  0.30130616288E+02  0.31736178115E+02  0.00000000000E+00 0.  1.
</event>
<event>
 7    1  0.2492468E-009  0.4778727E+02  0.7816164E-02  0.1312668E+00
        -11   -1    0    0    0    0  0.00000000000E+00  0.00000000000E+00  0.45593999997E+02  0.45594000000E+02  0.51100000000E-03 0.  1.
         11   -1    0    0    0    0 -0.00000000000E+00 -0.00000000000E+00 -0.45593999997E+02  0.45594000000E+02  0.51100000000E-03 0. -1.
    9900012    2    1    2    0    0 -0.18920395721E+02  0.10927353950E+02  0.37499798068E+02  0.47787270815E+02  0.19999998955E+02 0.  0.
         12    1    1    2    0    0  0.18920395721E+02 -0.10927353950E+02 -0.37499798068E+02  0.43400729185E+02  0.00000000000E+00 0. -1.
         11    1    3    3    0    0 -0.53913966969E+01  0.47215786471E+01  0.97802052245E+00  0.72330482971E+01  0.51100000000E-03 0. -1.
        -11    1    3    3    0    0 -0.56834280558E+01 -0.60868853235E+00  0.58892443727E+01  0.82070125952E+01  0.51100000000E-03 0.  1.
        -12    1    3    3    0    0 -0.78455709687E+01  0.68144638356E+01  0.30632533173E+02  0.32347209923E+02  0.00000000000E+00 0.  1.
</event>
<event>
 7    1  0.2492468E-009  0.4778727E+02  0.7816164E-02  0.1312668E+00
        -11   -1    0    0    0    0  0.00000000000E+00  0.00000000000E+00  0.45593999997E+02  0.45594000000E+02  0.51100000000E-03 0.  1.
         11   -1    0    0    0    0 -0.00000000000E+00 -0.00000000000E+00 -0.45593999997E+02  0.45594000000E+02  0.51100000000E-03 0. -1.
    9900012    2    1    2    0    0 -0.11658758614E+01 -0.20736167086E+02  0.38108737408E+02  0.47787265459E+02  0.19999974531E+02 0.  0.
         12    1    1    2    0    0  0.11658758614E+01  0.20736167086E+02 -0.38108737408E+02  0.43400734541E+02  0.00000000000E+00 0. -1.
         11    1    3    3    0    0  0.22821044897E+01 -0.48924724516E+01  0.11906562177E+02  0.13073274675E+02  0.51100000000E-03 0. -1.
        -11    1    3    3    0    0  0.55669819004E+01 -0.11398782676E+02  0.15556007625E+02  0.20072690589E+02  0.51100000000E-03 0.  1.
         12    1    3    3    0    0 -0.90149622516E+01 -0.44449119586E+01  0.10646167605E+02  0.14641300195E+02  0.00000000000E+00 0. -1.
</event>
<event>
 7    1  0.2492468E-009  0.4778727E+02  0.7816164E-02  0.1312668E+00
        -11   -1    0    0    0    0  0.00000000000E+00  0.00000000000E+00  0.45593999997E+02  0.45594000000E+02  0.51100000000E-03 0. -1.
         11   -1    0    0    0    0 -0.00000000000E+00 -0.00000000000E+00 -0.45593999997E+02  0.45594000000E+02  0.51100000000E-03 0.  1.
    9900012    2    1    2    0    0 -0.11132587784E+01  0.46807841622E+01 -0.43133213633E+02  0.47787271852E+02  0.20000003681E+02 0.  0.
         12    1    1    2    0    0  0.11132587784E+01 -0.46807841622E+01  0.43133213633E+02  0.43400728148E+02  0.00000000000E+00 0. -1.
         11    1    3    3    0    0  0.13672684025E+01  0.55403875076E+01 -0.41925400495E+01  0.70811516681E+01  0.51100000000E-03 0. -1.
        -11    1    3    3    0    0  0.28388841129E+01  0.28026842524E+01 -0.64821602846E+01  0.76113536406E+01  0.51100000000E-03 0.  1.
         12    1    3    3    0    0 -0.53194112938E+01 -0.36622875978E+01 -0.32458513299E+02  0.33094766543E+02  0.00000000000E+00 0. -1.
</event>
<event>
 7    1  0.2492468E-009  0.4778727E+02  0.7816164E-02  0.1312668E+00
        -11   -1    0    0    0    0  0.00000000000E+00  0.00000000000E+00  0.45593999997E+02  0.45594000000E+02  0.51100000000E-03 0.  1.
         11   -1    0    0    0    0 -0.00000000000E+00 -0.00000000000E+00 -0.45593999997E+02  0.45594000000E+02  0.51100000000E-03 0. -1.
    9900012    2    1    2    0    0 -0.36920966811E+02  0.21402762127E+02 -0.78985552600E+01  0.47787271986E+02  0.20000004294E+02 0.  0.
         12    1    1    2    0    0  0.36920966811E+02 -0.21402762127E+02  0.78985552600E+01  0.43400728014E+02  0.00000000000E+00 0. -1.
         11    1    3    3    0    0 -0.66720182791E+01 -0.15860017039E+01  0.63607627362E+00  0.68873668850E+01  0.51100000000E-03 0. -1.
        -11    1    3    3    0    0 -0.15532225754E+02  0.41453399973E+01 -0.28955394901E+01  0.16334565491E+02  0.51100000000E-03 0.  1.
        -12    1    3    3    0    0 -0.14716722778E+02  0.18843423834E+02 -0.56390920435E+01  0.24565339611E+02  0.00000000000E+00 0.  1.
</event>
<event>
 7    1  0.2492468E-009  0.4778727E+02  0.7816164E-02  0.1312668E+00
        -11   -1    0    0    0    0  0.00000000000E+00  0.00000000000E+00  0.45593999997E+02  0.45594000000E+02  0.51100000000E-03 0.  1.
         11   -1    0    0    0    0 -0.00000000000E+00 -0.00000000000E+00 -0.45593999997E+02  0.45594000000E+02  0.51100000000E-03 0. -1.
    9900012    2    1    2    0    0  0.87399179608E+01 -0.30606875763E+02  0.29503492539E+02  0.47787273255E+02  0.20000010080E+02 0.  0.
         12    1    1    2    0    0 -0.87399179608E+01  0.30606875763E+02 -0.29503492539E+02  0.43400726745E+02  0.00000000000E+00 0. -1.
         11    1    3    3    0    0  0.93919576182E+01 -0.74434803723E+01  0.71450176426E+01  0.13952259506E+02  0.51100000000E-03 0. -1.
        -11    1    3    3    0    0  0.35393087650E+01 -0.28576500529E+01  0.53104067471E+01  0.69923737342E+01  0.51100000000E-03 0.  1.
        -12    1    3    3    0    0 -0.41913484223E+01 -0.20305745338E+02  0.17048068150E+02  0.26842640015E+02  0.00000000000E+00 0.  1.
</event>
<event>
 7    1  0.2492468E-009  0.4778726E+02  0.7816164E-02  0.1312668E+00
        -11   -1    0    0    0    0  0.00000000000E+00  0.00000000000E+00  0.45593999997E+02  0.45594000000E+02  0.51100000000E-03 0. -1.
         11   -1    0    0    0    0 -0.00000000000E+00 -0.00000000000E+00 -0.45593999997E+02  0.45594000000E+02  0.51100000000E-03 0.  1.
    9900012    2    1    2    0    0  0.27342268790E-01 -0.39810683177E+02 -0.17283887327E+02  0.47787262636E+02  0.19999961661E+02 0.  0.
         12    1    1    2    0    0 -0.27342268790E-01  0.39810683177E+02  0.17283887327E+02  0.43400737364E+02  0.00000000000E+00 0. -1.
         11    1    3    3    0    0  0.17307489847E+01 -0.34288006750E+01 -0.74551491802E+01  0.83863827529E+01  0.51100000000E-03 0. -1.
        -11    1    3    3    0    0  0.27752976610E+01 -0.15390953099E+02 -0.87267229726E+01  0.17909198991E+02  0.51100000000E-03 0.  1.
         12    1    3    3    0    0 -0.44787043769E+01 -0.20990929404E+02 -0.11020151742E+01  0.21491680892E+02  0.00000000000E+00 0. -1.
</event>
<event>
 7    1  0.2492468E-009  0.4778726E+02  0.7816164E-02  0.1312668E+00
        -11   -1    0    0    0    0  0.00000000000E+00  0.00000000000E+00  0.45593999997E+02  0.45594000000E+02  0.51100000000E-03 0. -1.
         11   -1    0    0    0    0 -0.00000000000E+00 -0.00000000000E+00 -0.45593999997E+02  0.45594000000E+02  0.51100000000E-03 0.  1.
    9900012    2    1    2    0    0  0.12119489783E+01 -0.36082371007E+02 -0.24087710845E+02  0.47787261163E+02  0.19999954948E+02 0.  0.
         12    1    1    2    0    0 -0.12119489783E+01  0.36082371007E+02  0.24087710845E+02  0.43400738837E+02  0.00000000000E+00 0. -1.
         11    1    3    3    0    0  0.49590477719E+00  0.70668409140E+00 -0.28613505753E+01  0.29887541433E+01  0.51100000000E-03 0. -1.
        -11    1    3    3    0    0  0.56127572437E+01 -0.58126792123E+01 -0.47444575758E+01  0.93701740352E+01  0.51100000000E-03 0.  1.
        -12    1    3    3    0    0 -0.48967130425E+01 -0.30976375886E+02 -0.16481902694E+02  0.35428332985E+02  0.00000000000E+00 0.  1.
</event>
<event>
 7    1  0.2492468E-009  0.4778730E+02  0.7816164E-02  0.1312668E+00
        -11   -1    0    0    0    0  0.00000000000E+00  0.00000000000E+00  0.45593999997E+02  0.45594000000E+02  0.51100000000E-03 0. -1.
         11   -1    0    0    0    0 -0.00000000000E+00 -0.00000000000E+00 -0.45593999997E+02  0.45594000000E+02  0.51100000000E-03 0.  1.
    9900012    2    1    2    0    0 -0.16527158566E+01  0.43352241468E+02 -0.12134848574E+01  0.47787298906E+02  0.20000127030E+02 0.  0.
         12    1    1    2    0    0  0.16527158566E+01 -0.43352241468E+02  0.12134848574E+01  0.43400701094E+02  0.00000000000E+00 0. -1.
         11    1    3    3    0    0  0.89965695264E+00  0.25732920643E+02  0.73723114296E+00  0.25759194426E+02  0.51100000000E-03 0. -1.
        -11    1    3    3    0    0  0.49259772952E+01  0.10162221862E+02 -0.26184918585E-01  0.11293214396E+02  0.51100000000E-03 0.  1.
        -12    1    3    3    0    0 -0.74783501044E+01  0.74570989635E+01 -0.19245310818E+01  0.10734890084E+02  0.00000000000E+00 0.  1.
</event>
<event>
 7    1  0.2492468E-009  0.4778727E+02  0.7816164E-02  0.1312668E+00
        -11   -1    0    0    0    0  0.00000000000E+00  0.00000000000E+00  0.45593999997E+02  0.45594000000E+02  0.51100000000E-03 0. -1.
         11   -1    0    0    0    0 -0.00000000000E+00 -0.00000000000E+00 -0.45593999997E+02  0.45594000000E+02  0.51100000000E-03 0.  1.
    9900012    2    1    2    0    0 -0.12689538578E+02 -0.39839536930E+02 -0.11636576548E+02  0.47787274132E+02  0.20000014075E+02 0.  0.
         12    1    1    2    0    0  0.12689538578E+02  0.39839536930E+02  0.11636576548E+02  0.43400725868E+02  0.00000000000E+00 0. -1.
         11    1    3    3    0    0 -0.17751785896E+01 -0.17162107280E+01 -0.23575479118E+01  0.34138937748E+01  0.51100000000E-03 0. -1.
        -11    1    3    3    0    0 -0.12330686853E+02 -0.37430300736E+02 -0.12028500214E+02  0.41203859882E+02  0.51100000000E-03 0.  1.
         12    1    3    3    0    0  0.14163268648E+01 -0.69302546610E+00  0.27494715779E+01  0.31695204752E+01  0.00000000000E+00 0. -1.
</event>
<event>
 7    1  0.2492468E-009  0.4778727E+02  0.7816164E-02  0.1312668E+00
        -11   -1    0    0    0    0  0.00000000000E+00  0.00000000000E+00  0.45593999997E+02  0.45594000000E+02  0.51100000000E-03 0.  1.
         11   -1    0    0    0    0 -0.00000000000E+00 -0.00000000000E+00 -0.45593999997E+02  0.45594000000E+02  0.51100000000E-03 0. -1.
    9900012    2    1    2    0    0  0.14093967929E+02  0.10485552549E+02  0.39686731430E+02  0.47787269639E+02  0.19999993592E+02 0.  0.
         12    1    1    2    0    0 -0.14093967929E+02 -0.10485552549E+02 -0.39686731430E+02  0.43400730361E+02  0.00000000000E+00 0. -1.
         11    1    3    3    0    0  0.82152724852E+01 -0.31426735546E+01  0.24522200877E+02  0.26051975649E+02  0.51100000000E-03 0. -1.
        -11    1    3    3    0    0  0.35622667732E+01  0.32170777026E+01  0.59149915014E+01  0.76175099757E+01  0.51100000000E-03 0.  1.
         12    1    3    3    0    0  0.23164286704E+01  0.10411148401E+02  0.92495390517E+01  0.14117784015E+02  0.00000000000E+00 0. -1.
</event>
<event>
 7    1  0.2492468E-009  0.4778727E+02  0.7816164E-02  0.1312668E+00
        -11   -1    0    0    0    0  0.00000000000E+00  0.00000000000E+00  0.45593999997E+02  0.45594000000E+02  0.51100000000E-03 0. -1.
         11   -1    0    0    0    0 -0.00000000000E+00 -0.00000000000E+00 -0.45593999997E+02  0.45594000000E+02  0.51100000000E-03 0.  1.
    9900012    2    1    2    0    0 -0.34594650358E+02  0.69004619314E+01 -0.25282743850E+02  0.47787270227E+02  0.19999996273E+02 0.  0.
         12    1    1    2    0    0  0.34594650358E+02 -0.69004619314E+01  0.25282743850E+02  0.43400729773E+02  0.00000000000E+00 0. -1.
         11    1    3    3    0    0 -0.12638749742E+02 -0.65271391926E+01 -0.69460028109E+01  0.15829987252E+02  0.51100000000E-03 0. -1.
        -11    1    3    3    0    0 -0.31962524141E+01  0.24709530965E+00 -0.28531658998E+01  0.42915779731E+01  0.51100000000E-03 0.  1.
        -12    1    3    3    0    0 -0.18759648202E+02  0.13180505814E+02 -0.15483575139E+02  0.27665705002E+02  0.00000000000E+00 0.  1.
</event>
<event>
 7    1  0.2492468E-009  0.4778727E+02  0.7816164E-02  0.1312668E+00
        -11   -1    0    0    0    0  0.00000000000E+00  0.00000000000E+00  0.45593999997E+02  0.45594000000E+02  0.51100000000E-03 0.  1.
         11   -1    0    0    0    0 -0.00000000000E+00 -0.00000000000E+00 -0.45593999997E+02  0.45594000000E+02  0.51100000000E-03 0. -1.
    9900012    2    1    2    0    0  0.17334935176E+02  0.28820267994E+02  0.27432017924E+02  0.47787269221E+02  0.19999991685E+02 0.  0.
         12    1    1    2    0    0 -0.17334935176E+02 -0.28820267994E+02 -0.27432017924E+02  0.43400730779E+02  0.00000000000E+00 0. -1.
         11    1    3    3    0    0  0.35267829581E+01  0.10553847776E+02  0.86006888286E+01  0.14063916578E+02  0.51100000000E-03 0. -1.
        -11    1    3    3    0    0  0.90576017152E+01  0.19195929060E+02  0.19516691695E+02  0.28834442881E+02  0.51100000000E-03 0.  1.
         12    1    3    3    0    0  0.47505505025E+01 -0.92950884219E+00 -0.68536259977E+00  0.48889097617E+01  0.00000000000E+00 0. -1.
</event>
<event>
 7    1  0.2492468E-009  0.4778727E+02  0.7816164E-02  0.1312668E+00
        -11   -1    0    0    0    0  0.00000000000E+00  0.00000000000E+00  0.45593999997E+02  0.45594000000E+02  0.51100000000E-03 0. -1.
         11   -1    0    0    0    0 -0.00000000000E+00 -0.00000000000E+00 -0.45593999997E+02  0.45594000000E+02  0.51100000000E-03 0.  1.
    9900012    2    1    2    0    0 -0.11109062273E+02 -0.41453504023E+02 -0.64667534356E+01  0.47787272352E+02  0.20000005962E+02 0.  0.
         12    1    1    2    0    0  0.11109062273E+02  0.41453504023E+02  0.64667534356E+01  0.43400727648E+02  0.00000000000E+00 0. -1.
         11    1    3    3    0    0  0.14245232091E+01 -0.14813628565E+02 -0.18292762281E+01  0.14993969102E+02  0.51100000000E-03 0. -1.
        -11    1    3    3    0    0 -0.68834699582E+01 -0.18944664642E+02 -0.92653695075E+01  0.22183993090E+02  0.51100000000E-03 0.  1.
         12    1    3    3    0    0 -0.56501155236E+01 -0.76952108160E+01  0.46278923000E+01  0.10609310160E+02  0.00000000000E+00 0. -1.
</event>
<event>
 7    1  0.2492468E-009  0.4778727E+02  0.7816164E-02  0.1312668E+00
        -11   -1    0    0    0    0  0.00000000000E+00  0.00000000000E+00  0.45593999997E+02  0.45594000000E+02  0.51100000000E-03 0. -1.
         11   -1    0    0    0    0 -0.00000000000E+00 -0.00000000000E+00 -0.45593999997E+02  0.45594000000E+02  0.51100000000E-03 0.  1.
    9900012    2    1    2    0    0  0.30235119886E+02 -0.60364853776E+01 -0.30545402297E+02  0.47787271530E+02  0.20000002213E+02 0.  0.
         12    1    1    2    0    0 -0.30235119886E+02  0.60364853776E+01  0.30545402297E+02  0.43400728470E+02  0.00000000000E+00 0. -1.
         11    1    3    3    0    0  0.15234185621E+02  0.14758633551E+01 -0.19735328992E+02  0.24974823220E+02  0.51100000000E-03 0. -1.
        -11    1    3    3    0    0  0.96550902168E+01  0.10506389025E+01 -0.34001375981E+01  0.10290070221E+02  0.51100000000E-03 0.  1.
         12    1    3    3    0    0  0.53458440481E+01 -0.85629876353E+01 -0.74099357069E+01  0.12522378089E+02  0.00000000000E+00 0. -1.
</event>
<event>
 7    1  0.2492468E-009  0.4778727E+02  0.7816164E-02  0.1312668E+00
        -11   -1    0    0    0    0  0.00000000000E+00  0.00000000000E+00  0.45593999997E+02  0.45594000000E+02  0.51100000000E-03 0.  1.
         11   -1    0    0    0    0 -0.00000000000E+00 -0.00000000000E+00 -0.45593999997E+02  0.45594000000E+02  0.51100000000E-03 0. -1.
    9900012    2    1    2    0    0 -0.15194992688E+02  0.40438807697E+02 -0.41759471769E+01  0.47787268375E+02  0.19999987829E+02 0.  0.
         12    1    1    2    0    0  0.15194992688E+02 -0.40438807697E+02  0.41759471769E+01  0.43400731625E+02  0.00000000000E+00 0. -1.
         11    1    3    3    0    0 -0.23392887741E+00  0.18282031480E+02 -0.63178935632E+01  0.19344331912E+02  0.51100000000E-03 0. -1.
        -11    1    3    3    0    0 -0.22643962353E+01  0.45405150172E+01 -0.33049580981E+01  0.60552882032E+01  0.51100000000E-03 0.  1.
        -12    1    3    3    0    0 -0.12696667575E+02  0.17616261200E+02  0.54469044844E+01  0.22387648260E+02  0.00000000000E+00 0.  1.
</event>
<event>
 7    1  0.2492468E-009  0.4778727E+02  0.7816164E-02  0.1312668E+00
        -11   -1    0    0    0    0  0.00000000000E+00  0.00000000000E+00  0.45593999997E+02  0.45594000000E+02  0.51100000000E-03 0.  1.
         11   -1    0    0    0    0 -0.00000000000E+00 -0.00000000000E+00 -0.45593999997E+02  0.45594000000E+02  0.51100000000E-03 0. -1.
    9900012    2    1    2    0    0 -0.24319393168E+02 -0.58870590397E+01  0.35461706371E+02  0.47787274580E+02  0.20000016122E+02 0.  0.
         12    1    1    2    0    0  0.24319393168E+02  0.58870590397E+01 -0.35461706371E+02  0.43400725420E+02  0.00000000000E+00 0. -1.
         11    1    3    3    0    0 -0.66418405704E+01 -0.35306993859E+01  0.14511321955E+02  0.16344979335E+02  0.51100000000E-03 0. -1.
        -11    1    3    3    0    0 -0.17059559187E+02 -0.66298737182E+01  0.19821561164E+02  0.26979215564E+02  0.51100000000E-03 0.  1.
         12    1    3    3    0    0 -0.61799341086E+00  0.42735140644E+01  0.11288232520E+01  0.44630796821E+01  0.00000000000E+00 0. -1.
</event>
<event>
 7    1  0.2492468E-009  0.4778727E+02  0.7816164E-02  0.1312668E+00
        -11   -1    0    0    0    0  0.00000000000E+00  0.00000000000E+00  0.45593999997E+02  0.45594000000E+02  0.51100000000E-03 0.  1.
         11   -1    0    0    0    0 -0.00000000000E+00 -0.00000000000E+00 -0.45593999997E+02  0.45594000000E+02  0.51100000000E-03 0. -1.
    9900012    2    1    2    0    0 -0.30128049250E+02  0.24927674233E+02 -0.18829106477E+02  0.47787267921E+02  0.19999985760E+02 0.  0.
         12    1    1    2    0    0  0.30128049250E+02 -0.24927674233E+02  0.18829106477E+02  0.43400732079E+02  0.00000000000E+00 0. -1.
         11    1    3    3    0    0  0.94043762746E+00  0.18888032282E+01 -0.49258211284E+01  0.53587045651E+01  0.51100000000E-03 0. -1.
        -11    1    3    3    0    0 -0.56161334026E+00 -0.10568298712E+01 -0.22805989455E+00  0.12183228215E+01  0.51100000000E-03 0.  1.
        -12    1    3    3    0    0 -0.30506873537E+02  0.24095700876E+02 -0.13675225454E+02  0.41210240535E+02  0.00000000000E+00 0.  1.
</event>
<event>
 7    1  0.2492468E-009  0.4778728E+02  0.7816164E-02  0.1312668E+00
        -11   -1    0    0    0    0  0.00000000000E+00  0.00000000000E+00  0.45593999997E+02  0.45594000000E+02  0.51100000000E-03 0. -1.
         11   -1    0    0    0    0 -0.00000000000E+00 -0.00000000000E+00 -0.45593999997E+02  0.45594000000E+02  0.51100000000E-03 0.  1.
    9900012    2    1    2    0    0 -0.17677907068E+01 -0.38068662633E+02  0.20767150312E+02  0.47787277762E+02  0.20000030629E+02 0.  0.
         12    1    1    2    0    0  0.17677907068E+01  0.38068662633E+02 -0.20767150312E+02  0.43400722238E+02  0.00000000000E+00 0. -1.
         11    1    3    3    0    0  0.22440774981E+01 -0.12729541213E+02  0.99437547389E+01  0.16308137904E+02  0.51100000000E-03 0. -1.
        -11    1    3    3    0    0 -0.48151270984E+01 -0.73858819281E+01  0.10220299565E+02  0.13497822946E+02  0.51100000000E-03 0.  1.
        -12    1    3    3    0    0  0.80325889359E+00 -0.17953239492E+02  0.60309600868E+00  0.17981316912E+02  0.00000000000E+00 0.  1.
</event>
<event>
 7    1  0.2492468E-009  0.4778727E+02  0.7816164E-02  0.1312668E+00
        -11   -1    0    0    0    0  0.00000000000E+00  0.00000000000E+00  0.45593999997E+02  0.45594000000E+02  0.51100000000E-03 0.  1.
         11   -1    0    0    0    0 -0.00000000000E+00 -0.00000000000E+00 -0.45593999997E+02  0.45594000000E+02  0.51100000000E-03 0. -1.
    9900012    2    1    2    0    0  0.17726869444E+02 -0.18191374596E+02  0.35191695703E+02  0.47787268941E+02  0.19999990409E+02 0.  0.
         12    1    1    2    0    0 -0.17726869444E+02  0.18191374596E+02 -0.35191695703E+02  0.43400731059E+02  0.00000000000E+00 0. -1.
         11    1    3    3    0    0  0.36985690415E+01 -0.11075732083E+02  0.64850136484E+01  0.13356895463E+02  0.51100000000E-03 0. -1.
        -11    1    3    3    0    0  0.11923258074E+00 -0.46123680523E+01  0.97383606021E+01  0.10776076417E+02  0.51100000000E-03 0.  1.
        -12    1    3    3    0    0  0.13909067822E+02 -0.25032744602E+01  0.18968321453E+02  0.23654297061E+02  0.00000000000E+00 0.  1.
</event>
<event>
 7    1  0.2492468E-009  0.4778727E+02  0.7816164E-02  0.1312668E+00
        -11   -1    0    0    0    0  0.00000000000E+00  0.00000000000E+00  0.45593999997E+02  0.45594000000E+02  0.51100000000E-03 0. -1.
         11   -1    0    0    0    0 -0.00000000000E+00 -0.00000000000E+00 -0.45593999997E+02  0.45594000000E+02  0.51100000000E-03 0.  1.
    9900012    2    1    2    0    0  0.31897919490E+02  0.35642607571E+00 -0.29428197273E+02  0.47787273024E+02  0.20000009026E+02 0.  0.
         12    1    1    2    0    0 -0.31897919490E+02 -0.35642607571E+00  0.29428197273E+02  0.43400726976E+02  0.00000000000E+00 0. -1.
         11    1    3    3    0    0  0.10145495228E+02  0.36886272030E+01 -0.62866924810E+01  0.12492379544E+02  0.51100000000E-03 0. -1.
        -11    1    3    3    0    0  0.79586682367E+01  0.19846927323E+01 -0.45251349563E+00  0.82148751706E+01  0.51100000000E-03 0.  1.
         12    1    3    3    0    0  0.13793756025E+02 -0.53168938596E+01 -0.22688991296E+02  0.27080018309E+02  0.00000000000E+00 0. -1.
</event>
<event>
 7    1  0.2492468E-009  0.4778727E+02  0.7816164E-02  0.1312668E+00
        -11   -1    0    0    0    0  0.00000000000E+00  0.00000000000E+00  0.45593999997E+02  0.45594000000E+02  0.51100000000E-03 0. -1.
         11   -1    0    0    0    0 -0.00000000000E+00 -0.00000000000E+00 -0.45593999997E+02  0.45594000000E+02  0.51100000000E-03 0.  1.
    9900012    2    1    2    0    0  0.34760406342E+02  0.61828233324E+01 -0.25241042428E+02  0.47787269865E+02  0.19999994623E+02 0.  0.
         12    1    1    2    0    0 -0.34760406342E+02 -0.61828233324E+01  0.25241042428E+02  0.43400730135E+02  0.00000000000E+00 0. -1.
         11    1    3    3    0    0 -0.64846398036E+00 -0.25529278906E+01 -0.26215244974E+01  0.37162262176E+01  0.51100000000E-03 0. -1.
        -11    1    3    3    0    0  0.75046282788E+01 -0.19907313366E+01 -0.63854286070E+01  0.10052669079E+02  0.51100000000E-03 0.  1.
        -12    1    3    3    0    0  0.27904242043E+02  0.10726482560E+02 -0.16234089323E+02  0.34018374568E+02  0.00000000000E+00 0.  1.
</event>
<event>
 7    1  0.2492468E-009  0.4778727E+02  0.7816164E-02  0.1312668E+00
        -11   -1    0    0    0    0  0.00000000000E+00  0.00000000000E+00  0.45593999997E+02  0.45594000000E+02  0.51100000000E-03 0.  1.
         11   -1    0    0    0    0 -0.00000000000E+00 -0.00000000000E+00 -0.45593999997E+02  0.45594000000E+02  0.51100000000E-03 0. -1.
    9900012    2    1    2    0    0  0.44220938029E+01  0.36063816760E+02  0.23737512767E+02  0.47787270683E+02  0.19999998352E+02 0.  0.
         12    1    1    2    0    0 -0.44220938029E+01 -0.36063816760E+02 -0.23737512767E+02  0.43400729317E+02  0.00000000000E+00 0. -1.
         11    1    3    3    0    0  0.28920250566E+01  0.13870638640E+02  0.10617193306E+02  0.17705457327E+02  0.51100000000E-03 0. -1.
        -11    1    3    3    0    0 -0.57099906549E+01  0.11495263700E+02  0.11175365309E+02  0.17018633049E+02  0.51100000000E-03 0.  1.
         12    1    3    3    0    0  0.72400594012E+01  0.10697914420E+02  0.19449541523E+01  0.13063180307E+02  0.00000000000E+00 0. -1.
</event>
<event>
 7    1  0.2492468E-009  0.4778727E+02  0.7816164E-02  0.1312668E+00
        -11   -1    0    0    0    0  0.00000000000E+00  0.00000000000E+00  0.45593999997E+02  0.45594000000E+02  0.51100000000E-03 0.  1.
         11   -1    0    0    0    0 -0.00000000000E+00 -0.00000000000E+00 -0.45593999997E+02  0.45594000000E+02  0.51100000000E-03 0. -1.
    9900012    2    1    2    0    0 -0.94332982368E+01 -0.34927800827E+02  0.23972596411E+02  0.47787265388E+02  0.19999974208E+02 0.  0.
         12    1    1    2    0    0  0.94332982368E+01  0.34927800827E+02 -0.23972596411E+02  0.43400734612E+02  0.00000000000E+00 0. -1.
         11    1    3    3    0    0 -0.51792049758E+01 -0.12696609868E+02  0.24645945640E+01  0.13932059896E+02  0.51100000000E-03 0. -1.
        -11    1    3    3    0    0  0.28640750583E+01 -0.97263240344E+01  0.33310177336E+01  0.10672393572E+02  0.51100000000E-03 0.  1.
        -12    1    3    3    0    0 -0.71181683194E+01 -0.12504866924E+02  0.18176984114E+02  0.23182811919E+02  0.00000000000E+00 0.  1.
</event>
<event>
 7    1  0.2492468E-009  0.4778726E+02  0.7816164E-02  0.1312668E+00
        -11   -1    0    0    0    0  0.00000000000E+00  0.00000000000E+00  0.45593999997E+02  0.45594000000E+02  0.51100000000E-03 0.  1.
         11   -1    0    0    0    0 -0.00000000000E+00 -0.00000000000E+00 -0.45593999997E+02  0.45594000000E+02  0.51100000000E-03 0. -1.
    9900012    2    1    2    0    0  0.32522859864E+02  0.11256774780E+02  0.26441873519E+02  0.47787261903E+02  0.19999958322E+02 0.  0.
         12    1    1    2    0    0 -0.32522859864E+02 -0.11256774780E+02 -0.26441873519E+02  0.43400738097E+02  0.00000000000E+00 0. -1.
         11    1    3    3    0    0  0.57417767702E+01  0.48627542989E+01  0.32964959356E+01  0.82146981421E+01  0.51100000000E-03 0. -1.
        -11    1    3    3    0    0  0.59974516171E+01  0.29656283156E+01  0.15977673842E+02  0.17321964059E+02  0.51100000000E-03 0.  1.
        -12    1    3    3    0    0  0.20783631476E+02  0.34283921651E+01  0.71677037416E+01  0.22250599702E+02  0.00000000000E+00 0.  1.
</event>
<event>
 7    1  0.2492468E-009  0.4778727E+02  0.7816164E-02  0.1312668E+00
        -11   -1    0    0    0    0  0.00000000000E+00  0.00000000000E+00  0.45593999997E+02  0.45594000000E+02  0.51100000000E-03 0. -1.
         11   -1    0    0    0    0 -0.00000000000E+00 -0.00000000000E+00 -0.45593999997E+02  0.45594000000E+02  0.51100000000E-03 0.  1.
    9900012    2    1    2    0    0  0.27942751753E+02  0.24109910561E+02  0.22837213667E+02  0.47787268544E+02  0.19999988601E+02 0.  0.
         12    1    1    2    0    0 -0.27942751753E+02 -0.24109910561E+02 -0.22837213667E+02  0.43400731456E+02  0.00000000000E+00 0. -1.
         11    1    3    3    0    0  0.83042648469E+01  0.19408353649E+01  0.20549199143E+01  0.87721350125E+01  0.51100000000E-03 0. -1.
        -11    1    3    3    0    0  0.12952331319E+02  0.16575788589E+02  0.21732850155E+02  0.30246263076E+02  0.51100000000E-03 0.  1.
        -12    1    3    3    0    0  0.66861555873E+01  0.55932866074E+01 -0.95055640157E+00  0.87688704564E+01  0.00000000000E+00 0.  1.
</event>
<event>
 7    1  0.2492468E-009  0.4778727E+02  0.7816164E-02  0.1312668E+00
        -11   -1    0    0    0    0  0.00000000000E+00  0.00000000000E+00  0.45593999997E+02  0.45594000000E+02  0.51100000000E-03 0. -1.
         11   -1    0    0    0    0 -0.00000000000E+00 -0.00000000000E+00 -0.45593999997E+02  0.45594000000E+02  0.51100000000E-03 0.  1.
    9900012    2    1    2    0    0  0.32937286070E+02 -0.26336297415E+02 -0.10254662102E+02  0.47787268785E+02  0.19999989697E+02 0.  0.
         12    1    1    2    0    0 -0.32937286070E+02  0.26336297415E+02  0.10254662102E+02  0.43400731215E+02  0.00000000000E+00 0. -1.
         11    1    3    3    0    0  0.57565912962E+01 -0.11926607575E+02 -0.49986537644E+01  0.14155170480E+02  0.51100000000E-03 0. -1.
        -11    1    3    3    0    0  0.19122047859E+02 -0.10656473712E+02 -0.94001092328E+01  0.23823836806E+02  0.51100000000E-03 0.  1.
        -12    1    3    3    0    0  0.80586469152E+01 -0.37532161279E+01  0.41441008957E+01  0.98082614994E+01  0.00000000000E+00 0.  1.
</event>
<event>
 7    1  0.2492468E-009  0.4778727E+02  0.7816164E-02  0.1312668E+00
        -11   -1    0    0    0    0  0.00000000000E+00  0.00000000000E+00  0.45593999997E+02  0.45594000000E+02  0.51100000000E-03 0.  1.
         11   -1    0    0    0    0 -0.00000000000E+00 -0.00000000000E+00 -0.45593999997E+02  0.45594000000E+02  0.51100000000E-03 0. -1.
    9900012    2    1    2    0    0  0.13430216984E+02 -0.36137373800E+02  0.19933464778E+02  0.47787268077E+02  0.19999986472E+02 0.  0.
         12    1    1    2    0    0 -0.13430216984E+02  0.36137373800E+02 -0.19933464778E+02  0.43400731923E+02  0.00000000000E+00 0. -1.
         11    1    3    3    0    0  0.74700252585E+01 -0.62595656682E+01  0.12619945966E+01  0.98273124678E+01  0.51100000000E-03 0. -1.
        -11    1    3    3    0    0  0.88000798694E+01 -0.16497376201E+02  0.14494643953E+02  0.23657969710E+02  0.51100000000E-03 0.  1.
        -12    1    3    3    0    0 -0.28398881443E+01 -0.13380431931E+02  0.41768262283E+01  0.14301985899E+02  0.00000000000E+00 0.  1.
</event>
<event>
 7    1  0.2492468E-009  0.4778727E+02  0.7816164E-02  0.1312668E+00
        -11   -1    0    0    0    0  0.00000000000E+00  0.00000000000E+00  0.45593999997E+02  0.45594000000E+02  0.51100000000E-03 0.  1.
         11   -1    0    0    0    0 -0.00000000000E+00 -0.00000000000E+00 -0.45593999997E+02  0.45594000000E+02  0.51100000000E-03 0. -1.
    9900012    2    1    2    0    0 -0.20547978888E+01  0.23060120351E+02  0.36710107439E+02  0.47787270362E+02  0.19999996887E+02 0.  0.
         12    1    1    2    0    0  0.20547978888E+01 -0.23060120351E+02 -0.36710107439E+02  0.43400729638E+02  0.00000000000E+00 0. -1.
         11    1    3    3    0    0 -0.26774133932E+01 -0.10859475621E+01  0.54281891786E+00  0.29398090455E+01  0.51100000000E-03 0. -1.
        -11    1    3    3    0    0 -0.40780777711E+01  0.44913478046E+01  0.59669212160E+01  0.85092345407E+01  0.51100000000E-03 0.  1.
        -12    1    3    3    0    0  0.47006932755E+01  0.19654720109E+02  0.30200367305E+02  0.36338226775E+02  0.00000000000E+00 0.  1.
</event>
<event>
 7    1  0.2492468E-009  0.4778727E+02  0.7816164E-02  0.1312668E+00
        -11   -1    0    0    0    0  0.00000000000E+00  0.00000000000E+00  0.45593999997E+02  0.45594000000E+02  0.51100000000E-03 0.  1.
         11   -1    0    0    0    0 -0.00000000000E+00 -0.00000000000E+00 -0.45593999997E+02  0.45594000000E+02  0.51100000000E-03 0. -1.
    9900012    2    1    2    0    0 -0.40952420105E+02  0.12807572542E+02  0.65183263697E+01  0.47787271832E+02  0.20000003589E+02 0.  0.
         12    1    1    2    0    0  0.40952420105E+02 -0.12807572542E+02 -0.65183263697E+01  0.43400728168E+02  0.00000000000E+00 0. -1.
         11    1    3    3    0    0 -0.36384831599E+01  0.29815103131E+00 -0.29200465994E+01  0.46748396921E+01  0.51100000000E-03 0. -1.
        -11    1    3    3    0    0 -0.14072328391E+02  0.12222233981E+02  0.22020256122E+01  0.18768653305E+02  0.51100000000E-03 0.  1.
        -12    1    3    3    0    0 -0.23241608554E+02  0.28718752975E+00  0.72363473569E+01  0.24343778834E+02  0.00000000000E+00 0.  1.
</event>
<event>
 7    1  0.2492468E-009  0.4778729E+02  0.7816164E-02  0.1312668E+00
        -11   -1    0    0    0    0  0.00000000000E+00  0.00000000000E+00  0.45593999997E+02  0.45594000000E+02  0.51100000000E-03 0.  1.
         11   -1    0    0    0    0 -0.00000000000E+00 -0.00000000000E+00 -0.45593999997E+02  0.45594000000E+02  0.51100000000E-03 0. -1.
    9900012    2    1    2    0    0 -0.18893411013E+02 -0.24354056577E+02  0.30553889175E+02  0.47787294993E+02  0.20000109189E+02 0.  0.
         12    1    1    2    0    0  0.18893411013E+02  0.24354056577E+02 -0.30553889175E+02  0.43400705007E+02  0.00000000000E+00 0. -1.
         11    1    3    3    0    0 -0.10250512094E+02 -0.97194750444E+01  0.16455178829E+01  0.14221424777E+02  0.51100000000E-03 0. -1.
        -11    1    3    3    0    0 -0.26089726818E+01 -0.32284310911E+01  0.73215782186E+01  0.84163539396E+01  0.51100000000E-03 0.  1.
        -12    1    3    3    0    0 -0.60339262374E+01 -0.11406150441E+02  0.21586793073E+02  0.25149516276E+02  0.00000000000E+00 0.  1.
</event>
<event>
 7    1  0.2492468E-009  0.4778727E+02  0.7816164E-02  0.1312668E+00
        -11   -1    0    0    0    0  0.00000000000E+00  0.00000000000E+00  0.45593999997E+02  0.45594000000E+02  0.51100000000E-03 0. -1.
         11   -1    0    0    0    0 -0.00000000000E+00 -0.00000000000E+00 -0.45593999997E+02  0.45594000000E+02  0.51100000000E-03 0.  1.
    9900012    2    1    2    0    0 -0.26822570932E+02 -0.51197190014E+01 -0.33733683322E+02  0.47787271613E+02  0.20000002591E+02 0.  0.
         12    1    1    2    0    0  0.26822570932E+02  0.51197190014E+01  0.33733683322E+02  0.43400728387E+02  0.00000000000E+00 0. -1.
         11    1    3    3    0    0 -0.15499955596E+02 -0.47367510304E+01 -0.15104096213E+02  0.22154438754E+02  0.51100000000E-03 0.  1.
        -11    1    3    3    0    0 -0.68176824266E+01 -0.44578495452E+01 -0.26955068825E+01  0.85801499901E+01  0.51100000000E-03 0. -1.
        -12    1    3    3    0    0 -0.45049329092E+01  0.40748815742E+01 -0.15934080227E+02  0.17052682869E+02  0.00000000000E+00 0.  1.
</event>
<event>
 7    1  0.2492468E-009  0.4778727E+02  0.7816164E-02  0.1312668E+00
        -11   -1    0    0    0    0  0.00000000000E+00  0.00000000000E+00  0.45593999997E+02  0.45594000000E+02  0.51100000000E-03 0.  1.
         11   -1    0    0    0    0 -0.00000000000E+00 -0.00000000000E+00 -0.45593999997E+02  0.45594000000E+02  0.51100000000E-03 0. -1.
    9900012    2    1    2    0    0  0.20844005304E+01 -0.43237368932E+02  0.31318849737E+01  0.47787268425E+02  0.19999988057E+02 0.  0.
         12    1    1    2    0    0 -0.20844005304E+01  0.43237368932E+02 -0.31318849737E+01  0.43400731575E+02  0.00000000000E+00 0. -1.
         11    1    3    3    0    0  0.13737451865E+01 -0.15072259418E+02  0.74834076955E+01  0.16883766487E+02  0.51100000000E-03 0. -1.
        -11    1    3    3    0    0 -0.39039196308E+01 -0.36155329774E+01  0.84930057132E+00  0.53883187467E+01  0.51100000000E-03 0.  1.
        -12    1    3    3    0    0  0.46145749747E+01 -0.24549576537E+02 -0.52008232931E+01  0.25515183191E+02  0.00000000000E+00 0.  1.
</event>
<event>
 7    1  0.2492468E-009  0.4778727E+02  0.7816164E-02  0.1312668E+00
        -11   -1    0    0    0    0  0.00000000000E+00  0.00000000000E+00  0.45593999997E+02  0.45594000000E+02  0.51100000000E-03 0. -1.
         11   -1    0    0    0    0 -0.00000000000E+00 -0.00000000000E+00 -0.45593999997E+02  0.45594000000E+02  0.51100000000E-03 0.  1.
    9900012    2    1    2    0    0 -0.21153851843E+02  0.23825556720E+02 -0.29470003364E+02  0.47787266146E+02  0.19999977664E+02 0.  0.
         12    1    1    2    0    0  0.21153851843E+02 -0.23825556720E+02  0.29470003364E+02  0.43400733854E+02  0.00000000000E+00 0. -1.
         11    1    3    3    0    0 -0.11704728977E+01 -0.18574893193E+00  0.15329841452E+01  0.19376661530E+01  0.51100000000E-03 0. -1.
        -11    1    3    3    0    0 -0.14468149178E+02  0.15027161594E+02 -0.11860104447E+02  0.23995937238E+02  0.51100000000E-03 0.  1.
        -12    1    3    3    0    0 -0.55152297680E+01  0.89841440584E+01 -0.19142883062E+02  0.21853662755E+02  0.00000000000E+00 0.  1.
</event>
<event>
 7    1  0.2492468E-009  0.4778727E+02  0.7816164E-02  0.1312668E+00
        -11   -1    0    0    0    0  0.00000000000E+00  0.00000000000E+00  0.45593999997E+02  0.45594000000E+02  0.51100000000E-03 0.  1.
         11   -1    0    0    0    0 -0.00000000000E+00 -0.00000000000E+00 -0.45593999997E+02  0.45594000000E+02  0.51100000000E-03 0. -1.
    9900012    2    1    2    0    0 -0.22156262848E+02 -0.15369886282E+02  0.34007202460E+02  0.47787271816E+02  0.20000003518E+02 0.  0.
         12    1    1    2    0    0  0.22156262848E+02  0.15369886282E+02 -0.34007202460E+02  0.43400728184E+02  0.00000000000E+00 0. -1.
         11    1    3    3    0    0 -0.64815174302E+01 -0.16546352285E+01  0.11084947410E+01  0.67806081430E+01  0.51100000000E-03 0. -1.
        -11    1    3    3    0    0 -0.17937617663E+02 -0.12735896878E+02  0.29147326506E+02  0.36517500454E+02  0.51100000000E-03 0.  1.
         12    1    3    3    0    0  0.22628722447E+01 -0.97935417603E+00  0.37513812138E+01  0.44891632193E+01  0.00000000000E+00 0. -1.
</event>
<event>
 7    1  0.2492468E-009  0.4778727E+02  0.7816164E-02  0.1312668E+00
        -11   -1    0    0    0    0  0.00000000000E+00  0.00000000000E+00  0.45593999997E+02  0.45594000000E+02  0.51100000000E-03 0. -1.
         11   -1    0    0    0    0 -0.00000000000E+00 -0.00000000000E+00 -0.45593999997E+02  0.45594000000E+02  0.51100000000E-03 0.  1.
    9900012    2    1    2    0    0 -0.40074224886E+02 -0.15070200794E+02 -0.71111559728E+01  0.47787274298E+02  0.20000014834E+02 0.  0.
         12    1    1    2    0    0  0.40074224886E+02  0.15070200794E+02  0.71111559728E+01  0.43400725702E+02  0.00000000000E+00 0. -1.
         11    1    3    3    0    0 -0.16685599049E+01  0.31280113300E+01 -0.11522655416E+01  0.37277691957E+01  0.51100000000E-03 0. -1.
        -11    1    3    3    0    0 -0.13704511515E+02 -0.11083639085E+02 -0.50639391374E+01  0.18338597850E+02  0.51100000000E-03 0.  1.
        -12    1    3    3    0    0 -0.24701153466E+02 -0.71145730387E+01 -0.89495129385E+00  0.25720907253E+02  0.00000000000E+00 0.  1.
</event>
<event>
 7    1  0.2492468E-009  0.4778726E+02  0.7816164E-02  0.1312668E+00
        -11   -1    0    0    0    0  0.00000000000E+00  0.00000000000E+00  0.45593999997E+02  0.45594000000E+02  0.51100000000E-03 0.  1.
         11   -1    0    0    0    0 -0.00000000000E+00 -0.00000000000E+00 -0.45593999997E+02  0.45594000000E+02  0.51100000000E-03 0. -1.
    9900012    2    1    2    0    0  0.27627759949E+02 -0.63063102474E+01  0.32871889857E+02  0.47787264851E+02  0.19999971760E+02 0.  0.
         12    1    1    2    0    0 -0.27627759949E+02  0.63063102474E+01 -0.32871889857E+02  0.43400735149E+02  0.00000000000E+00 0. -1.
         11    1    3    3    0    0  0.15590570081E+02 -0.84481487647E+01  0.14879623717E+02  0.23148224450E+02  0.51100000000E-03 0. -1.
        -11    1    3    3    0    0  0.13544006514E+02  0.41963055110E+01  0.14173555640E+02  0.20048410714E+02  0.51100000000E-03 0.  1.
         12    1    3    3    0    0 -0.15068166462E+01 -0.20544669937E+01  0.38187105006E+01  0.45906296867E+01  0.00000000000E+00 0. -1.
</event>
<event>
 7    1  0.2492468E-009  0.4778727E+02  0.7816164E-02  0.1312668E+00
        -11   -1    0    0    0    0  0.00000000000E+00  0.00000000000E+00  0.45593999997E+02  0.45594000000E+02  0.51100000000E-03 0. -1.
         11   -1    0    0    0    0 -0.00000000000E+00 -0.00000000000E+00 -0.45593999997E+02  0.45594000000E+02  0.51100000000E-03 0.  1.
    9900012    2    1    2    0    0 -0.18280241913E+02  0.25856130745E+02 -0.29680240350E+02  0.47787269491E+02  0.19999992916E+02 0.  0.
         12    1    1    2    0    0  0.18280241913E+02 -0.25856130745E+02  0.29680240350E+02  0.43400730509E+02  0.00000000000E+00 0. -1.
         11    1    3    3    0    0  0.22195513023E+01  0.24409709301E+01 -0.11079146513E+01  0.34802618006E+01  0.51100000000E-03 0. -1.
        -11    1    3    3    0    0 -0.82657716264E+01  0.92143778367E+01 -0.32424894822E+01  0.12796150898E+02  0.51100000000E-03 0.  1.
        -12    1    3    3    0    0 -0.12234021589E+02  0.14200781978E+02 -0.25329836216E+02  0.31510856792E+02  0.00000000000E+00 0.  1.
</event>
<event>
 7    1  0.2492468E-009  0.4778727E+02  0.7816164E-02  0.1312668E+00
        -11   -1    0    0    0    0  0.00000000000E+00  0.00000000000E+00  0.45593999997E+02  0.45594000000E+02  0.51100000000E-03 0.  1.
         11   -1    0    0    0    0 -0.00000000000E+00 -0.00000000000E+00 -0.45593999997E+02  0.45594000000E+02  0.51100000000E-03 0. -1.
    9900012    2    1    2    0    0 -0.14900917400E+01 -0.21352531115E+02  0.37755428744E+02  0.47787270074E+02  0.19999995578E+02 0.  0.
         12    1    1    2    0    0  0.14900917400E+01  0.21352531115E+02 -0.37755428744E+02  0.43400729926E+02  0.00000000000E+00 0. -1.
         11    1    3    3    0    0  0.16428612241E+01 -0.40956347492E+01  0.60094665984E+01  0.74556626841E+01  0.51100000000E-03 0. -1.
        -11    1    3    3    0    0 -0.65398872939E+01 -0.15310882444E+01  0.29309074524E+01  0.73283405887E+01  0.51100000000E-03 0.  1.
        -12    1    3    3    0    0  0.34069343297E+01 -0.15725808121E+02  0.28815054693E+02  0.33003266802E+02  0.00000000000E+00 0.  1.
</event>
<event>
 7    1  0.2492468E-009  0.4778726E+02  0.7816164E-02  0.1312668E+00
        -11   -1    0    0    0    0  0.00000000000E+00  0.00000000000E+00  0.45593999997E+02  0.45594000000E+02  0.51100000000E-03 0. -1.
         11   -1    0    0    0    0 -0.00000000000E+00 -0.00000000000E+00 -0.45593999997E+02  0.45594000000E+02  0.51100000000E-03 0.  1.
    9900012    2    1    2    0    0 -0.36404348595E+02 -0.17328041743E+02 -0.16065071192E+02  0.47787261070E+02  0.19999954521E+02 0.  0.
         12    1    1    2    0    0  0.36404348595E+02  0.17328041743E+02  0.16065071192E+02  0.43400738930E+02  0.00000000000E+00 0. -1.
         11    1    3    3    0    0 -0.15845802202E+01 -0.19158280348E+01 -0.67533958738E+01  0.71965024576E+01  0.51100000000E-03 0. -1.
        -11    1    3    3    0    0 -0.13472648609E+02 -0.81980515883E+01 -0.87824776492E+01  0.18051377352E+02  0.51100000000E-03 0.  1.
         12    1    3    3    0    0 -0.21347119766E+02 -0.72141621201E+01 -0.52919766859E+00  0.22539381260E+02  0.00000000000E+00 0. -1.
</event>
<event>
 7    1  0.2492468E-009  0.4778727E+02  0.7816164E-02  0.1312668E+00
        -11   -1    0    0    0    0  0.00000000000E+00  0.00000000000E+00  0.45593999997E+02  0.45594000000E+02  0.51100000000E-03 0.  1.
         11   -1    0    0    0    0 -0.00000000000E+00 -0.00000000000E+00 -0.45593999997E+02  0.45594000000E+02  0.51100000000E-03 0. -1.
    9900012    2    1    2    0    0  0.13191436440E+01 -0.19242905533E+02  0.38879220990E+02  0.47787269844E+02  0.19999994525E+02 0.  0.
         12    1    1    2    0    0 -0.13191436440E+01  0.19242905533E+02 -0.38879220990E+02  0.43400730156E+02  0.00000000000E+00 0. -1.
         11    1    3    3    0    0  0.41721054238E+01 -0.36729804242E+01  0.78522014197E+01  0.96205153843E+01  0.51100000000E-03 0.  1.
        -11    1    3    3    0    0 -0.50326897770E+01 -0.77777425368E+01  0.42470265460E+01  0.10191098081E+02  0.51100000000E-03 0. -1.
         12    1    3    3    0    0  0.21797279972E+01 -0.77921825720E+01  0.26779993025E+02  0.27975656378E+02  0.00000000000E+00 0. -1.
</event>
<event>
 7    1  0.2492468E-009  0.4778727E+02  0.7816164E-02  0.1312668E+00
        -11   -1    0    0    0    0  0.00000000000E+00  0.00000000000E+00  0.45593999997E+02  0.45594000000E+02  0.51100000000E-03 0. -1.
         11   -1    0    0    0    0 -0.00000000000E+00 -0.00000000000E+00 -0.45593999997E+02  0.45594000000E+02  0.51100000000E-03 0.  1.
    9900012    2    1    2    0    0  0.65750098071E+00 -0.43395269033E+02 -0.20380676008E+00  0.47787271675E+02  0.20000002873E+02 0.  0.
         12    1    1    2    0    0 -0.65750098071E+00  0.43395269033E+02  0.20380676008E+00  0.43400728325E+02  0.00000000000E+00 0. -1.
         11    1    3    3    0    0  0.27036529386E+01 -0.30603065895E+01 -0.36713127621E+01  0.54912433284E+01  0.51100000000E-03 0. -1.
        -11    1    3    3    0    0 -0.32610881829E+01 -0.68489973394E+01  0.44105548797E+01  0.87747624070E+01  0.51100000000E-03 0.  1.
        -12    1    3    3    0    0  0.12149362250E+01 -0.33485965104E+02 -0.94304887772E+00  0.33521265939E+02  0.00000000000E+00 0.  1.
</event>
<event>
 7    1  0.2492468E-009  0.4778727E+02  0.7816164E-02  0.1312668E+00
        -11   -1    0    0    0    0  0.00000000000E+00  0.00000000000E+00  0.45593999997E+02  0.45594000000E+02  0.51100000000E-03 0.  1.
         11   -1    0    0    0    0 -0.00000000000E+00 -0.00000000000E+00 -0.45593999997E+02  0.45594000000E+02  0.51100000000E-03 0. -1.
    9900012    2    1    2    0    0 -0.37905576778E+02 -0.65710402940E+01  0.20090098244E+02  0.47787269950E+02  0.19999995011E+02 0.  0.
         12    1    1    2    0    0  0.37905576778E+02  0.65710402940E+01 -0.20090098244E+02  0.43400730050E+02  0.00000000000E+00 0. -1.
         11    1    3    3    0    0 -0.78400841289E+01  0.19363959511E+01  0.50512254482E+01  0.95253045735E+01  0.51100000000E-03 0.  1.
        -11    1    3    3    0    0 -0.14272430561E+02 -0.39286902276E+01  0.15990979314E+02  0.21791014220E+02  0.51100000000E-03 0. -1.
         12    1    3    3    0    0 -0.15793062088E+02 -0.45787460175E+01 -0.95210651849E+00  0.16470951157E+02  0.00000000000E+00 0. -1.
</event>
<event>
 7    1  0.2603124E-009  0.4778728E+02  0.7816164E-02  0.1312668E+00
        -11   -1    0    0    0    0  0.00000000000E+00  0.00000000000E+00  0.45593999997E+02  0.45594000000E+02  0.51100000000E-03 0. -1.
         11   -1    0    0    0    0 -0.00000000000E+00 -0.00000000000E+00 -0.45593999997E+02  0.45594000000E+02  0.51100000000E-03 0.  1.
    9900012    2    1    2    0    0  0.18358253448E+02  0.23235697063E+02 -0.31728520061E+02  0.47787284880E+02  0.20000063082E+02 0.  0.
         12    1    1    2    0    0 -0.18358253448E+02 -0.23235697063E+02  0.31728520061E+02  0.43400715120E+02  0.00000000000E+00 0. -1.
         11    1    3    3    0    0 -0.25862128836E+01  0.25553512698E+01 -0.21590882091E+01  0.42284724603E+01  0.51100000000E-03 0. -1.
        -11    1    3    3    0    0  0.29435015421E+01  0.86243685507E+01 -0.14651641314E+02  0.17254406037E+02  0.51100000000E-03 0.  1.
         12    1    3    3    0    0  0.18000964790E+02  0.12055977243E+02 -0.14917790537E+02  0.26304406383E+02  0.00000000000E+00 0. -1.
</event>
<event>
 7    1  0.2492468E-009  0.4778727E+02  0.7816164E-02  0.1312668E+00
        -11   -1    0    0    0    0  0.00000000000E+00  0.00000000000E+00  0.45593999997E+02  0.45594000000E+02  0.51100000000E-03 0. -1.
         11   -1    0    0    0    0 -0.00000000000E+00 -0.00000000000E+00 -0.45593999997E+02  0.45594000000E+02  0.51100000000E-03 0.  1.
    9900012    2    1    2    0    0  0.28256518174E+02 -0.24161523396E+01 -0.32853534114E+02  0.47787270568E+02  0.19999997829E+02 0.  0.
         12    1    1    2    0    0 -0.28256518174E+02  0.24161523396E+01  0.32853534114E+02  0.43400729432E+02  0.00000000000E+00 0. -1.
         11    1    3    3    0    0  0.64157782901E+01  0.45062384435E+01 -0.95303711372E+01  0.12340841554E+02  0.51100000000E-03 0. -1.
        -11    1    3    3    0    0  0.21240281021E+02 -0.19828466019E+01 -0.16338469618E+02  0.26870556530E+02  0.51100000000E-03 0.  1.
        -12    1    3    3    0    0  0.60045886257E+00 -0.49395441812E+01 -0.69846933583E+01  0.85758724847E+01  0.00000000000E+00 0.  1.
</event>
<event>
 7    1  0.2492468E-009  0.4778727E+02  0.7816164E-02  0.1312668E+00
        -11   -1    0    0    0    0  0.00000000000E+00  0.00000000000E+00  0.45593999997E+02  0.45594000000E+02  0.51100000000E-03 0.  1.
         11   -1    0    0    0    0 -0.00000000000E+00 -0.00000000000E+00 -0.45593999997E+02  0.45594000000E+02  0.51100000000E-03 0. -1.
    9900012    2    1    2    0    0  0.29624658188E+02 -0.90804969110E+01  0.30389923850E+02  0.47787271106E+02  0.20000000283E+02 0.  0.
         12    1    1    2    0    0 -0.29624658188E+02  0.90804969110E+01 -0.30389923850E+02  0.43400728894E+02  0.00000000000E+00 0. -1.
         11    1    3    3    0    0 -0.99877746590E+00  0.10064865839E+00  0.31991514811E+01  0.33529475151E+01  0.51100000000E-03 0. -1.
        -11    1    3    3    0    0 -0.38757608545E+00  0.13479585019E+01 -0.55802018632E+00  0.15095012866E+01  0.51100000000E-03 0.  1.
        -12    1    3    3    0    0  0.31011011739E+02 -0.10529104071E+02  0.27748792555E+02  0.42924822305E+02  0.00000000000E+00 0.  1.
</event>
<event>
 7    1  0.2492468E-009  0.4778727E+02  0.7816164E-02  0.1312668E+00
        -11   -1    0    0    0    0  0.00000000000E+00  0.00000000000E+00  0.45593999997E+02  0.45594000000E+02  0.51100000000E-03 0.  1.
         11   -1    0    0    0    0 -0.00000000000E+00 -0.00000000000E+00 -0.45593999997E+02  0.45594000000E+02  0.51100000000E-03 0. -1.
    9900012    2    1    2    0    0 -0.13219170920E+02 -0.21863505993E+02  0.35083672487E+02  0.47787269023E+02  0.19999990783E+02 0.  0.
         12    1    1    2    0    0  0.13219170920E+02  0.21863505993E+02 -0.35083672487E+02  0.43400730977E+02  0.00000000000E+00 0. -1.
         11    1    3    3    0    0  0.49859080583E+00 -0.22173237935E+01  0.14715398943E+02  0.14889865141E+02  0.51100000000E-03 0. -1.
        -11    1    3    3    0    0 -0.63859766645E+01 -0.19900655572E+01  0.59460370819E+01  0.89496601121E+01  0.51100000000E-03 0.  1.
        -12    1    3    3    0    0 -0.73317850614E+01 -0.17656116643E+02  0.14422236462E+02  0.23947743770E+02  0.00000000000E+00 0.  1.
</event>
<event>
 7    1  0.2492468E-009  0.4778727E+02  0.7816164E-02  0.1312668E+00
        -11   -1    0    0    0    0  0.00000000000E+00  0.00000000000E+00  0.45593999997E+02  0.45594000000E+02  0.51100000000E-03 0. -1.
         11   -1    0    0    0    0 -0.00000000000E+00 -0.00000000000E+00 -0.45593999997E+02  0.45594000000E+02  0.51100000000E-03 0.  1.
    9900012    2    1    2    0    0 -0.13444770277E+02  0.40907104266E+02 -0.54286565541E+01  0.47787270292E+02  0.19999996569E+02 0.  0.
         12    1    1    2    0    0  0.13444770277E+02 -0.40907104266E+02  0.54286565541E+01  0.43400729708E+02  0.00000000000E+00 0. -1.
         11    1    3    3    0    0 -0.12778627829E+02  0.24370848942E+02  0.13186341269E+01  0.27549417482E+02  0.51100000000E-03 0. -1.
        -11    1    3    3    0    0 -0.28728031665E+01  0.52966706609E+00 -0.10981688155E+01  0.31208204439E+01  0.51100000000E-03 0.  1.
        -12    1    3    3    0    0  0.22066607190E+01  0.16006588257E+02 -0.56491218655E+01  0.17117032366E+02  0.00000000000E+00 0.  1.
</event>
<event>
 7    1  0.2492468E-009  0.4778727E+02  0.7816164E-02  0.1312668E+00
        -11   -1    0    0    0    0  0.00000000000E+00  0.00000000000E+00  0.45593999997E+02  0.45594000000E+02  0.51100000000E-03 0.  1.
         11   -1    0    0    0    0 -0.00000000000E+00 -0.00000000000E+00 -0.45593999997E+02  0.45594000000E+02  0.51100000000E-03 0. -1.
    9900012    2    1    2    0    0  0.29826107558E+01  0.23136947746E+02  0.36597934306E+02  0.47787272893E+02  0.20000008429E+02 0.  0.
         12    1    1    2    0    0 -0.29826107558E+01 -0.23136947746E+02 -0.36597934306E+02  0.43400727107E+02  0.00000000000E+00 0. -1.
         11    1    3    3    0    0 -0.21027213812E+01  0.80436266550E+01  0.15236723557E+02  0.17357393582E+02  0.51100000000E-03 0. -1.
        -11    1    3    3    0    0 -0.24261826008E+01  0.12953103407E+02  0.16914704049E+02  0.21442398728E+02  0.51100000000E-03 0.  1.
         12    1    3    3    0    0  0.75115147378E+01  0.21402176843E+01  0.44465067006E+01  0.89874805830E+01  0.00000000000E+00 0. -1.
</event>
<event>
 7    1  0.2492468E-009  0.4778727E+02  0.7816164E-02  0.1312668E+00
        -11   -1    0    0    0    0  0.00000000000E+00  0.00000000000E+00  0.45593999997E+02  0.45594000000E+02  0.51100000000E-03 0. -1.
         11   -1    0    0    0    0 -0.00000000000E+00 -0.00000000000E+00 -0.45593999997E+02  0.45594000000E+02  0.51100000000E-03 0.  1.
    9900012    2    1    2    0    0  0.17230481470E+02  0.39170113763E+02 -0.72412770933E+01  0.47787269617E+02  0.19999993490E+02 0.  0.
         12    1    1    2    0    0 -0.17230481470E+02 -0.39170113763E+02  0.72412770933E+01  0.43400730383E+02  0.00000000000E+00 0. -1.
         11    1    3    3    0    0  0.15223201596E+01  0.10994609862E+01 -0.31760247248E+01  0.36896350012E+01  0.51100000000E-03 0. -1.
        -11    1    3    3    0    0  0.56248429157E+01  0.23764346418E+02 -0.88129028898E+01  0.25962478235E+02  0.51100000000E-03 0.  1.
         12    1    3    3    0    0  0.10083318394E+02  0.14306306359E+02  0.47476505213E+01  0.18135156380E+02  0.00000000000E+00 0. -1.
</event>
<event>
 7    1  0.2492468E-009  0.4778725E+02  0.7816164E-02  0.1312668E+00
        -11   -1    0    0    0    0  0.00000000000E+00  0.00000000000E+00  0.45593999997E+02  0.45594000000E+02  0.51100000000E-03 0.  1.
         11   -1    0    0    0    0 -0.00000000000E+00 -0.00000000000E+00 -0.45593999997E+02  0.45594000000E+02  0.51100000000E-03 0. -1.
    9900012    2    1    2    0    0 -0.33662109368E+02  0.23655453444E+02  0.13816917338E+02  0.47787247824E+02  0.19999894127E+02 0.  0.
         12    1    1    2    0    0  0.33662109368E+02 -0.23655453444E+02 -0.13816917338E+02  0.43400752176E+02  0.00000000000E+00 0. -1.
         11    1    3    3    0    0 -0.28107968944E+01 -0.12947932282E+01  0.23781788129E+01  0.39029224195E+01  0.51100000000E-03 0. -1.
        -11    1    3    3    0    0 -0.23659384961E+02  0.19341645586E+02  0.15063438029E+02  0.34070117643E+02  0.51100000000E-03 0.  1.
         12    1    3    3    0    0 -0.71919275121E+01  0.56086010861E+01 -0.36246995035E+01  0.98142077608E+01  0.00000000000E+00 0. -1.
</event>
<event>
 7    1  0.2492468E-009  0.4778727E+02  0.7816164E-02  0.1312668E+00
        -11   -1    0    0    0    0  0.00000000000E+00  0.00000000000E+00  0.45593999997E+02  0.45594000000E+02  0.51100000000E-03 0. -1.
         11   -1    0    0    0    0 -0.00000000000E+00 -0.00000000000E+00 -0.45593999997E+02  0.45594000000E+02  0.51100000000E-03 0.  1.
    9900012    2    1    2    0    0  0.27011904307E+02 -0.21769547066E+02 -0.26078097886E+02  0.47787270247E+02  0.19999996364E+02 0.  0.
         12    1    1    2    0    0 -0.27011904307E+02  0.21769547066E+02  0.26078097886E+02  0.43400729753E+02  0.00000000000E+00 0. -1.
         11    1    3    3    0    0  0.28502871516E+01 -0.68612840093E+01  0.19049329856E+01  0.76700798590E+01  0.51100000000E-03 0.  1.
        -11    1    3    3    0    0  0.57419718418E+01 -0.15609048903E+01 -0.67755817418E+01  0.90174926066E+01  0.51100000000E-03 0. -1.
        -12    1    3    3    0    0  0.18419645314E+02 -0.13347358166E+02 -0.21207449130E+02  0.31099697781E+02  0.00000000000E+00 0.  1.
</event>
<event>
 7    1  0.2492468E-009  0.4778727E+02  0.7816164E-02  0.1312668E+00
        -11   -1    0    0    0    0  0.00000000000E+00  0.00000000000E+00  0.45593999997E+02  0.45594000000E+02  0.51100000000E-03 0. -1.
         11   -1    0    0    0    0 -0.00000000000E+00 -0.00000000000E+00 -0.45593999997E+02  0.45594000000E+02  0.51100000000E-03 0.  1.
    9900012    2    1    2    0    0 -0.34769149028E+02 -0.94899061564E+01 -0.24179974048E+02  0.47787272035E+02  0.20000004514E+02 0.  0.
         12    1    1    2    0    0  0.34769149028E+02  0.94899061564E+01  0.24179974048E+02  0.43400727965E+02  0.00000000000E+00 0. -1.
         11    1    3    3    0    0 -0.16961230760E+02 -0.98899752977E+01 -0.15046593146E+02  0.24736509977E+02  0.51100000000E-03 0. -1.
        -11    1    3    3    0    0 -0.17578191281E+02 -0.29082869094E+01 -0.72396570000E+01  0.19231837541E+02  0.51100000000E-03 0.  1.
         12    1    3    3    0    0 -0.22972698655E+00  0.33083560507E+01 -0.18937239021E+01  0.38189245167E+01  0.00000000000E+00 0. -1.
</event>
<event>
 7    1  0.2492468E-009  0.4778727E+02  0.7816164E-02  0.1312668E+00
        -11   -1    0    0    0    0  0.00000000000E+00  0.00000000000E+00  0.45593999997E+02  0.45594000000E+02  0.51100000000E-03 0.  1.
         11   -1    0    0    0    0 -0.00000000000E+00 -0.00000000000E+00 -0.45593999997E+02  0.45594000000E+02  0.51100000000E-03 0. -1.
    9900012    2    1    2    0    0  0.83795354778E+01  0.15552706212E+02  0.39642407959E+02  0.47787265051E+02  0.19999972674E+02 0.  0.
         12    1    1    2    0    0 -0.83795354778E+01 -0.15552706212E+02 -0.39642407959E+02  0.43400734949E+02  0.00000000000E+00 0. -1.
         11    1    3    3    0    0  0.54636893965E+01  0.13373227203E+02  0.16420387634E+02  0.21870625001E+02  0.51100000000E-03 0. -1.
        -11    1    3    3    0    0  0.56917667717E+01  0.47216222343E+01  0.12164820510E+02  0.14236319180E+02  0.51100000000E-03 0.  1.
         12    1    3    3    0    0 -0.27759206904E+01 -0.25421432257E+01  0.11057199816E+02  0.11680320870E+02  0.00000000000E+00 0. -1.
</event>
<event>
 7    1  0.2492468E-009  0.4778727E+02  0.7816164E-02  0.1312668E+00
        -11   -1    0    0    0    0  0.00000000000E+00  0.00000000000E+00  0.45593999997E+02  0.45594000000E+02  0.51100000000E-03 0.  1.
         11   -1    0    0    0    0 -0.00000000000E+00 -0.00000000000E+00 -0.45593999997E+02  0.45594000000E+02  0.51100000000E-03 0. -1.
    9900012    2    1    2    0    0 -0.39698279665E+02  0.12532668947E+02  0.12272014827E+02  0.47787267895E+02  0.19999985642E+02 0.  0.
         12    1    1    2    0    0  0.39698279665E+02 -0.12532668947E+02 -0.12272014827E+02  0.43400732105E+02  0.00000000000E+00 0. -1.
         11    1    3    3    0    0 -0.49641495307E+01 -0.87173081711E+00 -0.23198746625E+01  0.55483793932E+01  0.51100000000E-03 0. -1.
        -11    1    3    3    0    0 -0.27624146015E+02  0.64771665655E+01  0.57601817060E+01  0.28952147128E+02  0.51100000000E-03 0.  1.
        -12    1    3    3    0    0 -0.71099841190E+01  0.69272331988E+01  0.88317077834E+01  0.13286741374E+02  0.00000000000E+00 0.  1.
</event>
<event>
 7    1  0.2492468E-009  0.4778727E+02  0.7816164E-02  0.1312668E+00
        -11   -1    0    0    0    0  0.00000000000E+00  0.00000000000E+00  0.45593999997E+02  0.45594000000E+02  0.51100000000E-03 0.  1.
         11   -1    0    0    0    0 -0.00000000000E+00 -0.00000000000E+00 -0.45593999997E+02  0.45594000000E+02  0.51100000000E-03 0. -1.
    9900012    2    1    2    0    0 -0.81021471859E+01  0.40702475395E+02 -0.12699880467E+02  0.47787271248E+02  0.20000000929E+02 0.  0.
         12    1    1    2    0    0  0.81021471859E+01 -0.40702475395E+02  0.12699880467E+02  0.43400728752E+02  0.00000000000E+00 0. -1.
         11    1    3    3    0    0 -0.39528367966E+01  0.19355132563E+02 -0.15404239596E+02  0.25050682088E+02  0.51100000000E-03 0. -1.
        -11    1    3    3    0    0  0.79419451493E+00  0.53754460392E+01  0.25835335448E+01  0.60167109691E+01  0.51100000000E-03 0.  1.
        -12    1    3    3    0    0 -0.49435049042E+01  0.15971896793E+02  0.12082558419E+00  0.16719878191E+02  0.00000000000E+00 0.  1.
</event>
<event>
 7    1  0.2492468E-009  0.4778727E+02  0.7816164E-02  0.1312668E+00
        -11   -1    0    0    0    0  0.00000000000E+00  0.00000000000E+00  0.45593999997E+02  0.45594000000E+02  0.51100000000E-03 0. -1.
         11   -1    0    0    0    0 -0.00000000000E+00 -0.00000000000E+00 -0.45593999997E+02  0.45594000000E+02  0.51100000000E-03 0.  1.
    9900012    2    1    2    0    0  0.30892168988E+01  0.17179592827E+02 -0.39735897634E+02  0.47787271532E+02  0.20000002225E+02 0.  0.
         12    1    1    2    0    0 -0.30892168988E+01 -0.17179592827E+02  0.39735897634E+02  0.43400728468E+02  0.00000000000E+00 0. -1.
         11    1    3    3    0    0 -0.48648047866E+01  0.26446693980E+01 -0.15629503711E+02  0.16581374743E+02  0.51100000000E-03 0. -1.
        -11    1    3    3    0    0 -0.33216836177E+00 -0.14933563161E+01 -0.34788932264E+01  0.38004140892E+01  0.51100000000E-03 0.  1.
        -12    1    3    3    0    0  0.82861900472E+01  0.16028279745E+02 -0.20627500696E+02  0.27405482701E+02  0.00000000000E+00 0.  1.
</event>
<event>
 7    1  0.2492468E-009  0.4778727E+02  0.7816164E-02  0.1312668E+00
        -11   -1    0    0    0    0  0.00000000000E+00  0.00000000000E+00  0.45593999997E+02  0.45594000000E+02  0.51100000000E-03 0.  1.
         11   -1    0    0    0    0 -0.00000000000E+00 -0.00000000000E+00 -0.45593999997E+02  0.45594000000E+02  0.51100000000E-03 0. -1.
    9900012    2    1    2    0    0 -0.41696042407E+02 -0.83937950653E+01 -0.86375799085E+01  0.47787268040E+02  0.19999986300E+02 0.  0.
         12    1    1    2    0    0  0.41696042407E+02  0.83937950653E+01  0.86375799085E+01  0.43400731960E+02  0.00000000000E+00 0. -1.
         11    1    3    3    0    0 -0.22534081625E+02 -0.67290669284E+01 -0.50575306786E+01  0.24055015968E+02  0.51100000000E-03 0. -1.
        -11    1    3    3    0    0 -0.18401694290E+02 -0.29125466992E+01  0.12630540605E+01  0.18673526364E+02  0.51100000000E-03 0.  1.
         12    1    3    3    0    0 -0.76026649164E+00  0.12478185623E+01 -0.48431032905E+01  0.50587257076E+01  0.00000000000E+00 0. -1.
</event>
<event>
 7    1  0.2492468E-009  0.4778727E+02  0.7816164E-02  0.1312668E+00
        -11   -1    0    0    0    0  0.00000000000E+00  0.00000000000E+00  0.45593999997E+02  0.45594000000E+02  0.51100000000E-03 0.  1.
         11   -1    0    0    0    0 -0.00000000000E+00 -0.00000000000E+00 -0.45593999997E+02  0.45594000000E+02  0.51100000000E-03 0. -1.
    9900012    2    1    2    0    0 -0.12008978689E+02 -0.15495528517E+02  0.38720747520E+02  0.47787271185E+02  0.20000000640E+02 0.  0.
         12    1    1    2    0    0  0.12008978689E+02  0.15495528517E+02 -0.38720747520E+02  0.43400728815E+02  0.00000000000E+00 0. -1.
         11    1    3    3    0    0  0.63853353234E+00  0.17724046068E+00  0.10249586349E+01  0.12205243616E+01  0.51100000000E-03 0. -1.
        -11    1    3    3    0    0 -0.98436866502E+01 -0.15782073545E+01  0.56808117584E+01  0.11474342152E+02  0.51100000000E-03 0.  1.
        -12    1    3    3    0    0 -0.28038255713E+01 -0.14094561623E+02  0.32014977127E+02  0.35092404671E+02  0.00000000000E+00 0.  1.
</event>
<event>
 7    1  0.2492468E-009  0.4778727E+02  0.7816164E-02  0.1312668E+00
        -11   -1    0    0    0    0  0.00000000000E+00  0.00000000000E+00  0.45593999997E+02  0.45594000000E+02  0.51100000000E-03 0.  1.
         11   -1    0    0    0    0 -0.00000000000E+00 -0.00000000000E+00 -0.45593999997E+02  0.45594000000E+02  0.51100000000E-03 0. -1.
    9900012    2    1    2    0    0 -0.46522867326E+01 -0.13935089019E+02  0.40838619433E+02  0.47787270570E+02  0.19999997838E+02 0.  0.
         12    1    1    2    0    0  0.46522867326E+01  0.13935089019E+02 -0.40838619433E+02  0.43400729430E+02  0.00000000000E+00 0. -1.
         11    1    3    3    0    0 -0.36076628571E+01  0.77680842934E+00  0.12454840007E+01  0.38948547192E+01  0.51100000000E-03 0. -1.
        -11    1    3    3    0    0 -0.16067704974E+01 -0.13463802119E+00  0.16492588769E+02  0.16571219731E+02  0.51100000000E-03 0.  1.
        -12    1    3    3    0    0  0.56214662182E+00 -0.14577259427E+02  0.23100546664E+02  0.27321196120E+02  0.00000000000E+00 0.  1.
</event>
<event>
 7    1  0.2492468E-009  0.4778727E+02  0.7816164E-02  0.1312668E+00
        -11   -1    0    0    0    0  0.00000000000E+00  0.00000000000E+00  0.45593999997E+02  0.45594000000E+02  0.51100000000E-03 0. -1.
         11   -1    0    0    0    0 -0.00000000000E+00 -0.00000000000E+00 -0.45593999997E+02  0.45594000000E+02  0.51100000000E-03 0.  1.
    9900012    2    1    2    0    0 -0.38463777651E+02 -0.46199296735E+01 -0.19565718266E+02  0.47787271059E+02  0.20000000067E+02 0.  0.
         12    1    1    2    0    0  0.38463777651E+02  0.46199296735E+01  0.19565718266E+02  0.43400728941E+02  0.00000000000E+00 0. -1.
         11    1    3    3    0    0 -0.10707526121E+02 -0.31833171731E+01  0.25553980239E+00  0.11173626301E+02  0.51100000000E-03 0. -1.
        -11    1    3    3    0    0 -0.20993751917E+02 -0.52294411531E+01 -0.93130356368E+01  0.23554560224E+02  0.51100000000E-03 0.  1.
        -12    1    3    3    0    0 -0.67624996130E+01  0.37928286527E+01 -0.10508222432E+02  0.13059084534E+02  0.00000000000E+00 0.  1.
</event>
<event>
 7    1  0.2492468E-009  0.4778728E+02  0.7816164E-02  0.1312668E+00
        -11   -1    0    0    0    0  0.00000000000E+00  0.00000000000E+00  0.45593999997E+02  0.45594000000E+02  0.51100000000E-03 0.  1.
         11   -1    0    0    0    0 -0.00000000000E+00 -0.00000000000E+00 -0.45593999997E+02  0.45594000000E+02  0.51100000000E-03 0. -1.
    9900012    2    1    2    0    0 -0.30717185580E+01 -0.28194412580E+02  0.32852131479E+02  0.47787275370E+02  0.20000019724E+02 0.  0.
         12    1    1    2    0    0  0.30717185580E+01  0.28194412580E+02 -0.32852131479E+02  0.43400724630E+02  0.00000000000E+00 0. -1.
         11    1    3    3    0    0 -0.61403338504E+01 -0.24755581484E+01  0.14614232037E+01  0.67799591431E+01  0.51100000000E-03 0. -1.
        -11    1    3    3    0    0  0.27171631392E+01 -0.55527305537E+01  0.82810079014E+01  0.10333967498E+02  0.51100000000E-03 0.  1.
        -12    1    3    3    0    0  0.35145215315E+00 -0.20166123878E+02  0.23109700374E+02  0.30673348729E+02  0.00000000000E+00 0.  1.
</event>
<event>
 7    1  0.2492468E-009  0.4778727E+02  0.7816164E-02  0.1312668E+00
        -11   -1    0    0    0    0  0.00000000000E+00  0.00000000000E+00  0.45593999997E+02  0.45594000000E+02  0.51100000000E-03 0. -1.
         11   -1    0    0    0    0 -0.00000000000E+00 -0.00000000000E+00 -0.45593999997E+02  0.45594000000E+02  0.51100000000E-03 0.  1.
    9900012    2    1    2    0    0 -0.13687628994E+02  0.20209611573E+02 -0.35886534488E+02  0.47787274833E+02  0.20000017275E+02 0.  0.
         12    1    1    2    0    0  0.13687628994E+02 -0.20209611573E+02  0.35886534488E+02  0.43400725167E+02  0.00000000000E+00 0. -1.
         11    1    3    3    0    0 -0.46694937613E+00  0.69283897729E+01 -0.91534764684E+01  0.11489419406E+02  0.51100000000E-03 0. -1.
        -11    1    3    3    0    0 -0.71176440318E+01  0.16050555485E+02 -0.16695450547E+02  0.24228480290E+02  0.51100000000E-03 0.  1.
         12    1    3    3    0    0 -0.61030355863E+01 -0.27693336849E+01 -0.10037607473E+02  0.12069375137E+02  0.00000000000E+00 0. -1.
</event>
<event>
 7    1  0.2492468E-009  0.4778721E+02  0.7816164E-02  0.1312668E+00
        -11   -1    0    0    0    0  0.00000000000E+00  0.00000000000E+00  0.45593999997E+02  0.45594000000E+02  0.51100000000E-03 0. -1.
         11   -1    0    0    0    0 -0.00000000000E+00 -0.00000000000E+00 -0.45593999997E+02  0.45594000000E+02  0.51100000000E-03 0.  1.
    9900012    2    1    2    0    0 -0.40771082411E+02  0.13602360404E+02 -0.60268652527E+01  0.47787211133E+02  0.19999726836E+02 0.  0.
         12    1    1    2    0    0  0.40771082411E+02 -0.13602360404E+02  0.60268652527E+01  0.43400788867E+02  0.00000000000E+00 0. -1.
         11    1    3    3    0    0 -0.26115092101E+02  0.21884670722E+01 -0.35835570025E+01  0.26450506699E+02  0.51100000000E-03 0.  1.
        -11    1    3    3    0    0 -0.45184851699E+00  0.20526937907E+01  0.28313873184E+01  0.35262548531E+01  0.51100000000E-03 0. -1.
        -12    1    3    3    0    0 -0.14204141794E+02  0.93611995406E+01 -0.52746955686E+01  0.17810449581E+02  0.00000000000E+00 0.  1.
</event>
<event>
 7    1  0.2492468E-009  0.4778727E+02  0.7816164E-02  0.1312668E+00
        -11   -1    0    0    0    0  0.00000000000E+00  0.00000000000E+00  0.45593999997E+02  0.45594000000E+02  0.51100000000E-03 0.  1.
         11   -1    0    0    0    0 -0.00000000000E+00 -0.00000000000E+00 -0.45593999997E+02  0.45594000000E+02  0.51100000000E-03 0. -1.
    9900012    2    1    2    0    0  0.12178729062E+02 -0.38722338303E+02  0.15358459273E+02  0.47787271936E+02  0.20000004065E+02 0.  0.
         12    1    1    2    0    0 -0.12178729062E+02  0.38722338303E+02 -0.15358459273E+02  0.43400728064E+02  0.00000000000E+00 0. -1.
         11    1    3    3    0    0 -0.36809293123E+01 -0.65816403031E+01  0.18576720042E+01  0.77664776584E+01  0.51100000000E-03 0.  1.
        -11    1    3    3    0    0  0.18329429702E+01 -0.77520017536E+01  0.81226209433E+01  0.11376738653E+02  0.51100000000E-03 0. -1.
         12    1    3    3    0    0  0.14026715404E+02 -0.24388696246E+02  0.53781663259E+01  0.28644055625E+02  0.00000000000E+00 0. -1.
</event>
<event>
 7    1  0.2492468E-009  0.4778727E+02  0.7816164E-02  0.1312668E+00
        -11   -1    0    0    0    0  0.00000000000E+00  0.00000000000E+00  0.45593999997E+02  0.45594000000E+02  0.51100000000E-03 0. -1.
         11   -1    0    0    0    0 -0.00000000000E+00 -0.00000000000E+00 -0.45593999997E+02  0.45594000000E+02  0.51100000000E-03 0.  1.
    9900012    2    1    2    0    0 -0.33614441198E+02 -0.49638344328E+01 -0.27000985623E+02  0.47787268048E+02  0.19999986338E+02 0.  0.
         12    1    1    2    0    0  0.33614441198E+02  0.49638344328E+01  0.27000985623E+02  0.43400731952E+02  0.00000000000E+00 0. -1.
         11    1    3    3    0    0 -0.25604224438E+01 -0.37377092487E+01 -0.61123585352E+01  0.76083612324E+01  0.51100000000E-03 0. -1.
        -11    1    3    3    0    0 -0.34668267298E+00  0.32344380358E+01 -0.25680171765E+01  0.41444530113E+01  0.51100000000E-03 0.  1.
         12    1    3    3    0    0 -0.30707336081E+02 -0.44605632199E+01 -0.18320609911E+02  0.36034453804E+02  0.00000000000E+00 0. -1.
</event>
<event>
 7    1  0.2492468E-009  0.4778727E+02  0.7816164E-02  0.1312668E+00
        -11   -1    0    0    0    0  0.00000000000E+00  0.00000000000E+00  0.45593999997E+02  0.45594000000E+02  0.51100000000E-03 0.  1.
         11   -1    0    0    0    0 -0.00000000000E+00 -0.00000000000E+00 -0.45593999997E+02  0.45594000000E+02  0.51100000000E-03 0. -1.
    9900012    2    1    2    0    0  0.57373254010E+01 -0.37821904663E+02  0.20499017593E+02  0.47787273078E+02  0.20000009271E+02 0.  0.
         12    1    1    2    0    0 -0.57373254010E+01  0.37821904663E+02 -0.20499017593E+02  0.43400726922E+02  0.00000000000E+00 0. -1.
         11    1    3    3    0    0  0.18513308703E+01 -0.88619937837E+01  0.18705581924E+01  0.92445307088E+01  0.51100000000E-03 0. -1.
        -11    1    3    3    0    0  0.48702402180E+01 -0.21320028004E+02  0.21163980198E+02  0.30433154485E+02  0.51100000000E-03 0.  1.
        -12    1    3    3    0    0 -0.98424568725E+00 -0.76398828757E+01 -0.25355207975E+01  0.81095878836E+01  0.00000000000E+00 0.  1.
</event>
<event>
 7    1  0.2492468E-009  0.4778727E+02  0.7816164E-02  0.1312668E+00
        -11   -1    0    0    0    0  0.00000000000E+00  0.00000000000E+00  0.45593999997E+02  0.45594000000E+02  0.51100000000E-03 0. -1.
         11   -1    0    0    0    0 -0.00000000000E+00 -0.00000000000E+00 -0.45593999997E+02  0.45594000000E+02  0.51100000000E-03 0.  1.
    9900012    2    1    2    0    0 -0.14593688149E+02 -0.38107413751E+02 -0.14780821278E+02  0.47787269658E+02  0.19999993678E+02 0.  0.
         12    1    1    2    0    0  0.14593688149E+02  0.38107413751E+02  0.14780821278E+02  0.43400730342E+02  0.00000000000E+00 0. -1.
         11    1    3    3    0    0 -0.69117101123E+01 -0.56567426321E+01  0.15805602176E+01  0.90702064334E+01  0.51100000000E-03 0. -1.
        -11    1    3    3    0    0 -0.36495279915E+01 -0.68370748274E+01 -0.87610452661E+01  0.11697032152E+02  0.51100000000E-03 0.  1.
        -12    1    3    3    0    0 -0.40324500455E+01 -0.25613596291E+02 -0.76003362293E+01  0.27020031072E+02  0.00000000000E+00 0.  1.
</event>
<event>
 7    1  0.2492468E-009  0.4778727E+02  0.7816164E-02  0.1312668E+00
        -11   -1    0    0    0    0  0.00000000000E+00  0.00000000000E+00  0.45593999997E+02  0.45594000000E+02  0.51100000000E-03 0.  1.
         11   -1    0    0    0    0 -0.00000000000E+00 -0.00000000000E+00 -0.45593999997E+02  0.45594000000E+02  0.51100000000E-03 0. -1.
    9900012    2    1    2    0    0 -0.49952459857E+01 -0.20168179775E+00  0.43111831947E+02  0.47787271760E+02  0.20000003261E+02 0.  0.
         12    1    1    2    0    0  0.49952459857E+01  0.20168179775E+00 -0.43111831947E+02  0.43400728240E+02  0.00000000000E+00 0. -1.
         11    1    3    3    0    0  0.49316655498E+00  0.71352971330E+00  0.11985536461E+01  0.14794826820E+01  0.51100000000E-03 0. -1.
        -11    1    3    3    0    0 -0.84683392912E+01 -0.72862452036E+01  0.33652586713E+02  0.35458408484E+02  0.51100000000E-03 0.  1.
        -12    1    3    3    0    0  0.29799267505E+01  0.63710336925E+01  0.82606915879E+01  0.10849380593E+02  0.00000000000E+00 0.  1.
</event>
<event>
 7    1  0.2492468E-009  0.4778727E+02  0.7816164E-02  0.1312668E+00
        -11   -1    0    0    0    0  0.00000000000E+00  0.00000000000E+00  0.45593999997E+02  0.45594000000E+02  0.51100000000E-03 0.  1.
         11   -1    0    0    0    0 -0.00000000000E+00 -0.00000000000E+00 -0.45593999997E+02  0.45594000000E+02  0.51100000000E-03 0. -1.
    9900012    2    1    2    0    0 -0.28690112775E+02  0.25196098306E+02  0.20631467021E+02  0.47787269910E+02  0.19999994830E+02 0.  0.
         12    1    1    2    0    0  0.28690112775E+02 -0.25196098306E+02 -0.20631467021E+02  0.43400730090E+02  0.00000000000E+00 0. -1.
         11    1    3    3    0    0 -0.23167832738E+01  0.10479216919E+02  0.32585525742E+01  0.11216043737E+02  0.51100000000E-03 0. -1.
        -11    1    3    3    0    0 -0.49786401761E+01  0.76670882932E+01  0.21730309545E+01  0.93964442578E+01  0.51100000000E-03 0.  1.
        -12    1    3    3    0    0 -0.21394689325E+02  0.70497930938E+01  0.15199883492E+02  0.27174781915E+02  0.00000000000E+00 0.  1.
</event>
<event>
 7    1  0.2492468E-009  0.4778727E+02  0.7816164E-02  0.1312668E+00
        -11   -1    0    0    0    0  0.00000000000E+00  0.00000000000E+00  0.45593999997E+02  0.45594000000E+02  0.51100000000E-03 0.  1.
         11   -1    0    0    0    0 -0.00000000000E+00 -0.00000000000E+00 -0.45593999997E+02  0.45594000000E+02  0.51100000000E-03 0. -1.
    9900012    2    1    2    0    0 -0.10145764228E+02  0.25894675158E+02  0.33318953075E+02  0.47787269968E+02  0.19999995092E+02 0.  0.
         12    1    1    2    0    0  0.10145764228E+02 -0.25894675158E+02 -0.33318953075E+02  0.43400730032E+02  0.00000000000E+00 0. -1.
         11    1    3    3    0    0 -0.42938935304E+00 -0.98435055531E+00  0.53970238007E+00  0.12019152018E+01  0.51100000000E-03 0. -1.
        -11    1    3    3    0    0 -0.18544675780E+01  0.20260992449E+02  0.12576034076E+02  0.23918685131E+02  0.51100000000E-03 0.  1.
        -12    1    3    3    0    0 -0.78619072968E+01  0.66180332645E+01  0.20203216618E+02  0.22666669635E+02  0.00000000000E+00 0.  1.
</event>
<event>
 7    1  0.2492468E-009  0.4778727E+02  0.7816164E-02  0.1312668E+00
        -11   -1    0    0    0    0  0.00000000000E+00  0.00000000000E+00  0.45593999997E+02  0.45594000000E+02  0.51100000000E-03 0. -1.
         11   -1    0    0    0    0 -0.00000000000E+00 -0.00000000000E+00 -0.45593999997E+02  0.45594000000E+02  0.51100000000E-03 0.  1.
    9900012    2    1    2    0    0  0.28796954868E+02  0.27944823462E+02 -0.16536190388E+02  0.47787270046E+02  0.19999995448E+02 0.  0.
         12    1    1    2    0    0 -0.28796954868E+02 -0.27944823462E+02  0.16536190388E+02  0.43400729954E+02  0.00000000000E+00 0. -1.
         11    1    3    3    0    0  0.76044783122E+01  0.67244895943E+01  0.16099241742E+01  0.10278069216E+02  0.51100000000E-03 0. -1.
        -11    1    3    3    0    0  0.10666423215E+01  0.27954892062E+01  0.19937725027E+01  0.35954992418E+01  0.51100000000E-03 0.  1.
        -12    1    3    3    0    0  0.20125834234E+02  0.18424844661E+02 -0.20139887065E+02  0.33913701588E+02  0.00000000000E+00 0.  1.
</event>
<event>
 7    1  0.2492468E-009  0.4778727E+02  0.7816164E-02  0.1312668E+00
        -11   -1    0    0    0    0  0.00000000000E+00  0.00000000000E+00  0.45593999997E+02  0.45594000000E+02  0.51100000000E-03 0.  1.
         11   -1    0    0    0    0 -0.00000000000E+00 -0.00000000000E+00 -0.45593999997E+02  0.45594000000E+02  0.51100000000E-03 0. -1.
    9900012    2    1    2    0    0  0.17023413679E+02 -0.29200598851E+02  0.27224104370E+02  0.47787269070E+02  0.19999990998E+02 0.  0.
         12    1    1    2    0    0 -0.17023413679E+02  0.29200598851E+02 -0.27224104370E+02  0.43400730930E+02  0.00000000000E+00 0. -1.
         11    1    3    3    0    0  0.44779211893E+01 -0.76623788266E+00  0.64165005149E+01  0.78619576309E+01  0.51100000000E-03 0. -1.
        -11    1    3    3    0    0  0.75160953204E+01 -0.36252787029E+01  0.25889779349E+01  0.87371128840E+01  0.51100000000E-03 0.  1.
        -12    1    3    3    0    0  0.50293971695E+01 -0.24809082265E+02  0.18218625920E+02  0.31188198555E+02  0.00000000000E+00 0.  1.
</event>
<event>
 7    1  0.2492468E-009  0.4778727E+02  0.7816164E-02  0.1312668E+00
        -11   -1    0    0    0    0  0.00000000000E+00  0.00000000000E+00  0.45593999997E+02  0.45594000000E+02  0.51100000000E-03 0.  1.
         11   -1    0    0    0    0 -0.00000000000E+00 -0.00000000000E+00 -0.45593999997E+02  0.45594000000E+02  0.51100000000E-03 0. -1.
    9900012    2    1    2    0    0  0.10109057040E+02  0.28264862677E+02  0.31345299067E+02  0.47787271089E+02  0.20000000205E+02 0.  0.
         12    1    1    2    0    0 -0.10109057040E+02 -0.28264862677E+02 -0.31345299067E+02  0.43400728911E+02  0.00000000000E+00 0. -1.
         11    1    3    3    0    0 -0.99166550075E+00  0.32532815531E+01  0.31705104245E+01  0.46496642827E+01  0.51100000000E-03 0. -1.
        -11    1    3    3    0    0  0.97730460515E+01  0.38656856574E+01  0.14544910275E+02  0.17944647389E+02  0.51100000000E-03 0.  1.
        -12    1    3    3    0    0  0.13276764893E+01  0.21145895466E+02  0.13629878367E+02  0.25192959418E+02  0.00000000000E+00 0.  1.
</event>
<event>
 7    1  0.2492468E-009  0.4778726E+02  0.7816164E-02  0.1312668E+00
        -11   -1    0    0    0    0  0.00000000000E+00  0.00000000000E+00  0.45593999997E+02  0.45594000000E+02  0.51100000000E-03 0.  1.
         11   -1    0    0    0    0 -0.00000000000E+00 -0.00000000000E+00 -0.45593999997E+02  0.45594000000E+02  0.51100000000E-03 0. -1.
    9900012    2    1    2    0    0  0.90359326221E+01  0.21061959495E+02  0.36856066833E+02  0.47787264079E+02  0.19999968242E+02 0.  0.
         12    1    1    2    0    0 -0.90359326221E+01 -0.21061959495E+02 -0.36856066833E+02  0.43400735921E+02  0.00000000000E+00 0. -1.
         11    1    3    3    0    0  0.96643777586E+01  0.10179678040E+02  0.19665128808E+02  0.24160780901E+02  0.51100000000E-03 0. -1.
        -11    1    3    3    0    0  0.54722521219E+01  0.71935303324E+01  0.10428134110E+02  0.13799942145E+02  0.51100000000E-03 0.  1.
        -12    1    3    3    0    0 -0.61006972584E+01  0.36887511224E+01  0.67628039148E+01  0.98265410329E+01  0.00000000000E+00 0.  1.
</event>
<event>
 7    1  0.2492468E-009  0.4778724E+02  0.7816164E-02  0.1312668E+00
        -11   -1    0    0    0    0  0.00000000000E+00  0.00000000000E+00  0.45593999997E+02  0.45594000000E+02  0.51100000000E-03 0.  1.
         11   -1    0    0    0    0 -0.00000000000E+00 -0.00000000000E+00 -0.45593999997E+02  0.45594000000E+02  0.51100000000E-03 0. -1.
    9900012    2    1    2    0    0  0.24695452158E+02 -0.71709182395E+01  0.34961953245E+02  0.47787244242E+02  0.19999877797E+02 0.  0.
         12    1    1    2    0    0 -0.24695452158E+02  0.71709182395E+01 -0.34961953245E+02  0.43400755758E+02  0.00000000000E+00 0. -1.
         11    1    3    3    0    0 -0.13496425173E+01  0.80408242507E+00  0.20142259747E+01  0.25544451470E+01  0.51100000000E-03 0. -1.
        -11    1    3    3    0    0  0.88610378674E+01 -0.96731167551E+01  0.99034052745E+01  0.16436685071E+02  0.51100000000E-03 0.  1.
         12    1    3    3    0    0  0.17184056808E+02  0.16981160905E+01  0.23044321996E+02  0.28796114024E+02  0.00000000000E+00 0. -1.
</event>
<event>
 7    1  0.2492468E-009  0.4778727E+02  0.7816164E-02  0.1312668E+00
        -11   -1    0    0    0    0  0.00000000000E+00  0.00000000000E+00  0.45593999997E+02  0.45594000000E+02  0.51100000000E-03 0.  1.
         11   -1    0    0    0    0 -0.00000000000E+00 -0.00000000000E+00 -0.45593999997E+02  0.45594000000E+02  0.51100000000E-03 0. -1.
    9900012    2    1    2    0    0 -0.29081123241E+01 -0.16097102507E+02  0.40200117042E+02  0.47787271474E+02  0.20000001959E+02 0.  0.
         12    1    1    2    0    0  0.29081123241E+01  0.16097102507E+02 -0.40200117042E+02  0.43400728526E+02  0.00000000000E+00 0. -1.
         11    1    3    3    0    0 -0.50478682527E+01 -0.21676091528E+01  0.24224073248E+01  0.60039620955E+01  0.51100000000E-03 0. -1.
        -11    1    3    3    0    0 -0.34853755775E+01 -0.10805857990E+02  0.22382090663E+02  0.25097258666E+02  0.51100000000E-03 0.  1.
        -12    1    3    3    0    0  0.56251315060E+01 -0.31236353640E+01  0.15395619054E+02  0.16686050713E+02  0.00000000000E+00 0.  1.
</event>
<event>
 7    1  0.2492468E-009  0.4778726E+02  0.7816164E-02  0.1312668E+00
        -11   -1    0    0    0    0  0.00000000000E+00  0.00000000000E+00  0.45593999997E+02  0.45594000000E+02  0.51100000000E-03 0.  1.
         11   -1    0    0    0    0 -0.00000000000E+00 -0.00000000000E+00 -0.45593999997E+02  0.45594000000E+02  0.51100000000E-03 0. -1.
    9900012    2    1    2    0    0 -0.17997189634E+02 -0.83783177489E+01  0.38594414751E+02  0.47787263912E+02  0.19999967482E+02 0.  0.
         12    1    1    2    0    0  0.17997189634E+02  0.83783177489E+01 -0.38594414751E+02  0.43400736088E+02  0.00000000000E+00 0. -1.
         11    1    3    3    0    0 -0.85032828855E+01 -0.57932676868E+01  0.57908341661E+01  0.11806842547E+02  0.51100000000E-03 0.  1.
        -11    1    3    3    0    0  0.13185616493E+01  0.21014443911E+01  0.27750055085E+01  0.37222747326E+01  0.51100000000E-03 0. -1.
        -12    1    3    3    0    0 -0.10812468398E+02 -0.46864944532E+01  0.30028575076E+02  0.32258146633E+02  0.00000000000E+00 0.  1.
</event>
<event>
 7    1  0.2492468E-009  0.4778727E+02  0.7816164E-02  0.1312668E+00
        -11   -1    0    0    0    0  0.00000000000E+00  0.00000000000E+00  0.45593999997E+02  0.45594000000E+02  0.51100000000E-03 0.  1.
         11   -1    0    0    0    0 -0.00000000000E+00 -0.00000000000E+00 -0.45593999997E+02  0.45594000000E+02  0.51100000000E-03 0. -1.
    9900012    2    1    2    0    0 -0.18269130373E+02  0.43171074861E+01  0.39130866681E+02  0.47787271102E+02  0.20000000264E+02 0.  0.
         12    1    1    2    0    0  0.18269130373E+02 -0.43171074861E+01 -0.39130866681E+02  0.43400728898E+02  0.00000000000E+00 0. -1.
         11    1    3    3    0    0 -0.83526296746E+01 -0.29817580567E+01  0.27686402130E+02  0.29072223286E+02  0.51100000000E-03 0. -1.
        -11    1    3    3    0    0 -0.27647694456E+01  0.88708727646E+00  0.80006168994E+01  0.85112128957E+01  0.51100000000E-03 0.  1.
        -12    1    3    3    0    0 -0.71517312523E+01  0.64117782663E+01  0.34438476515E+01  0.10203834921E+02  0.00000000000E+00 0.  1.
</event>
<event>
 7    1  0.2492468E-009  0.4778726E+02  0.7816164E-02  0.1312668E+00
        -11   -1    0    0    0    0  0.00000000000E+00  0.00000000000E+00  0.45593999997E+02  0.45594000000E+02  0.51100000000E-03 0.  1.
         11   -1    0    0    0    0 -0.00000000000E+00 -0.00000000000E+00 -0.45593999997E+02  0.45594000000E+02  0.51100000000E-03 0. -1.
    9900012    2    1    2    0    0 -0.30609692947E+02  0.27745264727E+02  0.13299279368E+02  0.47787264421E+02  0.19999969800E+02 0.  0.
         12    1    1    2    0    0  0.30609692947E+02 -0.27745264727E+02 -0.13299279368E+02  0.43400735579E+02  0.00000000000E+00 0. -1.
         11    1    3    3    0    0 -0.59341715002E+01  0.11836135141E+02 -0.14452496678E+01  0.13319055272E+02  0.51100000000E-03 0. -1.
        -11    1    3    3    0    0 -0.57598193782E+01  0.10269541936E+01 -0.66696386387E+00  0.58885478041E+01  0.51100000000E-03 0.  1.
        -12    1    3    3    0    0 -0.18915702069E+02  0.14882175392E+02  0.15411492900E+02  0.28579661344E+02  0.00000000000E+00 0.  1.
</event>
<event>
 7    1  0.2492468E-009  0.4778724E+02  0.7816164E-02  0.1312668E+00
        -11   -1    0    0    0    0  0.00000000000E+00  0.00000000000E+00  0.45593999997E+02  0.45594000000E+02  0.51100000000E-03 0.  1.
         11   -1    0    0    0    0 -0.00000000000E+00 -0.00000000000E+00 -0.45593999997E+02  0.45594000000E+02  0.51100000000E-03 0. -1.
    9900012    2    1    2    0    0  0.11040436977E+02  0.30681531853E+02  0.28642242189E+02  0.47787243289E+02  0.19999873451E+02 0.  0.
         12    1    1    2    0    0 -0.11040436977E+02 -0.30681531853E+02 -0.28642242189E+02  0.43400756711E+02  0.00000000000E+00 0. -1.
         11    1    3    3    0    0  0.26406459679E+01  0.68637924812E+01  0.16040039132E+01  0.75271167898E+01  0.51100000000E-03 0. -1.
        -11    1    3    3    0    0  0.42160442772E+01  0.21654858449E+02  0.13354554730E+02  0.25788603221E+02  0.51100000000E-03 0.  1.
         12    1    3    3    0    0  0.41837467317E+01  0.21628809226E+01  0.13683683545E+02  0.14471523278E+02  0.00000000000E+00 0. -1.
</event>
<event>
 7    1  0.2492468E-009  0.4778727E+02  0.7816164E-02  0.1312668E+00
        -11   -1    0    0    0    0  0.00000000000E+00  0.00000000000E+00  0.45593999997E+02  0.45594000000E+02  0.51100000000E-03 0. -1.
         11   -1    0    0    0    0 -0.00000000000E+00 -0.00000000000E+00 -0.45593999997E+02  0.45594000000E+02  0.51100000000E-03 0.  1.
    9900012    2    1    2    0    0 -0.33959143260E+02 -0.73068421658E+01  0.26019412413E+02  0.47787272175E+02  0.20000005155E+02 0.  0.
         12    1    1    2    0    0  0.33959143260E+02  0.73068421658E+01 -0.26019412413E+02  0.43400727825E+02  0.00000000000E+00 0. -1.
         11    1    3    3    0    0 -0.27317348926E+01  0.19911214728E+01  0.24053966893E+01  0.41488400472E+01  0.51100000000E-03 0. -1.
        -11    1    3    3    0    0 -0.25073526216E+01  0.42275889919E+01  0.25194974073E+01  0.55233317210E+01  0.51100000000E-03 0.  1.
        -12    1    3    3    0    0 -0.28720055746E+02 -0.13525552631E+02  0.21094518317E+02  0.38115100407E+02  0.00000000000E+00 0.  1.
</event>
<event>
 7    1  0.2492468E-009  0.4778727E+02  0.7816164E-02  0.1312668E+00
        -11   -1    0    0    0    0  0.00000000000E+00  0.00000000000E+00  0.45593999997E+02  0.45594000000E+02  0.51100000000E-03 0.  1.
         11   -1    0    0    0    0 -0.00000000000E+00 -0.00000000000E+00 -0.45593999997E+02  0.45594000000E+02  0.51100000000E-03 0. -1.
    9900012    2    1    2    0    0 -0.25065070436E+02 -0.32420202362E+02  0.14293204434E+02  0.47787274543E+02  0.20000015952E+02 0.  0.
         12    1    1    2    0    0  0.25065070436E+02  0.32420202362E+02 -0.14293204434E+02  0.43400725457E+02  0.00000000000E+00 0. -1.
         11    1    3    3    0    0 -0.98533273997E+01 -0.49872916315E+01  0.31283709542E+01  0.11478146355E+02  0.51100000000E-03 0. -1.
        -11    1    3    3    0    0 -0.13134835870E+02 -0.21565842793E+02  0.21334399969E+01  0.25340896890E+02  0.51100000000E-03 0.  1.
         12    1    3    3    0    0 -0.20769071665E+01 -0.58670679381E+01  0.90313934830E+01  0.10968231298E+02  0.00000000000E+00 0. -1.
</event>
<event>
 7    1  0.2700856E-009  0.4778727E+02  0.7816164E-02  0.1312668E+00
        -11   -1    0    0    0    0  0.00000000000E+00  0.00000000000E+00  0.45593999997E+02  0.45594000000E+02  0.51100000000E-03 0. -1.
         11   -1    0    0    0    0 -0.00000000000E+00 -0.00000000000E+00 -0.45593999997E+02  0.45594000000E+02  0.51100000000E-03 0.  1.
    9900012    2    1    2    0    0  0.87666822884E+01 -0.38525696022E+02  0.17959387215E+02  0.47787267731E+02  0.19999984895E+02 0.  0.
         12    1    1    2    0    0 -0.87666822884E+01  0.38525696022E+02 -0.17959387215E+02  0.43400732269E+02  0.00000000000E+00 0. -1.
         11    1    3    3    0    0 -0.13994412573E+01 -0.16416623166E+02  0.10708302331E+02  0.19650233869E+02  0.51100000000E-03 0. -1.
        -11    1    3    3    0    0  0.40037906772E+01 -0.20220675713E+02  0.43412525336E+01  0.21065434719E+02  0.51100000000E-03 0.  1.
         12    1    3    3    0    0  0.61623328684E+01 -0.18883971428E+01  0.29098323505E+01  0.70715991443E+01  0.00000000000E+00 0. -1.
</event>
<event>
 7    1  0.2492468E-009  0.4778727E+02  0.7816164E-02  0.1312668E+00
        -11   -1    0    0    0    0  0.00000000000E+00  0.00000000000E+00  0.45593999997E+02  0.45594000000E+02  0.51100000000E-03 0.  1.
         11   -1    0    0    0    0 -0.00000000000E+00 -0.00000000000E+00 -0.45593999997E+02  0.45594000000E+02  0.51100000000E-03 0. -1.
    9900012    2    1    2    0    0  0.12408544754E+02 -0.58505138534E+01  0.41175512388E+02  0.47787270563E+02  0.19999997804E+02 0.  0.
         12    1    1    2    0    0 -0.12408544754E+02  0.58505138534E+01 -0.41175512388E+02  0.43400729437E+02  0.00000000000E+00 0. -1.
         11    1    3    3    0    0  0.76219090680E+01  0.19881775929E+01  0.13315237198E+02  0.15470678391E+02  0.51100000000E-03 0. -1.
        -11    1    3    3    0    0  0.87302272193E+01 -0.34383665057E+01  0.22339338914E+02  0.24229843064E+02  0.51100000000E-03 0.  1.
         12    1    3    3    0    0 -0.39435915335E+01 -0.44003249406E+01  0.55209362764E+01  0.80867491079E+01  0.00000000000E+00 0. -1.
</event>
<event>
 7    1  0.2492468E-009  0.4778727E+02  0.7816164E-02  0.1312668E+00
        -11   -1    0    0    0    0  0.00000000000E+00  0.00000000000E+00  0.45593999997E+02  0.45594000000E+02  0.51100000000E-03 0.  1.
         11   -1    0    0    0    0 -0.00000000000E+00 -0.00000000000E+00 -0.45593999997E+02  0.45594000000E+02  0.51100000000E-03 0. -1.
    9900012    2    1    2    0    0 -0.28561986486E+02 -0.14776563618E+02  0.29146005739E+02  0.47787267807E+02  0.19999985240E+02 0.  0.
         12    1    1    2    0    0  0.28561986486E+02  0.14776563618E+02 -0.29146005739E+02  0.43400732193E+02  0.00000000000E+00 0. -1.
         11    1    3    3    0    0 -0.53206243178E+01 -0.58554057999E+01  0.21471477063E+01  0.81978694638E+01  0.51100000000E-03 0. -1.
        -11    1    3    3    0    0 -0.21593929285E+02 -0.12344242822E+02  0.21336645455E+02  0.32770879640E+02  0.51100000000E-03 0.  1.
        -12    1    3    3    0    0 -0.16474328824E+01  0.34230850035E+01  0.56622125771E+01  0.68185187036E+01  0.00000000000E+00 0.  1.
</event>
<event>
 7    1  0.2492468E-009  0.4778727E+02  0.7816164E-02  0.1312668E+00
        -11   -1    0    0    0    0  0.00000000000E+00  0.00000000000E+00  0.45593999997E+02  0.45594000000E+02  0.51100000000E-03 0.  1.
         11   -1    0    0    0    0 -0.00000000000E+00 -0.00000000000E+00 -0.45593999997E+02  0.45594000000E+02  0.51100000000E-03 0. -1.
    9900012    2    1    2    0    0 -0.43211769528E+02 -0.39888112897E+01 -0.67511344935E+00  0.47787269367E+02  0.19999992353E+02 0.  0.
         12    1    1    2    0    0  0.43211769528E+02  0.39888112897E+01  0.67511344935E+00  0.43400730633E+02  0.00000000000E+00 0. -1.
         11    1    3    3    0    0 -0.10714950073E+02  0.10826123390E+01 -0.20882753216E+01  0.10970100210E+02  0.51100000000E-03 0. -1.
        -11    1    3    3    0    0 -0.28529178037E+02 -0.96946219446E+01  0.35969346825E+01  0.30345306614E+02  0.51100000000E-03 0.  1.
        -12    1    3    3    0    0 -0.39676414184E+01  0.46231983159E+01 -0.21837728102E+01  0.64718625433E+01  0.00000000000E+00 0.  1.
</event>
<event>
 7    1  0.2492468E-009  0.4778727E+02  0.7816164E-02  0.1312668E+00
        -11   -1    0    0    0    0  0.00000000000E+00  0.00000000000E+00  0.45593999997E+02  0.45594000000E+02  0.51100000000E-03 0. -1.
         11   -1    0    0    0    0 -0.00000000000E+00 -0.00000000000E+00 -0.45593999997E+02  0.45594000000E+02  0.51100000000E-03 0.  1.
    9900012    2    1    2    0    0 -0.71113368406E+01  0.13725903227E+02 -0.40554304437E+02  0.47787272593E+02  0.20000007062E+02 0.  0.
         12    1    1    2    0    0  0.71113368406E+01 -0.13725903227E+02  0.40554304437E+02  0.43400727407E+02  0.00000000000E+00 0. -1.
         11    1    3    3    0    0 -0.93675489475E+01 -0.28995917190E+00 -0.10550558544E+02  0.14112028042E+02  0.51100000000E-03 0. -1.
        -11    1    3    3    0    0 -0.18502390745E+01  0.32110761678E+01 -0.64742095322E+01  0.74598782910E+01  0.51100000000E-03 0.  1.
         12    1    3    3    0    0  0.41064511815E+01  0.10804786231E+02 -0.23529536361E+02  0.26215366261E+02  0.00000000000E+00 0. -1.
</event>
<event>
 7    1  0.2492468E-009  0.4778727E+02  0.7816164E-02  0.1312668E+00
        -11   -1    0    0    0    0  0.00000000000E+00  0.00000000000E+00  0.45593999997E+02  0.45594000000E+02  0.51100000000E-03 0. -1.
         11   -1    0    0    0    0 -0.00000000000E+00 -0.00000000000E+00 -0.45593999997E+02  0.45594000000E+02  0.51100000000E-03 0.  1.
    9900012    2    1    2    0    0 -0.37653716052E+02 -0.21563961505E+02 -0.90362705563E+00  0.47787270626E+02  0.19999998094E+02 0.  0.
         12    1    1    2    0    0  0.37653716052E+02  0.21563961505E+02  0.90362705563E+00  0.43400729374E+02  0.00000000000E+00 0. -1.
         11    1    3    3    0    0 -0.49509468720E+01 -0.23182894478E+01  0.41648316247E+01  0.68725660140E+01  0.51100000000E-03 0. -1.
        -11    1    3    3    0    0 -0.78603335164E+01  0.13945424736E+01  0.10193734032E+01  0.80479012231E+01  0.51100000000E-03 0.  1.
         12    1    3    3    0    0 -0.24842435663E+02 -0.20640214530E+02 -0.60878320836E+01  0.32866803389E+02  0.00000000000E+00 0. -1.
</event>
<event>
 7    1  0.2492468E-009  0.4778728E+02  0.7816164E-02  0.1312668E+00
        -11   -1    0    0    0    0  0.00000000000E+00  0.00000000000E+00  0.45593999997E+02  0.45594000000E+02  0.51100000000E-03 0.  1.
         11   -1    0    0    0    0 -0.00000000000E+00 -0.00000000000E+00 -0.45593999997E+02  0.45594000000E+02  0.51100000000E-03 0. -1.
    9900012    2    1    2    0    0 -0.23647890337E+02  0.35000235657E+02  0.99691368371E+01  0.47787275320E+02  0.20000019494E+02 0.  0.
         12    1    1    2    0    0  0.23647890337E+02 -0.35000235657E+02 -0.99691368371E+01  0.43400724680E+02  0.00000000000E+00 0. -1.
         11    1    3    3    0    0 -0.71712535560E-01 -0.14268071012E-01  0.14592680553E+01  0.14610988276E+01  0.51100000000E-03 0. -1.
        -11    1    3    3    0    0 -0.15696670655E+02  0.28943375470E+02  0.13017149084E+02  0.35405516855E+02  0.51100000000E-03 0.  1.
        -12    1    3    3    0    0 -0.78795071462E+01  0.60711282583E+01 -0.45072803017E+01  0.10920659637E+02  0.00000000000E+00 0.  1.
</event>
<event>
 7    1  0.2492468E-009  0.4778728E+02  0.7816164E-02  0.1312668E+00
        -11   -1    0    0    0    0  0.00000000000E+00  0.00000000000E+00  0.45593999997E+02  0.45594000000E+02  0.51100000000E-03 0.  1.
         11   -1    0    0    0    0 -0.00000000000E+00 -0.00000000000E+00 -0.45593999997E+02  0.45594000000E+02  0.51100000000E-03 0. -1.
    9900012    2    1    2    0    0 -0.39981537178E+02  0.11199273705E+02  0.12636267751E+02  0.47787282157E+02  0.20000050665E+02 0.  0.
         12    1    1    2    0    0  0.39981537178E+02 -0.11199273705E+02 -0.12636267751E+02  0.43400717843E+02  0.00000000000E+00 0. -1.
         11    1    3    3    0    0 -0.15564587297E+02  0.63911670975E+01  0.60071435924E+00  0.16836396663E+02  0.51100000000E-03 0. -1.
        -11    1    3    3    0    0 -0.33318529132E+01 -0.27936850542E+01 -0.16940748768E+01  0.46664558250E+01  0.51100000000E-03 0.  1.
        -12    1    3    3    0    0 -0.21085096968E+02  0.76017916621E+01  0.13729628268E+02  0.26284429669E+02  0.00000000000E+00 0.  1.
</event>
<event>
 7    1  0.2492468E-009  0.4778727E+02  0.7816164E-02  0.1312668E+00
        -11   -1    0    0    0    0  0.00000000000E+00  0.00000000000E+00  0.45593999997E+02  0.45594000000E+02  0.51100000000E-03 0.  1.
         11   -1    0    0    0    0 -0.00000000000E+00 -0.00000000000E+00 -0.45593999997E+02  0.45594000000E+02  0.51100000000E-03 0. -1.
    9900012    2    1    2    0    0  0.41624273289E+02 -0.12282487399E+02  0.42872987128E+00  0.47787269213E+02  0.19999991649E+02 0.  0.
         12    1    1    2    0    0 -0.41624273289E+02  0.12282487399E+02 -0.42872987128E+00  0.43400730787E+02  0.00000000000E+00 0. -1.
         11    1    3    3    0    0  0.46039801791E+01 -0.43489395610E+01 -0.77083671673E+00  0.63799763558E+01  0.51100000000E-03 0. -1.
        -11    1    3    3    0    0  0.23391218258E+02 -0.69708552386E+01 -0.71018669421E+01  0.25420039903E+02  0.51100000000E-03 0.  1.
         12    1    3    3    0    0  0.13629074852E+02 -0.96269259958E+00  0.83014335301E+01  0.15987252954E+02  0.00000000000E+00 0. -1.
</event>
<event>
 7    1  0.2492468E-009  0.4778727E+02  0.7816164E-02  0.1312668E+00
        -11   -1    0    0    0    0  0.00000000000E+00  0.00000000000E+00  0.45593999997E+02  0.45594000000E+02  0.51100000000E-03 0.  1.
         11   -1    0    0    0    0 -0.00000000000E+00 -0.00000000000E+00 -0.45593999997E+02  0.45594000000E+02  0.51100000000E-03 0. -1.
    9900012    2    1    2    0    0  0.21897369273E+02 -0.30357323680E+02 -0.21967277149E+02  0.47787272501E+02  0.20000006639E+02 0.  0.
         12    1    1    2    0    0 -0.21897369273E+02  0.30357323680E+02  0.21967277149E+02  0.43400727499E+02  0.00000000000E+00 0. -1.
         11    1    3    3    0    0  0.72334955007E+01 -0.57260201098E+01 -0.41563946432E+01  0.10118615525E+02  0.51100000000E-03 0. -1.
        -11    1    3    3    0    0  0.12330715190E+02 -0.79252083865E+01 -0.24637261191E+01  0.14863559860E+02  0.51100000000E-03 0.  1.
         12    1    3    3    0    0  0.23331585829E+01 -0.16706095184E+02 -0.15347156387E+02  0.22805097115E+02  0.00000000000E+00 0. -1.
</event>
<event>
 7    1  0.2492468E-009  0.4778727E+02  0.7816164E-02  0.1312668E+00
        -11   -1    0    0    0    0  0.00000000000E+00  0.00000000000E+00  0.45593999997E+02  0.45594000000E+02  0.51100000000E-03 0.  1.
         11   -1    0    0    0    0 -0.00000000000E+00 -0.00000000000E+00 -0.45593999997E+02  0.45594000000E+02  0.51100000000E-03 0. -1.
    9900012    2    1    2    0    0  0.17135716104E+02 -0.50848395132E+01  0.39549146107E+02  0.47787270547E+02  0.19999997731E+02 0.  0.
         12    1    1    2    0    0 -0.17135716104E+02  0.50848395132E+01 -0.39549146107E+02  0.43400729453E+02  0.00000000000E+00 0. -1.
         11    1    3    3    0    0  0.51270989138E+01 -0.14028438363E+01  0.17976888427E+02  0.18746296484E+02  0.51100000000E-03 0. -1.
        -11    1    3    3    0    0  0.11083336437E+02  0.38942803843E+01  0.11924892807E+02  0.16739439507E+02  0.51100000000E-03 0.  1.
         12    1    3    3    0    0  0.92528075375E+00 -0.75762760613E+01  0.96473648729E+01  0.12301534556E+02  0.00000000000E+00 0. -1.
</event>
<event>
 7    1  0.2492468E-009  0.4778727E+02  0.7816164E-02  0.1312668E+00
        -11   -1    0    0    0    0  0.00000000000E+00  0.00000000000E+00  0.45593999997E+02  0.45594000000E+02  0.51100000000E-03 0.  1.
         11   -1    0    0    0    0 -0.00000000000E+00 -0.00000000000E+00 -0.45593999997E+02  0.45594000000E+02  0.51100000000E-03 0. -1.
    9900012    2    1    2    0    0 -0.31241000404E+02 -0.15113489277E+02  0.26061573952E+02  0.47787270729E+02  0.19999998563E+02 0.  0.
         12    1    1    2    0    0  0.31241000404E+02  0.15113489277E+02 -0.26061573952E+02  0.43400729271E+02  0.00000000000E+00 0. -1.
         11    1    3    3    0    0 -0.92250767966E+01 -0.34721519849E+01  0.80571363225E+01  0.12730880853E+02  0.51100000000E-03 0.  1.
        -11    1    3    3    0    0 -0.88445479594E+01 -0.38685398200E+01 -0.20169119367E+01  0.98620263114E+01  0.51100000000E-03 0. -1.
         12    1    3    3    0    0 -0.13171375648E+02 -0.77727974724E+01  0.20021349566E+02  0.25194363565E+02  0.00000000000E+00 0. -1.
</event>
<event>
 7    1  0.2492468E-009  0.4778727E+02  0.7816164E-02  0.1312668E+00
        -11   -1    0    0    0    0  0.00000000000E+00  0.00000000000E+00  0.45593999997E+02  0.45594000000E+02  0.51100000000E-03 0.  1.
         11   -1    0    0    0    0 -0.00000000000E+00 -0.00000000000E+00 -0.45593999997E+02  0.45594000000E+02  0.51100000000E-03 0. -1.
    9900012    2    1    2    0    0 -0.34483872434E+02 -0.19705763864E+02  0.17497678228E+02  0.47787270388E+02  0.19999997006E+02 0.  0.
         12    1    1    2    0    0  0.34483872434E+02  0.19705763864E+02 -0.17497678228E+02  0.43400729612E+02  0.00000000000E+00 0. -1.
         11    1    3    3    0    0 -0.21963695448E+02 -0.18181623850E+02  0.52959522748E+01  0.29000387485E+02  0.51100000000E-03 0. -1.
        -11    1    3    3    0    0  0.69735870563E+00 -0.37403958835E+00  0.16681587722E+01  0.18463392777E+01  0.51100000000E-03 0.  1.
         12    1    3    3    0    0 -0.13217535691E+02 -0.11501004264E+01  0.10533567181E+02  0.16940543625E+02  0.00000000000E+00 0. -1.
</event>
<event>
 7    1  0.2492468E-009  0.4778727E+02  0.7816164E-02  0.1312668E+00
        -11   -1    0    0    0    0  0.00000000000E+00  0.00000000000E+00  0.45593999997E+02  0.45594000000E+02  0.51100000000E-03 0. -1.
         11   -1    0    0    0    0 -0.00000000000E+00 -0.00000000000E+00 -0.45593999997E+02  0.45594000000E+02  0.51100000000E-03 0.  1.
    9900012    2    1    2    0    0  0.28429915415E+02 -0.18396043099E+02 -0.27146804421E+02  0.47787268641E+02  0.19999989042E+02 0.  0.
         12    1    1    2    0    0 -0.28429915415E+02  0.18396043099E+02  0.27146804421E+02  0.43400731359E+02  0.00000000000E+00 0. -1.
         11    1    3    3    0    0  0.63417137469E+01  0.23263851901E+01 -0.86893295240E+01  0.11006082370E+02  0.51100000000E-03 0. -1.
        -11    1    3    3    0    0  0.38268362428E+01 -0.71385909811E+01 -0.11338164244E+01  0.81786121542E+01  0.51100000000E-03 0.  1.
        -12    1    3    3    0    0  0.18261365426E+02 -0.13583837308E+02 -0.17323658473E+02  0.28602574117E+02  0.00000000000E+00 0.  1.
</event>
<event>
 7    1  0.2492468E-009  0.4778727E+02  0.7816164E-02  0.1312668E+00
        -11   -1    0    0    0    0  0.00000000000E+00  0.00000000000E+00  0.45593999997E+02  0.45594000000E+02  0.51100000000E-03 0.  1.
         11   -1    0    0    0    0 -0.00000000000E+00 -0.00000000000E+00 -0.45593999997E+02  0.45594000000E+02  0.51100000000E-03 0. -1.
    9900012    2    1    2    0    0 -0.14093584160E+02  0.33530322401E+02  0.23679348552E+02  0.47787272096E+02  0.20000004792E+02 0.  0.
         12    1    1    2    0    0  0.14093584160E+02 -0.33530322401E+02 -0.23679348552E+02  0.43400727904E+02  0.00000000000E+00 0. -1.
         11    1    3    3    0    0 -0.63129251266E+01  0.17698126851E+02  0.11124242835E+02  0.21836334321E+02  0.51100000000E-03 0. -1.
        -11    1    3    3    0    0 -0.10891649340E+02  0.16252000615E+02  0.10572715874E+02  0.22238207449E+02  0.51100000000E-03 0.  1.
         12    1    3    3    0    0  0.31109903064E+01 -0.41980506464E+00  0.19823898430E+01  0.37127303253E+01  0.00000000000E+00 0. -1.
</event>
<event>
 7    1  0.2492468E-009  0.4778727E+02  0.7816164E-02  0.1312668E+00
        -11   -1    0    0    0    0  0.00000000000E+00  0.00000000000E+00  0.45593999997E+02  0.45594000000E+02  0.51100000000E-03 0.  1.
         11   -1    0    0    0    0 -0.00000000000E+00 -0.00000000000E+00 -0.45593999997E+02  0.45594000000E+02  0.51100000000E-03 0. -1.
    9900012    2    1    2    0    0 -0.50242769892E+01  0.37430383612E+02  0.21385653547E+02  0.47787272423E+02  0.20000006286E+02 0.  0.
         12    1    1    2    0    0  0.50242769892E+01 -0.37430383612E+02 -0.21385653547E+02  0.43400727577E+02  0.00000000000E+00 0. -1.
         11    1    3    3    0    0  0.91630704694E+00  0.60104678325E+01  0.50293925183E+01  0.78905089528E+01  0.51100000000E-03 0.  1.
        -11    1    3    3    0    0 -0.13767232581E+00  0.19117558293E+02  0.66376587749E+00  0.19129573287E+02  0.51100000000E-03 0. -1.
         12    1    3    3    0    0 -0.58029117103E+01  0.12302357486E+02  0.15692495151E+02  0.20767190183E+02  0.00000000000E+00 0. -1.
</event>
<event>
 7    1  0.2492468E-009  0.4778727E+02  0.7816164E-02  0.1312668E+00
        -11   -1    0    0    0    0  0.00000000000E+00  0.00000000000E+00  0.45593999997E+02  0.45594000000E+02  0.51100000000E-03 0.  1.
         11   -1    0    0    0    0 -0.00000000000E+00 -0.00000000000E+00 -0.45593999997E+02  0.45594000000E+02  0.51100000000E-03 0. -1.
    9900012    2    1    2    0    0 -0.35679779072E+02 -0.18941533095E+02  0.15868045698E+02  0.47787272070E+02  0.20000004675E+02 0.  0.
         12    1    1    2    0    0  0.35679779072E+02  0.18941533095E+02 -0.15868045698E+02  0.43400727930E+02  0.00000000000E+00 0. -1.
         11    1    3    3    0    0 -0.22201209256E+02 -0.16077180972E+02  0.36603069207E+01  0.27654426182E+02  0.51100000000E-03 0. -1.
        -11    1    3    3    0    0 -0.98952903079E+01 -0.54889026968E+01  0.70763442807E+01  0.13346140706E+02  0.51100000000E-03 0.  1.
         12    1    3    3    0    0 -0.35832795076E+01  0.26245505740E+01  0.51313944970E+01  0.67867051821E+01  0.00000000000E+00 0. -1.
</event>
<event>
 7    1  0.2492468E-009  0.4778727E+02  0.7816164E-02  0.1312668E+00
        -11   -1    0    0    0    0  0.00000000000E+00  0.00000000000E+00  0.45593999997E+02  0.45594000000E+02  0.51100000000E-03 0.  1.
         11   -1    0    0    0    0 -0.00000000000E+00 -0.00000000000E+00 -0.45593999997E+02  0.45594000000E+02  0.51100000000E-03 0. -1.
    9900012    2    1    2    0    0  0.19974110450E+02  0.30841011228E+02 -0.23097415636E+02  0.47787266470E+02  0.19999979145E+02 0.  0.
         12    1    1    2    0    0 -0.19974110450E+02 -0.30841011228E+02  0.23097415636E+02  0.43400733530E+02  0.00000000000E+00 0. -1.
         11    1    3    3    0    0  0.19036720487E+01  0.10941952075E+02 -0.34842109384E+01  0.11640017551E+02  0.51100000000E-03 0. -1.
        -11    1    3    3    0    0  0.96264368651E+01  0.61594582069E+01 -0.92946797823E+00  0.11466085780E+02  0.51100000000E-03 0.  1.
        -12    1    3    3    0    0  0.84440015361E+01  0.13739600947E+02 -0.18683736719E+02  0.24681163139E+02  0.00000000000E+00 0.  1.
</event>
<event>
 7    1  0.2492468E-009  0.4778727E+02  0.7816164E-02  0.1312668E+00
        -11   -1    0    0    0    0  0.00000000000E+00  0.00000000000E+00  0.45593999997E+02  0.45594000000E+02  0.51100000000E-03 0.  1.
         11   -1    0    0    0    0 -0.00000000000E+00 -0.00000000000E+00 -0.45593999997E+02  0.45594000000E+02  0.51100000000E-03 0. -1.
    9900012    2    1    2    0    0  0.42743204454E+02 -0.34597212885E+01  0.66837310452E+01  0.47787268911E+02  0.19999990273E+02 0.  0.
         12    1    1    2    0    0 -0.42743204454E+02  0.34597212885E+01 -0.66837310452E+01  0.43400731089E+02  0.00000000000E+00 0. -1.
         11    1    3    3    0    0  0.25375269165E+01  0.10670589966E+01  0.57823576170E+01  0.64041640849E+01  0.51100000000E-03 0. -1.
        -11    1    3    3    0    0  0.22030513553E+02  0.18593298976E+01  0.48838644513E+00  0.22114229732E+02  0.51100000000E-03 0.  1.
        -12    1    3    3    0    0  0.18175163985E+02 -0.63861101828E+01  0.41298698306E+00  0.19268875094E+02  0.00000000000E+00 0.  1.
</event>
<event>
 7    1  0.2492468E-009  0.4778727E+02  0.7816164E-02  0.1312668E+00
        -11   -1    0    0    0    0  0.00000000000E+00  0.00000000000E+00  0.45593999997E+02  0.45594000000E+02  0.51100000000E-03 0. -1.
         11   -1    0    0    0    0 -0.00000000000E+00 -0.00000000000E+00 -0.45593999997E+02  0.45594000000E+02  0.51100000000E-03 0.  1.
    9900012    2    1    2    0    0  0.41984839590E+02 -0.84190110140E+01 -0.70722465802E+01  0.47787272200E+02  0.20000005268E+02 0.  0.
         12    1    1    2    0    0 -0.41984839590E+02  0.84190110140E+01  0.70722465802E+01  0.43400727800E+02  0.00000000000E+00 0. -1.
         11    1    3    3    0    0  0.65646811686E+01 -0.17075290006E+01  0.30923684871E+00  0.67901636080E+01  0.51100000000E-03 0.  1.
        -11    1    3    3    0    0  0.14793642932E+02 -0.11894703681E+02 -0.22194161787E+01  0.19111819780E+02  0.51100000000E-03 0. -1.
         12    1    3    3    0    0  0.20626515489E+02  0.51832216675E+01 -0.51620672502E+01  0.21885288812E+02  0.00000000000E+00 0. -1.
</event>
<event>
 7    1  0.2492468E-009  0.4778727E+02  0.7816164E-02  0.1312668E+00
        -11   -1    0    0    0    0  0.00000000000E+00  0.00000000000E+00  0.45593999997E+02  0.45594000000E+02  0.51100000000E-03 0.  1.
         11   -1    0    0    0    0 -0.00000000000E+00 -0.00000000000E+00 -0.45593999997E+02  0.45594000000E+02  0.51100000000E-03 0. -1.
    9900012    2    1    2    0    0 -0.20265327159E+02 -0.37985995406E+02  0.54776304488E+01  0.47787265361E+02  0.19999974088E+02 0.  0.
         12    1    1    2    0    0  0.20265327159E+02  0.37985995406E+02 -0.54776304488E+01  0.43400734639E+02  0.00000000000E+00 0. -1.
         11    1    3    3    0    0 -0.34389531651E+01  0.88533108546E+00  0.18810736952E+00  0.35560644884E+01  0.51100000000E-03 0.  1.
        -11    1    3    3    0    0 -0.19332873239E+01 -0.11182782600E+02 -0.29576352523E+01  0.11727737766E+02  0.51100000000E-03 0. -1.
        -12    1    3    3    0    0 -0.14893086670E+02 -0.27688543891E+02  0.82471583316E+01  0.32503463107E+02  0.00000000000E+00 0.  1.
</event>
<event>
 7    1  0.2492468E-009  0.4778727E+02  0.7816164E-02  0.1312668E+00
        -11   -1    0    0    0    0  0.00000000000E+00  0.00000000000E+00  0.45593999997E+02  0.45594000000E+02  0.51100000000E-03 0.  1.
         11   -1    0    0    0    0 -0.00000000000E+00 -0.00000000000E+00 -0.45593999997E+02  0.45594000000E+02  0.51100000000E-03 0. -1.
    9900012    2    1    2    0    0 -0.25869753524E+02 -0.34696760659E+02 -0.32424900933E+01  0.47787273167E+02  0.20000009678E+02 0.  0.
         12    1    1    2    0    0  0.25869753524E+02  0.34696760659E+02  0.32424900933E+01  0.43400726833E+02  0.00000000000E+00 0. -1.
         11    1    3    3    0    0 -0.11013747022E+02 -0.59587879244E+01 -0.29167325943E+01  0.12857569999E+02  0.51100000000E-03 0. -1.
        -11    1    3    3    0    0 -0.11878453053E+02 -0.97030651965E+01  0.22136427088E+01  0.15496687886E+02  0.51100000000E-03 0.  1.
         12    1    3    3    0    0 -0.29775534493E+01 -0.19034907538E+02 -0.25394002078E+01  0.19433015282E+02  0.00000000000E+00 0. -1.
</event>
<event>
 7    1  0.2492468E-009  0.4778725E+02  0.7816164E-02  0.1312668E+00
        -11   -1    0    0    0    0  0.00000000000E+00  0.00000000000E+00  0.45593999997E+02  0.45594000000E+02  0.51100000000E-03 0.  1.
         11   -1    0    0    0    0 -0.00000000000E+00 -0.00000000000E+00 -0.45593999997E+02  0.45594000000E+02  0.51100000000E-03 0. -1.
    9900012    2    1    2    0    0  0.37044873840E+02 -0.22151761584E+02  0.45389046544E+01  0.47787252604E+02  0.19999915922E+02 0.  0.
         12    1    1    2    0    0 -0.37044873840E+02  0.22151761584E+02 -0.45389046544E+01  0.43400747396E+02  0.00000000000E+00 0. -1.
         11    1    3    3    0    0  0.13541533552E+02 -0.43584804410E+01 -0.24121076903E+01  0.14428712571E+02  0.51100000000E-03 0. -1.
        -11    1    3    3    0    0  0.81528249428E+01 -0.45047880222E+01  0.89998320748E+01  0.12952167668E+02  0.51100000000E-03 0.  1.
        -12    1    3    3    0    0  0.15350515345E+02 -0.13288493121E+02 -0.20488197301E+01  0.20406372364E+02  0.00000000000E+00 0.  1.
</event>
<event>
 7    1  0.2492468E-009  0.4778727E+02  0.7816164E-02  0.1312668E+00
        -11   -1    0    0    0    0  0.00000000000E+00  0.00000000000E+00  0.45593999997E+02  0.45594000000E+02  0.51100000000E-03 0.  1.
         11   -1    0    0    0    0 -0.00000000000E+00 -0.00000000000E+00 -0.45593999997E+02  0.45594000000E+02  0.51100000000E-03 0. -1.
    9900012    2    1    2    0    0  0.15519288031E+02 -0.34832034273E+02  0.20724497327E+02  0.47787266112E+02  0.19999977509E+02 0.  0.
         12    1    1    2    0    0 -0.15519288031E+02  0.34832034273E+02 -0.20724497327E+02  0.43400733888E+02  0.00000000000E+00 0. -1.
         11    1    3    3    0    0 -0.32703178831E+00 -0.95971487576E+00  0.29071403092E+01  0.30788743839E+01  0.51100000000E-03 0. -1.
        -11    1    3    3    0    0  0.57339486957E+00 -0.53181093210E+01  0.10085197733E+02  0.11415878503E+02  0.51100000000E-03 0.  1.
         12    1    3    3    0    0  0.15272924950E+02 -0.28554210076E+02  0.77321592855E+01  0.33292513225E+02  0.00000000000E+00 0. -1.
</event>
<event>
 7    1  0.2492468E-009  0.4778727E+02  0.7816164E-02  0.1312668E+00
        -11   -1    0    0    0    0  0.00000000000E+00  0.00000000000E+00  0.45593999997E+02  0.45594000000E+02  0.51100000000E-03 0.  1.
         11   -1    0    0    0    0 -0.00000000000E+00 -0.00000000000E+00 -0.45593999997E+02  0.45594000000E+02  0.51100000000E-03 0. -1.
    9900012    2    1    2    0    0 -0.22780003465E+02 -0.33105498000E+02  0.16392702706E+02  0.47787271231E+02  0.20000000849E+02 0.  0.
         12    1    1    2    0    0  0.22780003465E+02  0.33105498000E+02 -0.16392702706E+02  0.43400728769E+02  0.00000000000E+00 0. -1.
         11    1    3    3    0    0 -0.11596522997E+02 -0.53782250989E+01  0.20952529903E+01  0.12953560753E+02  0.51100000000E-03 0. -1.
        -11    1    3    3    0    0  0.15189361352E+01 -0.19923095732E+01  0.31992069607E+01  0.40634209549E+01  0.51100000000E-03 0.  1.
        -12    1    3    3    0    0 -0.12702416603E+02 -0.25734963328E+02  0.11098242755E+02  0.30770289522E+02  0.00000000000E+00 0.  1.
</event>
<event>
 7    1  0.2492468E-009  0.4778728E+02  0.7816164E-02  0.1312668E+00
        -11   -1    0    0    0    0  0.00000000000E+00  0.00000000000E+00  0.45593999997E+02  0.45594000000E+02  0.51100000000E-03 0.  1.
         11   -1    0    0    0    0 -0.00000000000E+00 -0.00000000000E+00 -0.45593999997E+02  0.45594000000E+02  0.51100000000E-03 0. -1.
    9900012    2    1    2    0    0 -0.37667930343E+02 -0.62570137760E+01  0.20630068206E+02  0.47787275214E+02  0.20000019013E+02 0.  0.
         12    1    1    2    0    0  0.37667930343E+02  0.62570137760E+01 -0.20630068206E+02  0.43400724786E+02  0.00000000000E+00 0. -1.
         11    1    3    3    0    0 -0.54671298578E+01 -0.13616416705E+01  0.20956842701E+00  0.56380400946E+01  0.51100000000E-03 0. -1.
        -11    1    3    3    0    0 -0.26126897230E+01 -0.62150091522E+01  0.67110154257E+01  0.95126344750E+01  0.51100000000E-03 0.  1.
         12    1    3    3    0    0 -0.29588110762E+02  0.13196370467E+01  0.13709484353E+02  0.32636600645E+02  0.00000000000E+00 0. -1.
</event>
<event>
 7    1  0.3312323E-009  0.4778732E+02  0.7816164E-02  0.1312668E+00
        -11   -1    0    0    0    0  0.00000000000E+00  0.00000000000E+00  0.45593999997E+02  0.45594000000E+02  0.51100000000E-03 0. -1.
         11   -1    0    0    0    0 -0.00000000000E+00 -0.00000000000E+00 -0.45593999997E+02  0.45594000000E+02  0.51100000000E-03 0.  1.
    9900012    2    1    2    0    0  0.21363406316E+02  0.31482358283E+02 -0.20882641596E+02  0.47787323364E+02  0.20000238544E+02 0.  0.
         12    1    1    2    0    0 -0.21363406316E+02 -0.31482358283E+02  0.20882641596E+02  0.43400676636E+02  0.00000000000E+00 0. -1.
         11    1    3    3    0    0  0.32235802692E+01  0.88344658777E+01  0.75570031087E+00  0.94345291518E+01  0.51100000000E-03 0. -1.
        -11    1    3    3    0    0  0.15936174646E+02  0.20494952708E+02 -0.12706020927E+02  0.28904112457E+02  0.51100000000E-03 0.  1.
         12    1    3    3    0    0  0.22036514008E+01  0.21529396970E+01 -0.89323209795E+01  0.94486817555E+01  0.00000000000E+00 0. -1.
</event>
<event>
 7    1  0.2492468E-009  0.4778730E+02  0.7816164E-02  0.1312668E+00
        -11   -1    0    0    0    0  0.00000000000E+00  0.00000000000E+00  0.45593999997E+02  0.45594000000E+02  0.51100000000E-03 0. -1.
         11   -1    0    0    0    0 -0.00000000000E+00 -0.00000000000E+00 -0.45593999997E+02  0.45594000000E+02  0.51100000000E-03 0.  1.
    9900012    2    1    2    0    0  0.67021178324E+01  0.34008496603E+02 -0.26117522098E+02  0.47787295107E+02  0.20000109712E+02 0.  0.
         12    1    1    2    0    0 -0.67021178324E+01 -0.34008496603E+02  0.26117522098E+02  0.43400704893E+02  0.00000000000E+00 0. -1.
         11    1    3    3    0    0 -0.99970515112E+00  0.88956792898E+01 -0.71493825699E+01  0.11456273033E+02  0.51100000000E-03 0. -1.
        -11    1    3    3    0    0  0.70517911655E+01  0.27112033815E+02 -0.19536208786E+02  0.34153383291E+02  0.51100000000E-03 0.  1.
         12    1    3    3    0    0  0.65003181805E+00 -0.19992165021E+01  0.56806925781E+00  0.21776387829E+01  0.00000000000E+00 0. -1.
</event>
<event>
 7    1  0.2492468E-009  0.4778727E+02  0.7816164E-02  0.1312668E+00
        -11   -1    0    0    0    0  0.00000000000E+00  0.00000000000E+00  0.45593999997E+02  0.45594000000E+02  0.51100000000E-03 0.  1.
         11   -1    0    0    0    0 -0.00000000000E+00 -0.00000000000E+00 -0.45593999997E+02  0.45594000000E+02  0.51100000000E-03 0. -1.
    9900012    2    1    2    0    0 -0.39431789789E+02 -0.16173332084E+02  0.81963643066E+01  0.47787272996E+02  0.20000008898E+02 0.  0.
         12    1    1    2    0    0  0.39431789789E+02  0.16173332084E+02 -0.81963643066E+01  0.43400727004E+02  0.00000000000E+00 0. -1.
         11    1    3    3    0    0 -0.76457868871E+01 -0.40529639555E+01  0.15376122397E+01  0.87891311066E+01  0.51100000000E-03 0. -1.
        -11    1    3    3    0    0 -0.11880363743E+02 -0.38849871924E+01  0.11426141842E+02  0.16934960461E+02  0.51100000000E-03 0.  1.
         12    1    3    3    0    0 -0.19905639158E+02 -0.82353809359E+01 -0.47673897756E+01  0.22063181428E+02  0.00000000000E+00 0. -1.
</event>
<event>
 7    1  0.2492468E-009  0.4778727E+02  0.7816164E-02  0.1312668E+00
        -11   -1    0    0    0    0  0.00000000000E+00  0.00000000000E+00  0.45593999997E+02  0.45594000000E+02  0.51100000000E-03 0.  1.
         11   -1    0    0    0    0 -0.00000000000E+00 -0.00000000000E+00 -0.45593999997E+02  0.45594000000E+02  0.51100000000E-03 0. -1.
    9900012    2    1    2    0    0 -0.49048873969E+01 -0.33404725284E+02  0.27270670831E+02  0.47787273287E+02  0.20000010223E+02 0.  0.
         12    1    1    2    0    0  0.49048873969E+01  0.33404725284E+02 -0.27270670831E+02  0.43400726713E+02  0.00000000000E+00 0. -1.
         11    1    3    3    0    0 -0.85746391685E+00  0.72668773682E+00  0.41792587714E+01  0.43277619591E+01  0.51100000000E-03 0. -1.
        -11    1    3    3    0    0 -0.78047493011E+01 -0.15792748726E+02  0.14706005987E+02  0.22947584542E+02  0.51100000000E-03 0.  1.
        -12    1    3    3    0    0  0.37573258210E+01 -0.18338664295E+02  0.83854060727E+01  0.20511926786E+02  0.00000000000E+00 0.  1.
</event>
<event>
 7    1  0.2492468E-009  0.4778727E+02  0.7816164E-02  0.1312668E+00
        -11   -1    0    0    0    0  0.00000000000E+00  0.00000000000E+00  0.45593999997E+02  0.45594000000E+02  0.51100000000E-03 0.  1.
         11   -1    0    0    0    0 -0.00000000000E+00 -0.00000000000E+00 -0.45593999997E+02  0.45594000000E+02  0.51100000000E-03 0. -1.
    9900012    2    1    2    0    0 -0.18652707893E+02  0.17306518945E+02  0.35159410024E+02  0.47787271631E+02  0.20000002672E+02 0.  0.
         12    1    1    2    0    0  0.18652707893E+02 -0.17306518945E+02 -0.35159410024E+02  0.43400728369E+02  0.00000000000E+00 0. -1.
         11    1    3    3    0    0 -0.35733360696E+01  0.82492764671E+01  0.29485891651E+01  0.94611559137E+01  0.51100000000E-03 0. -1.
        -11    1    3    3    0    0 -0.23980545912E+00  0.55034746109E+01  0.87274544586E+01  0.10320571740E+02  0.51100000000E-03 0.  1.
         12    1    3    3    0    0 -0.14839566364E+02  0.35537678671E+01  0.23483366401E+02  0.28005543977E+02  0.00000000000E+00 0. -1.
</event>
<event>
 7    1  0.2492468E-009  0.4778727E+02  0.7816164E-02  0.1312668E+00
        -11   -1    0    0    0    0  0.00000000000E+00  0.00000000000E+00  0.45593999997E+02  0.45594000000E+02  0.51100000000E-03 0.  1.
         11   -1    0    0    0    0 -0.00000000000E+00 -0.00000000000E+00 -0.45593999997E+02  0.45594000000E+02  0.51100000000E-03 0. -1.
    9900012    2    1    2    0    0 -0.32718812697E+02  0.25707419477E+02  0.12338192505E+02  0.47787272878E+02  0.20000008361E+02 0.  0.
         12    1    1    2    0    0  0.32718812697E+02 -0.25707419477E+02 -0.12338192505E+02  0.43400727122E+02  0.00000000000E+00 0. -1.
         11    1    3    3    0    0  0.73026291759E+00  0.42751041350E+01  0.28753631815E+01  0.52036057672E+01  0.51100000000E-03 0. -1.
        -11    1    3    3    0    0 -0.45814337271E+01  0.16957024045E+01 -0.26723051527E+01  0.55683172261E+01  0.51100000000E-03 0.  1.
         12    1    3    3    0    0 -0.28867641887E+02  0.19736612937E+02  0.12135134476E+02  0.37015349885E+02  0.00000000000E+00 0. -1.
</event>
<event>
 7    1  0.2492468E-009  0.4778725E+02  0.7816164E-02  0.1312668E+00
        -11   -1    0    0    0    0  0.00000000000E+00  0.00000000000E+00  0.45593999997E+02  0.45594000000E+02  0.51100000000E-03 0. -1.
         11   -1    0    0    0    0 -0.00000000000E+00 -0.00000000000E+00 -0.45593999997E+02  0.45594000000E+02  0.51100000000E-03 0.  1.
    9900012    2    1    2    0    0 -0.20358455702E+02 -0.27151502871E+02 -0.27054650101E+02  0.47787252094E+02  0.19999913595E+02 0.  0.
         12    1    1    2    0    0  0.20358455702E+02  0.27151502871E+02  0.27054650101E+02  0.43400747906E+02  0.00000000000E+00 0. -1.
         11    1    3    3    0    0 -0.55934825330E+01 -0.28103060903E+01 -0.20352693082E+01  0.65823391425E+01  0.51100000000E-03 0. -1.
        -11    1    3    3    0    0 -0.16861294924E+02 -0.23279491192E+02 -0.25903694218E+02  0.38694177225E+02  0.51100000000E-03 0.  1.
        -12    1    3    3    0    0  0.20963217544E+01 -0.10617055883E+01  0.88431342513E+00  0.25107357265E+01  0.00000000000E+00 0.  1.
</event>
<event>
 7    1  0.2492468E-009  0.4778727E+02  0.7816164E-02  0.1312668E+00
        -11   -1    0    0    0    0  0.00000000000E+00  0.00000000000E+00  0.45593999997E+02  0.45594000000E+02  0.51100000000E-03 0.  1.
         11   -1    0    0    0    0 -0.00000000000E+00 -0.00000000000E+00 -0.45593999997E+02  0.45594000000E+02  0.51100000000E-03 0. -1.
    9900012    2    1    2    0    0  0.29901043871E+02 -0.31156063572E+02  0.43417311618E+01  0.47787270152E+02  0.19999995929E+02 0.  0.
         12    1    1    2    0    0 -0.29901043871E+02  0.31156063572E+02 -0.43417311618E+01  0.43400729848E+02  0.00000000000E+00 0. -1.
         11    1    3    3    0    0 -0.10508642316E+01 -0.25045092580E+00  0.15246536921E+01  0.18685851443E+01  0.51100000000E-03 0. -1.
        -11    1    3    3    0    0  0.45101690205E+01 -0.59516825817E+01 -0.46573869133E+01  0.88008751422E+01  0.51100000000E-03 0.  1.
        -12    1    3    3    0    0  0.26441739082E+02 -0.24953930065E+02  0.74744643830E+01  0.37117809865E+02  0.00000000000E+00 0.  1.
</event>
<event>
 7    1  0.2492468E-009  0.4778727E+02  0.7816164E-02  0.1312668E+00
        -11   -1    0    0    0    0  0.00000000000E+00  0.00000000000E+00  0.45593999997E+02  0.45594000000E+02  0.51100000000E-03 0.  1.
         11   -1    0    0    0    0 -0.00000000000E+00 -0.00000000000E+00 -0.45593999997E+02  0.45594000000E+02  0.51100000000E-03 0. -1.
    9900012    2    1    2    0    0  0.26944485618E+02  0.42799235485E+01  0.33753522550E+02  0.47787270337E+02  0.19999996773E+02 0.  0.
         12    1    1    2    0    0 -0.26944485618E+02 -0.42799235485E+01 -0.33753522550E+02  0.43400729663E+02  0.00000000000E+00 0. -1.
         11    1    3    3    0    0  0.22542498979E+01 -0.24697276812E+01  0.66651280205E+01  0.74568846854E+01  0.51100000000E-03 0. -1.
        -11    1    3    3    0    0  0.13637637971E+02 -0.17807838892E+01  0.20990904274E+02  0.25095306796E+02  0.51100000000E-03 0.  1.
        -12    1    3    3    0    0  0.11052597748E+02  0.85304351189E+01  0.60974902554E+01  0.15235078855E+02  0.00000000000E+00 0.  1.
</event>
<event>
 7    1  0.2492468E-009  0.4778727E+02  0.7816164E-02  0.1312668E+00
        -11   -1    0    0    0    0  0.00000000000E+00  0.00000000000E+00  0.45593999997E+02  0.45594000000E+02  0.51100000000E-03 0.  1.
         11   -1    0    0    0    0 -0.00000000000E+00 -0.00000000000E+00 -0.45593999997E+02  0.45594000000E+02  0.51100000000E-03 0. -1.
    9900012    2    1    2    0    0  0.34916066064E+02 -0.16375432473E+02  0.19908207321E+02  0.47787272163E+02  0.20000005098E+02 0.  0.
         12    1    1    2    0    0 -0.34916066064E+02  0.16375432473E+02 -0.19908207321E+02  0.43400727837E+02  0.00000000000E+00 0. -1.
         11    1    3    3    0    0  0.15547021504E+00 -0.21985843544E+01  0.35908238540E+01  0.42133075324E+01  0.51100000000E-03 0. -1.
        -11    1    3    3    0    0  0.15440748150E+02 -0.14043989489E+02  0.10691662358E+02  0.23451268376E+02  0.51100000000E-03 0.  1.
         12    1    3    3    0    0  0.19319847699E+02 -0.13285862932E+00  0.56257211091E+01  0.20122696254E+02  0.00000000000E+00 0. -1.
</event>
<event>
 7    1  0.2492468E-009  0.4778728E+02  0.7816164E-02  0.1312668E+00
        -11   -1    0    0    0    0  0.00000000000E+00  0.00000000000E+00  0.45593999997E+02  0.45594000000E+02  0.51100000000E-03 0.  1.
         11   -1    0    0    0    0 -0.00000000000E+00 -0.00000000000E+00 -0.45593999997E+02  0.45594000000E+02  0.51100000000E-03 0. -1.
    9900012    2    1    2    0    0  0.31871152126E+02  0.22503118825E+02  0.19012151836E+02  0.47787278669E+02  0.20000034761E+02 0.  0.
         12    1    1    2    0    0 -0.31871152126E+02 -0.22503118825E+02 -0.19012151836E+02  0.43400721331E+02  0.00000000000E+00 0. -1.
         11    1    3    3    0    0  0.22377063151E+01  0.53855803769E+01 -0.10280318965E+01  0.59218793799E+01  0.51100000000E-03 0. -1.
        -11    1    3    3    0    0  0.16403864097E+02  0.16764288781E+02  0.11576377409E+02  0.26156082464E+02  0.51100000000E-03 0.  1.
         12    1    3    3    0    0  0.13229581714E+02  0.35324966675E+00  0.84638063227E+01  0.15709316825E+02  0.00000000000E+00 0. -1.
</event>
<event>
 7    1  0.2492468E-009  0.4778727E+02  0.7816164E-02  0.1312668E+00
        -11   -1    0    0    0    0  0.00000000000E+00  0.00000000000E+00  0.45593999997E+02  0.45594000000E+02  0.51100000000E-03 0.  1.
         11   -1    0    0    0    0 -0.00000000000E+00 -0.00000000000E+00 -0.45593999997E+02  0.45594000000E+02  0.51100000000E-03 0. -1.
    9900012    2    1    2    0    0  0.56254317596E+01 -0.40043149156E+02  0.15764643394E+02  0.47787271226E+02  0.20000000827E+02 0.  0.
         12    1    1    2    0    0 -0.56254317596E+01  0.40043149156E+02 -0.15764643394E+02  0.43400728774E+02  0.00000000000E+00 0. -1.
         11    1    3    3    0    0 -0.37701856037E+01 -0.80418107850E+01  0.96307692211E+01  0.13101020427E+02  0.51100000000E-03 0. -1.
        -11    1    3    3    0    0  0.19379026232E+01 -0.16533558949E+02  0.53929128640E+01  0.17498501293E+02  0.51100000000E-03 0.  1.
         12    1    3    3    0    0  0.74577147401E+01 -0.15467779422E+02  0.74096130845E+00  0.17187749505E+02  0.00000000000E+00 0. -1.
</event>
<event>
 7    1  0.2492468E-009  0.4778727E+02  0.7816164E-02  0.1312668E+00
        -11   -1    0    0    0    0  0.00000000000E+00  0.00000000000E+00  0.45593999997E+02  0.45594000000E+02  0.51100000000E-03 0.  1.
         11   -1    0    0    0    0 -0.00000000000E+00 -0.00000000000E+00 -0.45593999997E+02  0.45594000000E+02  0.51100000000E-03 0. -1.
    9900012    2    1    2    0    0  0.32916899692E+02  0.18833408486E+02  0.21104591046E+02  0.47787270470E+02  0.19999997381E+02 0.  0.
         12    1    1    2    0    0 -0.32916899692E+02 -0.18833408486E+02 -0.21104591046E+02  0.43400729530E+02  0.00000000000E+00 0. -1.
         11    1    3    3    0    0  0.20187844764E+02  0.10833041581E+02  0.12245115324E+02  0.25977811988E+02  0.51100000000E-03 0. -1.
        -11    1    3    3    0    0  0.10691776753E+02 -0.91754005381E+00  0.55518690112E+01  0.12082186047E+02  0.51100000000E-03 0.  1.
         12    1    3    3    0    0  0.20372781751E+01  0.89179069585E+01  0.33076067104E+01  0.97272724355E+01  0.00000000000E+00 0. -1.
</event>
<event>
 7    1  0.2492468E-009  0.4778727E+02  0.7816164E-02  0.1312668E+00
        -11   -1    0    0    0    0  0.00000000000E+00  0.00000000000E+00  0.45593999997E+02  0.45594000000E+02  0.51100000000E-03 0.  1.
         11   -1    0    0    0    0 -0.00000000000E+00 -0.00000000000E+00 -0.45593999997E+02  0.45594000000E+02  0.51100000000E-03 0. -1.
    9900012    2    1    2    0    0 -0.24797636087E+02 -0.32211525135E+02  0.15202574359E+02  0.47787269889E+02  0.19999994732E+02 0.  0.
         12    1    1    2    0    0  0.24797636087E+02  0.32211525135E+02 -0.15202574359E+02  0.43400730111E+02  0.00000000000E+00 0. -1.
         11    1    3    3    0    0 -0.28656252696E+01 -0.81587411125E+01 -0.36785772366E+01  0.93972759603E+01  0.51100000000E-03 0. -1.
        -11    1    3    3    0    0 -0.26932930904E+01 -0.18083776438E+01 -0.33106546544E+00  0.32609296185E+01  0.51100000000E-03 0.  1.
        -12    1    3    3    0    0 -0.19238717727E+02 -0.22244406379E+02  0.19212217061E+02  0.35129064310E+02  0.00000000000E+00 0.  1.
</event>
<event>
 7    1  0.2492468E-009  0.4778727E+02  0.7816164E-02  0.1312668E+00
        -11   -1    0    0    0    0  0.00000000000E+00  0.00000000000E+00  0.45593999997E+02  0.45594000000E+02  0.51100000000E-03 0.  1.
         11   -1    0    0    0    0 -0.00000000000E+00 -0.00000000000E+00 -0.45593999997E+02  0.45594000000E+02  0.51100000000E-03 0. -1.
    9900012    2    1    2    0    0 -0.10454027810E+02 -0.42120777028E+02  0.42005800398E+00  0.47787274158E+02  0.20000014194E+02 0.  0.
         12    1    1    2    0    0  0.10454027810E+02  0.42120777028E+02 -0.42005800398E+00  0.43400725842E+02  0.00000000000E+00 0. -1.
         11    1    3    3    0    0 -0.37446984436E+00 -0.76495662500E+01  0.69729857542E+00  0.76904042183E+01  0.51100000000E-03 0. -1.
        -11    1    3    3    0    0  0.23326430987E+01 -0.22959598710E+02  0.11627503479E+01  0.23107063539E+02  0.51100000000E-03 0.  1.
         12    1    3    3    0    0 -0.12412201065E+02 -0.11511612068E+02 -0.14399909193E+01  0.16989806400E+02  0.00000000000E+00 0. -1.
</event>
<event>
 7    1  0.2492468E-009  0.4778727E+02  0.7816164E-02  0.1312668E+00
        -11   -1    0    0    0    0  0.00000000000E+00  0.00000000000E+00  0.45593999997E+02  0.45594000000E+02  0.51100000000E-03 0.  1.
         11   -1    0    0    0    0 -0.00000000000E+00 -0.00000000000E+00 -0.45593999997E+02  0.45594000000E+02  0.51100000000E-03 0. -1.
    9900012    2    1    2    0    0 -0.40610162115E+02 -0.12652840002E+02  0.86222903271E+01  0.47787268237E+02  0.19999987199E+02 0.  0.
         12    1    1    2    0    0  0.40610162115E+02  0.12652840002E+02 -0.86222903271E+01  0.43400731763E+02  0.00000000000E+00 0. -1.
         11    1    3    3    0    0 -0.21416995917E+02 -0.49920832111E+01  0.53380714086E+01  0.22629706483E+02  0.51100000000E-03 0. -1.
        -11    1    3    3    0    0 -0.11100853716E+02 -0.85843603935E+01  0.75801065329E+01  0.15949238600E+02  0.51100000000E-03 0.  1.
         12    1    3    3    0    0 -0.80923124815E+01  0.92360360278E+00 -0.42958876144E+01  0.92083231540E+01  0.00000000000E+00 0. -1.
</event>
<event>
 7    1  0.2492468E-009  0.4778727E+02  0.7816164E-02  0.1312668E+00
        -11   -1    0    0    0    0  0.00000000000E+00  0.00000000000E+00  0.45593999997E+02  0.45594000000E+02  0.51100000000E-03 0.  1.
         11   -1    0    0    0    0 -0.00000000000E+00 -0.00000000000E+00 -0.45593999997E+02  0.45594000000E+02  0.51100000000E-03 0. -1.
    9900012    2    1    2    0    0  0.26262413187E+02 -0.31384768427E+01  0.34410156654E+02  0.47787271155E+02  0.20000000504E+02 0.  0.
         12    1    1    2    0    0 -0.26262413187E+02  0.31384768427E+01 -0.34410156654E+02  0.43400728845E+02  0.00000000000E+00 0. -1.
         11    1    3    3    0    0  0.13829880972E+02 -0.49648487631E+01  0.30489206040E+02  0.33845339651E+02  0.51100000000E-03 0. -1.
        -11    1    3    3    0    0  0.10839705958E+01  0.70902359038E+00  0.19926231030E+01  0.23766055196E+01  0.51100000000E-03 0.  1.
         12    1    3    3    0    0  0.11348561619E+02  0.11173483300E+01  0.19283275117E+01  0.11565325984E+02  0.00000000000E+00 0. -1.
</event>
<event>
 7    1  0.2492468E-009  0.4778727E+02  0.7816164E-02  0.1312668E+00
        -11   -1    0    0    0    0  0.00000000000E+00  0.00000000000E+00  0.45593999997E+02  0.45594000000E+02  0.51100000000E-03 0.  1.
         11   -1    0    0    0    0 -0.00000000000E+00 -0.00000000000E+00 -0.45593999997E+02  0.45594000000E+02  0.51100000000E-03 0. -1.
    9900012    2    1    2    0    0 -0.33498124348E+02  0.13271218128E+02  0.24194495137E+02  0.47787272352E+02  0.20000005963E+02 0.  0.
         12    1    1    2    0    0  0.33498124348E+02 -0.13271218128E+02 -0.24194495137E+02  0.43400727648E+02  0.00000000000E+00 0. -1.
         11    1    3    3    0    0 -0.17886596584E+02  0.10506701163E+02  0.62068112333E+01  0.21652843061E+02  0.51100000000E-03 0. -1.
        -11    1    3    3    0    0 -0.13103022878E+02  0.23193179842E+01  0.73617906490E+01  0.15207379994E+02  0.51100000000E-03 0.  1.
        -12    1    3    3    0    0 -0.25085048860E+01  0.44519898117E+00  0.10625893254E+02  0.10927049297E+02  0.00000000000E+00 0.  1.
</event>
<event>
 7    1  0.2492468E-009  0.4778727E+02  0.7816164E-02  0.1312668E+00
        -11   -1    0    0    0    0  0.00000000000E+00  0.00000000000E+00  0.45593999997E+02  0.45594000000E+02  0.51100000000E-03 0.  1.
         11   -1    0    0    0    0 -0.00000000000E+00 -0.00000000000E+00 -0.45593999997E+02  0.45594000000E+02  0.51100000000E-03 0. -1.
    9900012    2    1    2    0    0 -0.19438520378E+02  0.60950347778E+01  0.38322552960E+02  0.47787267416E+02  0.19999983459E+02 0.  0.
         12    1    1    2    0    0  0.19438520378E+02 -0.60950347778E+01 -0.38322552960E+02  0.43400732584E+02  0.00000000000E+00 0. -1.
         11    1    3    3    0    0 -0.20417317620E+01 -0.52172366074E+01  0.46292197383E+01  0.72675925898E+01  0.51100000000E-03 0. -1.
        -11    1    3    3    0    0 -0.77097935099E+01  0.23908311306E+01  0.67197883605E+01  0.10502977927E+02  0.51100000000E-03 0.  1.
         12    1    3    3    0    0 -0.96869951058E+01  0.89214402546E+01  0.26973544861E+02  0.30016696900E+02  0.00000000000E+00 0. -1.
</event>
<event>
 7    1  0.2492468E-009  0.4778727E+02  0.7816164E-02  0.1312668E+00
        -11   -1    0    0    0    0  0.00000000000E+00  0.00000000000E+00  0.45593999997E+02  0.45594000000E+02  0.51100000000E-03 0. -1.
         11   -1    0    0    0    0 -0.00000000000E+00 -0.00000000000E+00 -0.45593999997E+02  0.45594000000E+02  0.51100000000E-03 0.  1.
    9900012    2    1    2    0    0  0.31092446242E+02  0.29053417890E+02 -0.85312304745E+01  0.47787271921E+02  0.20000003995E+02 0.  0.
         12    1    1    2    0    0 -0.31092446242E+02 -0.29053417890E+02  0.85312304745E+01  0.43400728079E+02  0.00000000000E+00 0. -1.
         11    1    3    3    0    0  0.16481575108E+02  0.19069199772E+02 -0.42675953582E+01  0.25563432250E+02  0.51100000000E-03 0. -1.
        -11    1    3    3    0    0  0.12099222438E+02  0.13063406262E+02 -0.30190664875E+01  0.18059859620E+02  0.51100000000E-03 0.  1.
         12    1    3    3    0    0  0.25116486953E+01 -0.30791881435E+01 -0.12445686288E+01  0.41639800508E+01  0.00000000000E+00 0. -1.
</event>
<event>
 7    1  0.2492468E-009  0.4778727E+02  0.7816164E-02  0.1312668E+00
        -11   -1    0    0    0    0  0.00000000000E+00  0.00000000000E+00  0.45593999997E+02  0.45594000000E+02  0.51100000000E-03 0.  1.
         11   -1    0    0    0    0 -0.00000000000E+00 -0.00000000000E+00 -0.45593999997E+02  0.45594000000E+02  0.51100000000E-03 0. -1.
    9900012    2    1    2    0    0  0.74865432283E+01 -0.75189071969E+01  0.42083739583E+02  0.47787269220E+02  0.19999991681E+02 0.  0.
         12    1    1    2    0    0 -0.74865432283E+01  0.75189071969E+01 -0.42083739583E+02  0.43400730780E+02  0.00000000000E+00 0. -1.
         11    1    3    3    0    0  0.20445778495E+01 -0.72055173623E+00  0.17989568799E+00  0.21752829947E+01  0.51100000000E-03 0. -1.
        -11    1    3    3    0    0  0.10660741712E+02 -0.61162461663E+01  0.24197804611E+02  0.27140258459E+02  0.51100000000E-03 0.  1.
         12    1    3    3    0    0 -0.52187763329E+01 -0.68210929434E+00  0.17706039285E+02  0.18471727766E+02  0.00000000000E+00 0. -1.
</event>
<event>
 7    1  0.2492468E-009  0.4778728E+02  0.7816164E-02  0.1312668E+00
        -11   -1    0    0    0    0  0.00000000000E+00  0.00000000000E+00  0.45593999997E+02  0.45594000000E+02  0.51100000000E-03 0.  1.
         11   -1    0    0    0    0 -0.00000000000E+00 -0.00000000000E+00 -0.45593999997E+02  0.45594000000E+02  0.51100000000E-03 0. -1.
    9900012    2    1    2    0    0 -0.56050647681E+01  0.41748747279E+02 -0.10452173045E+02  0.47787279133E+02  0.20000036880E+02 0.  0.
         12    1    1    2    0    0  0.56050647681E+01 -0.41748747279E+02  0.10452173045E+02  0.43400720867E+02  0.00000000000E+00 0. -1.
         11    1    3    3    0    0  0.30559636877E+01  0.28126572022E+01 -0.12524711024E+01  0.43380454955E+01  0.51100000000E-03 0. -1.
        -11    1    3    3    0    0 -0.57097721533E+01  0.49723275990E+01 -0.50612090460E+01  0.91072156592E+01  0.51100000000E-03 0.  1.
        -12    1    3    3    0    0 -0.29512563024E+01  0.33963762477E+02 -0.41384928970E+01  0.34342017978E+02  0.00000000000E+00 0.  1.
</event>
<event>
 7    1  0.2492468E-009  0.4778728E+02  0.7816164E-02  0.1312668E+00
        -11   -1    0    0    0    0  0.00000000000E+00  0.00000000000E+00  0.45593999997E+02  0.45594000000E+02  0.51100000000E-03 0.  1.
         11   -1    0    0    0    0 -0.00000000000E+00 -0.00000000000E+00 -0.45593999997E+02  0.45594000000E+02  0.51100000000E-03 0. -1.
    9900012    2    1    2    0    0 -0.13907170376E+02 -0.30641487596E+02  0.27410083411E+02  0.47787276243E+02  0.20000023705E+02 0.  0.
         12    1    1    2    0    0  0.13907170376E+02  0.30641487596E+02 -0.27410083411E+02  0.43400723757E+02  0.00000000000E+00 0. -1.
         11    1    3    3    0    0 -0.11123003372E+01  0.16538128913E+01  0.13794082447E+01  0.24238557066E+01  0.51100000000E-03 0. -1.
        -11    1    3    3    0    0 -0.36624475177E+01 -0.19294869796E+00  0.36756955188E+01  0.51924453612E+01  0.51100000000E-03 0.  1.
        -12    1    3    3    0    0 -0.91324225213E+01 -0.32102351789E+02  0.22354979648E+02  0.40170975176E+02  0.00000000000E+00 0.  1.
</event>
<event>
 7    1  0.2492468E-009  0.4778727E+02  0.7816164E-02  0.1312668E+00
        -11   -1    0    0    0    0  0.00000000000E+00  0.00000000000E+00  0.45593999997E+02  0.45594000000E+02  0.51100000000E-03 0. -1.
         11   -1    0    0    0    0 -0.00000000000E+00 -0.00000000000E+00 -0.45593999997E+02  0.45594000000E+02  0.51100000000E-03 0.  1.
    9900012    2    1    2    0    0 -0.33689385335E+02 -0.47595667720E+01 -0.26944293304E+02  0.47787273027E+02  0.20000009040E+02 0.  0.
         12    1    1    2    0    0  0.33689385335E+02  0.47595667720E+01  0.26944293304E+02  0.43400726973E+02  0.00000000000E+00 0. -1.
         11    1    3    3    0    0 -0.66939676467E+01 -0.40403420146E+00 -0.61436768105E+01  0.90949003021E+01  0.51100000000E-03 0.  1.
        -11    1    3    3    0    0 -0.11215337058E+02  0.45335565555E+01 -0.14424935849E+01  0.12182680672E+02  0.51100000000E-03 0. -1.
         12    1    3    3    0    0 -0.15780080631E+02 -0.88890891260E+01 -0.19358122908E+02  0.26509692053E+02  0.00000000000E+00 0. -1.
</event>
<event>
 7    1  0.2492468E-009  0.4778727E+02  0.7816164E-02  0.1312668E+00
        -11   -1    0    0    0    0  0.00000000000E+00  0.00000000000E+00  0.45593999997E+02  0.45594000000E+02  0.51100000000E-03 0. -1.
         11   -1    0    0    0    0 -0.00000000000E+00 -0.00000000000E+00 -0.45593999997E+02  0.45594000000E+02  0.51100000000E-03 0.  1.
    9900012    2    1    2    0    0  0.32919765403E+02  0.23486456278E+02 -0.15757512249E+02  0.47787265271E+02  0.19999973678E+02 0.  0.
         12    1    1    2    0    0 -0.32919765403E+02 -0.23486456278E+02  0.15757512249E+02  0.43400734729E+02  0.00000000000E+00 0. -1.
         11    1    3    3    0    0  0.15301050811E+02  0.15176162919E+02 -0.65979067664E+01  0.22538199814E+02  0.51100000000E-03 0. -1.
        -11    1    3    3    0    0  0.14770554916E+02  0.11799991754E+02 -0.83729593444E+01  0.20676449075E+02  0.51100000000E-03 0.  1.
         12    1    3    3    0    0  0.28481596762E+01 -0.34896983956E+01 -0.78664613818E+00  0.45726163823E+01  0.00000000000E+00 0. -1.
</event>
<event>
 7    1  0.2492468E-009  0.4778727E+02  0.7816164E-02  0.1312668E+00
        -11   -1    0    0    0    0  0.00000000000E+00  0.00000000000E+00  0.45593999997E+02  0.45594000000E+02  0.51100000000E-03 0.  1.
         11   -1    0    0    0    0 -0.00000000000E+00 -0.00000000000E+00 -0.45593999997E+02  0.45594000000E+02  0.51100000000E-03 0. -1.
    9900012    2    1    2    0    0 -0.36915408739E+02  0.22547940671E+02  0.35307668203E+01  0.47787270223E+02  0.19999996253E+02 0.  0.
         12    1    1    2    0    0  0.36915408739E+02 -0.22547940671E+02 -0.35307668203E+01  0.43400729777E+02  0.00000000000E+00 0. -1.
         11    1    3    3    0    0  0.14459377122E+01  0.26561951521E+01  0.32734756275E+01  0.44566524992E+01  0.51100000000E-03 0. -1.
        -11    1    3    3    0    0 -0.35575468869E+01  0.86499366817E+00 -0.13228016204E+00  0.36635846109E+01  0.51100000000E-03 0.  1.
         12    1    3    3    0    0 -0.34803799564E+02  0.19026751851E+02  0.38957135481E+00  0.39667033112E+02  0.00000000000E+00 0. -1.
</event>
<event>
 7    1  0.2492468E-009  0.4778727E+02  0.7816164E-02  0.1312668E+00
        -11   -1    0    0    0    0  0.00000000000E+00  0.00000000000E+00  0.45593999997E+02  0.45594000000E+02  0.51100000000E-03 0.  1.
         11   -1    0    0    0    0 -0.00000000000E+00 -0.00000000000E+00 -0.45593999997E+02  0.45594000000E+02  0.51100000000E-03 0. -1.
    9900012    2    1    2    0    0  0.20611290634E+02  0.21512368122E+02  0.31559718900E+02  0.47787272577E+02  0.20000006988E+02 0.  0.
         12    1    1    2    0    0 -0.20611290634E+02 -0.21512368122E+02 -0.31559718900E+02  0.43400727423E+02  0.00000000000E+00 0. -1.
         11    1    3    3    0    0 -0.31384808959E+01  0.53707483491E+01  0.30722704924E+01  0.69378560379E+01  0.51100000000E-03 0. -1.
        -11    1    3    3    0    0  0.37032315726E+01  0.44342983733E+01  0.35593018108E+01  0.67856875691E+01  0.51100000000E-03 0.  1.
        -12    1    3    3    0    0  0.20046539957E+02  0.11707321399E+02  0.24928146597E+02  0.34063728970E+02  0.00000000000E+00 0.  1.
</event>
<event>
 7    1  0.2492468E-009  0.4778726E+02  0.7816164E-02  0.1312668E+00
        -11   -1    0    0    0    0  0.00000000000E+00  0.00000000000E+00  0.45593999997E+02  0.45594000000E+02  0.51100000000E-03 0.  1.
         11   -1    0    0    0    0 -0.00000000000E+00 -0.00000000000E+00 -0.45593999997E+02  0.45594000000E+02  0.51100000000E-03 0. -1.
    9900012    2    1    2    0    0  0.23592625561E+02  0.30269690777E+02  0.20267168445E+02  0.47787259484E+02  0.19999947289E+02 0.  0.
         12    1    1    2    0    0 -0.23592625561E+02 -0.30269690777E+02 -0.20267168445E+02  0.43400740516E+02  0.00000000000E+00 0. -1.
         11    1    3    3    0    0 -0.82923095018E+00  0.16787236973E+01 -0.67744951723E+00  0.19911492486E+01  0.51100000000E-03 0. -1.
        -11    1    3    3    0    0  0.20260794963E+02  0.24600548836E+02  0.99590914083E+01  0.33389673816E+02  0.51100000000E-03 0.  1.
        -12    1    3    3    0    0  0.41610615475E+01  0.39904182438E+01  0.10985526553E+02  0.12406436419E+02  0.00000000000E+00 0.  1.
</event>
<event>
 7    1  0.2492468E-009  0.4778727E+02  0.7816164E-02  0.1312668E+00
        -11   -1    0    0    0    0  0.00000000000E+00  0.00000000000E+00  0.45593999997E+02  0.45594000000E+02  0.51100000000E-03 0.  1.
         11   -1    0    0    0    0 -0.00000000000E+00 -0.00000000000E+00 -0.45593999997E+02  0.45594000000E+02  0.51100000000E-03 0. -1.
    9900012    2    1    2    0    0  0.34184495190E+02  0.12603687257E+02  0.23583692510E+02  0.47787271938E+02  0.20000004074E+02 0.  0.
         12    1    1    2    0    0 -0.34184495190E+02 -0.12603687257E+02 -0.23583692510E+02  0.43400728062E+02  0.00000000000E+00 0. -1.
         11    1    3    3    0    0  0.19130765153E+02  0.50780913564E+01  0.65883968531E+01  0.20860972185E+02  0.51100000000E-03 0. -1.
        -11    1    3    3    0    0  0.14227679908E+02  0.59341601450E+01  0.72822035446E+01  0.17049094431E+02  0.51100000000E-03 0.  1.
         12    1    3    3    0    0  0.82605012951E+00  0.15914357556E+01  0.97130921127E+01  0.98772053218E+01  0.00000000000E+00 0. -1.
</event>
<event>
 7    1  0.2492468E-009  0.4778727E+02  0.7816164E-02  0.1312668E+00
        -11   -1    0    0    0    0  0.00000000000E+00  0.00000000000E+00  0.45593999997E+02  0.45594000000E+02  0.51100000000E-03 0.  1.
         11   -1    0    0    0    0 -0.00000000000E+00 -0.00000000000E+00 -0.45593999997E+02  0.45594000000E+02  0.51100000000E-03 0. -1.
    9900012    2    1    2    0    0  0.23044182958E+02  0.14867429572E+02  0.33638495093E+02  0.47787272099E+02  0.20000004806E+02 0.  0.
         12    1    1    2    0    0 -0.23044182958E+02 -0.14867429572E+02 -0.33638495093E+02  0.43400727901E+02  0.00000000000E+00 0. -1.
         11    1    3    3    0    0  0.11859635502E+02  0.23495153436E+01  0.25929933700E+01  0.12365063342E+02  0.51100000000E-03 0. -1.
        -11    1    3    3    0    0 -0.18719522564E+00  0.16488525195E+00  0.29434393219E+00  0.38583391550E+00  0.51100000000E-03 0.  1.
        -12    1    3    3    0    0  0.11371742682E+02  0.12353028977E+02  0.30751157790E+02  0.35036374841E+02  0.00000000000E+00 0.  1.
</event>
<event>
 7    1  0.2492468E-009  0.4778728E+02  0.7816164E-02  0.1312668E+00
        -11   -1    0    0    0    0  0.00000000000E+00  0.00000000000E+00  0.45593999997E+02  0.45594000000E+02  0.51100000000E-03 0.  1.
         11   -1    0    0    0    0 -0.00000000000E+00 -0.00000000000E+00 -0.45593999997E+02  0.45594000000E+02  0.51100000000E-03 0. -1.
    9900012    2    1    2    0    0  0.40360877322E+02 -0.10826996215E+02 -0.11721714088E+02  0.47787275969E+02  0.20000022452E+02 0.  0.
         12    1    1    2    0    0 -0.40360877322E+02  0.10826996215E+02  0.11721714088E+02  0.43400724031E+02  0.00000000000E+00 0. -1.
         11    1    3    3    0    0  0.11424758008E+01  0.23063452397E+01 -0.27539107782E+01  0.37694169517E+01  0.51100000000E-03 0. -1.
        -11    1    3    3    0    0  0.41572571682E+01 -0.28450097889E+01 -0.52721814314E+01  0.72919657959E+01  0.51100000000E-03 0.  1.
        -12    1    3    3    0    0  0.35061144353E+02 -0.10288331666E+02 -0.36956218785E+01  0.36725893221E+02  0.00000000000E+00 0.  1.
</event>
<event>
 7    1  0.2492468E-009  0.4778727E+02  0.7816164E-02  0.1312668E+00
        -11   -1    0    0    0    0  0.00000000000E+00  0.00000000000E+00  0.45593999997E+02  0.45594000000E+02  0.51100000000E-03 0.  1.
         11   -1    0    0    0    0 -0.00000000000E+00 -0.00000000000E+00 -0.45593999997E+02  0.45594000000E+02  0.51100000000E-03 0. -1.
    9900012    2    1    2    0    0 -0.14847672006E+01 -0.42232272834E+02 -0.98921121016E+01  0.47787270925E+02  0.19999999456E+02 0.  0.
         12    1    1    2    0    0  0.14847672006E+01  0.42232272834E+02  0.98921121016E+01  0.43400729075E+02  0.00000000000E+00 0. -1.
         11    1    3    3    0    0 -0.77617692792E+01 -0.25190981788E+02 -0.60820477115E+01  0.27052207496E+02  0.51100000000E-03 0. -1.
        -11    1    3    3    0    0 -0.23107055853E+01 -0.45637910618E+01  0.26022594322E-02  0.51154233637E+01  0.51100000000E-03 0.  1.
         12    1    3    3    0    0  0.85877076638E+01 -0.12477499985E+02 -0.38126666494E+01  0.15619640065E+02  0.00000000000E+00 0. -1.
</event>
<event>
 7    1  0.2492468E-009  0.4778727E+02  0.7816164E-02  0.1312668E+00
        -11   -1    0    0    0    0  0.00000000000E+00  0.00000000000E+00  0.45593999997E+02  0.45594000000E+02  0.51100000000E-03 0. -1.
         11   -1    0    0    0    0 -0.00000000000E+00 -0.00000000000E+00 -0.45593999997E+02  0.45594000000E+02  0.51100000000E-03 0.  1.
    9900012    2    1    2    0    0 -0.23364196977E+02  0.33447571471E+02 -0.14798555405E+02  0.47787274433E+02  0.20000015449E+02 0.  0.
         12    1    1    2    0    0  0.23364196977E+02 -0.33447571471E+02  0.14798555405E+02  0.43400725567E+02  0.00000000000E+00 0. -1.
         11    1    3    3    0    0 -0.34186016502E+01  0.14978143710E+02 -0.10189605718E+02  0.18435283865E+02  0.51100000000E-03 0. -1.
        -11    1    3    3    0    0 -0.36940504358E+01  0.96312238414E+01 -0.12119375967E+00  0.10316063663E+02  0.51100000000E-03 0.  1.
         12    1    3    3    0    0 -0.16251544891E+02  0.88382039193E+01 -0.44877559279E+01  0.19035926905E+02  0.00000000000E+00 0. -1.
</event>
<event>
 7    1  0.2492468E-009  0.4778728E+02  0.7816164E-02  0.1312668E+00
        -11   -1    0    0    0    0  0.00000000000E+00  0.00000000000E+00  0.45593999997E+02  0.45594000000E+02  0.51100000000E-03 0. -1.
         11   -1    0    0    0    0 -0.00000000000E+00 -0.00000000000E+00 -0.45593999997E+02  0.45594000000E+02  0.51100000000E-03 0.  1.
    9900012    2    1    2    0    0  0.35288841914E+01 -0.18434795785E+02 -0.39132188033E+02  0.47787275818E+02  0.20000021765E+02 0.  0.
         12    1    1    2    0    0 -0.35288841914E+01  0.18434795785E+02  0.39132188033E+02  0.43400724182E+02  0.00000000000E+00 0. -1.
         11    1    3    3    0    0  0.27338933991E+00 -0.78691397188E+01 -0.21165084078E+02  0.22582269282E+02  0.51100000000E-03 0. -1.
        -11    1    3    3    0    0  0.47735805930E+00 -0.71202105677E+01 -0.19304597096E+02  0.20581368724E+02  0.51100000000E-03 0.  1.
         12    1    3    3    0    0  0.27781367922E+01 -0.34454454988E+01  0.13374931405E+01  0.46236378126E+01  0.00000000000E+00 0. -1.
</event>
<event>
 7    1  0.2492468E-009  0.4778727E+02  0.7816164E-02  0.1312668E+00
        -11   -1    0    0    0    0  0.00000000000E+00  0.00000000000E+00  0.45593999997E+02  0.45594000000E+02  0.51100000000E-03 0.  1.
         11   -1    0    0    0    0 -0.00000000000E+00 -0.00000000000E+00 -0.45593999997E+02  0.45594000000E+02  0.51100000000E-03 0. -1.
    9900012    2    1    2    0    0  0.38722621078E+01  0.26663969933E+02  0.34024424656E+02  0.47787272131E+02  0.20000004954E+02 0.  0.
         12    1    1    2    0    0 -0.38722621078E+01 -0.26663969933E+02 -0.34024424656E+02  0.43400727869E+02  0.00000000000E+00 0. -1.
         11    1    3    3    0    0  0.56548710494E+01  0.44937654460E+01  0.77728647466E+01  0.10610792671E+02  0.51100000000E-03 0. -1.
        -11    1    3    3    0    0  0.13996045879E+00  0.16491380333E+02  0.26458446626E+02  0.31177469627E+02  0.51100000000E-03 0.  1.
        -12    1    3    3    0    0 -0.19225694004E+01  0.56788241535E+01 -0.20688671709E+00  0.59990098332E+01  0.00000000000E+00 0.  1.
</event>
<event>
 7    1  0.2492468E-009  0.4778727E+02  0.7816164E-02  0.1312668E+00
        -11   -1    0    0    0    0  0.00000000000E+00  0.00000000000E+00  0.45593999997E+02  0.45594000000E+02  0.51100000000E-03 0.  1.
         11   -1    0    0    0    0 -0.00000000000E+00 -0.00000000000E+00 -0.45593999997E+02  0.45594000000E+02  0.51100000000E-03 0. -1.
    9900012    2    1    2    0    0 -0.24972745967E+02  0.35495801416E+02  0.18235962061E+00  0.47787271730E+02  0.20000003126E+02 0.  0.
         12    1    1    2    0    0  0.24972745967E+02 -0.35495801416E+02 -0.18235962061E+00  0.43400728270E+02  0.00000000000E+00 0. -1.
         11    1    3    3    0    0 -0.11839266581E+01  0.25743881969E+01 -0.49228352023E+01  0.56800936269E+01  0.51100000000E-03 0. -1.
        -11    1    3    3    0    0 -0.47185792557E+00  0.52514652450E+01 -0.11225995427E+01  0.53908039396E+01  0.51100000000E-03 0.  1.
        -12    1    3    3    0    0 -0.23316961383E+02  0.27669947975E+02  0.62277943656E+01  0.36716374164E+02  0.00000000000E+00 0.  1.
</event>
<event>
 7    1  0.2492468E-009  0.4778728E+02  0.7816164E-02  0.1312668E+00
        -11   -1    0    0    0    0  0.00000000000E+00  0.00000000000E+00  0.45593999997E+02  0.45594000000E+02  0.51100000000E-03 0. -1.
         11   -1    0    0    0    0 -0.00000000000E+00 -0.00000000000E+00 -0.45593999997E+02  0.45594000000E+02  0.51100000000E-03 0.  1.
    9900012    2    1    2    0    0 -0.63305904585E+00 -0.71993530444E+01 -0.42794755983E+02  0.47787278950E+02  0.20000036044E+02 0.  0.
         12    1    1    2    0    0  0.63305904585E+00  0.71993530444E+01  0.42794755983E+02  0.43400721050E+02  0.00000000000E+00 0. -1.
         11    1    3    3    0    0  0.17212170663E+01  0.18771072320E+01 -0.60745449213E+01  0.65868213891E+01  0.51100000000E-03 0. -1.
        -11    1    3    3    0    0 -0.54170270395E+01  0.23596403496E+01 -0.18931866641E+02  0.19832489993E+02  0.51100000000E-03 0.  1.
         12    1    3    3    0    0  0.30627509274E+01 -0.11436100626E+02 -0.17788344420E+02  0.21367967568E+02  0.00000000000E+00 0. -1.
</event>
<event>
 7    1  0.2492468E-009  0.4778727E+02  0.7816164E-02  0.1312668E+00
        -11   -1    0    0    0    0  0.00000000000E+00  0.00000000000E+00  0.45593999997E+02  0.45594000000E+02  0.51100000000E-03 0. -1.
         11   -1    0    0    0    0 -0.00000000000E+00 -0.00000000000E+00 -0.45593999997E+02  0.45594000000E+02  0.51100000000E-03 0.  1.
    9900012    2    1    2    0    0  0.36861416451E+02  0.86296162599E-01 -0.22909645226E+02  0.47787270580E+02  0.19999997883E+02 0.  0.
         12    1    1    2    0    0 -0.36861416451E+02 -0.86296162599E-01  0.22909645226E+02  0.43400729420E+02  0.00000000000E+00 0. -1.
         11    1    3    3    0    0  0.55747399644E+01 -0.24306599204E+01  0.16719646413E+01  0.63072418173E+01  0.51100000000E-03 0. -1.
        -11    1    3    3    0    0 -0.67714669653E-01  0.18256795775E+01 -0.26161061172E+01  0.31908780412E+01  0.51100000000E-03 0.  1.
        -12    1    3    3    0    0  0.31354391156E+02  0.69127650550E+00 -0.21965503751E+02  0.38289150722E+02  0.00000000000E+00 0.  1.
</event>
<event>
 7    1  0.2492468E-009  0.4778727E+02  0.7816164E-02  0.1312668E+00
        -11   -1    0    0    0    0  0.00000000000E+00  0.00000000000E+00  0.45593999997E+02  0.45594000000E+02  0.51100000000E-03 0.  1.
         11   -1    0    0    0    0 -0.00000000000E+00 -0.00000000000E+00 -0.45593999997E+02  0.45594000000E+02  0.51100000000E-03 0. -1.
    9900012    2    1    2    0    0 -0.34611235258E+02 -0.23488719455E+02  0.11574344357E+02  0.47787274257E+02  0.20000014649E+02 0.  0.
         12    1    1    2    0    0  0.34611235258E+02  0.23488719455E+02 -0.11574344357E+02  0.43400725743E+02  0.00000000000E+00 0. -1.
         11    1    3    3    0    0 -0.19714406501E+02 -0.58084209133E+01  0.76486768495E+01  0.21929382914E+02  0.51100000000E-03 0. -1.
        -11    1    3    3    0    0 -0.14119388623E+02 -0.12515144649E+02  0.66013825033E+01  0.19989102828E+02  0.51100000000E-03 0.  1.
        -12    1    3    3    0    0 -0.77744013430E+00 -0.51651538925E+01 -0.26757149955E+01  0.58687885149E+01  0.00000000000E+00 0.  1.
</event>
<event>
 7    1  0.2492468E-009  0.4778727E+02  0.7816164E-02  0.1312668E+00
        -11   -1    0    0    0    0  0.00000000000E+00  0.00000000000E+00  0.45593999997E+02  0.45594000000E+02  0.51100000000E-03 0. -1.
         11   -1    0    0    0    0 -0.00000000000E+00 -0.00000000000E+00 -0.45593999997E+02  0.45594000000E+02  0.51100000000E-03 0.  1.
    9900012    2    1    2    0    0 -0.19108305900E+02  0.26128598932E+02 -0.28910071155E+02  0.47787271311E+02  0.20000001216E+02 0.  0.
         12    1    1    2    0    0  0.19108305900E+02 -0.26128598932E+02  0.28910071155E+02  0.43400728689E+02  0.00000000000E+00 0. -1.
         11    1    3    3    0    0 -0.13620729820E+00  0.65222198827E+01 -0.47747848393E+01  0.80843351705E+01  0.51100000000E-03 0. -1.
        -11    1    3    3    0    0 -0.15345858093E+02  0.21798953532E+02 -0.23251843646E+02  0.35374255736E+02  0.51100000000E-03 0.  1.
         12    1    3    3    0    0 -0.36262405090E+01 -0.21925744827E+01 -0.88344266972E+00  0.43286804042E+01  0.00000000000E+00 0. -1.
</event>
<event>
 7    1  0.2492468E-009  0.4778729E+02  0.7816164E-02  0.1312668E+00
        -11   -1    0    0    0    0  0.00000000000E+00  0.00000000000E+00  0.45593999997E+02  0.45594000000E+02  0.51100000000E-03 0.  1.
         11   -1    0    0    0    0 -0.00000000000E+00 -0.00000000000E+00 -0.45593999997E+02  0.45594000000E+02  0.51100000000E-03 0. -1.
    9900012    2    1    2    0    0 -0.82637422401E+01 -0.15285447640E+02  0.39770435540E+02  0.47787287006E+02  0.20000072775E+02 0.  0.
         12    1    1    2    0    0  0.82637422401E+01  0.15285447640E+02 -0.39770435540E+02  0.43400712994E+02  0.00000000000E+00 0. -1.
         11    1    3    3    0    0 -0.41989809914E+00  0.29794154407E+01  0.34532002814E+01  0.45801553714E+01  0.51100000000E-03 0. -1.
        -11    1    3    3    0    0 -0.93182390773E+01 -0.60864059384E+01  0.17917522552E+02  0.21092926099E+02  0.51100000000E-03 0.  1.
        -12    1    3    3    0    0  0.14743949364E+01 -0.12178457142E+02  0.18399712706E+02  0.22114205535E+02  0.00000000000E+00 0.  1.
</event>
<event>
 7    1  0.2492468E-009  0.4778727E+02  0.7816164E-02  0.1312668E+00
        -11   -1    0    0    0    0  0.00000000000E+00  0.00000000000E+00  0.45593999997E+02  0.45594000000E+02  0.51100000000E-03 0.  1.
         11   -1    0    0    0    0 -0.00000000000E+00 -0.00000000000E+00 -0.45593999997E+02  0.45594000000E+02  0.51100000000E-03 0. -1.
    9900012    2    1    2    0    0  0.29932195360E+02  0.15467068597E+02  0.27357937232E+02  0.47787271209E+02  0.20000000749E+02 0.  0.
         12    1    1    2    0    0 -0.29932195360E+02 -0.15467068597E+02 -0.27357937232E+02  0.43400728791E+02  0.00000000000E+00 0. -1.
         11    1    3    3    0    0  0.29196629854E+01 -0.16739926335E+00 -0.76009257494E+00  0.30216213273E+01  0.51100000000E-03 0. -1.
        -11    1    3    3    0    0  0.27949491058E+02  0.10911224847E+02  0.24658580420E+02  0.38836509455E+02  0.51100000000E-03 0.  1.
        -12    1    3    3    0    0 -0.93695868311E+00  0.47232430135E+01  0.34594493861E+01  0.59291404262E+01  0.00000000000E+00 0.  1.
</event>
<event>
 7    1  0.2492468E-009  0.4778727E+02  0.7816164E-02  0.1312668E+00
        -11   -1    0    0    0    0  0.00000000000E+00  0.00000000000E+00  0.45593999997E+02  0.45594000000E+02  0.51100000000E-03 0. -1.
         11   -1    0    0    0    0 -0.00000000000E+00 -0.00000000000E+00 -0.45593999997E+02  0.45594000000E+02  0.51100000000E-03 0.  1.
    9900012    2    1    2    0    0 -0.30942708516E+02  0.18484365946E+02 -0.24176444178E+02  0.47787269041E+02  0.19999990866E+02 0.  0.
         12    1    1    2    0    0  0.30942708516E+02 -0.18484365946E+02  0.24176444178E+02  0.43400730959E+02  0.00000000000E+00 0. -1.
         11    1    3    3    0    0 -0.51660611247E+01 -0.13264575926E+01 -0.39987211515E+01  0.66661419425E+01  0.51100000000E-03 0. -1.
        -11    1    3    3    0    0 -0.11701396418E+02  0.81964727615E+01 -0.17635952666E+02  0.22696512300E+02  0.51100000000E-03 0.  1.
         12    1    3    3    0    0 -0.14075250973E+02  0.11614350777E+02 -0.25417703595E+01  0.18424614799E+02  0.00000000000E+00 0. -1.
</event>
<event>
 7    1  0.2492468E-009  0.4778727E+02  0.7816164E-02  0.1312668E+00
        -11   -1    0    0    0    0  0.00000000000E+00  0.00000000000E+00  0.45593999997E+02  0.45594000000E+02  0.51100000000E-03 0. -1.
         11   -1    0    0    0    0 -0.00000000000E+00 -0.00000000000E+00 -0.45593999997E+02  0.45594000000E+02  0.51100000000E-03 0.  1.
    9900012    2    1    2    0    0 -0.19443241658E+02 -0.36198304956E+02  0.13973774212E+02  0.47787270818E+02  0.19999998966E+02 0.  0.
         12    1    1    2    0    0  0.19443241658E+02  0.36198304956E+02 -0.13973774212E+02  0.43400729182E+02  0.00000000000E+00 0. -1.
         11    1    3    3    0    0 -0.93535577896E+01 -0.69747944006E+01  0.88833986888E+01  0.14664636810E+02  0.51100000000E-03 0. -1.
        -11    1    3    3    0    0 -0.10272589578E+02 -0.13305268451E+02  0.25283189032E+01  0.16998489989E+02  0.51100000000E-03 0.  1.
         12    1    3    3    0    0  0.18290570970E+00 -0.15918242105E+02  0.25620566203E+01  0.16124144018E+02  0.00000000000E+00 0. -1.
</event>
<event>
 7    1  0.2492468E-009  0.4778727E+02  0.7816164E-02  0.1312668E+00
        -11   -1    0    0    0    0  0.00000000000E+00  0.00000000000E+00  0.45593999997E+02  0.45594000000E+02  0.51100000000E-03 0.  1.
         11   -1    0    0    0    0 -0.00000000000E+00 -0.00000000000E+00 -0.45593999997E+02  0.45594000000E+02  0.51100000000E-03 0. -1.
    9900012    2    1    2    0    0  0.23274408914E+02  0.33454411116E+02  0.14924060898E+02  0.47787270431E+02  0.19999997205E+02 0.  0.
         12    1    1    2    0    0 -0.23274408914E+02 -0.33454411116E+02 -0.14924060898E+02  0.43400729569E+02  0.00000000000E+00 0. -1.
         11    1    3    3    0    0  0.95768703933E+01  0.60638245180E+01 -0.44286152729E+00  0.11343832726E+02  0.51100000000E-03 0. -1.
        -11    1    3    3    0    0  0.90626455534E+01  0.79869708887E+01  0.15557076472E+01  0.12179633613E+02  0.51100000000E-03 0.  1.
        -12    1    3    3    0    0  0.46348929676E+01  0.19403615709E+02  0.13811214778E+02  0.24263804093E+02  0.00000000000E+00 0.  1.
</event>
<event>
 7    1  0.2492468E-009  0.4778726E+02  0.7816164E-02  0.1312668E+00
        -11   -1    0    0    0    0  0.00000000000E+00  0.00000000000E+00  0.45593999997E+02  0.45594000000E+02  0.51100000000E-03 0.  1.
         11   -1    0    0    0    0 -0.00000000000E+00 -0.00000000000E+00 -0.45593999997E+02  0.45594000000E+02  0.51100000000E-03 0. -1.
    9900012    2    1    2    0    0 -0.16223974697E+02 -0.39125679569E+02 -0.94650779513E+01  0.47787264323E+02  0.19999969353E+02 0.  0.
         12    1    1    2    0    0  0.16223974697E+02  0.39125679569E+02  0.94650779513E+01  0.43400735677E+02  0.00000000000E+00 0. -1.
         11    1    3    3    0    0 -0.53112480395E+01 -0.15715888705E+02 -0.51405937321E+01  0.17367331911E+02  0.51100000000E-03 0. -1.
        -11    1    3    3    0    0 -0.29758349320E+01 -0.19418287492E+02  0.16494772900E+01  0.19714113174E+02  0.51100000000E-03 0.  1.
         12    1    3    3    0    0 -0.79368917259E+01 -0.39915033725E+01 -0.59739615091E+01  0.10705819238E+02  0.00000000000E+00 0. -1.
</event>
<event>
 7    1  0.2492468E-009  0.4778727E+02  0.7816164E-02  0.1312668E+00
        -11   -1    0    0    0    0  0.00000000000E+00  0.00000000000E+00  0.45593999997E+02  0.45594000000E+02  0.51100000000E-03 0.  1.
         11   -1    0    0    0    0 -0.00000000000E+00 -0.00000000000E+00 -0.45593999997E+02  0.45594000000E+02  0.51100000000E-03 0. -1.
    9900012    2    1    2    0    0  0.22409678246E+02  0.42050326856E+00  0.37165210758E+02  0.47787269674E+02  0.19999993753E+02 0.  0.
         12    1    1    2    0    0 -0.22409678246E+02 -0.42050326856E+00 -0.37165210758E+02  0.43400730326E+02  0.00000000000E+00 0. -1.
         11    1    3    3    0    0 -0.85956404313E+00 -0.31391453036E+01  0.29644613840E+01  0.44023987938E+01  0.51100000000E-03 0. -1.
        -11    1    3    3    0    0  0.51245662679E+01  0.64755401357E+01  0.93057891619E+01  0.12441523688E+02  0.51100000000E-03 0.  1.
        -12    1    3    3    0    0  0.18144676021E+02 -0.29158915635E+01  0.24894960212E+02  0.30943347193E+02  0.00000000000E+00 0.  1.
</event>
<event>
 7    1  0.2492468E-009  0.4778727E+02  0.7816164E-02  0.1312668E+00
        -11   -1    0    0    0    0  0.00000000000E+00  0.00000000000E+00  0.45593999997E+02  0.45594000000E+02  0.51100000000E-03 0. -1.
         11   -1    0    0    0    0 -0.00000000000E+00 -0.00000000000E+00 -0.45593999997E+02  0.45594000000E+02  0.51100000000E-03 0.  1.
    9900012    2    1    2    0    0 -0.93666612072E+01 -0.23365154069E+02 -0.35354757755E+02  0.47787266564E+02  0.19999979573E+02 0.  0.
         12    1    1    2    0    0  0.93666612072E+01  0.23365154069E+02  0.35354757755E+02  0.43400733436E+02  0.00000000000E+00 0. -1.
         11    1    3    3    0    0  0.55970126504E+01 -0.42681310562E+01 -0.57960097665E+01  0.91179615484E+01  0.51100000000E-03 0. -1.
        -11    1    3    3    0    0 -0.90593798844E+00 -0.27915648017E+01 -0.64484246895E+01  0.70848951240E+01  0.51100000000E-03 0.  1.
        -12    1    3    3    0    0 -0.14057735869E+02 -0.16305458211E+02 -0.23110323299E+02  0.31584409892E+02  0.00000000000E+00 0.  1.
</event>
<event>
 7    1  0.2492468E-009  0.4778727E+02  0.7816164E-02  0.1312668E+00
        -11   -1    0    0    0    0  0.00000000000E+00  0.00000000000E+00  0.45593999997E+02  0.45594000000E+02  0.51100000000E-03 0.  1.
         11   -1    0    0    0    0 -0.00000000000E+00 -0.00000000000E+00 -0.45593999997E+02  0.45594000000E+02  0.51100000000E-03 0. -1.
    9900012    2    1    2    0    0 -0.27304173094E+02 -0.17546970385E+02  0.28813357521E+02  0.47787267176E+02  0.19999982361E+02 0.  0.
         12    1    1    2    0    0  0.27304173094E+02  0.17546970385E+02 -0.28813357521E+02  0.43400732824E+02  0.00000000000E+00 0. -1.
         11    1    3    3    0    0 -0.11108737990E+01 -0.16506725393E+00 -0.88963460927E+00  0.14327378668E+01  0.51100000000E-03 0.  1.
        -11    1    3    3    0    0 -0.20432314369E+02 -0.37466626425E+01  0.16742746685E+02  0.26680264583E+02  0.51100000000E-03 0. -1.
        -12    1    3    3    0    0 -0.57609849268E+01 -0.13635240488E+02  0.12960245445E+02  0.19674264726E+02  0.00000000000E+00 0.  1.
</event>
<event>
 7    1  0.2492468E-009  0.4778727E+02  0.7816164E-02  0.1312668E+00
        -11   -1    0    0    0    0  0.00000000000E+00  0.00000000000E+00  0.45593999997E+02  0.45594000000E+02  0.51100000000E-03 0.  1.
         11   -1    0    0    0    0 -0.00000000000E+00 -0.00000000000E+00 -0.45593999997E+02  0.45594000000E+02  0.51100000000E-03 0. -1.
    9900012    2    1    2    0    0  0.10729916188E+02  0.26556592187E+02  0.32607361714E+02  0.47787265813E+02  0.19999976149E+02 0.  0.
         12    1    1    2    0    0 -0.10729916188E+02 -0.26556592187E+02 -0.32607361714E+02  0.43400734187E+02  0.00000000000E+00 0. -1.
         11    1    3    3    0    0  0.59558702116E+01  0.23162058131E+01  0.30674541508E+01  0.70884747707E+01  0.51100000000E-03 0.  1.
        -11    1    3    3    0    0  0.12739855876E+01  0.13010718556E+02  0.60007657036E+01  0.14384402174E+02  0.51100000000E-03 0. -1.
        -12    1    3    3    0    0  0.35000603892E+01  0.11229667818E+02  0.23539141860E+02  0.26314388868E+02  0.00000000000E+00 0.  1.
</event>
<event>
 7    1  0.2492468E-009  0.4778727E+02  0.7816164E-02  0.1312668E+00
        -11   -1    0    0    0    0  0.00000000000E+00  0.00000000000E+00  0.45593999997E+02  0.45594000000E+02  0.51100000000E-03 0.  1.
         11   -1    0    0    0    0 -0.00000000000E+00 -0.00000000000E+00 -0.45593999997E+02  0.45594000000E+02  0.51100000000E-03 0. -1.
    9900012    2    1    2    0    0  0.19176501431E+01  0.33667953777E+02  0.27320593278E+02  0.47787270621E+02  0.19999998068E+02 0.  0.
         12    1    1    2    0    0 -0.19176501431E+01 -0.33667953777E+02 -0.27320593278E+02  0.43400729379E+02  0.00000000000E+00 0. -1.
         11    1    3    3    0    0 -0.37588211007E+01  0.45560050515E+01  0.46616768726E+01  0.75244368309E+01  0.51100000000E-03 0. -1.
        -11    1    3    3    0    0  0.27556668908E+01  0.14877443553E+02  0.20640518216E+02  0.25592245294E+02  0.51100000000E-03 0.  1.
         12    1    3    3    0    0  0.29208043530E+01  0.14234505172E+02  0.20183981895E+01  0.14670588496E+02  0.00000000000E+00 0. -1.
</event>
<event>
 7    1  0.2492468E-009  0.4778727E+02  0.7816164E-02  0.1312668E+00
        -11   -1    0    0    0    0  0.00000000000E+00  0.00000000000E+00  0.45593999997E+02  0.45594000000E+02  0.51100000000E-03 0. -1.
         11   -1    0    0    0    0 -0.00000000000E+00 -0.00000000000E+00 -0.45593999997E+02  0.45594000000E+02  0.51100000000E-03 0.  1.
    9900012    2    1    2    0    0  0.17282505420E+02 -0.13962282543E+02 -0.37282608314E+02  0.47787271779E+02  0.20000003351E+02 0.  0.
         12    1    1    2    0    0 -0.17282505420E+02  0.13962282543E+02  0.37282608314E+02  0.43400728221E+02  0.00000000000E+00 0. -1.
         11    1    3    3    0    0  0.29292503416E+01 -0.93542456534E+00 -0.93341762099E+01  0.98276331057E+01  0.51100000000E-03 0. -1.
        -11    1    3    3    0    0  0.69729130046E+01 -0.28913509617E+01 -0.23456827330E+02  0.24641513241E+02  0.51100000000E-03 0.  1.
         12    1    3    3    0    0  0.73803420739E+01 -0.10135507016E+02 -0.44916047739E+01  0.13318125433E+02  0.00000000000E+00 0. -1.
</event>
<event>
 7    1  0.2492468E-009  0.4778726E+02  0.7816164E-02  0.1312668E+00
        -11   -1    0    0    0    0  0.00000000000E+00  0.00000000000E+00  0.45593999997E+02  0.45594000000E+02  0.51100000000E-03 0. -1.
         11   -1    0    0    0    0 -0.00000000000E+00 -0.00000000000E+00 -0.45593999997E+02  0.45594000000E+02  0.51100000000E-03 0.  1.
    9900012    2    1    2    0    0  0.30410068444E+01 -0.33822541358E+02 -0.27026139043E+02  0.47787260167E+02  0.19999950405E+02 0.  0.
         12    1    1    2    0    0 -0.30410068444E+01  0.33822541358E+02  0.27026139043E+02  0.43400739833E+02  0.00000000000E+00 0. -1.
         11    1    3    3    0    0 -0.10121977192E+01 -0.36394471043E+01 -0.53465455069E+01  0.65464241053E+01  0.51100000000E-03 0. -1.
        -11    1    3    3    0    0  0.10403312229E+02 -0.12322153871E+02 -0.99202280576E+01  0.18933444122E+02  0.51100000000E-03 0.  1.
        -12    1    3    3    0    0 -0.63501076651E+01 -0.17860940382E+02 -0.11759365478E+02  0.22307391939E+02  0.00000000000E+00 0.  1.
</event>
<event>
 7    1  0.2492468E-009  0.4778727E+02  0.7816164E-02  0.1312668E+00
        -11   -1    0    0    0    0  0.00000000000E+00  0.00000000000E+00  0.45593999997E+02  0.45594000000E+02  0.51100000000E-03 0.  1.
         11   -1    0    0    0    0 -0.00000000000E+00 -0.00000000000E+00 -0.45593999997E+02  0.45594000000E+02  0.51100000000E-03 0. -1.
    9900012    2    1    2    0    0 -0.13616464019E+01 -0.10090283809E+02  0.42189517351E+02  0.47787270945E+02  0.19999999545E+02 0.  0.
         12    1    1    2    0    0  0.13616464019E+01  0.10090283809E+02 -0.42189517351E+02  0.43400729055E+02  0.00000000000E+00 0. -1.
         11    1    3    3    0    0 -0.50047291209E+01 -0.14389370199E+01  0.74538179504E+01  0.90927034275E+01  0.51100000000E-03 0. -1.
        -11    1    3    3    0    0 -0.31607451615E+01  0.22561955276E+01  0.11522732156E+02  0.12159526505E+02  0.51100000000E-03 0.  1.
        -12    1    3    3    0    0  0.68038278805E+01 -0.10907542317E+02  0.23212967244E+02  0.26535041012E+02  0.00000000000E+00 0.  1.
</event>
<event>
 7    1  0.2541968E-009  0.4778727E+02  0.7816164E-02  0.1312668E+00
        -11   -1    0    0    0    0  0.00000000000E+00  0.00000000000E+00  0.45593999997E+02  0.45594000000E+02  0.51100000000E-03 0.  1.
         11   -1    0    0    0    0 -0.00000000000E+00 -0.00000000000E+00 -0.45593999997E+02  0.45594000000E+02  0.51100000000E-03 0. -1.
    9900012    2    1    2    0    0 -0.17671001130E+02 -0.28906340163E+02  0.27125316241E+02  0.47787267705E+02  0.19999984775E+02 0.  0.
         12    1    1    2    0    0  0.17671001130E+02  0.28906340163E+02 -0.27125316241E+02  0.43400732295E+02  0.00000000000E+00 0. -1.
         11    1    3    3    0    0 -0.12840920780E+02 -0.10851250517E+02  0.11066182242E+02  0.20127078127E+02  0.51100000000E-03 0. -1.
        -11    1    3    3    0    0 -0.76379931467E+01 -0.11852190075E+02  0.15304527468E+02  0.20809659059E+02  0.51100000000E-03 0.  1.
         12    1    3    3    0    0  0.28079127967E+01 -0.62028995717E+01  0.75460653002E+00  0.68505305186E+01  0.00000000000E+00 0. -1.
</event>
<event>
 7    1  0.2492468E-009  0.4778728E+02  0.7816164E-02  0.1312668E+00
        -11   -1    0    0    0    0  0.00000000000E+00  0.00000000000E+00  0.45593999997E+02  0.45594000000E+02  0.51100000000E-03 0. -1.
         11   -1    0    0    0    0 -0.00000000000E+00 -0.00000000000E+00 -0.45593999997E+02  0.45594000000E+02  0.51100000000E-03 0.  1.
    9900012    2    1    2    0    0 -0.13377933144E+02 -0.40051439555E+02  0.10026754315E+02  0.47787277567E+02  0.20000029739E+02 0.  0.
         12    1    1    2    0    0  0.13377933144E+02  0.40051439555E+02 -0.10026754315E+02  0.43400722433E+02  0.00000000000E+00 0. -1.
         11    1    3    3    0    0 -0.12340006604E+00 -0.77881251963E+01  0.64197315922E+01  0.10093714659E+02  0.51100000000E-03 0. -1.
        -11    1    3    3    0    0 -0.24352272646E+01 -0.15850316528E+02  0.74188264373E+01  0.17669234614E+02  0.51100000000E-03 0.  1.
        -12    1    3    3    0    0 -0.10819305813E+02 -0.16412997830E+02 -0.38118037148E+01  0.20024328294E+02  0.00000000000E+00 0.  1.
</event>
<event>
 7    1  0.2492468E-009  0.4778727E+02  0.7816164E-02  0.1312668E+00
        -11   -1    0    0    0    0  0.00000000000E+00  0.00000000000E+00  0.45593999997E+02  0.45594000000E+02  0.51100000000E-03 0.  1.
         11   -1    0    0    0    0 -0.00000000000E+00 -0.00000000000E+00 -0.45593999997E+02  0.45594000000E+02  0.51100000000E-03 0. -1.
    9900012    2    1    2    0    0 -0.36745539990E+02 -0.34089690971E+01  0.22842234253E+02  0.47787269071E+02  0.19999991002E+02 0.  0.
         12    1    1    2    0    0  0.36745539990E+02  0.34089690971E+01 -0.22842234253E+02  0.43400730929E+02  0.00000000000E+00 0. -1.
         11    1    3    3    0    0 -0.11385069909E+02 -0.38976127815E+01  0.15527597675E+01  0.12133518261E+02  0.51100000000E-03 0. -1.
        -11    1    3    3    0    0 -0.19617966208E+02  0.33978630872E+01  0.91475826448E+01  0.21910918287E+02  0.51100000000E-03 0.  1.
         12    1    3    3    0    0 -0.57425038736E+01 -0.29092194028E+01  0.12141891841E+02  0.13742832523E+02  0.00000000000E+00 0. -1.
</event>
<event>
 7    1  0.2492468E-009  0.4778727E+02  0.7816164E-02  0.1312668E+00
        -11   -1    0    0    0    0  0.00000000000E+00  0.00000000000E+00  0.45593999997E+02  0.45594000000E+02  0.51100000000E-03 0.  1.
         11   -1    0    0    0    0 -0.00000000000E+00 -0.00000000000E+00 -0.45593999997E+02  0.45594000000E+02  0.51100000000E-03 0. -1.
    9900012    2    1    2    0    0  0.28525172145E+02 -0.82475907074E+01  0.31653042960E+02  0.47787270432E+02  0.19999997210E+02 0.  0.
         12    1    1    2    0    0 -0.28525172145E+02  0.82475907074E+01 -0.31653042960E+02  0.43400729568E+02  0.00000000000E+00 0. -1.
         11    1    3    3    0    0  0.58143377076E+01 -0.83315311946E+00  0.11361742097E+02  0.12790224816E+02  0.51100000000E-03 0. -1.
        -11    1    3    3    0    0  0.18548549560E+02 -0.52520938881E+01  0.22653104093E+02  0.29745525819E+02  0.51100000000E-03 0.  1.
         12    1    3    3    0    0  0.41622848779E+01 -0.21623436998E+01 -0.23618032303E+01  0.52515197971E+01  0.00000000000E+00 0. -1.
</event>
<event>
 7    1  0.2492468E-009  0.4778727E+02  0.7816164E-02  0.1312668E+00
        -11   -1    0    0    0    0  0.00000000000E+00  0.00000000000E+00  0.45593999997E+02  0.45594000000E+02  0.51100000000E-03 0. -1.
         11   -1    0    0    0    0 -0.00000000000E+00 -0.00000000000E+00 -0.45593999997E+02  0.45594000000E+02  0.51100000000E-03 0.  1.
    9900012    2    1    2    0    0 -0.27856619857E+02  0.32300015330E+02 -0.80212767168E+01  0.47787272583E+02  0.20000007017E+02 0.  0.
         12    1    1    2    0    0  0.27856619857E+02 -0.32300015330E+02  0.80212767168E+01  0.43400727417E+02  0.00000000000E+00 0. -1.
         11    1    3    3    0    0 -0.35834639341E+01  0.21332861907E+01  0.33509846664E+01  0.53498805812E+01  0.51100000000E-03 0. -1.
        -11    1    3    3    0    0 -0.15705814390E+02  0.11011640612E+02 -0.14790270842E+01  0.19238408354E+02  0.51100000000E-03 0.  1.
        -12    1    3    3    0    0 -0.85673415323E+01  0.19155088527E+02 -0.98932342989E+01  0.23198983648E+02  0.00000000000E+00 0.  1.
</event>
<event>
 7    1  0.2492468E-009  0.4778727E+02  0.7816164E-02  0.1312668E+00
        -11   -1    0    0    0    0  0.00000000000E+00  0.00000000000E+00  0.45593999997E+02  0.45594000000E+02  0.51100000000E-03 0. -1.
         11   -1    0    0    0    0 -0.00000000000E+00 -0.00000000000E+00 -0.45593999997E+02  0.45594000000E+02  0.51100000000E-03 0.  1.
    9900012    2    1    2    0    0 -0.18117935922E+02 -0.39235457819E+02 -0.39928275230E+01  0.47787269315E+02  0.19999992117E+02 0.  0.
         12    1    1    2    0    0  0.18117935922E+02  0.39235457819E+02  0.39928275230E+01  0.43400730685E+02  0.00000000000E+00 0. -1.
         11    1    3    3    0    0 -0.42808013618E+01  0.61023639632E-01  0.20077219172E+01  0.47286289494E+01  0.51100000000E-03 0. -1.
        -11    1    3    3    0    0 -0.38858834443E+01 -0.11743745519E+02  0.23625553261E+01  0.12593542666E+02  0.51100000000E-03 0.  1.
        -12    1    3    3    0    0 -0.99512511162E+01 -0.27552735940E+02 -0.83631047663E+01  0.30465097700E+02  0.00000000000E+00 0.  1.
</event>
<event>
 7    1  0.2492468E-009  0.4778729E+02  0.7816164E-02  0.1312668E+00
        -11   -1    0    0    0    0  0.00000000000E+00  0.00000000000E+00  0.45593999997E+02  0.45594000000E+02  0.51100000000E-03 0.  1.
         11   -1    0    0    0    0 -0.00000000000E+00 -0.00000000000E+00 -0.45593999997E+02  0.45594000000E+02  0.51100000000E-03 0. -1.
    9900012    2    1    2    0    0 -0.36162433501E+02 -0.23936445890E+02  0.17165147138E+01  0.47787291926E+02  0.20000095207E+02 0.  0.
         12    1    1    2    0    0  0.36162433501E+02  0.23936445890E+02 -0.17165147138E+01  0.43400708074E+02  0.00000000000E+00 0. -1.
         11    1    3    3    0    0 -0.72011935973E+01 -0.63690657596E+01 -0.28125695002E+01  0.10016622950E+02  0.51100000000E-03 0. -1.
        -11    1    3    3    0    0 -0.96600911692E+01  0.37432738244E+00 -0.34058148491E+01  0.10249734506E+02  0.51100000000E-03 0.  1.
         12    1    3    3    0    0 -0.19301148735E+02 -0.17941707513E+02  0.79348990631E+01  0.27520934470E+02  0.00000000000E+00 0. -1.
</event>
<event>
 7    1  0.2492468E-009  0.4778727E+02  0.7816164E-02  0.1312668E+00
        -11   -1    0    0    0    0  0.00000000000E+00  0.00000000000E+00  0.45593999997E+02  0.45594000000E+02  0.51100000000E-03 0.  1.
         11   -1    0    0    0    0 -0.00000000000E+00 -0.00000000000E+00 -0.45593999997E+02  0.45594000000E+02  0.51100000000E-03 0. -1.
    9900012    2    1    2    0    0  0.58512670385E+01  0.30235685537E+02  0.30580861754E+02  0.47787272915E+02  0.20000008530E+02 0.  0.
         12    1    1    2    0    0 -0.58512670385E+01 -0.30235685537E+02 -0.30580861754E+02  0.43400727085E+02  0.00000000000E+00 0. -1.
         11    1    3    3    0    0  0.15250861210E+01  0.52586974058E+01  0.46209892036E+01  0.71647280174E+01  0.51100000000E-03 0. -1.
        -11    1    3    3    0    0  0.77533499954E+01  0.22568580571E+02  0.27266974743E+02  0.36234557773E+02  0.51100000000E-03 0.  1.
         12    1    3    3    0    0 -0.34271690780E+01  0.24084075599E+01 -0.13071021922E+01  0.43879871244E+01  0.00000000000E+00 0. -1.
</event>
<event>
 7    1  0.2492468E-009  0.4778727E+02  0.7816164E-02  0.1312668E+00
        -11   -1    0    0    0    0  0.00000000000E+00  0.00000000000E+00  0.45593999997E+02  0.45594000000E+02  0.51100000000E-03 0. -1.
         11   -1    0    0    0    0 -0.00000000000E+00 -0.00000000000E+00 -0.45593999997E+02  0.45594000000E+02  0.51100000000E-03 0.  1.
    9900012    2    1    2    0    0 -0.11350608554E+01 -0.75012536278E+01 -0.42732493428E+02  0.47787272313E+02  0.20000005785E+02 0.  0.
         12    1    1    2    0    0  0.11350608554E+01  0.75012536278E+01  0.42732493428E+02  0.43400727687E+02  0.00000000000E+00 0. -1.
         11    1    3    3    0    0  0.39479219063E+01 -0.12306915929E+01 -0.24852953082E+02  0.25194641619E+02  0.51100000000E-03 0. -1.
        -11    1    3    3    0    0 -0.30223546830E+01  0.19004751926E+01 -0.11448132425E+02  0.11991921034E+02  0.51100000000E-03 0.  1.
         12    1    3    3    0    0 -0.20606280788E+01 -0.81710372275E+01 -0.64314079210E+01  0.10600709660E+02  0.00000000000E+00 0. -1.
</event>
<event>
 7    1  0.2492468E-009  0.4778728E+02  0.7816164E-02  0.1312668E+00
        -11   -1    0    0    0    0  0.00000000000E+00  0.00000000000E+00  0.45593999997E+02  0.45594000000E+02  0.51100000000E-03 0. -1.
         11   -1    0    0    0    0 -0.00000000000E+00 -0.00000000000E+00 -0.45593999997E+02  0.45594000000E+02  0.51100000000E-03 0.  1.
    9900012    2    1    2    0    0 -0.25500662002E+02  0.21693557757E+02 -0.27617530774E+02  0.47787283223E+02  0.20000055527E+02 0.  0.
         12    1    1    2    0    0  0.25500662002E+02 -0.21693557757E+02  0.27617530774E+02  0.43400716777E+02  0.00000000000E+00 0. -1.
         11    1    3    3    0    0  0.20923277755E+01  0.25350083889E+01 -0.25078411757E+01  0.41344129784E+01  0.51100000000E-03 0. -1.
        -11    1    3    3    0    0 -0.88466947639E+01  0.72692741472E+00 -0.98328358421E+01  0.13246776690E+02  0.51100000000E-03 0.  1.
        -12    1    3    3    0    0 -0.18746295014E+02  0.18431621953E+02 -0.15276853756E+02  0.30406093555E+02  0.00000000000E+00 0.  1.
</event>
<event>
 7    1  0.2492468E-009  0.4778727E+02  0.7816164E-02  0.1312668E+00
        -11   -1    0    0    0    0  0.00000000000E+00  0.00000000000E+00  0.45593999997E+02  0.45594000000E+02  0.51100000000E-03 0. -1.
         11   -1    0    0    0    0 -0.00000000000E+00 -0.00000000000E+00 -0.45593999997E+02  0.45594000000E+02  0.51100000000E-03 0.  1.
    9900012    2    1    2    0    0 -0.29587652335E+02  0.31417763255E+02  0.45954301995E+01  0.47787274230E+02  0.20000014523E+02 0.  0.
         12    1    1    2    0    0  0.29587652335E+02 -0.31417763255E+02 -0.45954301995E+01  0.43400725770E+02  0.00000000000E+00 0. -1.
         11    1    3    3    0    0 -0.88241232805E+01  0.69313599176E+01 -0.46950929834E+01  0.12163585013E+02  0.51100000000E-03 0. -1.
        -11    1    3    3    0    0 -0.19165501221E+02  0.20874021455E+02  0.34138818797E+01  0.28542876493E+02  0.51100000000E-03 0.  1.
         12    1    3    3    0    0 -0.15980278335E+01  0.36123818823E+01  0.58766413033E+01  0.70808127237E+01  0.00000000000E+00 0. -1.
</event>
<event>
 7    1  0.2492468E-009  0.4778727E+02  0.7816164E-02  0.1312668E+00
        -11   -1    0    0    0    0  0.00000000000E+00  0.00000000000E+00  0.45593999997E+02  0.45594000000E+02  0.51100000000E-03 0.  1.
         11   -1    0    0    0    0 -0.00000000000E+00 -0.00000000000E+00 -0.45593999997E+02  0.45594000000E+02  0.51100000000E-03 0. -1.
    9900012    2    1    2    0    0  0.31820501317E+02 -0.14041010641E+02  0.25960148551E+02  0.47787267326E+02  0.19999983046E+02 0.  0.
         12    1    1    2    0    0 -0.31820501317E+02  0.14041010641E+02 -0.25960148551E+02  0.43400732674E+02  0.00000000000E+00 0. -1.
         11    1    3    3    0    0  0.82017515525E+01 -0.14257851242E+01  0.14409567847E+02  0.16641431355E+02  0.51100000000E-03 0. -1.
        -11    1    3    3    0    0  0.18234342634E+02 -0.46848008525E+01  0.10353865488E+02  0.21485835826E+02  0.51100000000E-03 0.  1.
         12    1    3    3    0    0  0.53844071301E+01 -0.79304246638E+01  0.11967152153E+01  0.96600001448E+01  0.00000000000E+00 0. -1.
</event>
<event>
 7    1  0.2492468E-009  0.4778727E+02  0.7816164E-02  0.1312668E+00
        -11   -1    0    0    0    0  0.00000000000E+00  0.00000000000E+00  0.45593999997E+02  0.45594000000E+02  0.51100000000E-03 0.  1.
         11   -1    0    0    0    0 -0.00000000000E+00 -0.00000000000E+00 -0.45593999997E+02  0.45594000000E+02  0.51100000000E-03 0. -1.
    9900012    2    1    2    0    0 -0.23449780812E+02 -0.31798647257E+02 -0.17960430104E+02  0.47787271469E+02  0.20000001938E+02 0.  0.
         12    1    1    2    0    0  0.23449780812E+02  0.31798647257E+02  0.17960430104E+02  0.43400728531E+02  0.00000000000E+00 0. -1.
         11    1    3    3    0    0 -0.15240768945E+01 -0.12911601075E+01 -0.46048601739E+01  0.50194264898E+01  0.51100000000E-03 0. -1.
        -11    1    3    3    0    0 -0.15815964948E+02 -0.11109833092E+02 -0.11144677645E+02  0.22310916132E+02  0.51100000000E-03 0.  1.
         12    1    3    3    0    0 -0.61097389692E+01 -0.19397654057E+02 -0.22108922846E+01  0.20456928848E+02  0.00000000000E+00 0. -1.
</event>
<event>
 7    1  0.2492468E-009  0.4778730E+02  0.7816164E-02  0.1312668E+00
        -11   -1    0    0    0    0  0.00000000000E+00  0.00000000000E+00  0.45593999997E+02  0.45594000000E+02  0.51100000000E-03 0.  1.
         11   -1    0    0    0    0 -0.00000000000E+00 -0.00000000000E+00 -0.45593999997E+02  0.45594000000E+02  0.51100000000E-03 0. -1.
    9900012    2    1    2    0    0  0.28450608023E+02 -0.24394009940E+02  0.21888714717E+02  0.47787301275E+02  0.20000137833E+02 0.  0.
         12    1    1    2    0    0 -0.28450608023E+02  0.24394009940E+02 -0.21888714717E+02  0.43400698725E+02  0.00000000000E+00 0. -1.
         11    1    3    3    0    0  0.10404124820E+02 -0.60498586624E+01  0.15137630641E+02  0.19338936495E+02  0.51100000000E-03 0. -1.
        -11    1    3    3    0    0  0.13766164395E+02 -0.11901378857E+02  0.91250809684E+01  0.20357239592E+02  0.51100000000E-03 0.  1.
         12    1    3    3    0    0  0.42803188082E+01 -0.64427724204E+01 -0.23739968919E+01  0.80911251877E+01  0.00000000000E+00 0. -1.
</event>
<event>
 7    1  0.2492468E-009  0.4778727E+02  0.7816164E-02  0.1312668E+00
        -11   -1    0    0    0    0  0.00000000000E+00  0.00000000000E+00  0.45593999997E+02  0.45594000000E+02  0.51100000000E-03 0.  1.
         11   -1    0    0    0    0 -0.00000000000E+00 -0.00000000000E+00 -0.45593999997E+02  0.45594000000E+02  0.51100000000E-03 0. -1.
    9900012    2    1    2    0    0  0.39080917200E+02 -0.15352628454E+02 -0.10981884059E+02  0.47787273426E+02  0.20000010860E+02 0.  0.
         12    1    1    2    0    0 -0.39080917200E+02  0.15352628454E+02  0.10981884059E+02  0.43400726574E+02  0.00000000000E+00 0. -1.
         11    1    3    3    0    0  0.13532966329E+02 -0.85465801584E+01 -0.60413646001E+01  0.17107989262E+02  0.51100000000E-03 0. -1.
        -11    1    3    3    0    0  0.23451703427E+02 -0.91287456708E+01 -0.40469505857E+00  0.25169031954E+02  0.51100000000E-03 0.  1.
         12    1    3    3    0    0  0.20962474439E+01  0.23226973750E+01 -0.45358244000E+01  0.55102522110E+01  0.00000000000E+00 0. -1.
</event>
<event>
 7    1  0.2492468E-009  0.4778727E+02  0.7816164E-02  0.1312668E+00
        -11   -1    0    0    0    0  0.00000000000E+00  0.00000000000E+00  0.45593999997E+02  0.45594000000E+02  0.51100000000E-03 0.  1.
         11   -1    0    0    0    0 -0.00000000000E+00 -0.00000000000E+00 -0.45593999997E+02  0.45594000000E+02  0.51100000000E-03 0. -1.
    9900012    2    1    2    0    0 -0.33284070741E+02  0.20376901424E+02  0.18988836843E+02  0.47787269575E+02  0.19999993302E+02 0.  0.
         12    1    1    2    0    0  0.33284070741E+02 -0.20376901424E+02 -0.18988836843E+02  0.43400730425E+02  0.00000000000E+00 0. -1.
         11    1    3    3    0    0 -0.46245056707E+01  0.27231164078E+01  0.52843870660E+01  0.75316772762E+01  0.51100000000E-03 0.  1.
        -11    1    3    3    0    0 -0.30798064764E+02  0.17886685991E+02  0.12268561941E+02  0.37669243970E+02  0.51100000000E-03 0. -1.
         12    1    3    3    0    0  0.21384996933E+01 -0.23290097400E+00  0.14358878364E+01  0.25863483293E+01  0.00000000000E+00 0. -1.
</event>
<event>
 7    1  0.2492468E-009  0.4778727E+02  0.7816164E-02  0.1312668E+00
        -11   -1    0    0    0    0  0.00000000000E+00  0.00000000000E+00  0.45593999997E+02  0.45594000000E+02  0.51100000000E-03 0.  1.
         11   -1    0    0    0    0 -0.00000000000E+00 -0.00000000000E+00 -0.45593999997E+02  0.45594000000E+02  0.51100000000E-03 0. -1.
    9900012    2    1    2    0    0 -0.39636621568E+02 -0.16755797243E+02  0.56395643772E+01  0.47787271930E+02  0.20000004039E+02 0.  0.
         12    1    1    2    0    0  0.39636621568E+02  0.16755797243E+02 -0.56395643772E+01  0.43400728070E+02  0.00000000000E+00 0. -1.
         11    1    3    3    0    0 -0.32179036519E+01  0.24523205047E+01  0.19837535537E+01  0.45060024627E+01  0.51100000000E-03 0. -1.
        -11    1    3    3    0    0 -0.20026859182E+01  0.75332301031E+00  0.27508414659E+01  0.34850215891E+01  0.51100000000E-03 0.  1.
        -12    1    3    3    0    0 -0.34416031998E+02 -0.19961440758E+02  0.90496935761E+00  0.39796247878E+02  0.00000000000E+00 0.  1.
</event>
<event>
 7    1  0.2492468E-009  0.4778726E+02  0.7816164E-02  0.1312668E+00
        -11   -1    0    0    0    0  0.00000000000E+00  0.00000000000E+00  0.45593999997E+02  0.45594000000E+02  0.51100000000E-03 0.  1.
         11   -1    0    0    0    0 -0.00000000000E+00 -0.00000000000E+00 -0.45593999997E+02  0.45594000000E+02  0.51100000000E-03 0. -1.
    9900012    2    1    2    0    0 -0.25133074831E+02  0.80226781872E+01  0.34461412983E+02  0.47787264977E+02  0.19999972336E+02 0.  0.
         12    1    1    2    0    0  0.25133074831E+02 -0.80226781872E+01 -0.34461412983E+02  0.43400735023E+02  0.00000000000E+00 0. -1.
         11    1    3    3    0    0 -0.14592312529E+02  0.41889908717E+01  0.84617141028E+01  0.17380559119E+02  0.51100000000E-03 0. -1.
        -11    1    3    3    0    0 -0.94423158912E+01  0.27766110318E+01  0.89934178131E+01  0.13332233963E+02  0.51100000000E-03 0.  1.
         12    1    3    3    0    0 -0.10984464112E+01  0.10570762837E+01  0.17006281067E+02  0.17074471896E+02  0.00000000000E+00 0. -1.
</event>
<event>
 7    1  0.2492468E-009  0.4778726E+02  0.7816164E-02  0.1312668E+00
        -11   -1    0    0    0    0  0.00000000000E+00  0.00000000000E+00  0.45593999997E+02  0.45594000000E+02  0.51100000000E-03 0.  1.
         11   -1    0    0    0    0 -0.00000000000E+00 -0.00000000000E+00 -0.45593999997E+02  0.45594000000E+02  0.51100000000E-03 0. -1.
    9900012    2    1    2    0    0  0.14970477905E+02  0.24094288506E+02  0.32847740073E+02  0.47787262964E+02  0.19999963160E+02 0.  0.
         12    1    1    2    0    0 -0.14970477905E+02 -0.24094288506E+02 -0.32847740073E+02  0.43400737036E+02  0.00000000000E+00 0. -1.
         11    1    3    3    0    0 -0.10715563531E+01  0.68825316286E+01  0.64086283408E+01  0.94650933492E+01  0.51100000000E-03 0. -1.
        -11    1    3    3    0    0  0.49170798778E+01  0.11102026630E+02  0.21521635479E+02  0.24710594160E+02  0.51100000000E-03 0.  1.
         12    1    3    3    0    0  0.11124954380E+02  0.61097302476E+01  0.49174762537E+01  0.13611575455E+02  0.00000000000E+00 0. -1.
</event>
<event>
 7    1  0.2492468E-009  0.4778727E+02  0.7816164E-02  0.1312668E+00
        -11   -1    0    0    0    0  0.00000000000E+00  0.00000000000E+00  0.45593999997E+02  0.45594000000E+02  0.51100000000E-03 0. -1.
         11   -1    0    0    0    0 -0.00000000000E+00 -0.00000000000E+00 -0.45593999997E+02  0.45594000000E+02  0.51100000000E-03 0.  1.
    9900012    2    1    2    0    0  0.40536017227E+02 -0.12487757072E+02 -0.91929425609E+01  0.47787274635E+02  0.20000016370E+02 0.  0.
         12    1    1    2    0    0 -0.40536017227E+02  0.12487757072E+02  0.91929425609E+01  0.43400725365E+02  0.00000000000E+00 0. -1.
         11    1    3    3    0    0  0.13511159138E+02 -0.47065273753E+01 -0.10420584184E+02  0.17700039440E+02  0.51100000000E-03 0.  1.
        -11    1    3    3    0    0  0.36378424109E+00 -0.72183562963E-01 -0.21024606481E+01  0.21349216564E+01  0.51100000000E-03 0. -1.
        -12    1    3    3    0    0  0.26661073848E+02 -0.77090461333E+01  0.33301022716E+01  0.27952313538E+02  0.00000000000E+00 0.  1.
</event>
<event>
 7    1  0.2492468E-009  0.4778727E+02  0.7816164E-02  0.1312668E+00
        -11   -1    0    0    0    0  0.00000000000E+00  0.00000000000E+00  0.45593999997E+02  0.45594000000E+02  0.51100000000E-03 0. -1.
         11   -1    0    0    0    0 -0.00000000000E+00 -0.00000000000E+00 -0.45593999997E+02  0.45594000000E+02  0.51100000000E-03 0.  1.
    9900012    2    1    2    0    0 -0.29886606944E+02  0.28238389016E+02  0.13892704796E+02  0.47787272640E+02  0.20000007275E+02 0.  0.
         12    1    1    2    0    0  0.29886606944E+02 -0.28238389016E+02 -0.13892704796E+02  0.43400727360E+02  0.00000000000E+00 0. -1.
         11    1    3    3    0    0 -0.89753169444E+01  0.12590050006E+02  0.25630236552E+01  0.15672739516E+02  0.51100000000E-03 0. -1.
        -11    1    3    3    0    0 -0.23241799882E+02  0.14558583487E+02  0.98116061712E+01  0.29127327904E+02  0.51100000000E-03 0.  1.
        -12    1    3    3    0    0  0.23305098830E+01  0.10897555232E+01  0.15180749696E+01  0.29872052203E+01  0.00000000000E+00 0.  1.
</event>
<event>
 7    1  0.2492468E-009  0.4778727E+02  0.7816164E-02  0.1312668E+00
        -11   -1    0    0    0    0  0.00000000000E+00  0.00000000000E+00  0.45593999997E+02  0.45594000000E+02  0.51100000000E-03 0.  1.
         11   -1    0    0    0    0 -0.00000000000E+00 -0.00000000000E+00 -0.45593999997E+02  0.45594000000E+02  0.51100000000E-03 0. -1.
    9900012    2    1    2    0    0  0.16344258717E+02 -0.96704933168E+01  0.39025248632E+02  0.47787271150E+02  0.20000000479E+02 0.  0.
         12    1    1    2    0    0 -0.16344258717E+02  0.96704933168E+01 -0.39025248632E+02  0.43400728850E+02  0.00000000000E+00 0. -1.
         11    1    3    3    0    0  0.87483748326E+01 -0.45569153576E+01  0.14302744612E+02  0.17374350160E+02  0.51100000000E-03 0.  1.
        -11    1    3    3    0    0  0.41445968557E+01  0.40645500950E+01  0.16900493821E+02  0.17869665420E+02  0.51100000000E-03 0. -1.
         12    1    3    3    0    0  0.34512870285E+01 -0.91781280542E+01  0.78220101989E+01  0.12543255570E+02  0.00000000000E+00 0. -1.
</event>
<event>
 7    1  0.2492468E-009  0.4778727E+02  0.7816164E-02  0.1312668E+00
        -11   -1    0    0    0    0  0.00000000000E+00  0.00000000000E+00  0.45593999997E+02  0.45594000000E+02  0.51100000000E-03 0.  1.
         11   -1    0    0    0    0 -0.00000000000E+00 -0.00000000000E+00 -0.45593999997E+02  0.45594000000E+02  0.51100000000E-03 0. -1.
    9900012    2    1    2    0    0  0.34210175107E+02  0.25755400763E+02  0.70672819554E+01  0.47787271624E+02  0.20000002643E+02 0.  0.
         12    1    1    2    0    0 -0.34210175107E+02 -0.25755400763E+02 -0.70672819554E+01  0.43400728376E+02  0.00000000000E+00 0. -1.
         11    1    3    3    0    0  0.11622017599E+01  0.41847093019E+01 -0.15964484478E+00  0.43460317084E+01  0.51100000000E-03 0. -1.
        -11    1    3    3    0    0  0.11943659168E+02 -0.80939216510E+00  0.67623057607E+00  0.11990137533E+02  0.51100000000E-03 0.  1.
        -12    1    3    3    0    0  0.21104314179E+02  0.22380083626E+02  0.65506962241E+01  0.31451102383E+02  0.00000000000E+00 0.  1.
</event>
<event>
 7    1  0.2492468E-009  0.4778727E+02  0.7816164E-02  0.1312668E+00
        -11   -1    0    0    0    0  0.00000000000E+00  0.00000000000E+00  0.45593999997E+02  0.45594000000E+02  0.51100000000E-03 0. -1.
         11   -1    0    0    0    0 -0.00000000000E+00 -0.00000000000E+00 -0.45593999997E+02  0.45594000000E+02  0.51100000000E-03 0.  1.
    9900012    2    1    2    0    0 -0.33136078659E+02  0.52110763882E+01  0.27540302751E+02  0.47787270724E+02  0.19999998540E+02 0.  0.
         12    1    1    2    0    0  0.33136078659E+02 -0.52110763882E+01 -0.27540302751E+02  0.43400729276E+02  0.00000000000E+00 0. -1.
         11    1    3    3    0    0 -0.12445332853E+02  0.70452490426E+01  0.15192505718E+02  0.20864660893E+02  0.51100000000E-03 0. -1.
        -11    1    3    3    0    0 -0.61482289113E+01  0.34854844467E+01  0.83313911230E+01  0.10925264248E+02  0.51100000000E-03 0.  1.
        -12    1    3    3    0    0 -0.14542516894E+02 -0.53196571012E+01  0.40164059102E+01  0.15997345584E+02  0.00000000000E+00 0.  1.
</event>
<event>
 7    1  0.2492468E-009  0.4778729E+02  0.7816164E-02  0.1312668E+00
        -11   -1    0    0    0    0  0.00000000000E+00  0.00000000000E+00  0.45593999997E+02  0.45594000000E+02  0.51100000000E-03 0.  1.
         11   -1    0    0    0    0 -0.00000000000E+00 -0.00000000000E+00 -0.45593999997E+02  0.45594000000E+02  0.51100000000E-03 0. -1.
    9900012    2    1    2    0    0 -0.32860991584E+02 -0.17601833028E+01  0.28296271052E+02  0.47787286082E+02  0.20000068564E+02 0.  0.
         12    1    1    2    0    0  0.32860991584E+02  0.17601833028E+01 -0.28296271052E+02  0.43400713918E+02  0.00000000000E+00 0. -1.
         11    1    3    3    0    0 -0.26895448284E+01 -0.19781784549E+01  0.32473309133E+01  0.46574670911E+01  0.51100000000E-03 0. -1.
        -11    1    3    3    0    0 -0.18395930122E+02 -0.60057733655E+01  0.67458974121E+01  0.20493576821E+02  0.51100000000E-03 0.  1.
         12    1    3    3    0    0 -0.11775516634E+02  0.62237685175E+01  0.18303042726E+02  0.22636242170E+02  0.00000000000E+00 0. -1.
</event>
<event>
 7    1  0.2492468E-009  0.4778726E+02  0.7816164E-02  0.1312668E+00
        -11   -1    0    0    0    0  0.00000000000E+00  0.00000000000E+00  0.45593999997E+02  0.45594000000E+02  0.51100000000E-03 0.  1.
         11   -1    0    0    0    0 -0.00000000000E+00 -0.00000000000E+00 -0.45593999997E+02  0.45594000000E+02  0.51100000000E-03 0. -1.
    9900012    2    1    2    0    0  0.59993808902E+01 -0.83352472424E+01  0.42168182147E+02  0.47787256882E+02  0.19999935427E+02 0.  0.
         12    1    1    2    0    0 -0.59993808902E+01  0.83352472424E+01 -0.42168182147E+02  0.43400743118E+02  0.00000000000E+00 0. -1.
         11    1    3    3    0    0  0.34417227819E+01 -0.31961992451E+01  0.19185950791E+01  0.50736725023E+01  0.51100000000E-03 0. -1.
        -11    1    3    3    0    0  0.55103697869E+01 -0.74613646751E+01  0.19101945058E+02  0.21234887409E+02  0.51100000000E-03 0.  1.
         12    1    3    3    0    0 -0.29527116786E+01  0.23223166779E+01  0.21147642009E+02  0.21478696971E+02  0.00000000000E+00 0. -1.
</event>
<event>
 7    1  0.2492468E-009  0.4778727E+02  0.7816164E-02  0.1312668E+00
        -11   -1    0    0    0    0  0.00000000000E+00  0.00000000000E+00  0.45593999997E+02  0.45594000000E+02  0.51100000000E-03 0.  1.
         11   -1    0    0    0    0 -0.00000000000E+00 -0.00000000000E+00 -0.45593999997E+02  0.45594000000E+02  0.51100000000E-03 0. -1.
    9900012    2    1    2    0    0 -0.99697739352E+01 -0.19331989536E+02  0.37556637752E+02  0.47787271308E+02  0.20000001202E+02 0.  0.
         12    1    1    2    0    0  0.99697739352E+01  0.19331989536E+02 -0.37556637752E+02  0.43400728692E+02  0.00000000000E+00 0. -1.
         11    1    3    3    0    0 -0.72496588034E+01 -0.19928765941E+01  0.12406243637E+02  0.14506687813E+02  0.51100000000E-03 0. -1.
        -11    1    3    3    0    0 -0.55804966046E+00 -0.44137310366E+01  0.17605465448E+02  0.18158878131E+02  0.51100000000E-03 0.  1.
         12    1    3    3    0    0 -0.21620654713E+01 -0.12925381905E+02  0.75449286683E+01  0.15121705364E+02  0.00000000000E+00 0. -1.
</event>
<event>
 7    1  0.2492468E-009  0.4778727E+02  0.7816164E-02  0.1312668E+00
        -11   -1    0    0    0    0  0.00000000000E+00  0.00000000000E+00  0.45593999997E+02  0.45594000000E+02  0.51100000000E-03 0.  1.
         11   -1    0    0    0    0 -0.00000000000E+00 -0.00000000000E+00 -0.45593999997E+02  0.45594000000E+02  0.51100000000E-03 0. -1.
    9900012    2    1    2    0    0 -0.36533288117E+02  0.22030230943E+02 -0.79756562058E+01  0.47787270652E+02  0.19999998211E+02 0.  0.
         12    1    1    2    0    0  0.36533288117E+02 -0.22030230943E+02  0.79756562058E+01  0.43400729348E+02  0.00000000000E+00 0. -1.
         11    1    3    3    0    0 -0.13998781577E+02  0.55201630100E+01 -0.96339975698E+01  0.17867624205E+02  0.51100000000E-03 0. -1.
        -11    1    3    3    0    0 -0.17574745258E+02  0.70439315816E+01 -0.81153370403E+00  0.18951180180E+02  0.51100000000E-03 0.  1.
        -12    1    3    3    0    0 -0.49597612821E+01  0.94661363512E+01  0.24698750680E+01  0.10968466267E+02  0.00000000000E+00 0.  1.
</event>
<event>
 7    1  0.2492468E-009  0.4778728E+02  0.7816164E-02  0.1312668E+00
        -11   -1    0    0    0    0  0.00000000000E+00  0.00000000000E+00  0.45593999997E+02  0.45594000000E+02  0.51100000000E-03 0. -1.
         11   -1    0    0    0    0 -0.00000000000E+00 -0.00000000000E+00 -0.45593999997E+02  0.45594000000E+02  0.51100000000E-03 0.  1.
    9900012    2    1    2    0    0 -0.31059899989E+01 -0.34739819906E+02 -0.25828677007E+02  0.47787276308E+02  0.20000024001E+02 0.  0.
         12    1    1    2    0    0  0.31059899989E+01  0.34739819906E+02  0.25828677007E+02  0.43400723692E+02  0.00000000000E+00 0. -1.
         11    1    3    3    0    0  0.20682024521E+01 -0.74563732746E+00 -0.70952661587E+01  0.74280709831E+01  0.51100000000E-03 0. -1.
        -11    1    3    3    0    0  0.17471462501E+01 -0.77487799386E+01 -0.76901382965E+01  0.11055963904E+02  0.51100000000E-03 0.  1.
        -12    1    3    3    0    0 -0.69213387011E+01 -0.26245402640E+02 -0.11043272552E+02  0.29303241422E+02  0.00000000000E+00 0.  1.
</event>
<event>
 7    1  0.2492468E-009  0.4778727E+02  0.7816164E-02  0.1312668E+00
        -11   -1    0    0    0    0  0.00000000000E+00  0.00000000000E+00  0.45593999997E+02  0.45594000000E+02  0.51100000000E-03 0.  1.
         11   -1    0    0    0    0 -0.00000000000E+00 -0.00000000000E+00 -0.45593999997E+02  0.45594000000E+02  0.51100000000E-03 0. -1.
    9900012    2    1    2    0    0 -0.41377849907E+02  0.67762750298E+01 -0.11206200776E+02  0.47787270720E+02  0.19999998522E+02 0.  0.
         12    1    1    2    0    0  0.41377849907E+02 -0.67762750298E+01  0.11206200776E+02  0.43400729280E+02  0.00000000000E+00 0. -1.
         11    1    3    3    0    0 -0.26261485292E+00 -0.11535196930E+01 -0.17964263582E+01  0.21509816747E+01  0.51100000000E-03 0. -1.
        -11    1    3    3    0    0 -0.19331128428E+02 -0.39679135229E+01 -0.56869549886E+01  0.20537242301E+02  0.51100000000E-03 0.  1.
         12    1    3    3    0    0 -0.21784106626E+02  0.11897708246E+02 -0.37228194293E+01  0.25099046745E+02  0.00000000000E+00 0. -1.
</event>
<event>
 7    1  0.2492468E-009  0.4778726E+02  0.7816164E-02  0.1312668E+00
        -11   -1    0    0    0    0  0.00000000000E+00  0.00000000000E+00  0.45593999997E+02  0.45594000000E+02  0.51100000000E-03 0.  1.
         11   -1    0    0    0    0 -0.00000000000E+00 -0.00000000000E+00 -0.45593999997E+02  0.45594000000E+02  0.51100000000E-03 0. -1.
    9900012    2    1    2    0    0 -0.29542400794E+02  0.27475272542E+02  0.15999372677E+02  0.47787263001E+02  0.19999963329E+02 0.  0.
         12    1    1    2    0    0  0.29542400794E+02 -0.27475272542E+02 -0.15999372677E+02  0.43400736999E+02  0.00000000000E+00 0. -1.
         11    1    3    3    0    0 -0.81343654145E+01  0.12905971636E+02 -0.23909163849E+01  0.15441777293E+02  0.51100000000E-03 0. -1.
        -11    1    3    3    0    0 -0.11613355403E+02  0.11494555019E+02  0.11063062895E+02  0.19732870538E+02  0.51100000000E-03 0.  1.
        -12    1    3    3    0    0 -0.97946799766E+01  0.30747458874E+01  0.73272261669E+01  0.12612615170E+02  0.00000000000E+00 0.  1.
</event>
<event>
 7    1  0.2492468E-009  0.4778727E+02  0.7816164E-02  0.1312668E+00
        -11   -1    0    0    0    0  0.00000000000E+00  0.00000000000E+00  0.45593999997E+02  0.45594000000E+02  0.51100000000E-03 0.  1.
         11   -1    0    0    0    0 -0.00000000000E+00 -0.00000000000E+00 -0.45593999997E+02  0.45594000000E+02  0.51100000000E-03 0. -1.
    9900012    2    1    2    0    0  0.15058513855E+02 -0.25183236989E+02  0.31979195358E+02  0.47787271889E+02  0.20000003853E+02 0.  0.
         12    1    1    2    0    0 -0.15058513855E+02  0.25183236989E+02 -0.31979195358E+02  0.43400728111E+02  0.00000000000E+00 0. -1.
         11    1    3    3    0    0 -0.13705601999E+01  0.65285494924E+00  0.24836448607E+01  0.29108670361E+01  0.51100000000E-03 0. -1.
        -11    1    3    3    0    0 -0.17639279727E+01 -0.63802384138E+01  0.28722246161E+01  0.72158546699E+01  0.51100000000E-03 0.  1.
        -12    1    3    3    0    0  0.18193002027E+02 -0.19455853525E+02  0.26623325881E+02  0.37660550184E+02  0.00000000000E+00 0.  1.
</event>
<event>
 7    1  0.2492468E-009  0.4778727E+02  0.7816164E-02  0.1312668E+00
        -11   -1    0    0    0    0  0.00000000000E+00  0.00000000000E+00  0.45593999997E+02  0.45594000000E+02  0.51100000000E-03 0. -1.
         11   -1    0    0    0    0 -0.00000000000E+00 -0.00000000000E+00 -0.45593999997E+02  0.45594000000E+02  0.51100000000E-03 0.  1.
    9900012    2    1    2    0    0  0.28951291355E+02 -0.21247282011E+02 -0.24372099238E+02  0.47787268609E+02  0.19999988897E+02 0.  0.
         12    1    1    2    0    0 -0.28951291355E+02  0.21247282011E+02  0.24372099238E+02  0.43400731391E+02  0.00000000000E+00 0. -1.
         11    1    3    3    0    0  0.55330155136E+01 -0.73183935033E+01  0.11380351344E+01  0.92449049952E+01  0.51100000000E-03 0. -1.
        -11    1    3    3    0    0  0.12258507742E+02 -0.42281591281E+01 -0.66384304652E+01  0.14567673149E+02  0.51100000000E-03 0.  1.
        -12    1    3    3    0    0  0.11159768100E+02 -0.97007293800E+01 -0.18871703907E+02  0.23974690465E+02  0.00000000000E+00 0.  1.
</event>
<event>
 7    1  0.3009605E-009  0.4778727E+02  0.7816164E-02  0.1312668E+00
        -11   -1    0    0    0    0  0.00000000000E+00  0.00000000000E+00  0.45593999997E+02  0.45594000000E+02  0.51100000000E-03 0. -1.
         11   -1    0    0    0    0 -0.00000000000E+00 -0.00000000000E+00 -0.45593999997E+02  0.45594000000E+02  0.51100000000E-03 0.  1.
    9900012    2    1    2    0    0  0.63136231100E+01 -0.26523900262E+02 -0.33767499405E+02  0.47787272610E+02  0.20000007138E+02 0.  0.
         12    1    1    2    0    0 -0.63136231100E+01  0.26523900262E+02  0.33767499405E+02  0.43400727390E+02  0.00000000000E+00 0. -1.
         11    1    3    3    0    0  0.76147561325E+01 -0.78795574778E+01 -0.99782580497E+01  0.14820174458E+02  0.51100000000E-03 0. -1.
        -11    1    3    3    0    0  0.30896100113E+01 -0.18137382186E+02 -0.19442856699E+02  0.26768171388E+02  0.51100000000E-03 0.  1.
         12    1    3    3    0    0 -0.43907430338E+01 -0.50696059827E+00 -0.43463846569E+01  0.61989267638E+01  0.00000000000E+00 0. -1.
</event>
<event>
 7    1  0.2492468E-009  0.4778727E+02  0.7816164E-02  0.1312668E+00
        -11   -1    0    0    0    0  0.00000000000E+00  0.00000000000E+00  0.45593999997E+02  0.45594000000E+02  0.51100000000E-03 0.  1.
         11   -1    0    0    0    0 -0.00000000000E+00 -0.00000000000E+00 -0.45593999997E+02  0.45594000000E+02  0.51100000000E-03 0. -1.
    9900012    2    1    2    0    0 -0.29824276047E+02  0.15674426103E+02  0.27357778070E+02  0.47787273090E+02  0.20000009327E+02 0.  0.
         12    1    1    2    0    0  0.29824276047E+02 -0.15674426103E+02 -0.27357778070E+02  0.43400726910E+02  0.00000000000E+00 0. -1.
         11    1    3    3    0    0 -0.45115558877E+01  0.58192250230E+01  0.72288625911E+01  0.10318622535E+02  0.51100000000E-03 0. -1.
        -11    1    3    3    0    0 -0.84393895875E+01  0.11339098885E+02  0.12587143294E+02  0.18927087380E+02  0.51100000000E-03 0.  1.
         12    1    3    3    0    0 -0.16873330572E+02 -0.14838978053E+01  0.75417721847E+01  0.18541563175E+02  0.00000000000E+00 0. -1.
</event>
<event>
 7    1  0.2492468E-009  0.4778727E+02  0.7816164E-02  0.1312668E+00
        -11   -1    0    0    0    0  0.00000000000E+00  0.00000000000E+00  0.45593999997E+02  0.45594000000E+02  0.51100000000E-03 0. -1.
         11   -1    0    0    0    0 -0.00000000000E+00 -0.00000000000E+00 -0.45593999997E+02  0.45594000000E+02  0.51100000000E-03 0.  1.
    9900012    2    1    2    0    0  0.33665367105E+02 -0.27374671574E+02 -0.94538398463E+00  0.47787270317E+02  0.19999996685E+02 0.  0.
         12    1    1    2    0    0 -0.33665367105E+02  0.27374671574E+02  0.94538398463E+00  0.43400729683E+02  0.00000000000E+00 0. -1.
         11    1    3    3    0    0  0.12205829090E+02 -0.54087274567E+01 -0.31069222371E+01  0.13707281369E+02  0.51100000000E-03 0. -1.
        -11    1    3    3    0    0  0.10546307544E+02 -0.16613239894E+02 -0.45468013126E+01  0.20196478531E+02  0.51100000000E-03 0.  1.
         12    1    3    3    0    0  0.10913230471E+02 -0.53527042229E+01  0.67083395650E+01  0.13883510418E+02  0.00000000000E+00 0. -1.
</event>
<event>
 7    1  0.2492468E-009  0.4778727E+02  0.7816164E-02  0.1312668E+00
        -11   -1    0    0    0    0  0.00000000000E+00  0.00000000000E+00  0.45593999997E+02  0.45594000000E+02  0.51100000000E-03 0.  1.
         11   -1    0    0    0    0 -0.00000000000E+00 -0.00000000000E+00 -0.45593999997E+02  0.45594000000E+02  0.51100000000E-03 0. -1.
    9900012    2    1    2    0    0  0.19539608374E+02 -0.36935883848E+02  0.11728908619E+02  0.47787272950E+02  0.20000008690E+02 0.  0.
         12    1    1    2    0    0 -0.19539608374E+02  0.36935883848E+02 -0.11728908619E+02  0.43400727050E+02  0.00000000000E+00 0. -1.
         11    1    3    3    0    0 -0.21796371593E+01 -0.23413128885E+01  0.24435173856E+01  0.40253374595E+01  0.51100000000E-03 0. -1.
        -11    1    3    3    0    0  0.65320824873E+01 -0.20241981565E+02  0.83337084097E+01  0.22844181216E+02  0.51100000000E-03 0.  1.
        -12    1    3    3    0    0  0.15187163046E+02 -0.14352589394E+02  0.95168282390E+00  0.20917754275E+02  0.00000000000E+00 0.  1.
</event>
<event>
 7    1  0.2492468E-009  0.4778727E+02  0.7816164E-02  0.1312668E+00
        -11   -1    0    0    0    0  0.00000000000E+00  0.00000000000E+00  0.45593999997E+02  0.45594000000E+02  0.51100000000E-03 0. -1.
         11   -1    0    0    0    0 -0.00000000000E+00 -0.00000000000E+00 -0.45593999997E+02  0.45594000000E+02  0.51100000000E-03 0.  1.
    9900012    2    1    2    0    0 -0.16452292983E+02  0.11623006774E+02 -0.38442823781E+02  0.47787274993E+02  0.20000018002E+02 0.  0.
         12    1    1    2    0    0  0.16452292983E+02 -0.11623006774E+02  0.38442823781E+02  0.43400725007E+02  0.00000000000E+00 0. -1.
         11    1    3    3    0    0 -0.93385948329E+01  0.10756422025E+01 -0.16831241217E+02  0.19278408668E+02  0.51100000000E-03 0. -1.
        -11    1    3    3    0    0 -0.49251297397E+01 -0.30327564065E+00 -0.14586758952E+02  0.15398779694E+02  0.51100000000E-03 0.  1.
         12    1    3    3    0    0 -0.21885684109E+01  0.10850640212E+02 -0.70248236123E+01  0.13110086631E+02  0.00000000000E+00 0. -1.
</event>
<event>
 7    1  0.2492468E-009  0.4778728E+02  0.7816164E-02  0.1312668E+00
        -11   -1    0    0    0    0  0.00000000000E+00  0.00000000000E+00  0.45593999997E+02  0.45594000000E+02  0.51100000000E-03 0. -1.
         11   -1    0    0    0    0 -0.00000000000E+00 -0.00000000000E+00 -0.45593999997E+02  0.45594000000E+02  0.51100000000E-03 0.  1.
    9900012    2    1    2    0    0  0.31850439825E+02  0.21379659572E+02 -0.20299811952E+02  0.47787277360E+02  0.20000028793E+02 0.  0.
         12    1    1    2    0    0 -0.31850439825E+02 -0.21379659572E+02  0.20299811952E+02  0.43400722640E+02  0.00000000000E+00 0. -1.
         11    1    3    3    0    0  0.95642680551E+01  0.96890608930E+01 -0.12517137282E+02  0.18494103125E+02  0.51100000000E-03 0. -1.
        -11    1    3    3    0    0  0.80877311767E+01  0.69059209329E+01 -0.94381203356E+01  0.14219045511E+02  0.51100000000E-03 0.  1.
        -12    1    3    3    0    0  0.14198440593E+02  0.47846777457E+01  0.16554456656E+01  0.15074128723E+02  0.00000000000E+00 0.  1.
</event>
<event>
 7    1  0.2492468E-009  0.4778727E+02  0.7816164E-02  0.1312668E+00
        -11   -1    0    0    0    0  0.00000000000E+00  0.00000000000E+00  0.45593999997E+02  0.45594000000E+02  0.51100000000E-03 0.  1.
         11   -1    0    0    0    0 -0.00000000000E+00 -0.00000000000E+00 -0.45593999997E+02  0.45594000000E+02  0.51100000000E-03 0. -1.
    9900012    2    1    2    0    0  0.20621039232E+02  0.76065614378E+01  0.37423740823E+02  0.47787269440E+02  0.19999992687E+02 0.  0.
         12    1    1    2    0    0 -0.20621039232E+02 -0.76065614378E+01 -0.37423740823E+02  0.43400730560E+02  0.00000000000E+00 0. -1.
         11    1    3    3    0    0  0.76485850374E+01 -0.66341240553E-01  0.15174440549E+02  0.16993201596E+02  0.51100000000E-03 0. -1.
        -11    1    3    3    0    0  0.58705661006E+01  0.76458434618E+01  0.21611090329E+02  0.23663509758E+02  0.51100000000E-03 0.  1.
         12    1    3    3    0    0  0.71018880939E+01  0.27059216558E-01  0.63820994504E+00  0.71305580871E+01  0.00000000000E+00 0. -1.
</event>
<event>
 7    1  0.2492468E-009  0.4778728E+02  0.7816164E-02  0.1312668E+00
        -11   -1    0    0    0    0  0.00000000000E+00  0.00000000000E+00  0.45593999997E+02  0.45594000000E+02  0.51100000000E-03 0.  1.
         11   -1    0    0    0    0 -0.00000000000E+00 -0.00000000000E+00 -0.45593999997E+02  0.45594000000E+02  0.51100000000E-03 0. -1.
    9900012    2    1    2    0    0 -0.63534029439E+01  0.15910368775E+01  0.42903678976E+02  0.47787276538E+02  0.20000025048E+02 0.  0.
         12    1    1    2    0    0  0.63534029439E+01 -0.15910368775E+01 -0.42903678976E+02  0.43400723462E+02  0.00000000000E+00 0. -1.
         11    1    3    3    0    0 -0.41958186145E+01  0.54048249046E+01  0.19016187160E+02  0.20209710549E+02  0.51100000000E-03 0. -1.
        -11    1    3    3    0    0 -0.38548568591E+01 -0.27968614528E+01  0.24902479973E+02  0.25353813607E+02  0.51100000000E-03 0.  1.
         12    1    3    3    0    0  0.16972725297E+01 -0.10169265744E+01 -0.10149881565E+01  0.22237523818E+01  0.00000000000E+00 0. -1.
</event>
<event>
 7    1  0.2492468E-009  0.4778727E+02  0.7816164E-02  0.1312668E+00
        -11   -1    0    0    0    0  0.00000000000E+00  0.00000000000E+00  0.45593999997E+02  0.45594000000E+02  0.51100000000E-03 0. -1.
         11   -1    0    0    0    0 -0.00000000000E+00 -0.00000000000E+00 -0.45593999997E+02  0.45594000000E+02  0.51100000000E-03 0.  1.
    9900012    2    1    2    0    0 -0.25055799227E+02  0.24757339066E+02  0.25355561047E+02  0.47787269723E+02  0.19999993974E+02 0.  0.
         12    1    1    2    0    0  0.25055799227E+02 -0.24757339066E+02 -0.25355561047E+02  0.43400730277E+02  0.00000000000E+00 0. -1.
         11    1    3    3    0    0 -0.36234724768E+01  0.77176314533E+01  0.45395949546E+01  0.96591568293E+01  0.51100000000E-03 0. -1.
        -11    1    3    3    0    0 -0.41329793077E+01  0.13399438843E+02  0.68901077250E+01  0.15623701994E+02  0.51100000000E-03 0.  1.
         12    1    3    3    0    0 -0.17299347443E+02  0.36402687699E+01  0.13925858367E+02  0.22504410900E+02  0.00000000000E+00 0. -1.
</event>
<event>
 7    1  0.2492468E-009  0.4778727E+02  0.7816164E-02  0.1312668E+00
        -11   -1    0    0    0    0  0.00000000000E+00  0.00000000000E+00  0.45593999997E+02  0.45594000000E+02  0.51100000000E-03 0. -1.
         11   -1    0    0    0    0 -0.00000000000E+00 -0.00000000000E+00 -0.45593999997E+02  0.45594000000E+02  0.51100000000E-03 0.  1.
    9900012    2    1    2    0    0 -0.13225544667E+02 -0.41319432459E+02 -0.11885358149E+01  0.47787272496E+02  0.20000006618E+02 0.  0.
         12    1    1    2    0    0  0.13225544667E+02  0.41319432459E+02  0.11885358149E+01  0.43400727504E+02  0.00000000000E+00 0. -1.
         11    1    3    3    0    0 -0.68602254627E+01 -0.84408546048E+01 -0.65241273113E+00  0.10896621609E+02  0.51100000000E-03 0. -1.
        -11    1    3    3    0    0 -0.10466184730E+02 -0.22095854336E+02  0.34364291795E+01  0.24689610111E+02  0.51100000000E-03 0.  1.
        -12    1    3    3    0    0  0.41008655260E+01 -0.10782723518E+02 -0.39725522633E+01  0.12201040776E+02  0.00000000000E+00 0.  1.
</event>
<event>
 7    1  0.2492468E-009  0.4778727E+02  0.7816164E-02  0.1312668E+00
        -11   -1    0    0    0    0  0.00000000000E+00  0.00000000000E+00  0.45593999997E+02  0.45594000000E+02  0.51100000000E-03 0.  1.
         11   -1    0    0    0    0 -0.00000000000E+00 -0.00000000000E+00 -0.45593999997E+02  0.45594000000E+02  0.51100000000E-03 0. -1.
    9900012    2    1    2    0    0 -0.22540167176E+01 -0.15029040393E+01  0.43316093091E+02  0.47787271520E+02  0.20000002169E+02 0.  0.
         12    1    1    2    0    0  0.22540167176E+01  0.15029040393E+01 -0.43316093091E+02  0.43400728480E+02  0.00000000000E+00 0. -1.
         11    1    3    3    0    0 -0.46201835236E+01  0.51900920375E+01  0.10519831045E+02  0.12607537295E+02  0.51100000000E-03 0. -1.
        -11    1    3    3    0    0 -0.41386786429E+01 -0.27865606690E+01  0.15740395543E+02  0.16512226785E+02  0.51100000000E-03 0.  1.
        -12    1    3    3    0    0  0.65048454490E+01 -0.39064354077E+01  0.17055866502E+02  0.18667507441E+02  0.00000000000E+00 0.  1.
</event>
<event>
 7    1  0.2492468E-009  0.4778727E+02  0.7816164E-02  0.1312668E+00
        -11   -1    0    0    0    0  0.00000000000E+00  0.00000000000E+00  0.45593999997E+02  0.45594000000E+02  0.51100000000E-03 0.  1.
         11   -1    0    0    0    0 -0.00000000000E+00 -0.00000000000E+00 -0.45593999997E+02  0.45594000000E+02  0.51100000000E-03 0. -1.
    9900012    2    1    2    0    0 -0.29378176340E+02  0.81807293711E+01  0.30880761369E+02  0.47787274190E+02  0.20000014341E+02 0.  0.
         12    1    1    2    0    0  0.29378176340E+02 -0.81807293711E+01 -0.30880761369E+02  0.43400725810E+02  0.00000000000E+00 0. -1.
         11    1    3    3    0    0  0.48922471323E+00  0.31326589963E+01  0.99397244394E+01  0.10433169001E+02  0.51100000000E-03 0. -1.
        -11    1    3    3    0    0 -0.81678864626E+01 -0.32900718814E+00  0.83995611913E+01  0.11720718556E+02  0.51100000000E-03 0.  1.
         12    1    3    3    0    0 -0.21699514591E+02  0.53770775630E+01  0.12541475738E+02  0.25633386633E+02  0.00000000000E+00 0. -1.
</event>
<event>
 7    1  0.2492468E-009  0.4778727E+02  0.7816164E-02  0.1312668E+00
        -11   -1    0    0    0    0  0.00000000000E+00  0.00000000000E+00  0.45593999997E+02  0.45594000000E+02  0.51100000000E-03 0.  1.
         11   -1    0    0    0    0 -0.00000000000E+00 -0.00000000000E+00 -0.45593999997E+02  0.45594000000E+02  0.51100000000E-03 0. -1.
    9900012    2    1    2    0    0  0.16248195798E+02  0.91636972749E+01  0.39187319403E+02  0.47787271706E+02  0.20000003016E+02 0.  0.
         12    1    1    2    0    0 -0.16248195798E+02 -0.91636972749E+01 -0.39187319403E+02  0.43400728294E+02  0.00000000000E+00 0. -1.
         11    1    3    3    0    0  0.62075938157E+01  0.43275459156E+01  0.98767756638E+01  0.12442370048E+02  0.51100000000E-03 0. -1.
        -11    1    3    3    0    0  0.88996627404E+01 -0.26050426214E+01  0.25012692946E+02  0.26676301330E+02  0.51100000000E-03 0.  1.
        -12    1    3    3    0    0  0.11409392424E+01  0.74411939807E+01  0.42978507931E+01  0.86686003284E+01  0.00000000000E+00 0.  1.
</event>
<event>
 7    1  0.2492468E-009  0.4778727E+02  0.7816164E-02  0.1312668E+00
        -11   -1    0    0    0    0  0.00000000000E+00  0.00000000000E+00  0.45593999997E+02  0.45594000000E+02  0.51100000000E-03 0.  1.
         11   -1    0    0    0    0 -0.00000000000E+00 -0.00000000000E+00 -0.45593999997E+02  0.45594000000E+02  0.51100000000E-03 0. -1.
    9900012    2    1    2    0    0 -0.43171352723E+02 -0.35579144917E+01 -0.26830576139E+01  0.47787271324E+02  0.20000001275E+02 0.  0.
         12    1    1    2    0    0  0.43171352723E+02  0.35579144917E+01  0.26830576139E+01  0.43400728676E+02  0.00000000000E+00 0. -1.
         11    1    3    3    0    0 -0.11676260951E+02 -0.31426451478E+01  0.71242787775E+00  0.12112755346E+02  0.51100000000E-03 0. -1.
        -11    1    3    3    0    0 -0.16750561340E+02 -0.83007999276E+01 -0.31094599844E+01  0.18951341015E+02  0.51100000000E-03 0.  1.
         12    1    3    3    0    0 -0.14744530432E+02  0.78855305837E+01 -0.28602550726E+00  0.16723174963E+02  0.00000000000E+00 0. -1.
</event>
<event>
 7    1  0.2492468E-009  0.4778727E+02  0.7816164E-02  0.1312668E+00
        -11   -1    0    0    0    0  0.00000000000E+00  0.00000000000E+00  0.45593999997E+02  0.45594000000E+02  0.51100000000E-03 0.  1.
         11   -1    0    0    0    0 -0.00000000000E+00 -0.00000000000E+00 -0.45593999997E+02  0.45594000000E+02  0.51100000000E-03 0. -1.
    9900012    2    1    2    0    0  0.22969210252E+02  0.20483938795E+02  0.30601423271E+02  0.47787268735E+02  0.19999989468E+02 0.  0.
         12    1    1    2    0    0 -0.22969210252E+02 -0.20483938795E+02 -0.30601423271E+02  0.43400731265E+02  0.00000000000E+00 0. -1.
         11    1    3    3    0    0  0.11160217043E+01 -0.19358672229E+01 -0.37682323119E+00  0.22660720107E+01  0.51100000000E-03 0. -1.
        -11    1    3    3    0    0  0.46099142208E+01 -0.92922567563E-01  0.21643624554E+01  0.50935654335E+01  0.51100000000E-03 0.  1.
        -12    1    3    3    0    0  0.17243274327E+02  0.22512728586E+02  0.28813884046E+02  0.40427631290E+02  0.00000000000E+00 0.  1.
</event>
<event>
 7    1  0.2492468E-009  0.4778727E+02  0.7816164E-02  0.1312668E+00
        -11   -1    0    0    0    0  0.00000000000E+00  0.00000000000E+00  0.45593999997E+02  0.45594000000E+02  0.51100000000E-03 0.  1.
         11   -1    0    0    0    0 -0.00000000000E+00 -0.00000000000E+00 -0.45593999997E+02  0.45594000000E+02  0.51100000000E-03 0. -1.
    9900012    2    1    2    0    0  0.12989939524E+02 -0.19374834467E+02  0.36599189600E+02  0.47787269374E+02  0.19999992384E+02 0.  0.
         12    1    1    2    0    0 -0.12989939524E+02  0.19374834467E+02 -0.36599189600E+02  0.43400730626E+02  0.00000000000E+00 0. -1.
         11    1    3    3    0    0  0.49752362799E+01 -0.25415604012E+01  0.13919231567E+02  0.14998583699E+02  0.51100000000E-03 0. -1.
        -11    1    3    3    0    0  0.92498219924E+01 -0.11591155742E+02  0.23030165499E+02  0.27391652405E+02  0.51100000000E-03 0.  1.
         12    1    3    3    0    0 -0.12351187481E+01 -0.52421183242E+01 -0.35020746511E+00  0.53970332698E+01  0.00000000000E+00 0. -1.
</event>
<event>
 7    1  0.2492468E-009  0.4778727E+02  0.7816164E-02  0.1312668E+00
        -11   -1    0    0    0    0  0.00000000000E+00  0.00000000000E+00  0.45593999997E+02  0.45594000000E+02  0.51100000000E-03 0.  1.
         11   -1    0    0    0    0 -0.00000000000E+00 -0.00000000000E+00 -0.45593999997E+02  0.45594000000E+02  0.51100000000E-03 0. -1.
    9900012    2    1    2    0    0 -0.18450755296E+02 -0.33689595970E+02  0.20204058135E+02  0.47787271749E+02  0.20000003211E+02 0.  0.
         12    1    1    2    0    0  0.18450755296E+02  0.33689595970E+02 -0.20204058135E+02  0.43400728251E+02  0.00000000000E+00 0. -1.
         11    1    3    3    0    0 -0.55579144843E+01 -0.13608759564E+01  0.37824157349E+01  0.68592321608E+01  0.51100000000E-03 0. -1.
        -11    1    3    3    0    0 -0.12083735629E+02 -0.18626347886E+02  0.42990718888E+01  0.22615028668E+02  0.51100000000E-03 0.  1.
        -12    1    3    3    0    0 -0.80910518305E+00 -0.13702372128E+02  0.12122570512E+02  0.18313010919E+02  0.00000000000E+00 0.  1.
</event>
<event>
 7    1  0.2492468E-009  0.4778727E+02  0.7816164E-02  0.1312668E+00
        -11   -1    0    0    0    0  0.00000000000E+00  0.00000000000E+00  0.45593999997E+02  0.45594000000E+02  0.51100000000E-03 0.  1.
         11   -1    0    0    0    0 -0.00000000000E+00 -0.00000000000E+00 -0.45593999997E+02  0.45594000000E+02  0.51100000000E-03 0. -1.
    9900012    2    1    2    0    0  0.27163176595E+02 -0.27115424309E+02  0.20261760694E+02  0.47787270229E+02  0.19999996284E+02 0.  0.
         12    1    1    2    0    0 -0.27163176595E+02  0.27115424309E+02 -0.20261760694E+02  0.43400729771E+02  0.00000000000E+00 0. -1.
         11    1    3    3    0    0  0.32113669782E+01  0.98736492811E+00  0.31246898982E+01  0.45881864163E+01  0.51100000000E-03 0. -1.
        -11    1    3    3    0    0  0.86838458385E+01 -0.94730416472E+01  0.13842111490E+02  0.18887873024E+02  0.51100000000E-03 0.  1.
        -12    1    3    3    0    0  0.15267963779E+02 -0.18629747590E+02  0.32949593054E+01  0.24311210789E+02  0.00000000000E+00 0.  1.
</event>
<event>
 7    1  0.2492468E-009  0.4778727E+02  0.7816164E-02  0.1312668E+00
        -11   -1    0    0    0    0  0.00000000000E+00  0.00000000000E+00  0.45593999997E+02  0.45594000000E+02  0.51100000000E-03 0.  1.
         11   -1    0    0    0    0 -0.00000000000E+00 -0.00000000000E+00 -0.45593999997E+02  0.45594000000E+02  0.51100000000E-03 0. -1.
    9900012    2    1    2    0    0  0.20742748934E+02 -0.34245019025E+01  0.37968859624E+02  0.47787272497E+02  0.20000006625E+02 0.  0.
         12    1    1    2    0    0 -0.20742748934E+02  0.34245019025E+01 -0.37968859624E+02  0.43400727503E+02  0.00000000000E+00 0. -1.
         11    1    3    3    0    0 -0.18360494286E+01  0.16595262770E+01  0.51971691495E+01  0.57563593006E+01  0.51100000000E-03 0. -1.
        -11    1    3    3    0    0  0.45595633775E+01 -0.52217415264E+01  0.37811086872E+01  0.78963906899E+01  0.51100000000E-03 0.  1.
        -12    1    3    3    0    0  0.18019234985E+02  0.13771334691E+00  0.28990581787E+02  0.34134522507E+02  0.00000000000E+00 0.  1.
</event>
<event>
 7    1  0.2492468E-009  0.4778727E+02  0.7816164E-02  0.1312668E+00
        -11   -1    0    0    0    0  0.00000000000E+00  0.00000000000E+00  0.45593999997E+02  0.45594000000E+02  0.51100000000E-03 0. -1.
         11   -1    0    0    0    0 -0.00000000000E+00 -0.00000000000E+00 -0.45593999997E+02  0.45594000000E+02  0.51100000000E-03 0.  1.
    9900012    2    1    2    0    0 -0.28023154391E+02  0.97902377955E+00 -0.33126537605E+02  0.47787272319E+02  0.20000005810E+02 0.  0.
         12    1    1    2    0    0  0.28023154391E+02 -0.97902377955E+00  0.33126537605E+02  0.43400727681E+02  0.00000000000E+00 0. -1.
         11    1    3    3    0    0 -0.68007438925E+01  0.54839674249E+00 -0.15937565135E+02  0.17336575185E+02  0.51100000000E-03 0. -1.
        -11    1    3    3    0    0 -0.94389952148E+01 -0.36553929234E+01 -0.14514520910E+02  0.17695418774E+02  0.51100000000E-03 0.  1.
         12    1    3    3    0    0 -0.11783415284E+02  0.40860199605E+01 -0.26744515603E+01  0.12755278359E+02  0.00000000000E+00 0. -1.
</event>
<event>
 7    1  0.2492468E-009  0.4778727E+02  0.7816164E-02  0.1312668E+00
        -11   -1    0    0    0    0  0.00000000000E+00  0.00000000000E+00  0.45593999997E+02  0.45594000000E+02  0.51100000000E-03 0.  1.
         11   -1    0    0    0    0 -0.00000000000E+00 -0.00000000000E+00 -0.45593999997E+02  0.45594000000E+02  0.51100000000E-03 0. -1.
    9900012    2    1    2    0    0 -0.20256329752E+02  0.19152420688E+02  0.33263933272E+02  0.47787269938E+02  0.19999994956E+02 0.  0.
         12    1    1    2    0    0  0.20256329752E+02 -0.19152420688E+02 -0.33263933272E+02  0.43400730062E+02  0.00000000000E+00 0. -1.
         11    1    3    3    0    0 -0.75875814018E+01 -0.95438552967E+00  0.67204428364E+01  0.10180697198E+02  0.51100000000E-03 0. -1.
        -11    1    3    3    0    0 -0.63251340318E+01  0.93596346593E+01  0.42726160448E+01  0.12077471987E+02  0.51100000000E-03 0.  1.
        -12    1    3    3    0    0 -0.63436143181E+01  0.10747171558E+02  0.22270874390E+02  0.25529100752E+02  0.00000000000E+00 0.  1.
</event>
<event>
 7    1  0.2492468E-009  0.4778727E+02  0.7816164E-02  0.1312668E+00
        -11   -1    0    0    0    0  0.00000000000E+00  0.00000000000E+00  0.45593999997E+02  0.45594000000E+02  0.51100000000E-03 0.  1.
         11   -1    0    0    0    0 -0.00000000000E+00 -0.00000000000E+00 -0.45593999997E+02  0.45594000000E+02  0.51100000000E-03 0. -1.
    9900012    2    1    2    0    0 -0.30824832010E+02  0.97797869915E+01  0.28944928833E+02  0.47787269508E+02  0.19999992997E+02 0.  0.
         12    1    1    2    0    0  0.30824832010E+02 -0.97797869915E+01 -0.28944928833E+02  0.43400730492E+02  0.00000000000E+00 0. -1.
         11    1    3    3    0    0 -0.13748784438E+02  0.11937509494E+02  0.98404822900E+01  0.20697060139E+02  0.51100000000E-03 0. -1.
        -11    1    3    3    0    0 -0.67655946081E+01  0.26289457773E+01  0.10800149156E+02  0.13012603442E+02  0.51100000000E-03 0.  1.
         12    1    3    3    0    0 -0.10310452964E+02 -0.47866682796E+01  0.83042973869E+01  0.14077605927E+02  0.00000000000E+00 0. -1.
</event>
<event>
 7    1  0.2492468E-009  0.4778727E+02  0.7816164E-02  0.1312668E+00
        -11   -1    0    0    0    0  0.00000000000E+00  0.00000000000E+00  0.45593999997E+02  0.45594000000E+02  0.51100000000E-03 0. -1.
         11   -1    0    0    0    0 -0.00000000000E+00 -0.00000000000E+00 -0.45593999997E+02  0.45594000000E+02  0.51100000000E-03 0.  1.
    9900012    2    1    2    0    0 -0.33849176490E+02 -0.25768788489E+02  0.85922064435E+01  0.47787271656E+02  0.20000002788E+02 0.  0.
         12    1    1    2    0    0  0.33849176490E+02  0.25768788489E+02 -0.85922064435E+01  0.43400728344E+02  0.00000000000E+00 0. -1.
         11    1    3    3    0    0 -0.37966576302E+01 -0.57499935849E+00 -0.53258824746E+00  0.38767104516E+01  0.51100000000E-03 0. -1.
        -11    1    3    3    0    0 -0.12266006610E+02 -0.28107827646E+01  0.87348907737E+01  0.15318411634E+02  0.51100000000E-03 0.  1.
         12    1    3    3    0    0 -0.17786512250E+02 -0.22383006366E+02  0.38990391728E+00  0.28592149570E+02  0.00000000000E+00 0. -1.
</event>
<event>
 7    1  0.2492468E-009  0.4778727E+02  0.7816164E-02  0.1312668E+00
        -11   -1    0    0    0    0  0.00000000000E+00  0.00000000000E+00  0.45593999997E+02  0.45594000000E+02  0.51100000000E-03 0. -1.
         11   -1    0    0    0    0 -0.00000000000E+00 -0.00000000000E+00 -0.45593999997E+02  0.45594000000E+02  0.51100000000E-03 0.  1.
    9900012    2    1    2    0    0  0.29858615264E+02  0.15522933613E+02 -0.27406660057E+02  0.47787269719E+02  0.19999993957E+02 0.  0.
         12    1    1    2    0    0 -0.29858615264E+02 -0.15522933613E+02  0.27406660057E+02  0.43400730281E+02  0.00000000000E+00 0. -1.
         11    1    3    3    0    0  0.31811115622E+01 -0.11471628202E+01 -0.60656621509E+01  0.69446174046E+01  0.51100000000E-03 0. -1.
        -11    1    3    3    0    0  0.11209657486E+02  0.35665990965E+01 -0.16036036984E+02  0.19887974569E+02  0.51100000000E-03 0.  1.
        -12    1    3    3    0    0  0.15467846216E+02  0.13103497337E+02 -0.53049609225E+01  0.20954677745E+02  0.00000000000E+00 0.  1.
</event>
<event>
 7    1  0.2492468E-009  0.4778727E+02  0.7816164E-02  0.1312668E+00
        -11   -1    0    0    0    0  0.00000000000E+00  0.00000000000E+00  0.45593999997E+02  0.45594000000E+02  0.51100000000E-03 0.  1.
         11   -1    0    0    0    0 -0.00000000000E+00 -0.00000000000E+00 -0.45593999997E+02  0.45594000000E+02  0.51100000000E-03 0. -1.
    9900012    2    1    2    0    0  0.18390413966E+02  0.38016956900E+01  0.39127523959E+02  0.47787270201E+02  0.19999996153E+02 0.  0.
         12    1    1    2    0    0 -0.18390413966E+02 -0.38016956900E+01 -0.39127523959E+02  0.43400729799E+02  0.00000000000E+00 0. -1.
         11    1    3    3    0    0  0.13547766268E+02  0.45660990947E+01  0.11233292400E+02  0.18181806571E+02  0.51100000000E-03 0. -1.
        -11    1    3    3    0    0  0.68330253128E+01  0.11141483434E+01  0.16631171862E+02  0.18014645131E+02  0.51100000000E-03 0.  1.
        -12    1    3    3    0    0 -0.19903776140E+01 -0.18785517482E+01  0.11263059697E+02  0.11590818498E+02  0.00000000000E+00 0.  1.
</event>
<event>
 7    1  0.2492468E-009  0.4778727E+02  0.7816164E-02  0.1312668E+00
        -11   -1    0    0    0    0  0.00000000000E+00  0.00000000000E+00  0.45593999997E+02  0.45594000000E+02  0.51100000000E-03 0.  1.
         11   -1    0    0    0    0 -0.00000000000E+00 -0.00000000000E+00 -0.45593999997E+02  0.45594000000E+02  0.51100000000E-03 0. -1.
    9900012    2    1    2    0    0  0.19569830421E+02  0.38707633397E+02 -0.15375025708E+01  0.47787273507E+02  0.20000011229E+02 0.  0.
         12    1    1    2    0    0 -0.19569830421E+02 -0.38707633397E+02  0.15375025708E+01  0.43400726493E+02  0.00000000000E+00 0. -1.
         11    1    3    3    0    0  0.25656806982E+01  0.60685177115E+01 -0.41239743624E+01  0.77728237766E+01  0.51100000000E-03 0. -1.
        -11    1    3    3    0    0  0.15409012961E+02  0.33478622181E+02 -0.88897055787E-02  0.36854523506E+02  0.51100000000E-03 0.  1.
        -12    1    3    3    0    0  0.15951367617E+01 -0.83950649499E+00  0.25953614972E+01  0.31599262246E+01  0.00000000000E+00 0.  1.
</event>
<event>
 7    1  0.2492468E-009  0.4778727E+02  0.7816164E-02  0.1312668E+00
        -11   -1    0    0    0    0  0.00000000000E+00  0.00000000000E+00  0.45593999997E+02  0.45594000000E+02  0.51100000000E-03 0.  1.
         11   -1    0    0    0    0 -0.00000000000E+00 -0.00000000000E+00 -0.45593999997E+02  0.45594000000E+02  0.51100000000E-03 0. -1.
    9900012    2    1    2    0    0  0.48924047700E+01  0.23370992314E+02  0.36242030495E+02  0.47787266359E+02  0.19999978637E+02 0.  0.
         12    1    1    2    0    0 -0.48924047700E+01 -0.23370992314E+02 -0.36242030495E+02  0.43400733641E+02  0.00000000000E+00 0. -1.
         11    1    3    3    0    0  0.36930940145E+01  0.57113291582E+01  0.17710407597E+02  0.18971472311E+02  0.51100000000E-03 0. -1.
        -11    1    3    3    0    0 -0.34928668434E+01  0.15738901457E+01  0.84059076310E+01  0.92377774567E+01  0.51100000000E-03 0.  1.
         12    1    3    3    0    0  0.46921775989E+01  0.16085773010E+02  0.10125715267E+02  0.19578016591E+02  0.00000000000E+00 0. -1.
</event>
<event>
 7    1  0.2492468E-009  0.4778726E+02  0.7816164E-02  0.1312668E+00
        -11   -1    0    0    0    0  0.00000000000E+00  0.00000000000E+00  0.45593999997E+02  0.45594000000E+02  0.51100000000E-03 0.  1.
         11   -1    0    0    0    0 -0.00000000000E+00 -0.00000000000E+00 -0.45593999997E+02  0.45594000000E+02  0.51100000000E-03 0. -1.
    9900012    2    1    2    0    0  0.11121836905E+02 -0.10735107756E+02  0.40554731630E+02  0.47787262077E+02  0.19999959116E+02 0.  0.
         12    1    1    2    0    0 -0.11121836905E+02  0.10735107756E+02 -0.40554731630E+02  0.43400737923E+02  0.00000000000E+00 0. -1.
         11    1    3    3    0    0  0.83514237134E+01 -0.23489589217E+01  0.93051244247E+01  0.12721997755E+02  0.51100000000E-03 0. -1.
        -11    1    3    3    0    0  0.66123693507E+01 -0.97363863972E+01  0.21765829424E+02  0.24744130198E+02  0.51100000000E-03 0.  1.
        -12    1    3    3    0    0 -0.38419561591E+01  0.13502375630E+01  0.94837777810E+01  0.10321134124E+02  0.00000000000E+00 0.  1.
</event>
<event>
 7    1  0.2492468E-009  0.4778727E+02  0.7816164E-02  0.1312668E+00
        -11   -1    0    0    0    0  0.00000000000E+00  0.00000000000E+00  0.45593999997E+02  0.45594000000E+02  0.51100000000E-03 0.  1.
         11   -1    0    0    0    0 -0.00000000000E+00 -0.00000000000E+00 -0.45593999997E+02  0.45594000000E+02  0.51100000000E-03 0. -1.
    9900012    2    1    2    0    0  0.26947866947E+02 -0.69643895926E+01  0.33300653675E+02  0.47787265092E+02  0.19999972861E+02 0.  0.
         12    1    1    2    0    0 -0.26947866947E+02  0.69643895926E+01 -0.33300653675E+02  0.43400734908E+02  0.00000000000E+00 0. -1.
         11    1    3    3    0    0 -0.12505148172E+01  0.93046950710E+00 -0.33016895708E+00  0.15932898710E+01  0.51100000000E-03 0. -1.
        -11    1    3    3    0    0  0.54486958125E+01  0.32384353902E+01  0.69167472880E+01  0.93817452076E+01  0.51100000000E-03 0.  1.
        -12    1    3    3    0    0  0.22749685951E+02 -0.11133294490E+02  0.26714075344E+02  0.36812230014E+02  0.00000000000E+00 0.  1.
</event>
<event>
 7    1  0.2492468E-009  0.4778727E+02  0.7816164E-02  0.1312668E+00
        -11   -1    0    0    0    0  0.00000000000E+00  0.00000000000E+00  0.45593999997E+02  0.45594000000E+02  0.51100000000E-03 0.  1.
         11   -1    0    0    0    0 -0.00000000000E+00 -0.00000000000E+00 -0.45593999997E+02  0.45594000000E+02  0.51100000000E-03 0. -1.
    9900012    2    1    2    0    0 -0.41823837713E+02 -0.86871071111E+01  0.76761963043E+01  0.47787271657E+02  0.20000002794E+02 0.  0.
         12    1    1    2    0    0  0.41823837713E+02  0.86871071111E+01 -0.76761963043E+01  0.43400728343E+02  0.00000000000E+00 0. -1.
         11    1    3    3    0    0 -0.96893901887E+01 -0.55867365160E+01  0.21563979698E+01  0.11390608394E+02  0.51100000000E-03 0. -1.
        -11    1    3    3    0    0 -0.11430965178E+02  0.71176728578E+00  0.96108332670E+01  0.14951310776E+02  0.51100000000E-03 0.  1.
         12    1    3    3    0    0 -0.20703482346E+02 -0.38121378809E+01 -0.40910349326E+01  0.21445352487E+02  0.00000000000E+00 0. -1.
</event>
<event>
 7    1  0.2492468E-009  0.4778727E+02  0.7816164E-02  0.1312668E+00
        -11   -1    0    0    0    0  0.00000000000E+00  0.00000000000E+00  0.45593999997E+02  0.45594000000E+02  0.51100000000E-03 0.  1.
         11   -1    0    0    0    0 -0.00000000000E+00 -0.00000000000E+00 -0.45593999997E+02  0.45594000000E+02  0.51100000000E-03 0. -1.
    9900012    2    1    2    0    0  0.20543276223E+01  0.11498140488E+02  0.41799470879E+02  0.47787271177E+02  0.20000000602E+02 0.  0.
         12    1    1    2    0    0 -0.20543276223E+01 -0.11498140488E+02 -0.41799470879E+02  0.43400728823E+02  0.00000000000E+00 0. -1.
         11    1    3    3    0    0 -0.77508172749E+00  0.26219879971E+01  0.13626944963E+02  0.13898532370E+02  0.51100000000E-03 0. -1.
        -11    1    3    3    0    0 -0.34304307728E+01  0.10486137287E+02  0.11174935607E+02  0.15703697545E+02  0.51100000000E-03 0.  1.
         12    1    3    3    0    0  0.62598401226E+01 -0.16099847962E+01  0.16997590309E+02  0.18185041262E+02  0.00000000000E+00 0. -1.
</event>
<event>
 7    1  0.2492468E-009  0.4778727E+02  0.7816164E-02  0.1312668E+00
        -11   -1    0    0    0    0  0.00000000000E+00  0.00000000000E+00  0.45593999997E+02  0.45594000000E+02  0.51100000000E-03 0. -1.
         11   -1    0    0    0    0 -0.00000000000E+00 -0.00000000000E+00 -0.45593999997E+02  0.45594000000E+02  0.51100000000E-03 0.  1.
    9900012    2    1    2    0    0  0.60710321602E+01 -0.34128063922E+02 -0.26115911941E+02  0.47787273796E+02  0.20000012545E+02 0.  0.
         12    1    1    2    0    0 -0.60710321602E+01  0.34128063922E+02  0.26115911941E+02  0.43400726204E+02  0.00000000000E+00 0. -1.
         11    1    3    3    0    0 -0.31187333340E+01 -0.94252112873E+01 -0.47150241272E+01  0.10990566783E+02  0.51100000000E-03 0. -1.
        -11    1    3    3    0    0  0.49313831999E+01 -0.79612811458E+01 -0.92026316348E-01  0.93653086895E+01  0.51100000000E-03 0.  1.
         12    1    3    3    0    0  0.42583822943E+01 -0.16741571489E+02 -0.21308861497E+02  0.27431398324E+02  0.00000000000E+00 0. -1.
</event>
<event>
 7    1  0.2492468E-009  0.4778727E+02  0.7816164E-02  0.1312668E+00
        -11   -1    0    0    0    0  0.00000000000E+00  0.00000000000E+00  0.45593999997E+02  0.45594000000E+02  0.51100000000E-03 0.  1.
         11   -1    0    0    0    0 -0.00000000000E+00 -0.00000000000E+00 -0.45593999997E+02  0.45594000000E+02  0.51100000000E-03 0. -1.
    9900012    2    1    2    0    0  0.19754802880E+02  0.27388754830E+02  0.27262193942E+02  0.47787270207E+02  0.19999996183E+02 0.  0.
         12    1    1    2    0    0 -0.19754802880E+02 -0.27388754830E+02 -0.27262193942E+02  0.43400729793E+02  0.00000000000E+00 0. -1.
         11    1    3    3    0    0  0.70250678442E+01  0.52308434343E+01  0.13476362418E+02  0.16072512110E+02  0.51100000000E-03 0. -1.
        -11    1    3    3    0    0  0.14182810892E+02  0.22641881265E+02  0.11800085416E+02  0.29207001354E+02  0.51100000000E-03 0.  1.
         12    1    3    3    0    0 -0.14530758556E+01 -0.48396986884E+00  0.19857461089E+01  0.25077567436E+01  0.00000000000E+00 0. -1.
</event>
<event>
 7    1  0.2492468E-009  0.4778727E+02  0.7816164E-02  0.1312668E+00
        -11   -1    0    0    0    0  0.00000000000E+00  0.00000000000E+00  0.45593999997E+02  0.45594000000E+02  0.51100000000E-03 0.  1.
         11   -1    0    0    0    0 -0.00000000000E+00 -0.00000000000E+00 -0.45593999997E+02  0.45594000000E+02  0.51100000000E-03 0. -1.
    9900012    2    1    2    0    0  0.35894800767E+02  0.19168197960E+02  0.15091936690E+02  0.47787273184E+02  0.20000009754E+02 0.  0.
         12    1    1    2    0    0 -0.35894800767E+02 -0.19168197960E+02 -0.15091936690E+02  0.43400726816E+02  0.00000000000E+00 0. -1.
         11    1    3    3    0    0 -0.15899167424E+00  0.74450010788E+00  0.15107512964E+01  0.16917235306E+01  0.51100000000E-03 0. -1.
        -11    1    3    3    0    0  0.30518990893E+02  0.17206180998E+02  0.17542059419E+02  0.39181440997E+02  0.51100000000E-03 0.  1.
         12    1    3    3    0    0  0.55348015477E+01  0.12175168546E+01 -0.39608740256E+01  0.69141086562E+01  0.00000000000E+00 0. -1.
</event>
<event>
 7    1  0.4296566E-009  0.4778727E+02  0.7816164E-02  0.1312668E+00
        -11   -1    0    0    0    0  0.00000000000E+00  0.00000000000E+00  0.45593999997E+02  0.45594000000E+02  0.51100000000E-03 0. -1.
         11   -1    0    0    0    0 -0.00000000000E+00 -0.00000000000E+00 -0.45593999997E+02  0.45594000000E+02  0.51100000000E-03 0.  1.
    9900012    2    1    2    0    0 -0.13833025602E+01  0.54478277099E+01 -0.43035227888E+02  0.47787271987E+02  0.20000004296E+02 0.  0.
         12    1    1    2    0    0  0.13833025602E+01 -0.54478277099E+01  0.43035227888E+02  0.43400728013E+02  0.00000000000E+00 0. -1.
         11    1    3    3    0    0 -0.67829844396E+01  0.17804151133E+01 -0.10758147705E+02  0.12841981863E+02  0.51100000000E-03 0. -1.
        -11    1    3    3    0    0 -0.39501156625E+00 -0.19226832680E+01 -0.20985379705E+02  0.21076975749E+02  0.51100000000E-03 0.  1.
         12    1    3    3    0    0  0.57946934457E+01  0.55900958645E+01 -0.11291700478E+02  0.13868314374E+02  0.00000000000E+00 0. -1.
</event>
<event>
 7    1  0.2492468E-009  0.4778728E+02  0.7816164E-02  0.1312668E+00
        -11   -1    0    0    0    0  0.00000000000E+00  0.00000000000E+00  0.45593999997E+02  0.45594000000E+02  0.51100000000E-03 0. -1.
         11   -1    0    0    0    0 -0.00000000000E+00 -0.00000000000E+00 -0.45593999997E+02  0.45594000000E+02  0.51100000000E-03 0.  1.
    9900012    2    1    2    0    0  0.26807712139E+02  0.31732287274E+02  0.12571049951E+02  0.47787276703E+02  0.20000025800E+02 0.  0.
         12    1    1    2    0    0 -0.26807712139E+02 -0.31732287274E+02 -0.12571049951E+02  0.43400723297E+02  0.00000000000E+00 0. -1.
         11    1    3    3    0    0  0.46427259494E+01  0.21343498629E+01  0.47875560368E+01  0.70022172663E+01  0.51100000000E-03 0. -1.
        -11    1    3    3    0    0  0.22032795869E+02  0.18177138083E+02  0.64837048272E+01  0.29289774175E+02  0.51100000000E-03 0.  1.
         12    1    3    3    0    0  0.13219032146E+00  0.11420799328E+02  0.12997890875E+01  0.11495285262E+02  0.00000000000E+00 0. -1.
</event>
<event>
 7    1  0.2492468E-009  0.4778728E+02  0.7816164E-02  0.1312668E+00
        -11   -1    0    0    0    0  0.00000000000E+00  0.00000000000E+00  0.45593999997E+02  0.45594000000E+02  0.51100000000E-03 0.  1.
         11   -1    0    0    0    0 -0.00000000000E+00 -0.00000000000E+00 -0.45593999997E+02  0.45594000000E+02  0.51100000000E-03 0. -1.
    9900012    2    1    2    0    0 -0.15116580508E+02 -0.39544513044E+02  0.95573434607E+01  0.47787281894E+02  0.20000049465E+02 0.  0.
         12    1    1    2    0    0  0.15116580508E+02  0.39544513044E+02 -0.95573434607E+01  0.43400718106E+02  0.00000000000E+00 0. -1.
         11    1    3    3    0    0 -0.96660651673E+01 -0.22596132214E+02  0.39959762311E+01  0.24899514718E+02  0.51100000000E-03 0. -1.
        -11    1    3    3    0    0 -0.38711301712E+00 -0.17130183763E+02  0.43629304639E+01  0.17681295618E+02  0.51100000000E-03 0.  1.
         12    1    3    3    0    0 -0.50634023237E+01  0.18180293379E+00  0.11984367657E+01  0.52064715576E+01  0.00000000000E+00 0. -1.
</event>
<event>
 7    1  0.2492468E-009  0.4778727E+02  0.7816164E-02  0.1312668E+00
        -11   -1    0    0    0    0  0.00000000000E+00  0.00000000000E+00  0.45593999997E+02  0.45594000000E+02  0.51100000000E-03 0.  1.
         11   -1    0    0    0    0 -0.00000000000E+00 -0.00000000000E+00 -0.45593999997E+02  0.45594000000E+02  0.51100000000E-03 0. -1.
    9900012    2    1    2    0    0 -0.39771969297E+01  0.27870103021E+02  0.33031238543E+02  0.47787268929E+02  0.19999990353E+02 0.  0.
         12    1    1    2    0    0  0.39771969297E+01 -0.27870103021E+02 -0.33031238543E+02  0.43400731071E+02  0.00000000000E+00 0. -1.
         11    1    3    3    0    0 -0.10761869569E+02  0.11537181293E+02  0.19477484996E+02  0.25065849494E+02  0.51100000000E-03 0. -1.
        -11    1    3    3    0    0  0.97405059430E+00  0.75806489233E+01  0.46190897832E+01  0.89303417261E+01  0.51100000000E-03 0.  1.
        -12    1    3    3    0    0  0.58106220450E+01  0.87522728041E+01  0.89346637640E+01  0.13791077708E+02  0.00000000000E+00 0.  1.
</event>
<event>
 7    1  0.2492468E-009  0.4778727E+02  0.7816164E-02  0.1312668E+00
        -11   -1    0    0    0    0  0.00000000000E+00  0.00000000000E+00  0.45593999997E+02  0.45594000000E+02  0.51100000000E-03 0.  1.
         11   -1    0    0    0    0 -0.00000000000E+00 -0.00000000000E+00 -0.45593999997E+02  0.45594000000E+02  0.51100000000E-03 0. -1.
    9900012    2    1    2    0    0 -0.27613156349E+02 -0.24737601985E+02  0.22565191237E+02  0.47787271768E+02  0.20000003297E+02 0.  0.
         12    1    1    2    0    0  0.27613156349E+02  0.24737601985E+02 -0.22565191237E+02  0.43400728232E+02  0.00000000000E+00 0. -1.
         11    1    3    3    0    0 -0.31117584890E+01 -0.43471643508E+01 -0.21459365664E+01  0.57607224196E+01  0.51100000000E-03 0. -1.
        -11    1    3    3    0    0 -0.15613181283E+02 -0.10439054097E+02  0.74393309681E+01  0.20201210997E+02  0.51100000000E-03 0.  1.
         12    1    3    3    0    0 -0.88882165773E+01 -0.99513835372E+01  0.17271796835E+02  0.21825338351E+02  0.00000000000E+00 0. -1.
</event>
<event>
 7    1  0.2492468E-009  0.4778727E+02  0.7816164E-02  0.1312668E+00
        -11   -1    0    0    0    0  0.00000000000E+00  0.00000000000E+00  0.45593999997E+02  0.45594000000E+02  0.51100000000E-03 0.  1.
         11   -1    0    0    0    0 -0.00000000000E+00 -0.00000000000E+00 -0.45593999997E+02  0.45594000000E+02  0.51100000000E-03 0. -1.
    9900012    2    1    2    0    0 -0.65247708770E+01  0.15214964331E+02  0.40119267961E+02  0.47787269173E+02  0.19999991467E+02 0.  0.
         12    1    1    2    0    0  0.65247708770E+01 -0.15214964331E+02 -0.40119267961E+02  0.43400730827E+02  0.00000000000E+00 0. -1.
         11    1    3    3    0    0 -0.13805356644E+01  0.80975119126E+01  0.21107078747E+02  0.22649157851E+02  0.51100000000E-03 0. -1.
        -11    1    3    3    0    0 -0.34926345520E+01  0.82530240153E+01  0.20675103543E+02  0.22533770396E+02  0.51100000000E-03 0.  1.
         12    1    3    3    0    0 -0.16516006606E+01 -0.11355715968E+01 -0.16629143279E+01  0.26043409254E+01  0.00000000000E+00 0. -1.
</event>
<event>
 7    1  0.2492468E-009  0.4778727E+02  0.7816164E-02  0.1312668E+00
        -11   -1    0    0    0    0  0.00000000000E+00  0.00000000000E+00  0.45593999997E+02  0.45594000000E+02  0.51100000000E-03 0. -1.
         11   -1    0    0    0    0 -0.00000000000E+00 -0.00000000000E+00 -0.45593999997E+02  0.45594000000E+02  0.51100000000E-03 0.  1.
    9900012    2    1    2    0    0  0.25963044422E+02  0.11602885752E+02 -0.32785917061E+02  0.47787274303E+02  0.20000014859E+02 0.  0.
         12    1    1    2    0    0 -0.25963044422E+02 -0.11602885752E+02  0.32785917061E+02  0.43400725697E+02  0.00000000000E+00 0. -1.
         11    1    3    3    0    0  0.17036820322E+02  0.49790709546E+01 -0.30093780739E+02  0.34938231691E+02  0.51100000000E-03 0. -1.
        -11    1    3    3    0    0 -0.64218296946E+00  0.12149009048E+01 -0.10634905127E+01  0.17376407875E+01  0.51100000000E-03 0.  1.
         12    1    3    3    0    0  0.95684070695E+01  0.54089138923E+01 -0.16286458094E+01  0.11111401825E+02  0.00000000000E+00 0. -1.
</event>
<event>
 7    1  0.2492468E-009  0.4778728E+02  0.7816164E-02  0.1312668E+00
        -11   -1    0    0    0    0  0.00000000000E+00  0.00000000000E+00  0.45593999997E+02  0.45594000000E+02  0.51100000000E-03 0.  1.
         11   -1    0    0    0    0 -0.00000000000E+00 -0.00000000000E+00 -0.45593999997E+02  0.45594000000E+02  0.51100000000E-03 0. -1.
    9900012    2    1    2    0    0  0.14940607154E+02 -0.31692352976E+02  0.25612409862E+02  0.47787279750E+02  0.20000039693E+02 0.  0.
         12    1    1    2    0    0 -0.14940607154E+02  0.31692352976E+02 -0.25612409862E+02  0.43400720250E+02  0.00000000000E+00 0. -1.
         11    1    3    3    0    0  0.88662666523E+00 -0.92125438904E+00  0.17762997675E+01  0.21886200259E+01  0.51100000000E-03 0. -1.
        -11    1    3    3    0    0  0.13387745314E+02 -0.16875297008E+02  0.23220449456E+02  0.31673279700E+02  0.51100000000E-03 0.  1.
         12    1    3    3    0    0  0.66623517392E+00 -0.13895801578E+02  0.61566063862E+00  0.13925380025E+02  0.00000000000E+00 0. -1.
</event>
<event>
 7    1  0.2492468E-009  0.4778728E+02  0.7816164E-02  0.1312668E+00
        -11   -1    0    0    0    0  0.00000000000E+00  0.00000000000E+00  0.45593999997E+02  0.45594000000E+02  0.51100000000E-03 0. -1.
         11   -1    0    0    0    0 -0.00000000000E+00 -0.00000000000E+00 -0.45593999997E+02  0.45594000000E+02  0.51100000000E-03 0.  1.
    9900012    2    1    2    0    0 -0.36537756077E+01 -0.35877303059E+02 -0.24147294476E+02  0.47787276717E+02  0.20000025864E+02 0.  0.
         12    1    1    2    0    0  0.36537756077E+01  0.35877303059E+02  0.24147294476E+02  0.43400723283E+02  0.00000000000E+00 0. -1.
         11    1    3    3    0    0 -0.39770798090E+01 -0.25017654720E+02 -0.10118008988E+02  0.27277725669E+02  0.51100000000E-03 0. -1.
        -11    1    3    3    0    0  0.40046489041E+01 -0.53500649894E+01 -0.23546967462E+01  0.70855490446E+01  0.51100000000E-03 0.  1.
         12    1    3    3    0    0 -0.36813447029E+01 -0.55095833489E+01 -0.11674588742E+02  0.13424002004E+02  0.00000000000E+00 0. -1.
</event>
<event>
 7    1  0.2492468E-009  0.4778727E+02  0.7816164E-02  0.1312668E+00
        -11   -1    0    0    0    0  0.00000000000E+00  0.00000000000E+00  0.45593999997E+02  0.45594000000E+02  0.51100000000E-03 0.  1.
         11   -1    0    0    0    0 -0.00000000000E+00 -0.00000000000E+00 -0.45593999997E+02  0.45594000000E+02  0.51100000000E-03 0. -1.
    9900012    2    1    2    0    0  0.33947495922E+01 -0.35573344559E+02  0.24629984675E+02  0.47787270593E+02  0.19999997942E+02 0.  0.
         12    1    1    2    0    0 -0.33947495922E+01  0.35573344559E+02 -0.24629984675E+02  0.43400729407E+02  0.00000000000E+00 0. -1.
         11    1    3    3    0    0  0.11189281716E+01  0.11086462497E+01  0.61742972173E+01  0.63720517221E+01  0.51100000000E-03 0. -1.
        -11    1    3    3    0    0  0.11230405956E+01 -0.28762909891E+01  0.26942991609E+01  0.40979895392E+01  0.51100000000E-03 0.  1.
         12    1    3    3    0    0  0.11527808249E+01 -0.33805699820E+02  0.15761388297E+02  0.37317229332E+02  0.00000000000E+00 0. -1.
</event>
<event>
 7    1  0.2492468E-009  0.4778728E+02  0.7816164E-02  0.1312668E+00
        -11   -1    0    0    0    0  0.00000000000E+00  0.00000000000E+00  0.45593999997E+02  0.45594000000E+02  0.51100000000E-03 0.  1.
         11   -1    0    0    0    0 -0.00000000000E+00 -0.00000000000E+00 -0.45593999997E+02  0.45594000000E+02  0.51100000000E-03 0. -1.
    9900012    2    1    2    0    0 -0.32247783568E+02  0.18470126082E+01  0.28987788609E+02  0.47787275478E+02  0.20000020215E+02 0.  0.
         12    1    1    2    0    0  0.32247783568E+02 -0.18470126082E+01 -0.28987788609E+02  0.43400724522E+02  0.00000000000E+00 0. -1.
         11    1    3    3    0    0 -0.74410703573E+01 -0.34649822021E+01  0.13565911386E+02  0.15855900533E+02  0.51100000000E-03 0. -1.
        -11    1    3    3    0    0 -0.38911693343E+01 -0.11479588586E+01  0.77280734162E+01  0.87282373545E+01  0.51100000000E-03 0.  1.
         12    1    3    3    0    0 -0.20915543876E+02  0.64599536689E+01  0.76938038066E+01  0.23203137591E+02  0.00000000000E+00 0. -1.
</event>
<event>
 7    1  0.2492468E-009  0.4778727E+02  0.7816164E-02  0.1312668E+00
        -11   -1    0    0    0    0  0.00000000000E+00  0.00000000000E+00  0.45593999997E+02  0.45594000000E+02  0.51100000000E-03 0. -1.
         11   -1    0    0    0    0 -0.00000000000E+00 -0.00000000000E+00 -0.45593999997E+02  0.45594000000E+02  0.51100000000E-03 0.  1.
    9900012    2    1    2    0    0 -0.17257895786E+02  0.35252936350E+02 -0.18520760252E+02  0.47787273640E+02  0.20000011835E+02 0.  0.
         12    1    1    2    0    0  0.17257895786E+02 -0.35252936350E+02  0.18520760252E+02  0.43400726360E+02  0.00000000000E+00 0. -1.
         11    1    3    3    0    0 -0.47340437630E+01  0.57227498471E+01 -0.29085291243E+01  0.79762508794E+01  0.51100000000E-03 0. -1.
        -11    1    3    3    0    0 -0.59055562113E+01  0.28965047340E+02 -0.14976545859E+02  0.33138293373E+02  0.51100000000E-03 0.  1.
        -12    1    3    3    0    0 -0.66182958115E+01  0.56513916307E+00 -0.63568526890E+00  0.66727293879E+01  0.00000000000E+00 0.  1.
</event>
<event>
 7    1  0.2492468E-009  0.4778727E+02  0.7816164E-02  0.1312668E+00
        -11   -1    0    0    0    0  0.00000000000E+00  0.00000000000E+00  0.45593999997E+02  0.45594000000E+02  0.51100000000E-03 0. -1.
         11   -1    0    0    0    0 -0.00000000000E+00 -0.00000000000E+00 -0.45593999997E+02  0.45594000000E+02  0.51100000000E-03 0.  1.
    9900012    2    1    2    0    0  0.41117275904E+02  0.16950499846E+01  0.13788384138E+02  0.47787272940E+02  0.20000008643E+02 0.  0.
         12    1    1    2    0    0 -0.41117275904E+02 -0.16950499846E+01 -0.13788384138E+02  0.43400727060E+02  0.00000000000E+00 0. -1.
         11    1    3    3    0    0  0.51914210785E+01  0.66545497954E+01  0.67490428112E+01  0.10806639853E+02  0.51100000000E-03 0. -1.
        -11    1    3    3    0    0  0.82261330495E+01 -0.53410030199E+00  0.12358672740E+01  0.83355801394E+01  0.51100000000E-03 0.  1.
         12    1    3    3    0    0  0.27699721776E+02 -0.44253995088E+01  0.58034740528E+01  0.28645052947E+02  0.00000000000E+00 0. -1.
</event>
<event>
 7    1  0.2492468E-009  0.4778727E+02  0.7816164E-02  0.1312668E+00
        -11   -1    0    0    0    0  0.00000000000E+00  0.00000000000E+00  0.45593999997E+02  0.45594000000E+02  0.51100000000E-03 0. -1.
         11   -1    0    0    0    0 -0.00000000000E+00 -0.00000000000E+00 -0.45593999997E+02  0.45594000000E+02  0.51100000000E-03 0.  1.
    9900012    2    1    2    0    0  0.19026449908E+01 -0.17753368557E+02 -0.39557819864E+02  0.47787271141E+02  0.20000000442E+02 0.  0.
         12    1    1    2    0    0 -0.19026449908E+01  0.17753368557E+02  0.39557819864E+02  0.43400728859E+02  0.00000000000E+00 0. -1.
         11    1    3    3    0    0 -0.25974456033E+01 -0.50676362927E+01 -0.16908501608E+02  0.17841667190E+02  0.51100000000E-03 0. -1.
        -11    1    3    3    0    0  0.56278426031E+00 -0.31043963188E+01 -0.18531855967E+02  0.18798502293E+02  0.51100000000E-03 0.  1.
         12    1    3    3    0    0  0.39373063339E+01 -0.95813359452E+01 -0.41174622894E+01  0.11147101658E+02  0.00000000000E+00 0. -1.
</event>
<event>
 7    1  0.2492468E-009  0.4778727E+02  0.7816164E-02  0.1312668E+00
        -11   -1    0    0    0    0  0.00000000000E+00  0.00000000000E+00  0.45593999997E+02  0.45594000000E+02  0.51100000000E-03 0.  1.
         11   -1    0    0    0    0 -0.00000000000E+00 -0.00000000000E+00 -0.45593999997E+02  0.45594000000E+02  0.51100000000E-03 0. -1.
    9900012    2    1    2    0    0 -0.31039968696E+02  0.10697144760E+02  0.28385112179E+02  0.47787272402E+02  0.20000006188E+02 0.  0.
         12    1    1    2    0    0  0.31039968696E+02 -0.10697144760E+02 -0.28385112179E+02  0.43400727598E+02  0.00000000000E+00 0. -1.
         11    1    3    3    0    0 -0.26412822968E+01 -0.76071648889E-01  0.43868843243E+01  0.51212218663E+01  0.51100000000E-03 0. -1.
        -11    1    3    3    0    0 -0.13866329876E+02  0.10450124429E+02  0.37884211105E+01  0.17771672391E+02  0.51100000000E-03 0.  1.
         12    1    3    3    0    0 -0.14532356524E+02  0.32309197981E+00  0.20209806744E+02  0.24894378144E+02  0.00000000000E+00 0. -1.
</event>
<event>
 7    1  0.2492468E-009  0.4778727E+02  0.7816164E-02  0.1312668E+00
        -11   -1    0    0    0    0  0.00000000000E+00  0.00000000000E+00  0.45593999997E+02  0.45594000000E+02  0.51100000000E-03 0.  1.
         11   -1    0    0    0    0 -0.00000000000E+00 -0.00000000000E+00 -0.45593999997E+02  0.45594000000E+02  0.51100000000E-03 0. -1.
    9900012    2    1    2    0    0  0.17585079534E+02  0.27191212797E+02  0.28896821111E+02  0.47787270215E+02  0.19999996217E+02 0.  0.
         12    1    1    2    0    0 -0.17585079534E+02 -0.27191212797E+02 -0.28896821111E+02  0.43400729785E+02  0.00000000000E+00 0. -1.
         11    1    3    3    0    0  0.41658924081E+01  0.29602728394E+01  0.85071451068E+01  0.99241822317E+01  0.51100000000E-03 0. -1.
        -11    1    3    3    0    0  0.16993492297E+02  0.20539450711E+02  0.18196121048E+02  0.32276100096E+02  0.51100000000E-03 0.  1.
         12    1    3    3    0    0 -0.35743051705E+01  0.36914892459E+01  0.21935549566E+01  0.55869878873E+01  0.00000000000E+00 0. -1.
</event>
<event>
 7    1  0.2492468E-009  0.4778727E+02  0.7816164E-02  0.1312668E+00
        -11   -1    0    0    0    0  0.00000000000E+00  0.00000000000E+00  0.45593999997E+02  0.45594000000E+02  0.51100000000E-03 0.  1.
         11   -1    0    0    0    0 -0.00000000000E+00 -0.00000000000E+00 -0.45593999997E+02  0.45594000000E+02  0.51100000000E-03 0. -1.
    9900012    2    1    2    0    0  0.26409114991E+02  0.33312431013E+01  0.34279511422E+02  0.47787269147E+02  0.19999991350E+02 0.  0.
         12    1    1    2    0    0 -0.26409114991E+02 -0.33312431013E+01 -0.34279511422E+02  0.43400730853E+02  0.00000000000E+00 0. -1.
         11    1    3    3    0    0  0.23950063132E+02  0.64605596843E+01  0.34330318216E+02  0.42354634983E+02  0.51100000000E-03 0. -1.
        -11    1    3    3    0    0 -0.84237559224E-01 -0.14042049044E+01  0.14433662808E+01  0.20154884920E+01  0.51100000000E-03 0.  1.
         12    1    3    3    0    0  0.25432894178E+01 -0.17251116787E+01 -0.14941730747E+01  0.34171456720E+01  0.00000000000E+00 0. -1.
</event>
<event>
 7    1  0.2492468E-009  0.4778727E+02  0.7816164E-02  0.1312668E+00
        -11   -1    0    0    0    0  0.00000000000E+00  0.00000000000E+00  0.45593999997E+02  0.45594000000E+02  0.51100000000E-03 0.  1.
         11   -1    0    0    0    0 -0.00000000000E+00 -0.00000000000E+00 -0.45593999997E+02  0.45594000000E+02  0.51100000000E-03 0. -1.
    9900012    2    1    2    0    0 -0.36872930269E+02 -0.15615195616E+02  0.16738461879E+02  0.47787269282E+02  0.19999991967E+02 0.  0.
         12    1    1    2    0    0  0.36872930269E+02  0.15615195616E+02 -0.16738461879E+02  0.43400730718E+02  0.00000000000E+00 0. -1.
         11    1    3    3    0    0 -0.90802503628E+01 -0.29210943085E+01  0.49982292151E+01  0.10768752674E+02  0.51100000000E-03 0. -1.
        -11    1    3    3    0    0 -0.24144676361E+02 -0.16743365790E+02  0.11532776890E+02  0.31564388757E+02  0.51100000000E-03 0.  1.
         12    1    3    3    0    0 -0.36480035454E+01  0.40492644828E+01  0.20745577370E+00  0.54541278512E+01  0.00000000000E+00 0. -1.
</event>
<event>
 7    1  0.2492468E-009  0.4778727E+02  0.7816164E-02  0.1312668E+00
        -11   -1    0    0    0    0  0.00000000000E+00  0.00000000000E+00  0.45593999997E+02  0.45594000000E+02  0.51100000000E-03 0. -1.
         11   -1    0    0    0    0 -0.00000000000E+00 -0.00000000000E+00 -0.45593999997E+02  0.45594000000E+02  0.51100000000E-03 0.  1.
    9900012    2    1    2    0    0 -0.64220451066E+01  0.17667567174E+01 -0.42886586376E+02  0.47787269780E+02  0.19999994233E+02 0.  0.
         12    1    1    2    0    0  0.64220451066E+01 -0.17667567174E+01  0.42886586376E+02  0.43400730220E+02  0.00000000000E+00 0. -1.
         11    1    3    3    0    0  0.11829210729E+01  0.32878829130E+01 -0.24905985503E+02  0.25149902395E+02  0.51100000000E-03 0. -1.
        -11    1    3    3    0    0 -0.51483572650E+01 -0.43711405679E+01 -0.17605032618E+02  0.18856023603E+02  0.51100000000E-03 0.  1.
         12    1    3    3    0    0 -0.24566089144E+01  0.28500143723E+01 -0.37556825546E+00  0.37813437817E+01  0.00000000000E+00 0. -1.
</event>
<event>
 7    1  0.2492468E-009  0.4778727E+02  0.7816164E-02  0.1312668E+00
        -11   -1    0    0    0    0  0.00000000000E+00  0.00000000000E+00  0.45593999997E+02  0.45594000000E+02  0.51100000000E-03 0.  1.
         11   -1    0    0    0    0 -0.00000000000E+00 -0.00000000000E+00 -0.45593999997E+02  0.45594000000E+02  0.51100000000E-03 0. -1.
    9900012    2    1    2    0    0 -0.14266720681E+02 -0.39348650147E+02  0.11479009222E+02  0.47787271434E+02  0.20000001774E+02 0.  0.
         12    1    1    2    0    0  0.14266720681E+02  0.39348650147E+02 -0.11479009222E+02  0.43400728566E+02  0.00000000000E+00 0. -1.
         11    1    3    3    0    0 -0.34465440887E+01 -0.83126700669E+01  0.85017627175E+01  0.12379786725E+02  0.51100000000E-03 0. -1.
        -11    1    3    3    0    0  0.19449942449E+01 -0.85154807129E+01  0.37582351879E+01  0.95089824047E+01  0.51100000000E-03 0.  1.
         12    1    3    3    0    0 -0.12765170838E+02 -0.22520499367E+02 -0.78098868324E+00  0.25898502304E+02  0.00000000000E+00 0. -1.
</event>
<event>
 7    1  0.2492468E-009  0.4778727E+02  0.7816164E-02  0.1312668E+00
        -11   -1    0    0    0    0  0.00000000000E+00  0.00000000000E+00  0.45593999997E+02  0.45594000000E+02  0.51100000000E-03 0.  1.
         11   -1    0    0    0    0 -0.00000000000E+00 -0.00000000000E+00 -0.45593999997E+02  0.45594000000E+02  0.51100000000E-03 0. -1.
    9900012    2    1    2    0    0  0.13632556322E+02 -0.82898397893E+00  0.41195749006E+02  0.47787267950E+02  0.19999985891E+02 0.  0.
         12    1    1    2    0    0 -0.13632556322E+02  0.82898397893E+00 -0.41195749006E+02  0.43400732050E+02  0.00000000000E+00 0. -1.
         11    1    3    3    0    0  0.50203191278E+01 -0.13591092501E+01  0.17782676138E+02  0.18527664531E+02  0.51100000000E-03 0. -1.
        -11    1    3    3    0    0  0.77374310118E+01 -0.12723728779E+01  0.25312227504E+02  0.26498974185E+02  0.51100000000E-03 0.  1.
         12    1    3    3    0    0  0.87480618193E+00  0.18024981491E+01 -0.18991546356E+01  0.27606292332E+01  0.00000000000E+00 0. -1.
</event>
<event>
 7    1  0.2492468E-009  0.4778727E+02  0.7816164E-02  0.1312668E+00
        -11   -1    0    0    0    0  0.00000000000E+00  0.00000000000E+00  0.45593999997E+02  0.45594000000E+02  0.51100000000E-03 0.  1.
         11   -1    0    0    0    0 -0.00000000000E+00 -0.00000000000E+00 -0.45593999997E+02  0.45594000000E+02  0.51100000000E-03 0. -1.
    9900012    2    1    2    0    0 -0.26532694209E+02  0.11428324793E+02  0.32388774874E+02  0.47787271810E+02  0.20000003492E+02 0.  0.
         12    1    1    2    0    0  0.26532694209E+02 -0.11428324793E+02 -0.32388774874E+02  0.43400728190E+02  0.00000000000E+00 0. -1.
         11    1    3    3    0    0 -0.26734347181E+00 -0.14527498605E+01  0.18223377355E+00  0.14883427355E+01  0.51100000000E-03 0. -1.
        -11    1    3    3    0    0 -0.14360035227E+02 -0.15767503569E+01  0.15689592894E+02  0.21327448953E+02  0.51100000000E-03 0.  1.
        -12    1    3    3    0    0 -0.11905315511E+02  0.14457825010E+02  0.16516948207E+02  0.24971480122E+02  0.00000000000E+00 0.  1.
</event>
<event>
 7    1  0.2492468E-009  0.4778727E+02  0.7816164E-02  0.1312668E+00
        -11   -1    0    0    0    0  0.00000000000E+00  0.00000000000E+00  0.45593999997E+02  0.45594000000E+02  0.51100000000E-03 0.  1.
         11   -1    0    0    0    0 -0.00000000000E+00 -0.00000000000E+00 -0.45593999997E+02  0.45594000000E+02  0.51100000000E-03 0. -1.
    9900012    2    1    2    0    0  0.15200614756E+01  0.22452126704E+02  0.37110840623E+02  0.47787273368E+02  0.20000010594E+02 0.  0.
         12    1    1    2    0    0 -0.15200614756E+01 -0.22452126704E+02 -0.37110840623E+02  0.43400726632E+02  0.00000000000E+00 0. -1.
         11    1    3    3    0    0  0.22461943723E+01  0.57853537651E+01  0.18367567548E+01  0.64722007836E+01  0.51100000000E-03 0. -1.
        -11    1    3    3    0    0  0.30679959904E+01 -0.24943929313E+00  0.16686062001E+01  0.35012949419E+01  0.51100000000E-03 0.  1.
        -12    1    3    3    0    0 -0.37941288870E+01  0.16916212232E+02  0.33605477668E+02  0.37813777643E+02  0.00000000000E+00 0.  1.
</event>
<event>
 7    1  0.2492468E-009  0.4778727E+02  0.7816164E-02  0.1312668E+00
        -11   -1    0    0    0    0  0.00000000000E+00  0.00000000000E+00  0.45593999997E+02  0.45594000000E+02  0.51100000000E-03 0.  1.
         11   -1    0    0    0    0 -0.00000000000E+00 -0.00000000000E+00 -0.45593999997E+02  0.45594000000E+02  0.51100000000E-03 0. -1.
    9900012    2    1    2    0    0 -0.11099796273E+02 -0.94350439467E+01  0.40882732546E+02  0.47787270144E+02  0.19999995896E+02 0.  0.
         12    1    1    2    0    0  0.11099796273E+02  0.94350439467E+01 -0.40882732546E+02  0.43400729856E+02  0.00000000000E+00 0. -1.
         11    1    3    3    0    0  0.31800658859E+00  0.38983515147E+01  0.12045882648E+02  0.12664973816E+02  0.51100000000E-03 0. -1.
        -11    1    3    3    0    0  0.89855552786E+00 -0.44070315712E+01  0.95740079376E+01  0.10577852219E+02  0.51100000000E-03 0.  1.
        -12    1    3    3    0    0 -0.12316358390E+02 -0.89263638902E+01  0.19262841960E+02  0.24544444110E+02  0.00000000000E+00 0.  1.
</event>
<event>
 7    1  0.2492468E-009  0.4778727E+02  0.7816164E-02  0.1312668E+00
        -11   -1    0    0    0    0  0.00000000000E+00  0.00000000000E+00  0.45593999997E+02  0.45594000000E+02  0.51100000000E-03 0.  1.
         11   -1    0    0    0    0 -0.00000000000E+00 -0.00000000000E+00 -0.45593999997E+02  0.45594000000E+02  0.51100000000E-03 0. -1.
    9900012    2    1    2    0    0 -0.55645861029E+00  0.42413474974E+02  0.91875399736E+01  0.47787269634E+02  0.19999993567E+02 0.  0.
         12    1    1    2    0    0  0.55645861029E+00 -0.42413474974E+02 -0.91875399736E+01  0.43400730366E+02  0.00000000000E+00 0. -1.
         11    1    3    3    0    0 -0.12462995593E+01  0.11965575622E+02  0.72385832312E+01  0.14040133546E+02  0.51100000000E-03 0. -1.
        -11    1    3    3    0    0  0.38143069605E+01  0.15204563314E+02  0.73004900274E+01  0.17292334662E+02  0.51100000000E-03 0.  1.
         12    1    3    3    0    0 -0.31244660114E+01  0.15243336038E+02 -0.53515332849E+01  0.16454801425E+02  0.00000000000E+00 0. -1.
</event>
<event>
 7    1  0.2492468E-009  0.4778728E+02  0.7816164E-02  0.1312668E+00
        -11   -1    0    0    0    0  0.00000000000E+00  0.00000000000E+00  0.45593999997E+02  0.45594000000E+02  0.51100000000E-03 0.  1.
         11   -1    0    0    0    0 -0.00000000000E+00 -0.00000000000E+00 -0.45593999997E+02  0.45594000000E+02  0.51100000000E-03 0. -1.
    9900012    2    1    2    0    0 -0.34609738634E+01 -0.43057942591E+02  0.42021251131E+01  0.47787278626E+02  0.20000034569E+02 0.  0.
         12    1    1    2    0    0  0.34609738634E+01  0.43057942591E+02 -0.42021251131E+01  0.43400721374E+02  0.00000000000E+00 0. -1.
         11    1    3    3    0    0  0.33596206639E-01 -0.22523959895E+02 -0.74607927636E+00  0.22536338048E+02  0.51100000000E-03 0. -1.
        -11    1    3    3    0    0  0.48127682794E+01 -0.11066383266E+02  0.35447001746E+01  0.12577459071E+02  0.51100000000E-03 0.  1.
         12    1    3    3    0    0 -0.83073383495E+01 -0.94675994299E+01  0.14035042148E+01  0.12673481507E+02  0.00000000000E+00 0. -1.
</event>
<event>
 7    1  0.2492468E-009  0.4778725E+02  0.7816164E-02  0.1312668E+00
        -11   -1    0    0    0    0  0.00000000000E+00  0.00000000000E+00  0.45593999997E+02  0.45594000000E+02  0.51100000000E-03 0.  1.
         11   -1    0    0    0    0 -0.00000000000E+00 -0.00000000000E+00 -0.45593999997E+02  0.45594000000E+02  0.51100000000E-03 0. -1.
    9900012    2    1    2    0    0 -0.35821014736E+02 -0.95725948512E+01 -0.22557601549E+02  0.47787250507E+02  0.19999906361E+02 0.  0.
         12    1    1    2    0    0  0.35821014736E+02  0.95725948512E+01  0.22557601549E+02  0.43400749493E+02  0.00000000000E+00 0. -1.
         11    1    3    3    0    0 -0.36694269374E+01 -0.56722068402E+01 -0.57988748156E+01  0.89031215804E+01  0.51100000000E-03 0. -1.
        -11    1    3    3    0    0 -0.26620322964E+02 -0.82184258997E+01 -0.15036143406E+02  0.31658643808E+02  0.51100000000E-03 0.  1.
        -12    1    3    3    0    0 -0.55312648345E+01  0.43180378887E+01 -0.17225833280E+01  0.72254851186E+01  0.00000000000E+00 0.  1.
</event>
<event>
 7    1  0.2492468E-009  0.4778727E+02  0.7816164E-02  0.1312668E+00
        -11   -1    0    0    0    0  0.00000000000E+00  0.00000000000E+00  0.45593999997E+02  0.45594000000E+02  0.51100000000E-03 0. -1.
         11   -1    0    0    0    0 -0.00000000000E+00 -0.00000000000E+00 -0.45593999997E+02  0.45594000000E+02  0.51100000000E-03 0.  1.
    9900012    2    1    2    0    0 -0.16641131112E+02  0.35966178490E+02 -0.17695474296E+02  0.47787273618E+02  0.20000011735E+02 0.  0.
         12    1    1    2    0    0  0.16641131112E+02 -0.35966178490E+02  0.17695474296E+02  0.43400726382E+02  0.00000000000E+00 0. -1.
         11    1    3    3    0    0  0.17414085255E+01  0.11408066045E+01  0.12166858289E+01  0.24112793345E+01  0.51100000000E-03 0. -1.
        -11    1    3    3    0    0 -0.12261763218E+01 -0.89833770534E+00 -0.14468933518E+00  0.15269100399E+01  0.51100000000E-03 0.  1.
        -12    1    3    3    0    0 -0.17156363316E+02  0.35723709591E+02 -0.18767470790E+02  0.43849084244E+02  0.00000000000E+00 0.  1.
</event>
<event>
 7    1  0.2492468E-009  0.4778728E+02  0.7816164E-02  0.1312668E+00
        -11   -1    0    0    0    0  0.00000000000E+00  0.00000000000E+00  0.45593999997E+02  0.45594000000E+02  0.51100000000E-03 0. -1.
         11   -1    0    0    0    0 -0.00000000000E+00 -0.00000000000E+00 -0.45593999997E+02  0.45594000000E+02  0.51100000000E-03 0.  1.
    9900012    2    1    2    0    0  0.36773727838E+02  0.32957780597E+01 -0.22813454485E+02  0.47787275148E+02  0.20000018709E+02 0.  0.
         12    1    1    2    0    0 -0.36773727838E+02 -0.32957780597E+01  0.22813454485E+02  0.43400724852E+02  0.00000000000E+00 0. -1.
         11    1    3    3    0    0  0.71264005816E+01 -0.32420810230E+01  0.66856730950E+00  0.78577132244E+01  0.51100000000E-03 0. -1.
        -11    1    3    3    0    0  0.72835556253E+01  0.12459245129E+01 -0.46528266588E+00  0.74039853227E+01  0.51100000000E-03 0.  1.
        -12    1    3    3    0    0  0.22363771631E+02  0.52919345698E+01 -0.23016739129E+02  0.32525576601E+02  0.00000000000E+00 0.  1.
</event>
<event>
 7    1  0.2492468E-009  0.4778727E+02  0.7816164E-02  0.1312668E+00
        -11   -1    0    0    0    0  0.00000000000E+00  0.00000000000E+00  0.45593999997E+02  0.45594000000E+02  0.51100000000E-03 0.  1.
         11   -1    0    0    0    0 -0.00000000000E+00 -0.00000000000E+00 -0.45593999997E+02  0.45594000000E+02  0.51100000000E-03 0. -1.
    9900012    2    1    2    0    0 -0.59088000650E+01 -0.13152768681E+02  0.40935491278E+02  0.47787266269E+02  0.19999978227E+02 0.  0.
         12    1    1    2    0    0  0.59088000650E+01  0.13152768681E+02 -0.40935491278E+02  0.43400733731E+02  0.00000000000E+00 0. -1.
         11    1    3    3    0    0 -0.49660357319E+01 -0.38695226521E+01  0.16274294558E+02  0.17449566759E+02  0.51100000000E-03 0. -1.
        -11    1    3    3    0    0 -0.27298969693E+01 -0.18410260283E+01  0.21983968900E+02  0.22229183591E+02  0.51100000000E-03 0.  1.
         12    1    3    3    0    0  0.17871326362E+01 -0.74422200007E+01  0.26772278202E+01  0.81085159184E+01  0.00000000000E+00 0. -1.
</event>
<event>
 7    1  0.2492468E-009  0.4778728E+02  0.7816164E-02  0.1312668E+00
        -11   -1    0    0    0    0  0.00000000000E+00  0.00000000000E+00  0.45593999997E+02  0.45594000000E+02  0.51100000000E-03 0.  1.
         11   -1    0    0    0    0 -0.00000000000E+00 -0.00000000000E+00 -0.45593999997E+02  0.45594000000E+02  0.51100000000E-03 0. -1.
    9900012    2    1    2    0    0  0.21811408956E+02 -0.61427273105E+01  0.37015566027E+02  0.47787276645E+02  0.20000025534E+02 0.  0.
         12    1    1    2    0    0 -0.21811408956E+02  0.61427273105E+01 -0.37015566027E+02  0.43400723355E+02  0.00000000000E+00 0. -1.
         11    1    3    3    0    0  0.18660026698E+02 -0.27070977325E+01  0.19386011128E+02  0.27043343030E+02  0.51100000000E-03 0. -1.
        -11    1    3    3    0    0  0.52727647600E+01 -0.47528061239E+01  0.75641057071E+01  0.10373375038E+02  0.51100000000E-03 0.  1.
        -12    1    3    3    0    0 -0.21213825019E+01  0.13171765458E+01  0.10065449191E+02  0.10370558577E+02  0.00000000000E+00 0.  1.
</event>
<event>
 7    1  0.2492468E-009  0.4778726E+02  0.7816164E-02  0.1312668E+00
        -11   -1    0    0    0    0  0.00000000000E+00  0.00000000000E+00  0.45593999997E+02  0.45594000000E+02  0.51100000000E-03 0.  1.
         11   -1    0    0    0    0 -0.00000000000E+00 -0.00000000000E+00 -0.45593999997E+02  0.45594000000E+02  0.51100000000E-03 0. -1.
    9900012    2    1    2    0    0  0.17999803272E+02  0.32316403432E+01  0.39359719280E+02  0.47787263613E+02  0.19999966119E+02 0.  0.
         12    1    1    2    0    0 -0.17999803272E+02 -0.32316403432E+01 -0.39359719280E+02  0.43400736387E+02  0.00000000000E+00 0. -1.
         11    1    3    3    0    0  0.94615268080E+01 -0.19415188539E+00  0.86340557924E+01  0.12810351446E+02  0.51100000000E-03 0. -1.
        -11    1    3    3    0    0  0.63055340971E+01  0.77017791820E+01  0.11757891206E+02  0.15405361686E+02  0.51100000000E-03 0.  1.
         12    1    3    3    0    0  0.22327423665E+01 -0.42759869534E+01  0.18967772281E+02  0.19571550481E+02  0.00000000000E+00 0. -1.
</event>
<event>
 7    1  0.2492468E-009  0.4778727E+02  0.7816164E-02  0.1312668E+00
        -11   -1    0    0    0    0  0.00000000000E+00  0.00000000000E+00  0.45593999997E+02  0.45594000000E+02  0.51100000000E-03 0. -1.
         11   -1    0    0    0    0 -0.00000000000E+00 -0.00000000000E+00 -0.45593999997E+02  0.45594000000E+02  0.51100000000E-03 0.  1.
    9900012    2    1    2    0    0  0.29287155083E+02 -0.28699107271E+02 -0.14221357241E+02  0.47787271748E+02  0.20000003207E+02 0.  0.
         12    1    1    2    0    0 -0.29287155083E+02  0.28699107271E+02  0.14221357241E+02  0.43400728252E+02  0.00000000000E+00 0. -1.
         11    1    3    3    0    0  0.10229256157E+02 -0.16062052096E+02  0.28499661821E+00  0.19044905418E+02  0.51100000000E-03 0. -1.
        -11    1    3    3    0    0  0.11127270174E+02 -0.12673812414E+02 -0.93672639700E+01  0.19292156364E+02  0.51100000000E-03 0.  1.
         12    1    3    3    0    0  0.79306287525E+01  0.36757238653E-01 -0.51390898893E+01  0.94502099656E+01  0.00000000000E+00 0. -1.
</event>
<event>
 7    1  0.2492468E-009  0.4778727E+02  0.7816164E-02  0.1312668E+00
        -11   -1    0    0    0    0  0.00000000000E+00  0.00000000000E+00  0.45593999997E+02  0.45594000000E+02  0.51100000000E-03 0.  1.
         11   -1    0    0    0    0 -0.00000000000E+00 -0.00000000000E+00 -0.45593999997E+02  0.45594000000E+02  0.51100000000E-03 0. -1.
    9900012    2    1    2    0    0  0.26858696449E+02 -0.16599422030E+02  0.29777388927E+02  0.47787270997E+02  0.19999999784E+02 0.  0.
         12    1    1    2    0    0 -0.26858696449E+02  0.16599422030E+02 -0.29777388927E+02  0.43400729003E+02  0.00000000000E+00 0. -1.
         11    1    3    3    0    0  0.10618966576E+02 -0.88484274780E+01  0.86618923826E+01  0.16312127387E+02  0.51100000000E-03 0. -1.
        -11    1    3    3    0    0  0.18411966146E+02 -0.38912255088E+01  0.15931255578E+02  0.24656582040E+02  0.51100000000E-03 0.  1.
         12    1    3    3    0    0 -0.21722362730E+01 -0.38597690429E+01  0.51842409667E+01  0.68185615706E+01  0.00000000000E+00 0. -1.
</event>
<event>
 7    1  0.2492468E-009  0.4778727E+02  0.7816164E-02  0.1312668E+00
        -11   -1    0    0    0    0  0.00000000000E+00  0.00000000000E+00  0.45593999997E+02  0.45594000000E+02  0.51100000000E-03 0.  1.
         11   -1    0    0    0    0 -0.00000000000E+00 -0.00000000000E+00 -0.45593999997E+02  0.45594000000E+02  0.51100000000E-03 0. -1.
    9900012    2    1    2    0    0  0.11480305291E+02 -0.57586556522E+01  0.41456771518E+02  0.47787269255E+02  0.19999991840E+02 0.  0.
         12    1    1    2    0    0 -0.11480305291E+02  0.57586556522E+01 -0.41456771518E+02  0.43400730745E+02  0.00000000000E+00 0. -1.
         11    1    3    3    0    0 -0.94355776727E+00 -0.24048354371E+01  0.31475414455E+01  0.40719224148E+01  0.51100000000E-03 0. -1.
        -11    1    3    3    0    0  0.52747502682E+01 -0.99243842276E+01  0.22752846416E+02  0.25377320839E+02  0.51100000000E-03 0.  1.
         12    1    3    3    0    0  0.71491127905E+01  0.65705640124E+01  0.15556383657E+02  0.18338026001E+02  0.00000000000E+00 0. -1.
</event>
<event>
 7    1  0.2492468E-009  0.4778727E+02  0.7816164E-02  0.1312668E+00
        -11   -1    0    0    0    0  0.00000000000E+00  0.00000000000E+00  0.45593999997E+02  0.45594000000E+02  0.51100000000E-03 0. -1.
         11   -1    0    0    0    0 -0.00000000000E+00 -0.00000000000E+00 -0.45593999997E+02  0.45594000000E+02  0.51100000000E-03 0.  1.
    9900012    2    1    2    0    0 -0.38036485947E+02 -0.10235193882E+02 -0.18223345611E+02  0.47787265187E+02  0.19999973295E+02 0.  0.
         12    1    1    2    0    0  0.38036485947E+02  0.10235193882E+02  0.18223345611E+02  0.43400734813E+02  0.00000000000E+00 0. -1.
         11    1    3    3    0    0  0.17675583826E+01 -0.20129030812E+01 -0.36000436060E+01  0.44873550870E+01  0.51100000000E-03 0. -1.
        -11    1    3    3    0    0 -0.24586639625E+02 -0.65546663647E+01 -0.93380795636E+01  0.27104727067E+02  0.51100000000E-03 0.  1.
         12    1    3    3    0    0 -0.15217404705E+02 -0.16676244359E+01 -0.52852224419E+01  0.16195183033E+02  0.00000000000E+00 0. -1.
</event>
<event>
 7    1  0.2492468E-009  0.4778728E+02  0.7816164E-02  0.1312668E+00
        -11   -1    0    0    0    0  0.00000000000E+00  0.00000000000E+00  0.45593999997E+02  0.45594000000E+02  0.51100000000E-03 0. -1.
         11   -1    0    0    0    0 -0.00000000000E+00 -0.00000000000E+00 -0.45593999997E+02  0.45594000000E+02  0.51100000000E-03 0.  1.
    9900012    2    1    2    0    0 -0.34460910149E+02  0.88530110071E+01 -0.24853421503E+02  0.47787277741E+02  0.20000030534E+02 0.  0.
         12    1    1    2    0    0  0.34460910149E+02 -0.88530110071E+01  0.24853421503E+02  0.43400722259E+02  0.00000000000E+00 0. -1.
         11    1    3    3    0    0  0.15458944228E+01 -0.91519450254E-01 -0.32507296874E+00  0.15823520696E+01  0.51100000000E-03 0. -1.
        -11    1    3    3    0    0  0.93241215503E-01  0.22163841563E+01 -0.36948974663E+00  0.22489054197E+01  0.51100000000E-03 0.  1.
        -12    1    3    3    0    0 -0.36100045787E+02  0.67281463010E+01 -0.24158858787E+02  0.43956020252E+02  0.00000000000E+00 0.  1.
</event>
<event>
 7    1  0.2492468E-009  0.4778727E+02  0.7816164E-02  0.1312668E+00
        -11   -1    0    0    0    0  0.00000000000E+00  0.00000000000E+00  0.45593999997E+02  0.45594000000E+02  0.51100000000E-03 0. -1.
         11   -1    0    0    0    0 -0.00000000000E+00 -0.00000000000E+00 -0.45593999997E+02  0.45594000000E+02  0.51100000000E-03 0.  1.
    9900012    2    1    2    0    0 -0.33667894051E+02 -0.18492716006E+01 -0.27325373612E+02  0.47787274910E+02  0.20000017627E+02 0.  0.
         12    1    1    2    0    0  0.33667894051E+02  0.18492716006E+01  0.27325373612E+02  0.43400725090E+02  0.00000000000E+00 0. -1.
         11    1    3    3    0    0 -0.13865673082E+02 -0.68623176936E+01 -0.91239077457E+01  0.17960901619E+02  0.51100000000E-03 0. -1.
        -11    1    3    3    0    0 -0.93557083832E+01 -0.24572131632E+01 -0.34550315469E+01  0.10271534410E+02  0.51100000000E-03 0.  1.
         12    1    3    3    0    0 -0.10446512585E+02  0.74702592563E+01 -0.14746434319E+02  0.19554838882E+02  0.00000000000E+00 0. -1.
</event>
<event>
 7    1  0.2492468E-009  0.4778727E+02  0.7816164E-02  0.1312668E+00
        -11   -1    0    0    0    0  0.00000000000E+00  0.00000000000E+00  0.45593999997E+02  0.45594000000E+02  0.51100000000E-03 0.  1.
         11   -1    0    0    0    0 -0.00000000000E+00 -0.00000000000E+00 -0.45593999997E+02  0.45594000000E+02  0.51100000000E-03 0. -1.
    9900012    2    1    2    0    0 -0.14564952393E+02 -0.23416047094E+02  0.33513786792E+02  0.47787274143E+02  0.20000014129E+02 0.  0.
         12    1    1    2    0    0  0.14564952393E+02  0.23416047094E+02 -0.33513786792E+02  0.43400725857E+02  0.00000000000E+00 0. -1.
         11    1    3    3    0    0  0.23983906665E+01 -0.48818080726E+00  0.77698255329E+01  0.81462130688E+01  0.51100000000E-03 0. -1.
        -11    1    3    3    0    0 -0.24110166995E+01 -0.11190550728E+02  0.99206289783E+01  0.15147947277E+02  0.51100000000E-03 0.  1.
         12    1    3    3    0    0 -0.14552326360E+02 -0.11737315559E+02  0.15823332281E+02  0.24493113798E+02  0.00000000000E+00 0. -1.
</event>
<event>
 7    1  0.2492468E-009  0.4778727E+02  0.7816164E-02  0.1312668E+00
        -11   -1    0    0    0    0  0.00000000000E+00  0.00000000000E+00  0.45593999997E+02  0.45594000000E+02  0.51100000000E-03 0.  1.
         11   -1    0    0    0    0 -0.00000000000E+00 -0.00000000000E+00 -0.45593999997E+02  0.45594000000E+02  0.51100000000E-03 0. -1.
    9900012    2    1    2    0    0  0.37700357578E+02 -0.20748997926E+02 -0.56378505959E+01  0.47787271484E+02  0.20000002003E+02 0.  0.
         12    1    1    2    0    0 -0.37700357578E+02  0.20748997926E+02  0.56378505959E+01  0.43400728516E+02  0.00000000000E+00 0. -1.
         11    1    3    3    0    0  0.83526996640E+01 -0.10653663136E+02 -0.17298293882E+01  0.13647726546E+02  0.51100000000E-03 0. -1.
        -11    1    3    3    0    0  0.14522709954E+02 -0.93077727225E+01  0.34174527781E+01  0.17584729774E+02  0.51100000000E-03 0.  1.
         12    1    3    3    0    0  0.14824947959E+02 -0.78756206707E+00 -0.73254739858E+01  0.16554815164E+02  0.00000000000E+00 0. -1.
</event>
<event>
 7    1  0.2492468E-009  0.4778728E+02  0.7816164E-02  0.1312668E+00
        -11   -1    0    0    0    0  0.00000000000E+00  0.00000000000E+00  0.45593999997E+02  0.45594000000E+02  0.51100000000E-03 0.  1.
         11   -1    0    0    0    0 -0.00000000000E+00 -0.00000000000E+00 -0.45593999997E+02  0.45594000000E+02  0.51100000000E-03 0. -1.
    9900012    2    1    2    0    0  0.38836594978E+02  0.14354993987E+02  0.13010590213E+02  0.47787280887E+02  0.20000044876E+02 0.  0.
         12    1    1    2    0    0 -0.38836594978E+02 -0.14354993987E+02 -0.13010590213E+02  0.43400719113E+02  0.00000000000E+00 0. -1.
         11    1    3    3    0    0  0.62390705468E+01  0.16114920373E+01 -0.16782552202E+01  0.66587873310E+01  0.51100000000E-03 0. -1.
        -11    1    3    3    0    0  0.10382742452E+01  0.29764861025E+01  0.62989341608E+01  0.70437244942E+01  0.51100000000E-03 0.  1.
        -12    1    3    3    0    0  0.31559250186E+02  0.97670158468E+01  0.83899112728E+01  0.34084769062E+02  0.00000000000E+00 0.  1.
</event>
<event>
 7    1  0.2492468E-009  0.4778728E+02  0.7816164E-02  0.1312668E+00
        -11   -1    0    0    0    0  0.00000000000E+00  0.00000000000E+00  0.45593999997E+02  0.45594000000E+02  0.51100000000E-03 0.  1.
         11   -1    0    0    0    0 -0.00000000000E+00 -0.00000000000E+00 -0.45593999997E+02  0.45594000000E+02  0.51100000000E-03 0. -1.
    9900012    2    1    2    0    0  0.33082356464E+02 -0.27376537556E+02 -0.63012421254E+01  0.47787276848E+02  0.20000026463E+02 0.  0.
         12    1    1    2    0    0 -0.33082356464E+02  0.27376537556E+02  0.63012421254E+01  0.43400723152E+02  0.00000000000E+00 0. -1.
         11    1    3    3    0    0  0.67767768746E+00 -0.85678661725E+00 -0.17144129292E+01  0.20328655412E+01  0.51100000000E-03 0. -1.
        -11    1    3    3    0    0  0.10413085393E+02 -0.12652575579E+02 -0.10001859187E+02  0.19197843724E+02  0.51100000000E-03 0.  1.
         12    1    3    3    0    0  0.21991593384E+02 -0.13867175359E+02  0.54150299912E+01  0.26556567583E+02  0.00000000000E+00 0. -1.
</event>
<event>
 7    1  0.2492468E-009  0.4778728E+02  0.7816164E-02  0.1312668E+00
        -11   -1    0    0    0    0  0.00000000000E+00  0.00000000000E+00  0.45593999997E+02  0.45594000000E+02  0.51100000000E-03 0.  1.
         11   -1    0    0    0    0 -0.00000000000E+00 -0.00000000000E+00 -0.45593999997E+02  0.45594000000E+02  0.51100000000E-03 0. -1.
    9900012    2    1    2    0    0  0.25296815697E+02 -0.10550790103E+02  0.33650777073E+02  0.47787275883E+02  0.20000022061E+02 0.  0.
         12    1    1    2    0    0 -0.25296815697E+02  0.10550790103E+02 -0.33650777073E+02  0.43400724117E+02  0.00000000000E+00 0. -1.
         11    1    3    3    0    0  0.12409491661E+02 -0.47212457283E+01  0.18829859078E+02  0.23040165748E+02  0.51100000000E-03 0. -1.
        -11    1    3    3    0    0  0.10709802742E+02 -0.10003138303E+02  0.87621327915E+01  0.17074472818E+02  0.51100000000E-03 0.  1.
         12    1    3    3    0    0  0.21775212941E+01  0.41735939279E+01  0.60587852037E+01  0.76726373175E+01  0.00000000000E+00 0. -1.
</event>
<event>
 7    1  0.2492468E-009  0.4778726E+02  0.7816164E-02  0.1312668E+00
        -11   -1    0    0    0    0  0.00000000000E+00  0.00000000000E+00  0.45593999997E+02  0.45594000000E+02  0.51100000000E-03 0.  1.
         11   -1    0    0    0    0 -0.00000000000E+00 -0.00000000000E+00 -0.45593999997E+02  0.45594000000E+02  0.51100000000E-03 0. -1.
    9900012    2    1    2    0    0 -0.12910833001E+02 -0.29695016555E+02 -0.28898800793E+02  0.47787259174E+02  0.19999945878E+02 0.  0.
         12    1    1    2    0    0  0.12910833001E+02  0.29695016555E+02  0.28898800793E+02  0.43400740826E+02  0.00000000000E+00 0. -1.
         11    1    3    3    0    0 -0.17698700531E+00 -0.13389056869E+02 -0.10221059550E+02  0.16845421539E+02  0.51100000000E-03 0.  1.
        -11    1    3    3    0    0 -0.76593517715E+01 -0.99754859901E+01 -0.24703345678E+01  0.12817119155E+02  0.51100000000E-03 0. -1.
         12    1    3    3    0    0 -0.50744942243E+01 -0.63304736960E+01 -0.16207406675E+02  0.18124718480E+02  0.00000000000E+00 0. -1.
</event>
<event>
 7    1  0.2904902E-009  0.4778727E+02  0.7816164E-02  0.1312668E+00
        -11   -1    0    0    0    0  0.00000000000E+00  0.00000000000E+00  0.45593999997E+02  0.45594000000E+02  0.51100000000E-03 0. -1.
         11   -1    0    0    0    0 -0.00000000000E+00 -0.00000000000E+00 -0.45593999997E+02  0.45594000000E+02  0.51100000000E-03 0.  1.
    9900012    2    1    2    0    0  0.11339095824E+02 -0.25914377010E+01 -0.41813066437E+02  0.47787272260E+02  0.20000005542E+02 0.  0.
         12    1    1    2    0    0 -0.11339095824E+02  0.25914377010E+01  0.41813066437E+02  0.43400727740E+02  0.00000000000E+00 0. -1.
         11    1    3    3    0    0  0.90571187122E+01 -0.15500175313E+01 -0.13579881585E+02  0.16396558719E+02  0.51100000000E-03 0. -1.
        -11    1    3    3    0    0  0.53561655847E+01 -0.57311921231E+01 -0.19423926856E+02  0.20948126591E+02  0.51100000000E-03 0.  1.
         12    1    3    3    0    0 -0.30741884729E+01  0.46897719533E+01 -0.88092579964E+01  0.10442586949E+02  0.00000000000E+00 0. -1.
</event>
<event>
 7    1  0.2492468E-009  0.4778727E+02  0.7816164E-02  0.1312668E+00
        -11   -1    0    0    0    0  0.00000000000E+00  0.00000000000E+00  0.45593999997E+02  0.45594000000E+02  0.51100000000E-03 0. -1.
         11   -1    0    0    0    0 -0.00000000000E+00 -0.00000000000E+00 -0.45593999997E+02  0.45594000000E+02  0.51100000000E-03 0.  1.
    9900012    2    1    2    0    0 -0.42809004923E+02 -0.65880244859E+01 -0.27586543456E+01  0.47787272553E+02  0.20000006877E+02 0.  0.
         12    1    1    2    0    0  0.42809004923E+02  0.65880244859E+01  0.27586543456E+01  0.43400727447E+02  0.00000000000E+00 0. -1.
         11    1    3    3    0    0 -0.26213877852E+02 -0.58664305669E+01 -0.51875852411E+00  0.26867294436E+02  0.51100000000E-03 0. -1.
        -11    1    3    3    0    0 -0.18672959479E+02 -0.95000784726E+00 -0.17973884459E+01  0.18783304717E+02  0.51100000000E-03 0.  1.
         12    1    3    3    0    0  0.20778324079E+01  0.22841392824E+00 -0.44250737555E+00  0.21366733993E+01  0.00000000000E+00 0. -1.
</event>
<event>
 7    1  0.2492468E-009  0.4778725E+02  0.7816164E-02  0.1312668E+00
        -11   -1    0    0    0    0  0.00000000000E+00  0.00000000000E+00  0.45593999997E+02  0.45594000000E+02  0.51100000000E-03 0.  1.
         11   -1    0    0    0    0 -0.00000000000E+00 -0.00000000000E+00 -0.45593999997E+02  0.45594000000E+02  0.51100000000E-03 0. -1.
    9900012    2    1    2    0    0  0.11517786987E+02 -0.28767888277E+02  0.30387078978E+02  0.47787246760E+02  0.19999889277E+02 0.  0.
         12    1    1    2    0    0 -0.11517786987E+02  0.28767888277E+02 -0.30387078978E+02  0.43400753240E+02  0.00000000000E+00 0. -1.
         11    1    3    3    0    0  0.29126249788E+01 -0.12675431693E+02  0.73683909845E+01  0.14948014545E+02  0.51100000000E-03 0. -1.
        -11    1    3    3    0    0  0.27560178466E+01 -0.16251153899E+02  0.12086592088E+02  0.20439700242E+02  0.51100000000E-03 0.  1.
         12    1    3    3    0    0  0.58491441618E+01  0.15869731527E+00  0.10932095906E+02  0.12399531973E+02  0.00000000000E+00 0. -1.
</event>
<event>
 7    1  0.2492468E-009  0.4778727E+02  0.7816164E-02  0.1312668E+00
        -11   -1    0    0    0    0  0.00000000000E+00  0.00000000000E+00  0.45593999997E+02  0.45594000000E+02  0.51100000000E-03 0.  1.
         11   -1    0    0    0    0 -0.00000000000E+00 -0.00000000000E+00 -0.45593999997E+02  0.45594000000E+02  0.51100000000E-03 0. -1.
    9900012    2    1    2    0    0 -0.34844882519E+02  0.62411721446E+01  0.25109862229E+02  0.47787271335E+02  0.20000001323E+02 0.  0.
         12    1    1    2    0    0  0.34844882519E+02 -0.62411721446E+01 -0.25109862229E+02  0.43400728665E+02  0.00000000000E+00 0. -1.
         11    1    3    3    0    0 -0.33058550913E+01  0.11080844916E+01 -0.28791749872E+01  0.45217450164E+01  0.51100000000E-03 0. -1.
        -11    1    3    3    0    0 -0.95203145331E+00  0.91380466318E+00  0.38592355876E+01  0.40786152592E+01  0.51100000000E-03 0.  1.
        -12    1    3    3    0    0 -0.30586995975E+02  0.42192829898E+01  0.24129801629E+02  0.39186911059E+02  0.00000000000E+00 0.  1.
</event>
<event>
 7    1  0.2492468E-009  0.4778728E+02  0.7816164E-02  0.1312668E+00
        -11   -1    0    0    0    0  0.00000000000E+00  0.00000000000E+00  0.45593999997E+02  0.45594000000E+02  0.51100000000E-03 0. -1.
         11   -1    0    0    0    0 -0.00000000000E+00 -0.00000000000E+00 -0.45593999997E+02  0.45594000000E+02  0.51100000000E-03 0.  1.
    9900012    2    1    2    0    0  0.83801712193E+01  0.41086294830E+02 -0.11194255996E+02  0.47787282727E+02  0.20000053265E+02 0.  0.
         12    1    1    2    0    0 -0.83801712193E+01 -0.41086294830E+02  0.11194255996E+02  0.43400717273E+02  0.00000000000E+00 0. -1.
         11    1    3    3    0    0 -0.85610302096E+00  0.19772537382E+01  0.24225101673E+01  0.32420673188E+01  0.51100000000E-03 0. -1.
        -11    1    3    3    0    0  0.33358824610E+01  0.14950819050E+01 -0.36993894935E+01  0.52008522938E+01  0.51100000000E-03 0.  1.
        -12    1    3    3    0    0  0.59003917793E+01  0.37613959187E+02 -0.99173766693E+01  0.39344363114E+02  0.00000000000E+00 0.  1.
</event>
<event>
 7    1  0.2492468E-009  0.4778727E+02  0.7816164E-02  0.1312668E+00
        -11   -1    0    0    0    0  0.00000000000E+00  0.00000000000E+00  0.45593999997E+02  0.45594000000E+02  0.51100000000E-03 0.  1.
         11   -1    0    0    0    0 -0.00000000000E+00 -0.00000000000E+00 -0.45593999997E+02  0.45594000000E+02  0.51100000000E-03 0. -1.
    9900012    2    1    2    0    0  0.83814429433E+01  0.49163878159E+01  0.42298977409E+02  0.47787274836E+02  0.20000017286E+02 0.  0.
         12    1    1    2    0    0 -0.83814429433E+01 -0.49163878159E+01 -0.42298977409E+02  0.43400725164E+02  0.00000000000E+00 0. -1.
         11    1    3    3    0    0 -0.80666741064E+00  0.24539606009E+00  0.29098206894E+01  0.30295194740E+01  0.51100000000E-03 0. -1.
        -11    1    3    3    0    0  0.32352801539E+01  0.53792985758E+01  0.38115736141E+02  0.38629175925E+02  0.51100000000E-03 0.  1.
         12    1    3    3    0    0  0.59528302000E+01 -0.70830681995E+00  0.12734205786E+01  0.61285794366E+01  0.00000000000E+00 0. -1.
</event>
<event>
 7    1  0.2492468E-009  0.4778728E+02  0.7816164E-02  0.1312668E+00
        -11   -1    0    0    0    0  0.00000000000E+00  0.00000000000E+00  0.45593999997E+02  0.45594000000E+02  0.51100000000E-03 0.  1.
         11   -1    0    0    0    0 -0.00000000000E+00 -0.00000000000E+00 -0.45593999997E+02  0.45594000000E+02  0.51100000000E-03 0. -1.
    9900012    2    1    2    0    0 -0.17752610423E+02 -0.12281832430E+02  0.37651344099E+02  0.47787282297E+02  0.20000051305E+02 0.  0.
         12    1    1    2    0    0  0.17752610423E+02  0.12281832430E+02 -0.37651344099E+02  0.43400717703E+02  0.00000000000E+00 0. -1.
         11    1    3    3    0    0  0.75572617324E+00 -0.35196782002E+01  0.19800260659E+01  0.41084985292E+01  0.51100000000E-03 0. -1.
        -11    1    3    3    0    0 -0.10638487361E+02 -0.18247278449E+00  0.70062729957E+01  0.12739645647E+02  0.51100000000E-03 0.  1.
        -12    1    3    3    0    0 -0.78698492352E+01 -0.85796814452E+01  0.28665045037E+02  0.30939138121E+02  0.00000000000E+00 0.  1.
</event>
<event>
 7    1  0.2590140E-009  0.4778727E+02  0.7816164E-02  0.1312668E+00
        -11   -1    0    0    0    0  0.00000000000E+00  0.00000000000E+00  0.45593999997E+02  0.45594000000E+02  0.51100000000E-03 0.  1.
         11   -1    0    0    0    0 -0.00000000000E+00 -0.00000000000E+00 -0.45593999997E+02  0.45594000000E+02  0.51100000000E-03 0. -1.
    9900012    2    1    2    0    0  0.15212037392E+01 -0.40758963439E+02  0.14832929762E+02  0.47787274583E+02  0.20000016134E+02 0.  0.
         12    1    1    2    0    0 -0.15212037392E+01  0.40758963439E+02 -0.14832929762E+02  0.43400725417E+02  0.00000000000E+00 0. -1.
         11    1    3    3    0    0 -0.66857198057E+00 -0.84565487885E+01 -0.16102505773E+01  0.86344144612E+01  0.51100000000E-03 0.  1.
        -11    1    3    3    0    0 -0.14473238451E+01 -0.31363765384E+02  0.12756457574E+02  0.33889640533E+02  0.51100000000E-03 0. -1.
         12    1    3    3    0    0  0.36370995648E+01 -0.93864926599E+00  0.36867227653E+01  0.52632195885E+01  0.00000000000E+00 0. -1.
</event>
<event>
 7    1  0.2492468E-009  0.4778727E+02  0.7816164E-02  0.1312668E+00
        -11   -1    0    0    0    0  0.00000000000E+00  0.00000000000E+00  0.45593999997E+02  0.45594000000E+02  0.51100000000E-03 0.  1.
         11   -1    0    0    0    0 -0.00000000000E+00 -0.00000000000E+00 -0.45593999997E+02  0.45594000000E+02  0.51100000000E-03 0. -1.
    9900012    2    1    2    0    0  0.24553024343E+02 -0.19097672316E+02  0.30266341037E+02  0.47787268530E+02  0.19999988538E+02 0.  0.
         12    1    1    2    0    0 -0.24553024343E+02  0.19097672316E+02 -0.30266341037E+02  0.43400731470E+02  0.00000000000E+00 0. -1.
         11    1    3    3    0    0  0.29813729861E+01 -0.43456529047E+01  0.23001615767E+01  0.57501328324E+01  0.51100000000E-03 0. -1.
        -11    1    3    3    0    0  0.21426766328E+01 -0.10437446314E+02  0.14553737455E+02  0.18037256523E+02  0.51100000000E-03 0.  1.
         12    1    3    3    0    0  0.19428974725E+02 -0.43145730977E+01  0.13412442005E+02  0.23999879175E+02  0.00000000000E+00 0. -1.
</event>
<event>
 7    1  0.2492468E-009  0.4778727E+02  0.7816164E-02  0.1312668E+00
        -11   -1    0    0    0    0  0.00000000000E+00  0.00000000000E+00  0.45593999997E+02  0.45594000000E+02  0.51100000000E-03 0.  1.
         11   -1    0    0    0    0 -0.00000000000E+00 -0.00000000000E+00 -0.45593999997E+02  0.45594000000E+02  0.51100000000E-03 0. -1.
    9900012    2    1    2    0    0 -0.36759767526E+02  0.38507767920E+01  0.22748939203E+02  0.47787271604E+02  0.20000002549E+02 0.  0.
         12    1    1    2    0    0  0.36759767526E+02 -0.38507767920E+01 -0.22748939203E+02  0.43400728396E+02  0.00000000000E+00 0. -1.
         11    1    3    3    0    0 -0.26522737919E+02  0.27293450077E+01  0.68924469851E+01  0.27539258824E+02  0.51100000000E-03 0. -1.
        -11    1    3    3    0    0 -0.58427131992E+01 -0.10535275612E+01  0.33548485855E+01  0.68192541486E+01  0.51100000000E-03 0.  1.
        -12    1    3    3    0    0 -0.43943164080E+01  0.21749593454E+01  0.12501643633E+02  0.13428758631E+02  0.00000000000E+00 0.  1.
</event>
<event>
 7    1  0.2492468E-009  0.4778727E+02  0.7816164E-02  0.1312668E+00
        -11   -1    0    0    0    0  0.00000000000E+00  0.00000000000E+00  0.45593999997E+02  0.45594000000E+02  0.51100000000E-03 0.  1.
         11   -1    0    0    0    0 -0.00000000000E+00 -0.00000000000E+00 -0.45593999997E+02  0.45594000000E+02  0.51100000000E-03 0. -1.
    9900012    2    1    2    0    0  0.30473590036E+02  0.30383698773E+02 -0.56404226149E+01  0.47787271802E+02  0.20000003456E+02 0.  0.
         12    1    1    2    0    0 -0.30473590036E+02 -0.30383698773E+02  0.56404226149E+01  0.43400728198E+02  0.00000000000E+00 0. -1.
         11    1    3    3    0    0  0.10463704208E+02  0.49961960005E+01  0.42915714820E+00  0.11603243354E+02  0.51100000000E-03 0. -1.
        -11    1    3    3    0    0  0.20580591257E+02  0.26882574005E+02 -0.49156049195E+01  0.34211060983E+02  0.51100000000E-03 0.  1.
        -12    1    3    3    0    0 -0.57070542937E+00 -0.14950712321E+01 -0.11539748436E+01  0.19729674645E+01  0.00000000000E+00 0.  1.
</event>
<event>
 7    1  0.2492468E-009  0.4778727E+02  0.7816164E-02  0.1312668E+00
        -11   -1    0    0    0    0  0.00000000000E+00  0.00000000000E+00  0.45593999997E+02  0.45594000000E+02  0.51100000000E-03 0. -1.
         11   -1    0    0    0    0 -0.00000000000E+00 -0.00000000000E+00 -0.45593999997E+02  0.45594000000E+02  0.51100000000E-03 0.  1.
    9900012    2    1    2    0    0  0.38584809032E+02 -0.18854027544E+02  0.62738596289E+01  0.47787272387E+02  0.20000006120E+02 0.  0.
         12    1    1    2    0    0 -0.38584809032E+02  0.18854027544E+02 -0.62738596289E+01  0.43400727613E+02  0.00000000000E+00 0. -1.
         11    1    3    3    0    0  0.13773688840E+02 -0.45830092067E+01 -0.29002537851E+01  0.14803038537E+02  0.51100000000E-03 0. -1.
        -11    1    3    3    0    0  0.98640981988E+01 -0.15897245947E+00 -0.12355295522E+01  0.99424463314E+01  0.51100000000E-03 0.  1.
         12    1    3    3    0    0  0.14947021993E+02 -0.14112045878E+02  0.10409642966E+02  0.23041787518E+02  0.00000000000E+00 0. -1.
</event>
<event>
 7    1  0.2492468E-009  0.4778727E+02  0.7816164E-02  0.1312668E+00
        -11   -1    0    0    0    0  0.00000000000E+00  0.00000000000E+00  0.45593999997E+02  0.45594000000E+02  0.51100000000E-03 0.  1.
         11   -1    0    0    0    0 -0.00000000000E+00 -0.00000000000E+00 -0.45593999997E+02  0.45594000000E+02  0.51100000000E-03 0. -1.
    9900012    2    1    2    0    0  0.16556161483E+02 -0.11585716664E+02  0.38409479976E+02  0.47787268834E+02  0.19999989923E+02 0.  0.
         12    1    1    2    0    0 -0.16556161483E+02  0.11585716664E+02 -0.38409479976E+02  0.43400731166E+02  0.00000000000E+00 0. -1.
         11    1    3    3    0    0  0.46459523967E+01 -0.97965468981E+01  0.14318497052E+02  0.17960416557E+02  0.51100000000E-03 0. -1.
        -11    1    3    3    0    0  0.74878119664E+01 -0.31888202270E+00  0.24024093536E+02  0.25165970759E+02  0.51100000000E-03 0.  1.
        -12    1    3    3    0    0  0.44223971202E+01 -0.14702877432E+01  0.66889388390E-01  0.46608815182E+01  0.00000000000E+00 0.  1.
</event>
<event>
 7    1  0.2492468E-009  0.4778727E+02  0.7816164E-02  0.1312668E+00
        -11   -1    0    0    0    0  0.00000000000E+00  0.00000000000E+00  0.45593999997E+02  0.45594000000E+02  0.51100000000E-03 0.  1.
         11   -1    0    0    0    0 -0.00000000000E+00 -0.00000000000E+00 -0.45593999997E+02  0.45594000000E+02  0.51100000000E-03 0. -1.
    9900012    2    1    2    0    0  0.24691159812E+02  0.14885432823E+02  0.32440619941E+02  0.47787270681E+02  0.19999998345E+02 0.  0.
         12    1    1    2    0    0 -0.24691159812E+02 -0.14885432823E+02 -0.32440619941E+02  0.43400729319E+02  0.00000000000E+00 0. -1.
         11    1    3    3    0    0  0.22067791927E+01  0.35424400890E+01  0.63036653074E+00  0.42209144049E+01  0.51100000000E-03 0. -1.
        -11    1    3    3    0    0  0.61540555002E+01 -0.22866370738E+01  0.15269962323E+02  0.16621457752E+02  0.51100000000E-03 0.  1.
        -12    1    3    3    0    0  0.16330325120E+02  0.13629629808E+02  0.16540291088E+02  0.26944898524E+02  0.00000000000E+00 0.  1.
</event>
<event>
 7    1  0.3023548E-009  0.4778727E+02  0.7816164E-02  0.1312668E+00
        -11   -1    0    0    0    0  0.00000000000E+00  0.00000000000E+00  0.45593999997E+02  0.45594000000E+02  0.51100000000E-03 0.  1.
         11   -1    0    0    0    0 -0.00000000000E+00 -0.00000000000E+00 -0.45593999997E+02  0.45594000000E+02  0.51100000000E-03 0. -1.
    9900012    2    1    2    0    0 -0.47559867441E+01  0.40586037862E+02  0.14621126239E+02  0.47787271760E+02  0.20000003264E+02 0.  0.
         12    1    1    2    0    0  0.47559867441E+01 -0.40586037862E+02 -0.14621126239E+02  0.43400728240E+02  0.00000000000E+00 0. -1.
         11    1    3    3    0    0 -0.40796811874E+01  0.18883062056E+01  0.59540188134E+01  0.74605522053E+01  0.51100000000E-03 0. -1.
        -11    1    3    3    0    0 -0.48639164735E+00  0.14215224997E+02  0.68194927625E+01  0.15773860667E+02  0.51100000000E-03 0.  1.
         12    1    3    3    0    0 -0.18991390932E+00  0.24482506659E+02  0.18476146627E+01  0.24552858888E+02  0.00000000000E+00 0. -1.
</event>
<event>
 7    1  0.2492468E-009  0.4778727E+02  0.7816164E-02  0.1312668E+00
        -11   -1    0    0    0    0  0.00000000000E+00  0.00000000000E+00  0.45593999997E+02  0.45594000000E+02  0.51100000000E-03 0.  1.
         11   -1    0    0    0    0 -0.00000000000E+00 -0.00000000000E+00 -0.45593999997E+02  0.45594000000E+02  0.51100000000E-03 0. -1.
    9900012    2    1    2    0    0 -0.12644343315E+01  0.43367677772E+02  0.11265617936E+01  0.47787269465E+02  0.19999992798E+02 0.  0.
         12    1    1    2    0    0  0.12644343315E+01 -0.43367677772E+02 -0.11265617936E+01  0.43400730535E+02  0.00000000000E+00 0. -1.
         11    1    3    3    0    0 -0.33042436630E+01  0.11052722531E+02  0.43685679313E+00  0.11544329589E+02  0.51100000000E-03 0. -1.
        -11    1    3    3    0    0 -0.68764719005E+01  0.12952063778E+02 -0.18271981967E+01  0.14777701967E+02  0.51100000000E-03 0.  1.
         12    1    3    3    0    0  0.89162812320E+01  0.19362891462E+02  0.25169031971E+01  0.21465237909E+02  0.00000000000E+00 0. -1.
</event>
<event>
 7    1  0.2492468E-009  0.4778727E+02  0.7816164E-02  0.1312668E+00
        -11   -1    0    0    0    0  0.00000000000E+00  0.00000000000E+00  0.45593999997E+02  0.45594000000E+02  0.51100000000E-03 0.  1.
         11   -1    0    0    0    0 -0.00000000000E+00 -0.00000000000E+00 -0.45593999997E+02  0.45594000000E+02  0.51100000000E-03 0. -1.
    9900012    2    1    2    0    0  0.21971539935E+02 -0.37002032357E+02  0.56324050371E+01  0.47787274751E+02  0.20000016898E+02 0.  0.
         12    1    1    2    0    0 -0.21971539935E+02  0.37002032357E+02 -0.56324050371E+01  0.43400725249E+02  0.00000000000E+00 0. -1.
         11    1    3    3    0    0  0.50365590325E+01 -0.12234621893E+02  0.63829065674E+00  0.13246143400E+02  0.51100000000E-03 0. -1.
        -11    1    3    3    0    0  0.61448969119E+01 -0.21983644539E+02  0.15554620097E+01  0.22879244909E+02  0.51100000000E-03 0.  1.
         12    1    3    3    0    0  0.10790083990E+02 -0.27837659251E+01  0.34386523707E+01  0.11661886441E+02  0.00000000000E+00 0. -1.
</event>
<event>
 7    1  0.2492468E-009  0.4778727E+02  0.7816164E-02  0.1312668E+00
        -11   -1    0    0    0    0  0.00000000000E+00  0.00000000000E+00  0.45593999997E+02  0.45594000000E+02  0.51100000000E-03 0.  1.
         11   -1    0    0    0    0 -0.00000000000E+00 -0.00000000000E+00 -0.45593999997E+02  0.45594000000E+02  0.51100000000E-03 0. -1.
    9900012    2    1    2    0    0  0.16682164141E+02  0.47882118955E+01  0.39779414711E+02  0.47787269495E+02  0.19999992937E+02 0.  0.
         12    1    1    2    0    0 -0.16682164141E+02 -0.47882118955E+01 -0.39779414711E+02  0.43400730505E+02  0.00000000000E+00 0. -1.
         11    1    3    3    0    0 -0.11926862773E+01  0.50138851939E+01  0.58799620143E+01  0.78189192888E+01  0.51100000000E-03 0. -1.
        -11    1    3    3    0    0  0.17949276427E+01  0.23015072187E+01  0.71229542873E+00  0.30043411523E+01  0.51100000000E-03 0.  1.
        -12    1    3    3    0    0  0.16079922775E+02 -0.25271805170E+01  0.33187157268E+02  0.36964009054E+02  0.00000000000E+00 0.  1.
</event>
<event>
 7    1  0.2492468E-009  0.4778726E+02  0.7816164E-02  0.1312668E+00
        -11   -1    0    0    0    0  0.00000000000E+00  0.00000000000E+00  0.45593999997E+02  0.45594000000E+02  0.51100000000E-03 0. -1.
         11   -1    0    0    0    0 -0.00000000000E+00 -0.00000000000E+00 -0.45593999997E+02  0.45594000000E+02  0.51100000000E-03 0.  1.
    9900012    2    1    2    0    0  0.40755760137E+02 -0.10201537072E+02  0.10886710477E+02  0.47787264891E+02  0.19999971945E+02 0.  0.
         12    1    1    2    0    0 -0.40755760137E+02  0.10201537072E+02 -0.10886710477E+02  0.43400735109E+02  0.00000000000E+00 0. -1.
         11    1    3    3    0    0  0.30760263600E+02 -0.15699930644E+02  0.11339041093E+02  0.36349078284E+02  0.51100000000E-03 0. -1.
        -11    1    3    3    0    0  0.61833177537E+01  0.33145978268E+01  0.52657072386E-01  0.70158926891E+01  0.51100000000E-03 0.  1.
         12    1    3    3    0    0  0.38121787836E+01  0.21837957445E+01 -0.50498768846E+00  0.44222939180E+01  0.00000000000E+00 0. -1.
</event>
<event>
 7    1  0.2492468E-009  0.4778727E+02  0.7816164E-02  0.1312668E+00
        -11   -1    0    0    0    0  0.00000000000E+00  0.00000000000E+00  0.45593999997E+02  0.45594000000E+02  0.51100000000E-03 0.  1.
         11   -1    0    0    0    0 -0.00000000000E+00 -0.00000000000E+00 -0.45593999997E+02  0.45594000000E+02  0.51100000000E-03 0. -1.
    9900012    2    1    2    0    0  0.22730564722E+02  0.16579921792E+02  0.33046195103E+02  0.47787269707E+02  0.19999993900E+02 0.  0.
         12    1    1    2    0    0 -0.22730564722E+02 -0.16579921792E+02 -0.33046195103E+02  0.43400730293E+02  0.00000000000E+00 0. -1.
         11    1    3    3    0    0  0.27556605782E+01  0.24281537987E+01 -0.12730449470E+01  0.38871891889E+01  0.51100000000E-03 0. -1.
        -11    1    3    3    0    0  0.96505796089E+01  0.92115459757E+00  0.74748271863E+01  0.12241538069E+02  0.51100000000E-03 0.  1.
        -12    1    3    3    0    0  0.10324324534E+02  0.13230613396E+02  0.26844412864E+02  0.31658542448E+02  0.00000000000E+00 0.  1.
</event>
<event>
 7    1  0.2492468E-009  0.4778727E+02  0.7816164E-02  0.1312668E+00
        -11   -1    0    0    0    0  0.00000000000E+00  0.00000000000E+00  0.45593999997E+02  0.45594000000E+02  0.51100000000E-03 0.  1.
         11   -1    0    0    0    0 -0.00000000000E+00 -0.00000000000E+00 -0.45593999997E+02  0.45594000000E+02  0.51100000000E-03 0. -1.
    9900012    2    1    2    0    0  0.30910422461E+02 -0.15223876774E+02  0.26389446667E+02  0.47787268023E+02  0.19999986223E+02 0.  0.
         12    1    1    2    0    0 -0.30910422461E+02  0.15223876774E+02 -0.26389446667E+02  0.43400731977E+02  0.00000000000E+00 0. -1.
         11    1    3    3    0    0  0.35625542919E+01 -0.16711959107E+01  0.75287513650E+01  0.84951036622E+01  0.51100000000E-03 0. -1.
        -11    1    3    3    0    0  0.76493740906E-01 -0.31992470471E+01  0.71965994632E+01  0.78760445057E+01  0.51100000000E-03 0.  1.
         12    1    3    3    0    0  0.27271374429E+02 -0.10353433816E+02  0.11664095839E+02  0.31416119855E+02  0.00000000000E+00 0. -1.
</event>
<event>
 7    1  0.2492468E-009  0.4778727E+02  0.7816164E-02  0.1312668E+00
        -11   -1    0    0    0    0  0.00000000000E+00  0.00000000000E+00  0.45593999997E+02  0.45594000000E+02  0.51100000000E-03 0.  1.
         11   -1    0    0    0    0 -0.00000000000E+00 -0.00000000000E+00 -0.45593999997E+02  0.45594000000E+02  0.51100000000E-03 0. -1.
    9900012    2    1    2    0    0 -0.20454605612E+02 -0.16017175192E+02  0.34766108641E+02  0.47787273025E+02  0.20000009030E+02 0.  0.
         12    1    1    2    0    0  0.20454605612E+02  0.16017175192E+02 -0.34766108641E+02  0.43400726975E+02  0.00000000000E+00 0. -1.
         11    1    3    3    0    0  0.10422509755E+01 -0.33553977460E+01  0.19001893274E+01  0.39944587707E+01  0.51100000000E-03 0. -1.
        -11    1    3    3    0    0 -0.56754362026E+01  0.48780670562E+00  0.88252544876E+00  0.57643198124E+01  0.51100000000E-03 0.  1.
        -12    1    3    3    0    0 -0.15821420385E+02 -0.13149584152E+02  0.31983393865E+02  0.38028494442E+02  0.00000000000E+00 0.  1.
</event>
<event>
 7    1  0.2492468E-009  0.4778728E+02  0.7816164E-02  0.1312668E+00
        -11   -1    0    0    0    0  0.00000000000E+00  0.00000000000E+00  0.45593999997E+02  0.45594000000E+02  0.51100000000E-03 0. -1.
         11   -1    0    0    0    0 -0.00000000000E+00 -0.00000000000E+00 -0.45593999997E+02  0.45594000000E+02  0.51100000000E-03 0.  1.
    9900012    2    1    2    0    0  0.25782801403E+02  0.26095418254E+02 -0.23192651958E+02  0.47787276425E+02  0.20000024531E+02 0.  0.
         12    1    1    2    0    0 -0.25782801403E+02 -0.26095418254E+02  0.23192651958E+02  0.43400723575E+02  0.00000000000E+00 0. -1.
         11    1    3    3    0    0  0.33955676599E+01 -0.34195777011E+00 -0.32278817236E+01  0.46974498968E+01  0.51100000000E-03 0. -1.
        -11    1    3    3    0    0  0.57669397330E-01  0.75387799817E+01 -0.92562691840E+01  0.11937966696E+02  0.51100000000E-03 0.  1.
         12    1    3    3    0    0  0.22329564346E+02  0.18898596042E+02 -0.10708501050E+02  0.31151859832E+02  0.00000000000E+00 0. -1.
</event>
<event>
 7    1  0.2492468E-009  0.4778727E+02  0.7816164E-02  0.1312668E+00
        -11   -1    0    0    0    0  0.00000000000E+00  0.00000000000E+00  0.45593999997E+02  0.45594000000E+02  0.51100000000E-03 0. -1.
         11   -1    0    0    0    0 -0.00000000000E+00 -0.00000000000E+00 -0.45593999997E+02  0.45594000000E+02  0.51100000000E-03 0.  1.
    9900012    2    1    2    0    0 -0.35176559966E+02 -0.25419430131E+02  0.29225839290E+00  0.47787271732E+02  0.20000003134E+02 0.  0.
         12    1    1    2    0    0  0.35176559966E+02  0.25419430131E+02 -0.29225839290E+00  0.43400728268E+02  0.00000000000E+00 0. -1.
         11    1    3    3    0    0  0.77346591417E-03 -0.17965020291E+01 -0.15451361300E+01  0.23695708600E+01  0.51100000000E-03 0.  1.
        -11    1    3    3    0    0 -0.89466619300E+01 -0.54566788904E+01 -0.66371014432E+01  0.12404403252E+02  0.51100000000E-03 0. -1.
         12    1    3    3    0    0 -0.26230671502E+02 -0.18166249211E+02  0.84744959662E+01  0.33013297620E+02  0.00000000000E+00 0. -1.
</event>
<event>
 7    1  0.2492468E-009  0.4778727E+02  0.7816164E-02  0.1312668E+00
        -11   -1    0    0    0    0  0.00000000000E+00  0.00000000000E+00  0.45593999997E+02  0.45594000000E+02  0.51100000000E-03 0.  1.
         11   -1    0    0    0    0 -0.00000000000E+00 -0.00000000000E+00 -0.45593999997E+02  0.45594000000E+02  0.51100000000E-03 0. -1.
    9900012    2    1    2    0    0  0.19627083657E+02  0.23406343470E+02  0.30830891020E+02  0.47787272257E+02  0.20000005529E+02 0.  0.
         12    1    1    2    0    0 -0.19627083657E+02 -0.23406343470E+02 -0.30830891020E+02  0.43400727743E+02  0.00000000000E+00 0. -1.
         11    1    3    3    0    0  0.21278332766E+01  0.16823891001E+02  0.13086744457E+02  0.21420407644E+02  0.51100000000E-03 0.  1.
        -11    1    3    3    0    0  0.85398023916E+01  0.32080090129E+01  0.49244417486E+01  0.10366758100E+02  0.51100000000E-03 0. -1.
        -12    1    3    3    0    0  0.89594479889E+01  0.33744434558E+01  0.12819704814E+02  0.16000106513E+02  0.00000000000E+00 0.  1.
</event>
<event>
 7    1  0.2492468E-009  0.4778727E+02  0.7816164E-02  0.1312668E+00
        -11   -1    0    0    0    0  0.00000000000E+00  0.00000000000E+00  0.45593999997E+02  0.45594000000E+02  0.51100000000E-03 0.  1.
         11   -1    0    0    0    0 -0.00000000000E+00 -0.00000000000E+00 -0.45593999997E+02  0.45594000000E+02  0.51100000000E-03 0. -1.
    9900012    2    1    2    0    0  0.14895624980E+02  0.45769788634E+01  0.40506724179E+02  0.47787273246E+02  0.20000010037E+02 0.  0.
         12    1    1    2    0    0 -0.14895624980E+02 -0.45769788634E+01 -0.40506724179E+02  0.43400726754E+02  0.00000000000E+00 0. -1.
         11    1    3    3    0    0 -0.78288313903E+00  0.18959542300E+01  0.26508597925E+00  0.20682889762E+01  0.51100000000E-03 0. -1.
        -11    1    3    3    0    0  0.15448281877E+02  0.12697461733E+01  0.19416265938E+02  0.24844577910E+02  0.51100000000E-03 0.  1.
        -12    1    3    3    0    0  0.23022624173E+00  0.14112784600E+01  0.20825372262E+02  0.20874406359E+02  0.00000000000E+00 0.  1.
</event>
<event>
 7    1  0.2492468E-009  0.4778727E+02  0.7816164E-02  0.1312668E+00
        -11   -1    0    0    0    0  0.00000000000E+00  0.00000000000E+00  0.45593999997E+02  0.45594000000E+02  0.51100000000E-03 0.  1.
         11   -1    0    0    0    0 -0.00000000000E+00 -0.00000000000E+00 -0.45593999997E+02  0.45594000000E+02  0.51100000000E-03 0. -1.
    9900012    2    1    2    0    0 -0.20673025931E+02 -0.28796090983E+01  0.38052031682E+02  0.47787271149E+02  0.20000000476E+02 0.  0.
         12    1    1    2    0    0  0.20673025931E+02  0.28796090983E+01 -0.38052031682E+02  0.43400728851E+02  0.00000000000E+00 0. -1.
         11    1    3    3    0    0  0.81370781606E+00  0.92443143431E+00 -0.98817038422E+00  0.15789790550E+01  0.51100000000E-03 0. -1.
        -11    1    3    3    0    0 -0.28133260803E+01 -0.89275712669E+00  0.13378446518E+00  0.29546095284E+01  0.51100000000E-03 0.  1.
        -12    1    3    3    0    0 -0.18673407667E+02 -0.29112834060E+01  0.38906417601E+02  0.43253682566E+02  0.00000000000E+00 0.  1.
</event>
<event>
 7    1  0.2492468E-009  0.4778727E+02  0.7816164E-02  0.1312668E+00
        -11   -1    0    0    0    0  0.00000000000E+00  0.00000000000E+00  0.45593999997E+02  0.45594000000E+02  0.51100000000E-03 0.  1.
         11   -1    0    0    0    0 -0.00000000000E+00 -0.00000000000E+00 -0.45593999997E+02  0.45594000000E+02  0.51100000000E-03 0. -1.
    9900012    2    1    2    0    0 -0.16113703679E+02  0.51116301029E+01  0.39973035201E+02  0.47787265539E+02  0.19999974898E+02 0.  0.
         12    1    1    2    0    0  0.16113703679E+02 -0.51116301029E+01 -0.39973035201E+02  0.43400734461E+02  0.00000000000E+00 0. -1.
         11    1    3    3    0    0 -0.15720232081E+02  0.28645524646E+01  0.29462211206E+02  0.33516462327E+02  0.51100000000E-03 0. -1.
        -11    1    3    3    0    0 -0.33225194074E+00  0.28341314324E+01  0.12175065068E+02  0.12504995082E+02  0.51100000000E-03 0.  1.
         12    1    3    3    0    0 -0.61219658078E-01 -0.58705379417E+00 -0.16642410729E+01  0.17658081301E+01  0.00000000000E+00 0. -1.
</event>
<event>
 7    1  0.2492468E-009  0.4778726E+02  0.7816164E-02  0.1312668E+00
        -11   -1    0    0    0    0  0.00000000000E+00  0.00000000000E+00  0.45593999997E+02  0.45594000000E+02  0.51100000000E-03 0. -1.
         11   -1    0    0    0    0 -0.00000000000E+00 -0.00000000000E+00 -0.45593999997E+02  0.45594000000E+02  0.51100000000E-03 0.  1.
    9900012    2    1    2    0    0 -0.19452680000E+02 -0.28811475840E+02 -0.25983000950E+02  0.47787259941E+02  0.19999949376E+02 0.  0.
         12    1    1    2    0    0  0.19452680000E+02  0.28811475840E+02  0.25983000950E+02  0.43400740059E+02  0.00000000000E+00 0. -1.
         11    1    3    3    0    0 -0.19728562048E+01  0.14767907819E+01 -0.20346846550E+01  0.31957807379E+01  0.51100000000E-03 0. -1.
        -11    1    3    3    0    0  0.23780798797E+01 -0.42266491911E+01 -0.30446212361E+01  0.57262156815E+01  0.51100000000E-03 0.  1.
        -12    1    3    3    0    0 -0.19857903675E+02 -0.26061617431E+02 -0.20903695059E+02  0.38865263522E+02  0.00000000000E+00 0.  1.
</event>
<event>
 7    1  0.2492468E-009  0.4778727E+02  0.7816164E-02  0.1312668E+00
        -11   -1    0    0    0    0  0.00000000000E+00  0.00000000000E+00  0.45593999997E+02  0.45594000000E+02  0.51100000000E-03 0. -1.
         11   -1    0    0    0    0 -0.00000000000E+00 -0.00000000000E+00 -0.45593999997E+02  0.45594000000E+02  0.51100000000E-03 0.  1.
    9900012    2    1    2    0    0  0.36303031233E+02 -0.16582714158E+02 -0.17050710272E+02  0.47787271823E+02  0.20000003549E+02 0.  0.
         12    1    1    2    0    0 -0.36303031233E+02  0.16582714158E+02  0.17050710272E+02  0.43400728177E+02  0.00000000000E+00 0. -1.
         11    1    3    3    0    0  0.24305487982E+01 -0.64055198177E+01 -0.47693531123E+01  0.83477530489E+01  0.51100000000E-03 0. -1.
        -11    1    3    3    0    0  0.18494512846E+02 -0.10920692834E+02 -0.10602008418E+02  0.23952267537E+02  0.51100000000E-03 0.  1.
         12    1    3    3    0    0  0.15377969589E+02  0.74349849459E+00 -0.16793487417E+01  0.15487251237E+02  0.00000000000E+00 0. -1.
</event>
<event>
 7    1  0.2492468E-009  0.4778727E+02  0.7816164E-02  0.1312668E+00
        -11   -1    0    0    0    0  0.00000000000E+00  0.00000000000E+00  0.45593999997E+02  0.45594000000E+02  0.51100000000E-03 0.  1.
         11   -1    0    0    0    0 -0.00000000000E+00 -0.00000000000E+00 -0.45593999997E+02  0.45594000000E+02  0.51100000000E-03 0. -1.
    9900012    2    1    2    0    0  0.11006825733E+02 -0.37117263747E+02 -0.19615847554E+02  0.47787274707E+02  0.20000016697E+02 0.  0.
         12    1    1    2    0    0 -0.11006825733E+02  0.37117263747E+02  0.19615847554E+02  0.43400725293E+02  0.00000000000E+00 0. -1.
         11    1    3    3    0    0  0.84902770196E+01 -0.67620301557E+01 -0.34710200425E+01  0.11395518246E+02  0.51100000000E-03 0. -1.
        -11    1    3    3    0    0  0.66637934979E+01 -0.23945295015E+02 -0.13668114226E+02  0.28365483319E+02  0.51100000000E-03 0.  1.
        -12    1    3    3    0    0 -0.41472447849E+01 -0.64099385755E+01 -0.24767132853E+01  0.80262731417E+01  0.00000000000E+00 0.  1.
</event>
<event>
 7    1  0.2492468E-009  0.4778727E+02  0.7816164E-02  0.1312668E+00
        -11   -1    0    0    0    0  0.00000000000E+00  0.00000000000E+00  0.45593999997E+02  0.45594000000E+02  0.51100000000E-03 0.  1.
         11   -1    0    0    0    0 -0.00000000000E+00 -0.00000000000E+00 -0.45593999997E+02  0.45594000000E+02  0.51100000000E-03 0. -1.
    9900012    2    1    2    0    0  0.30055986891E+02  0.31049846985E+02 -0.40209326927E+01  0.47787271371E+02  0.20000001488E+02 0.  0.
         12    1    1    2    0    0 -0.30055986891E+02 -0.31049846985E+02  0.40209326927E+01  0.43400728629E+02  0.00000000000E+00 0. -1.
         11    1    3    3    0    0  0.93454939793E+01  0.31685359905E+01  0.13383068994E+01  0.99583604905E+01  0.51100000000E-03 0. -1.
        -11    1    3    3    0    0  0.22809428776E+02  0.24649312840E+02 -0.45404990719E+01  0.33889154558E+02  0.51100000000E-03 0.  1.
         12    1    3    3    0    0 -0.20989358646E+01  0.32319981555E+01 -0.81874052012E+00  0.39397563224E+01  0.00000000000E+00 0. -1.
</event>
<event>
 7    1  0.2492468E-009  0.4778729E+02  0.7816164E-02  0.1312668E+00
        -11   -1    0    0    0    0  0.00000000000E+00  0.00000000000E+00  0.45593999997E+02  0.45594000000E+02  0.51100000000E-03 0. -1.
         11   -1    0    0    0    0 -0.00000000000E+00 -0.00000000000E+00 -0.45593999997E+02  0.45594000000E+02  0.51100000000E-03 0.  1.
    9900012    2    1    2    0    0 -0.41716977863E+02  0.57372898070E+01 -0.10507082350E+02  0.47787291298E+02  0.20000092344E+02 0.  0.
         12    1    1    2    0    0  0.41716977863E+02 -0.57372898070E+01  0.10507082350E+02  0.43400708702E+02  0.00000000000E+00 0. -1.
         11    1    3    3    0    0 -0.20096270778E+02 -0.17377556726E+01 -0.13892691187E+02  0.24492585871E+02  0.51100000000E-03 0. -1.
        -11    1    3    3    0    0 -0.18495779312E+02  0.55572001057E+01  0.21808792345E+01  0.19435343060E+02  0.51100000000E-03 0.  1.
         12    1    3    3    0    0 -0.31249277731E+01  0.19178453739E+01  0.12047296028E+01  0.38593623672E+01  0.00000000000E+00 0. -1.
</event>
<event>
 7    1  0.2492468E-009  0.4778727E+02  0.7816164E-02  0.1312668E+00
        -11   -1    0    0    0    0  0.00000000000E+00  0.00000000000E+00  0.45593999997E+02  0.45594000000E+02  0.51100000000E-03 0.  1.
         11   -1    0    0    0    0 -0.00000000000E+00 -0.00000000000E+00 -0.45593999997E+02  0.45594000000E+02  0.51100000000E-03 0. -1.
    9900012    2    1    2    0    0  0.21296519994E+01  0.55942801800E+01  0.42985948947E+02  0.47787271951E+02  0.20000004131E+02 0.  0.
         12    1    1    2    0    0 -0.21296519994E+01 -0.55942801800E+01 -0.42985948947E+02  0.43400728049E+02  0.00000000000E+00 0. -1.
         11    1    3    3    0    0 -0.42063001264E+01 -0.30186725227E+00  0.26925141806E+01  0.50033706104E+01  0.51100000000E-03 0. -1.
        -11    1    3    3    0    0 -0.24880991688E+01  0.50601616685E+00  0.23600471979E+01  0.34664842236E+01  0.51100000000E-03 0.  1.
         12    1    3    3    0    0  0.88240512946E+01  0.53901312654E+01  0.37933387568E+02  0.39317417117E+02  0.00000000000E+00 0. -1.
</event>
<event>
 7    1  0.2492468E-009  0.4778727E+02  0.7816164E-02  0.1312668E+00
        -11   -1    0    0    0    0  0.00000000000E+00  0.00000000000E+00  0.45593999997E+02  0.45594000000E+02  0.51100000000E-03 0. -1.
         11   -1    0    0    0    0 -0.00000000000E+00 -0.00000000000E+00 -0.45593999997E+02  0.45594000000E+02  0.51100000000E-03 0.  1.
    9900012    2    1    2    0    0 -0.33407012508E+02 -0.23366292426E+02  0.14886608993E+02  0.47787271507E+02  0.20000002108E+02 0.  0.
         12    1    1    2    0    0  0.33407012508E+02  0.23366292426E+02 -0.14886608993E+02  0.43400728493E+02  0.00000000000E+00 0. -1.
         11    1    3    3    0    0 -0.10890917953E+02 -0.86650532428E+00  0.33917822902E+01  0.11439716461E+02  0.51100000000E-03 0. -1.
        -11    1    3    3    0    0 -0.11957304166E+02 -0.96347708633E+01 -0.12183950420E+01  0.15404233809E+02  0.51100000000E-03 0.  1.
         12    1    3    3    0    0 -0.10558790388E+02 -0.12865016238E+02  0.12713221745E+02  0.20943321237E+02  0.00000000000E+00 0. -1.
</event>
<event>
 7    1  0.2492468E-009  0.4778727E+02  0.7816164E-02  0.1312668E+00
        -11   -1    0    0    0    0  0.00000000000E+00  0.00000000000E+00  0.45593999997E+02  0.45594000000E+02  0.51100000000E-03 0.  1.
         11   -1    0    0    0    0 -0.00000000000E+00 -0.00000000000E+00 -0.45593999997E+02  0.45594000000E+02  0.51100000000E-03 0. -1.
    9900012    2    1    2    0    0  0.92379790582E+01 -0.39849094587E+02  0.14502846962E+02  0.47787272282E+02  0.20000005641E+02 0.  0.
         12    1    1    2    0    0 -0.92379790582E+01  0.39849094587E+02 -0.14502846962E+02  0.43400727718E+02  0.00000000000E+00 0. -1.
         11    1    3    3    0    0  0.49301791043E+01 -0.22737795132E+02  0.25946576397E+01  0.23410387481E+02  0.51100000000E-03 0. -1.
        -11    1    3    3    0    0  0.20140323311E+01 -0.17125284695E+02  0.63697031385E+01  0.18382187586E+02  0.51100000000E-03 0.  1.
         12    1    3    3    0    0  0.22937676228E+01  0.13985240195E-01  0.55384861833E+01  0.59946972147E+01  0.00000000000E+00 0. -1.
</event>
<event>
 7    1  0.2492468E-009  0.4778727E+02  0.7816164E-02  0.1312668E+00
        -11   -1    0    0    0    0  0.00000000000E+00  0.00000000000E+00  0.45593999997E+02  0.45594000000E+02  0.51100000000E-03 0. -1.
         11   -1    0    0    0    0 -0.00000000000E+00 -0.00000000000E+00 -0.45593999997E+02  0.45594000000E+02  0.51100000000E-03 0.  1.
    9900012    2    1    2    0    0 -0.22051917463E+02 -0.11690260219E+02 -0.35505972953E+02  0.47787270017E+02  0.19999995313E+02 0.  0.
         12    1    1    2    0    0  0.22051917463E+02  0.11690260219E+02  0.35505972953E+02  0.43400729983E+02  0.00000000000E+00 0. -1.
         11    1    3    3    0    0  0.23191898327E+00  0.20882183208E+01 -0.57787230425E+01  0.61488277284E+01  0.51100000000E-03 0. -1.
        -11    1    3    3    0    0 -0.36359942187E+01 -0.63483980777E+00  0.54592681534E+00  0.37311542301E+01  0.51100000000E-03 0.  1.
        -12    1    3    3    0    0 -0.18647842227E+02 -0.13143638732E+02 -0.30273176726E+02  0.37907288058E+02  0.00000000000E+00 0.  1.
</event>
<event>
 7    1  0.2492468E-009  0.4778727E+02  0.7816164E-02  0.1312668E+00
        -11   -1    0    0    0    0  0.00000000000E+00  0.00000000000E+00  0.45593999997E+02  0.45594000000E+02  0.51100000000E-03 0.  1.
         11   -1    0    0    0    0 -0.00000000000E+00 -0.00000000000E+00 -0.45593999997E+02  0.45594000000E+02  0.51100000000E-03 0. -1.
    9900012    2    1    2    0    0  0.29172753225E+02 -0.64421854648E+01  0.31481295842E+02  0.47787271064E+02  0.20000000090E+02 0.  0.
         12    1    1    2    0    0 -0.29172753225E+02  0.64421854648E+01 -0.31481295842E+02  0.43400728936E+02  0.00000000000E+00 0. -1.
         11    1    3    3    0    0  0.47057344598E+01  0.16224059229E+01  0.71354287659E+00  0.50284472238E+01  0.51100000000E-03 0. -1.
        -11    1    3    3    0    0  0.22356745876E+02 -0.64523777224E+01  0.17206396009E+02  0.28939891644E+02  0.51100000000E-03 0.  1.
        -12    1    3    3    0    0  0.21102728887E+01 -0.16122136654E+01  0.13561356956E+02  0.13818932197E+02  0.00000000000E+00 0.  1.
</event>
<event>
 7    1  0.2492468E-009  0.4778727E+02  0.7816164E-02  0.1312668E+00
        -11   -1    0    0    0    0  0.00000000000E+00  0.00000000000E+00  0.45593999997E+02  0.45594000000E+02  0.51100000000E-03 0.  1.
         11   -1    0    0    0    0 -0.00000000000E+00 -0.00000000000E+00 -0.45593999997E+02  0.45594000000E+02  0.51100000000E-03 0. -1.
    9900012    2    1    2    0    0  0.32794227121E+02  0.99634662237E+01  0.26625013650E+02  0.47787270242E+02  0.19999996342E+02 0.  0.
         12    1    1    2    0    0 -0.32794227121E+02 -0.99634662237E+01 -0.26625013650E+02  0.43400729758E+02  0.00000000000E+00 0. -1.
         11    1    3    3    0    0  0.43499397783E+01  0.93007376426E+01  0.66360186989E+01  0.12225483271E+02  0.51100000000E-03 0. -1.
        -11    1    3    3    0    0  0.13811861503E+02  0.38773247839E+01  0.84277443472E+01  0.16638150159E+02  0.51100000000E-03 0.  1.
        -12    1    3    3    0    0  0.14632425839E+02 -0.32145962028E+01  0.11561250604E+02  0.18923636813E+02  0.00000000000E+00 0.  1.
</event>
<event>
 7    1  0.2492468E-009  0.4778726E+02  0.7816164E-02  0.1312668E+00
        -11   -1    0    0    0    0  0.00000000000E+00  0.00000000000E+00  0.45593999997E+02  0.45594000000E+02  0.51100000000E-03 0.  1.
         11   -1    0    0    0    0 -0.00000000000E+00 -0.00000000000E+00 -0.45593999997E+02  0.45594000000E+02  0.51100000000E-03 0. -1.
    9900012    2    1    2    0    0  0.56606010008E+00  0.17972909120E+02  0.39500357418E+02  0.47787261269E+02  0.19999955429E+02 0.  0.
         12    1    1    2    0    0 -0.56606010008E+00 -0.17972909120E+02 -0.39500357418E+02  0.43400738731E+02  0.00000000000E+00 0. -1.
         11    1    3    3    0    0 -0.47275734894E+01  0.28602022318E+01  0.21458806495E+01  0.59275215670E+01  0.51100000000E-03 0.  1.
        -11    1    3    3    0    0 -0.16987256270E+01  0.94415203968E+00  0.92688580561E+00  0.21531858693E+01  0.51100000000E-03 0. -1.
        -12    1    3    3    0    0  0.69923592165E+01  0.14168554849E+02  0.36427590963E+02  0.39706553833E+02  0.00000000000E+00 0.  1.
</event>
<event>
 7    1  0.2492468E-009  0.4778727E+02  0.7816164E-02  0.1312668E+00
        -11   -1    0    0    0    0  0.00000000000E+00  0.00000000000E+00  0.45593999997E+02  0.45594000000E+02  0.51100000000E-03 0.  1.
         11   -1    0    0    0    0 -0.00000000000E+00 -0.00000000000E+00 -0.45593999997E+02  0.45594000000E+02  0.51100000000E-03 0. -1.
    9900012    2    1    2    0    0 -0.25107202530E+02  0.19723082645E+02  0.29398154275E+02  0.47787273247E+02  0.20000010044E+02 0.  0.
         12    1    1    2    0    0  0.25107202530E+02 -0.19723082645E+02 -0.29398154275E+02  0.43400726753E+02  0.00000000000E+00 0. -1.
         11    1    3    3    0    0 -0.14894881657E+02  0.13475726846E+02  0.81068728940E+01  0.21660427096E+02  0.51100000000E-03 0. -1.
        -11    1    3    3    0    0 -0.41074104724E+00  0.17966498221E+01 -0.42281991021E+00  0.18908822620E+01  0.51100000000E-03 0.  1.
        -12    1    3    3    0    0 -0.98015798255E+01  0.44507059767E+01  0.21714101291E+02  0.24235963889E+02  0.00000000000E+00 0.  1.
</event>
<event>
 7    1  0.2492468E-009  0.4778727E+02  0.7816164E-02  0.1312668E+00
        -11   -1    0    0    0    0  0.00000000000E+00  0.00000000000E+00  0.45593999997E+02  0.45594000000E+02  0.51100000000E-03 0.  1.
         11   -1    0    0    0    0 -0.00000000000E+00 -0.00000000000E+00 -0.45593999997E+02  0.45594000000E+02  0.51100000000E-03 0. -1.
    9900012    2    1    2    0    0  0.25345885854E+02 -0.61510834196E+01  0.34689670191E+02  0.47787274488E+02  0.20000015703E+02 0.  0.
         12    1    1    2    0    0 -0.25345885854E+02  0.61510834196E+01 -0.34689670191E+02  0.43400725512E+02  0.00000000000E+00 0. -1.
         11    1    3    3    0    0  0.10160224944E+02 -0.12565761324E+01  0.10682916019E+02  0.14796413398E+02  0.51100000000E-03 0. -1.
        -11    1    3    3    0    0  0.16433073389E+02 -0.67825273265E+01  0.24868500026E+02  0.30569443432E+02  0.51100000000E-03 0.  1.
         12    1    3    3    0    0 -0.12474124791E+01  0.18880200393E+01 -0.86174585419E+00  0.24214176589E+01  0.00000000000E+00 0. -1.
</event>
<event>
 7    1  0.2492468E-009  0.4778727E+02  0.7816164E-02  0.1312668E+00
        -11   -1    0    0    0    0  0.00000000000E+00  0.00000000000E+00  0.45593999997E+02  0.45594000000E+02  0.51100000000E-03 0.  1.
         11   -1    0    0    0    0 -0.00000000000E+00 -0.00000000000E+00 -0.45593999997E+02  0.45594000000E+02  0.51100000000E-03 0. -1.
    9900012    2    1    2    0    0 -0.54254227513E+01 -0.32172075637E+01  0.42939929480E+02  0.47787272123E+02  0.20000004917E+02 0.  0.
         12    1    1    2    0    0  0.54254227513E+01  0.32172075637E+01 -0.42939929480E+02  0.43400727877E+02  0.00000000000E+00 0. -1.
         11    1    3    3    0    0 -0.54367518821E+01 -0.44520574841E+01  0.98177519705E+01  0.12073414632E+02  0.51100000000E-03 0. -1.
        -11    1    3    3    0    0 -0.35200821747E+01 -0.49106587424E+01  0.12019502965E+02  0.13452657715E+02  0.51100000000E-03 0.  1.
         12    1    3    3    0    0  0.35314113055E+01  0.61455086628E+01  0.21102674544E+02  0.22261199776E+02  0.00000000000E+00 0. -1.
</event>
<event>
 7    1  0.2492468E-009  0.4778727E+02  0.7816164E-02  0.1312668E+00
        -11   -1    0    0    0    0  0.00000000000E+00  0.00000000000E+00  0.45593999997E+02  0.45594000000E+02  0.51100000000E-03 0.  1.
         11   -1    0    0    0    0 -0.00000000000E+00 -0.00000000000E+00 -0.45593999997E+02  0.45594000000E+02  0.51100000000E-03 0. -1.
    9900012    2    1    2    0    0  0.20339875156E+02  0.25907077722E+02  0.28261925796E+02  0.47787266744E+02  0.19999980394E+02 0.  0.
         12    1    1    2    0    0 -0.20339875156E+02 -0.25907077722E+02 -0.28261925796E+02  0.43400733256E+02  0.00000000000E+00 0. -1.
         11    1    3    3    0    0  0.40343959243E+01  0.87973318211E+01  0.98620109811E+01  0.13817693675E+02  0.51100000000E-03 0. -1.
        -11    1    3    3    0    0  0.10982613627E+02  0.14440362553E+02  0.42726209072E+01  0.18638593360E+02  0.51100000000E-03 0.  1.
        -12    1    3    3    0    0  0.53228656045E+01  0.26693833476E+01  0.14127293907E+02  0.15330979709E+02  0.00000000000E+00 0.  1.
</event>
<event>
 7    1  0.2492468E-009  0.4778727E+02  0.7816164E-02  0.1312668E+00
        -11   -1    0    0    0    0  0.00000000000E+00  0.00000000000E+00  0.45593999997E+02  0.45594000000E+02  0.51100000000E-03 0.  1.
         11   -1    0    0    0    0 -0.00000000000E+00 -0.00000000000E+00 -0.45593999997E+02  0.45594000000E+02  0.51100000000E-03 0. -1.
    9900012    2    1    2    0    0 -0.68808611811E+01 -0.14537385277E+02  0.40310564065E+02  0.47787269631E+02  0.19999993557E+02 0.  0.
         12    1    1    2    0    0  0.68808611811E+01  0.14537385277E+02 -0.40310564065E+02  0.43400730369E+02  0.00000000000E+00 0. -1.
         11    1    3    3    0    0 -0.24040581774E+01 -0.21191707306E+00  0.48549057266E+00  0.24617282391E+01  0.51100000000E-03 0. -1.
        -11    1    3    3    0    0 -0.18892041108E+00  0.32779144201E+01  0.88672902906E+01  0.94556465261E+01  0.51100000000E-03 0.  1.
        -12    1    3    3    0    0 -0.42878825926E+01 -0.17603382624E+02  0.30957783202E+02  0.35869894866E+02  0.00000000000E+00 0.  1.
</event>
<event>
 7    1  0.2492468E-009  0.4778727E+02  0.7816164E-02  0.1312668E+00
        -11   -1    0    0    0    0  0.00000000000E+00  0.00000000000E+00  0.45593999997E+02  0.45594000000E+02  0.51100000000E-03 0.  1.
         11   -1    0    0    0    0 -0.00000000000E+00 -0.00000000000E+00 -0.45593999997E+02  0.45594000000E+02  0.51100000000E-03 0. -1.
    9900012    2    1    2    0    0  0.10554331351E+02  0.42076880961E+02  0.13287848910E+01  0.47787268543E+02  0.19999988597E+02 0.  0.
         12    1    1    2    0    0 -0.10554331351E+02 -0.42076880961E+02 -0.13287848910E+01  0.43400731457E+02  0.00000000000E+00 0. -1.
         11    1    3    3    0    0 -0.53475542723E+00  0.18764666593E+01 -0.18681096426E+01  0.27012819898E+01  0.51100000000E-03 0. -1.
        -11    1    3    3    0    0  0.69020039815E+01  0.32869423373E+02 -0.42174190580E+01  0.33850011456E+02  0.51100000000E-03 0.  1.
         12    1    3    3    0    0  0.41870827972E+01  0.73309909289E+01  0.74143135916E+01  0.11235975097E+02  0.00000000000E+00 0. -1.
</event>
<event>
 7    1  0.2492468E-009  0.4778727E+02  0.7816164E-02  0.1312668E+00
        -11   -1    0    0    0    0  0.00000000000E+00  0.00000000000E+00  0.45593999997E+02  0.45594000000E+02  0.51100000000E-03 0.  1.
         11   -1    0    0    0    0 -0.00000000000E+00 -0.00000000000E+00 -0.45593999997E+02  0.45594000000E+02  0.51100000000E-03 0. -1.
    9900012    2    1    2    0    0  0.27859202458E+02 -0.18843266542E+02  0.27430264216E+02  0.47787271314E+02  0.20000001227E+02 0.  0.
         12    1    1    2    0    0 -0.27859202458E+02  0.18843266542E+02 -0.27430264216E+02  0.43400728686E+02  0.00000000000E+00 0. -1.
         11    1    3    3    0    0  0.74636487487E+00 -0.23577326045E+01  0.55069517500E+01  0.60367608367E+01  0.51100000000E-03 0. -1.
        -11    1    3    3    0    0  0.20208356112E+02 -0.42255826242E+01  0.17313283132E+02  0.26944071302E+02  0.51100000000E-03 0.  1.
        -12    1    3    3    0    0  0.69044814707E+01 -0.12259951313E+02  0.46100293345E+01  0.14806439175E+02  0.00000000000E+00 0.  1.
</event>
<event>
 7    1  0.2492468E-009  0.4778726E+02  0.7816164E-02  0.1312668E+00
        -11   -1    0    0    0    0  0.00000000000E+00  0.00000000000E+00  0.45593999997E+02  0.45594000000E+02  0.51100000000E-03 0.  1.
         11   -1    0    0    0    0 -0.00000000000E+00 -0.00000000000E+00 -0.45593999997E+02  0.45594000000E+02  0.51100000000E-03 0. -1.
    9900012    2    1    2    0    0 -0.12232176883E+02 -0.34421751732E+02  0.23433751008E+02  0.47787264639E+02  0.19999970794E+02 0.  0.
         12    1    1    2    0    0  0.12232176883E+02  0.34421751732E+02 -0.23433751008E+02  0.43400735361E+02  0.00000000000E+00 0. -1.
         11    1    3    3    0    0  0.86790885560E-03 -0.99756664951E+01 -0.36642665680E-01  0.99757338437E+01  0.51100000000E-03 0. -1.
        -11    1    3    3    0    0  0.75517038092E+00  0.78852082613E+00  0.19958608494E+00  0.11099019163E+01  0.51100000000E-03 0.  1.
        -12    1    3    3    0    0 -0.12988215173E+02 -0.25234606063E+02  0.23270807589E+02  0.36701628879E+02  0.00000000000E+00 0.  1.
</event>
<event>
 7    1  0.2492468E-009  0.4778727E+02  0.7816164E-02  0.1312668E+00
        -11   -1    0    0    0    0  0.00000000000E+00  0.00000000000E+00  0.45593999997E+02  0.45594000000E+02  0.51100000000E-03 0. -1.
         11   -1    0    0    0    0 -0.00000000000E+00 -0.00000000000E+00 -0.45593999997E+02  0.45594000000E+02  0.51100000000E-03 0.  1.
    9900012    2    1    2    0    0  0.33056003253E+02  0.22833045629E+02 -0.16418770712E+02  0.47787270105E+02  0.19999995716E+02 0.  0.
         12    1    1    2    0    0 -0.33056003253E+02 -0.22833045629E+02  0.16418770712E+02  0.43400729895E+02  0.00000000000E+00 0. -1.
         11    1    3    3    0    0  0.73921557722E+01 -0.94772829649E-01 -0.15615886575E+01  0.75558922866E+01  0.51100000000E-03 0. -1.
        -11    1    3    3    0    0  0.75016219247E+01  0.17173492616E+01 -0.87399311011E+01  0.11645171356E+02  0.51100000000E-03 0.  1.
         12    1    3    3    0    0  0.18162225556E+02  0.21210469197E+02 -0.61172509537E+01  0.28586206463E+02  0.00000000000E+00 0. -1.
</event>
<event>
 7    1  0.2492468E-009  0.4778724E+02  0.7816164E-02  0.1312668E+00
        -11   -1    0    0    0    0  0.00000000000E+00  0.00000000000E+00  0.45593999997E+02  0.45594000000E+02  0.51100000000E-03 0.  1.
         11   -1    0    0    0    0 -0.00000000000E+00 -0.00000000000E+00 -0.45593999997E+02  0.45594000000E+02  0.51100000000E-03 0. -1.
    9900012    2    1    2    0    0  0.16510996330E+02  0.20792635022E+02  0.34331902571E+02  0.47787237275E+02  0.19999846030E+02 0.  0.
         12    1    1    2    0    0 -0.16510996330E+02 -0.20792635022E+02 -0.34331902571E+02  0.43400762725E+02  0.00000000000E+00 0. -1.
         11    1    3    3    0    0  0.78692336856E+01  0.74863495139E+00  0.17147991264E+01  0.80886234549E+01  0.51100000000E-03 0. -1.
        -11    1    3    3    0    0  0.56065604534E+01  0.58208916419E+01  0.12032972595E+02  0.14495127780E+02  0.51100000000E-03 0.  1.
         12    1    3    3    0    0  0.30352021911E+01  0.14223108429E+02  0.20584130850E+02  0.25203486040E+02  0.00000000000E+00 0. -1.
</event>
<event>
 7    1  0.2492468E-009  0.4778728E+02  0.7816164E-02  0.1312668E+00
        -11   -1    0    0    0    0  0.00000000000E+00  0.00000000000E+00  0.45593999997E+02  0.45594000000E+02  0.51100000000E-03 0.  1.
         11   -1    0    0    0    0 -0.00000000000E+00 -0.00000000000E+00 -0.45593999997E+02  0.45594000000E+02  0.51100000000E-03 0. -1.
    9900012    2    1    2    0    0  0.26919688277E+01  0.70360728797E+01  0.42741893364E+02  0.47787280351E+02  0.20000042432E+02 0.  0.
         12    1    1    2    0    0 -0.26919688277E+01 -0.70360728797E+01 -0.42741893364E+02  0.43400719649E+02  0.00000000000E+00 0. -1.
         11    1    3    3    0    0 -0.31591586431E+01  0.14975551137E+01  0.66298038403E+00  0.35584403748E+01  0.51100000000E-03 0. -1.
        -11    1    3    3    0    0 -0.12792763834E+01 -0.48406970089E+00  0.27437067589E+00  0.13950451854E+01  0.51100000000E-03 0.  1.
        -12    1    3    3    0    0  0.71304038542E+01  0.60225874669E+01  0.41804542304E+02  0.42833794791E+02  0.00000000000E+00 0.  1.
</event>
<event>
 7    1  0.2492468E-009  0.4778727E+02  0.7816164E-02  0.1312668E+00
        -11   -1    0    0    0    0  0.00000000000E+00  0.00000000000E+00  0.45593999997E+02  0.45594000000E+02  0.51100000000E-03 0.  1.
         11   -1    0    0    0    0 -0.00000000000E+00 -0.00000000000E+00 -0.45593999997E+02  0.45594000000E+02  0.51100000000E-03 0. -1.
    9900012    2    1    2    0    0 -0.18341962171E+02  0.25801925557E+02  0.29689332469E+02  0.47787269578E+02  0.19999993312E+02 0.  0.
         12    1    1    2    0    0  0.18341962171E+02 -0.25801925557E+02 -0.29689332469E+02  0.43400730422E+02  0.00000000000E+00 0. -1.
         11    1    3    3    0    0 -0.95895948697E+01  0.53536630428E+00  0.60866848711E+01  0.11370781848E+02  0.51100000000E-03 0. -1.
        -11    1    3    3    0    0 -0.39582116294E+01  0.80173447219E+01  0.37843245181E+01  0.97090868784E+01  0.51100000000E-03 0.  1.
         12    1    3    3    0    0 -0.47941556722E+01  0.17249214531E+02  0.19818323080E+02  0.26707400851E+02  0.00000000000E+00 0. -1.
</event>
<event>
 7    1  0.2492468E-009  0.4778727E+02  0.7816164E-02  0.1312668E+00
        -11   -1    0    0    0    0  0.00000000000E+00  0.00000000000E+00  0.45593999997E+02  0.45594000000E+02  0.51100000000E-03 0.  1.
         11   -1    0    0    0    0 -0.00000000000E+00 -0.00000000000E+00 -0.45593999997E+02  0.45594000000E+02  0.51100000000E-03 0. -1.
    9900012    2    1    2    0    0  0.24907668661E+02 -0.32569040317E+02  0.14229863916E+02  0.47787269910E+02  0.19999994826E+02 0.  0.
         12    1    1    2    0    0 -0.24907668661E+02  0.32569040317E+02 -0.14229863916E+02  0.43400730090E+02  0.00000000000E+00 0. -1.
         11    1    3    3    0    0 -0.59122439297E-01 -0.16420166543E+01 -0.37657421899E+01  0.41085920530E+01  0.51100000000E-03 0. -1.
        -11    1    3    3    0    0  0.67416419831E+01 -0.73227454380E+01  0.51708878988E+01  0.11216524386E+02  0.51100000000E-03 0.  1.
         12    1    3    3    0    0  0.18225149117E+02 -0.23604278225E+02  0.12824718207E+02  0.32462153471E+02  0.00000000000E+00 0. -1.
</event>
<event>
 7    1  0.2492468E-009  0.4778727E+02  0.7816164E-02  0.1312668E+00
        -11   -1    0    0    0    0  0.00000000000E+00  0.00000000000E+00  0.45593999997E+02  0.45594000000E+02  0.51100000000E-03 0.  1.
         11   -1    0    0    0    0 -0.00000000000E+00 -0.00000000000E+00 -0.45593999997E+02  0.45594000000E+02  0.51100000000E-03 0. -1.
    9900012    2    1    2    0    0  0.98684154736E+01 -0.12087325241E+02  0.40498571638E+02  0.47787270050E+02  0.19999995466E+02 0.  0.
         12    1    1    2    0    0 -0.98684154736E+01  0.12087325241E+02 -0.40498571638E+02  0.43400729950E+02  0.00000000000E+00 0. -1.
         11    1    3    3    0    0  0.15134611768E+01 -0.32230886814E+01  0.22951384793E+01  0.42363340617E+01  0.51100000000E-03 0. -1.
        -11    1    3    3    0    0  0.39774382585E+01  0.49874700359E+01  0.11337951045E+02  0.13009381485E+02  0.51100000000E-03 0.  1.
        -12    1    3    3    0    0  0.43775160383E+01 -0.13851706595E+02  0.26865482114E+02  0.30541554504E+02  0.00000000000E+00 0.  1.
</event>
<event>
 7    1  0.2492468E-009  0.4778727E+02  0.7816164E-02  0.1312668E+00
        -11   -1    0    0    0    0  0.00000000000E+00  0.00000000000E+00  0.45593999997E+02  0.45594000000E+02  0.51100000000E-03 0.  1.
         11   -1    0    0    0    0 -0.00000000000E+00 -0.00000000000E+00 -0.45593999997E+02  0.45594000000E+02  0.51100000000E-03 0. -1.
    9900012    2    1    2    0    0  0.35165425136E+02 -0.19997948172E+02  0.15719357511E+02  0.47787271243E+02  0.20000000906E+02 0.  0.
         12    1    1    2    0    0 -0.35165425136E+02  0.19997948172E+02 -0.15719357511E+02  0.43400728757E+02  0.00000000000E+00 0. -1.
         11    1    3    3    0    0  0.11842630522E+02 -0.43064481712E+01  0.78031183207E+01  0.14821674984E+02  0.51100000000E-03 0. -1.
        -11    1    3    3    0    0  0.11034766414E+02 -0.38884471657E+01  0.10514445748E+02  0.15730214900E+02  0.51100000000E-03 0.  1.
         12    1    3    3    0    0  0.12288028200E+02 -0.11803052835E+02 -0.25982065579E+01  0.17235381359E+02  0.00000000000E+00 0. -1.
</event>
<event>
 7    1  0.2492468E-009  0.4778728E+02  0.7816164E-02  0.1312668E+00
        -11   -1    0    0    0    0  0.00000000000E+00  0.00000000000E+00  0.45593999997E+02  0.45594000000E+02  0.51100000000E-03 0.  1.
         11   -1    0    0    0    0 -0.00000000000E+00 -0.00000000000E+00 -0.45593999997E+02  0.45594000000E+02  0.51100000000E-03 0. -1.
    9900012    2    1    2    0    0 -0.17939403606E+01  0.34500311766E+02  0.26270382610E+02  0.47787277236E+02  0.20000028231E+02 0.  0.
         12    1    1    2    0    0  0.17939403606E+01 -0.34500311766E+02 -0.26270382610E+02  0.43400722764E+02  0.00000000000E+00 0. -1.
         11    1    3    3    0    0  0.15039664409E+01  0.23258543596E+02  0.26725346727E+02  0.35460765970E+02  0.51100000000E-03 0.  1.
        -11    1    3    3    0    0  0.58214338999E+00  0.19286261990E+01  0.78379856704E+00  0.21616730550E+01  0.51100000000E-03 0. -1.
        -12    1    3    3    0    0 -0.38800501915E+01  0.93131419713E+01 -0.12387626848E+01  0.10164838211E+02  0.00000000000E+00 0.  1.
</event>
<event>
 7    1  0.2492468E-009  0.4778727E+02  0.7816164E-02  0.1312668E+00
        -11   -1    0    0    0    0  0.00000000000E+00  0.00000000000E+00  0.45593999997E+02  0.45594000000E+02  0.51100000000E-03 0.  1.
         11   -1    0    0    0    0 -0.00000000000E+00 -0.00000000000E+00 -0.45593999997E+02  0.45594000000E+02  0.51100000000E-03 0. -1.
    9900012    2    1    2    0    0 -0.17593851370E+02 -0.67927608864E+01  0.39088845160E+02  0.47787273942E+02  0.20000013209E+02 0.  0.
         12    1    1    2    0    0  0.17593851370E+02  0.67927608864E+01 -0.39088845160E+02  0.43400726058E+02  0.00000000000E+00 0. -1.
         11    1    3    3    0    0  0.87483849023E+00 -0.28132474525E+01  0.47303903030E+01  0.55728176260E+01  0.51100000000E-03 0.  1.
        -11    1    3    3    0    0 -0.50834784488E+00 -0.54302981339E+01  0.14012909819E+02  0.15036894533E+02  0.51100000000E-03 0. -1.
         12    1    3    3    0    0 -0.17960342015E+02  0.14507847000E+01  0.20345545038E+02  0.27177561782E+02  0.00000000000E+00 0. -1.
</event>
<event>
 7    1  0.2492468E-009  0.4778727E+02  0.7816164E-02  0.1312668E+00
        -11   -1    0    0    0    0  0.00000000000E+00  0.00000000000E+00  0.45593999997E+02  0.45594000000E+02  0.51100000000E-03 0.  1.
         11   -1    0    0    0    0 -0.00000000000E+00 -0.00000000000E+00 -0.45593999997E+02  0.45594000000E+02  0.51100000000E-03 0. -1.
    9900012    2    1    2    0    0 -0.13507755377E+02 -0.38383729178E+02  0.15094800331E+02  0.47787272841E+02  0.20000008190E+02 0.  0.
         12    1    1    2    0    0  0.13507755377E+02  0.38383729178E+02 -0.15094800331E+02  0.43400727159E+02  0.00000000000E+00 0. -1.
         11    1    3    3    0    0 -0.37979532480E+01 -0.19378400098E+01 -0.18526454720E+00  0.42677858418E+01  0.51100000000E-03 0. -1.
        -11    1    3    3    0    0 -0.10502888997E+02 -0.11350103979E+02  0.78051694925E+01  0.17322130605E+02  0.51100000000E-03 0.  1.
        -12    1    3    3    0    0  0.79308686777E+00 -0.25095785189E+02  0.74748953859E+01  0.26197356394E+02  0.00000000000E+00 0.  1.
</event>
<event>
 7    1  0.2492468E-009  0.4778727E+02  0.7816164E-02  0.1312668E+00
        -11   -1    0    0    0    0  0.00000000000E+00  0.00000000000E+00  0.45593999997E+02  0.45594000000E+02  0.51100000000E-03 0.  1.
         11   -1    0    0    0    0 -0.00000000000E+00 -0.00000000000E+00 -0.45593999997E+02  0.45594000000E+02  0.51100000000E-03 0. -1.
    9900012    2    1    2    0    0 -0.37346965763E+02 -0.15530224291E+02  0.15736567639E+02  0.47787270982E+02  0.19999999714E+02 0.  0.
         12    1    1    2    0    0  0.37346965763E+02  0.15530224291E+02 -0.15736567639E+02  0.43400729018E+02  0.00000000000E+00 0. -1.
         11    1    3    3    0    0 -0.10734541073E+02 -0.74896839216E+01  0.59115697125E+01  0.14362186255E+02  0.51100000000E-03 0. -1.
        -11    1    3    3    0    0 -0.26494289706E+02 -0.87012629480E+01  0.47285145668E+01  0.28284593230E+02  0.51100000000E-03 0.  1.
         12    1    3    3    0    0 -0.11813498505E+00  0.66072257840E+00  0.50964833596E+01  0.51404914974E+01  0.00000000000E+00 0. -1.
</event>
<event>
 7    1  0.2492468E-009  0.4778727E+02  0.7816164E-02  0.1312668E+00
        -11   -1    0    0    0    0  0.00000000000E+00  0.00000000000E+00  0.45593999997E+02  0.45594000000E+02  0.51100000000E-03 0.  1.
         11   -1    0    0    0    0 -0.00000000000E+00 -0.00000000000E+00 -0.45593999997E+02  0.45594000000E+02  0.51100000000E-03 0. -1.
    9900012    2    1    2    0    0 -0.23239894498E+02  0.19130733472E+02  0.31265728851E+02  0.47787268900E+02  0.19999990221E+02 0.  0.
         12    1    1    2    0    0  0.23239894498E+02 -0.19130733472E+02 -0.31265728851E+02  0.43400731100E+02  0.00000000000E+00 0. -1.
         11    1    3    3    0    0 -0.45658493987E+01  0.68493436373E+01  0.19746119719E+01  0.84651982667E+01  0.51100000000E-03 0. -1.
        -11    1    3    3    0    0 -0.16015198496E+00  0.69609278018E+01  0.82267274841E+01  0.10777718213E+02  0.51100000000E-03 0.  1.
        -12    1    3    3    0    0 -0.18513893115E+02  0.53204620330E+01  0.21064389395E+02  0.28544352420E+02  0.00000000000E+00 0.  1.
</event>
<event>
 7    1  0.2492468E-009  0.4778726E+02  0.7816164E-02  0.1312668E+00
        -11   -1    0    0    0    0  0.00000000000E+00  0.00000000000E+00  0.45593999997E+02  0.45594000000E+02  0.51100000000E-03 0. -1.
         11   -1    0    0    0    0 -0.00000000000E+00 -0.00000000000E+00 -0.45593999997E+02  0.45594000000E+02  0.51100000000E-03 0.  1.
    9900012    2    1    2    0    0  0.10400496462E+02  0.12553909672E+02 -0.40222545387E+02  0.47787261157E+02  0.19999954918E+02 0.  0.
         12    1    1    2    0    0 -0.10400496462E+02 -0.12553909672E+02  0.40222545387E+02  0.43400738843E+02  0.00000000000E+00 0. -1.
         11    1    3    3    0    0  0.30644344788E+01  0.13328671266E+01 -0.14725851764E+01  0.36518215749E+01  0.51100000000E-03 0. -1.
        -11    1    3    3    0    0  0.10416663410E+02  0.10821531834E+02 -0.19386826722E+02  0.24524711588E+02  0.51100000000E-03 0.  1.
         12    1    3    3    0    0 -0.30806014270E+01  0.39951071157E+00 -0.19363133489E+02  0.19610727994E+02  0.00000000000E+00 0. -1.
</event>
<event>
 7    1  0.2492468E-009  0.4778727E+02  0.7816164E-02  0.1312668E+00
        -11   -1    0    0    0    0  0.00000000000E+00  0.00000000000E+00  0.45593999997E+02  0.45594000000E+02  0.51100000000E-03 0.  1.
         11   -1    0    0    0    0 -0.00000000000E+00 -0.00000000000E+00 -0.45593999997E+02  0.45594000000E+02  0.51100000000E-03 0. -1.
    9900012    2    1    2    0    0  0.18856532722E+02  0.36679604396E+02  0.13515214384E+02  0.47787271610E+02  0.20000002577E+02 0.  0.
         12    1    1    2    0    0 -0.18856532722E+02 -0.36679604396E+02 -0.13515214384E+02  0.43400728390E+02  0.00000000000E+00 0. -1.
         11    1    3    3    0    0  0.59700776862E+01  0.21214958564E+02  0.13910956553E+02  0.26062060681E+02  0.51100000000E-03 0. -1.
        -11    1    3    3    0    0  0.42405967590E+01  0.63211988774E+01  0.37375215293E+01  0.84799341721E+01  0.51100000000E-03 0.  1.
        -12    1    3    3    0    0  0.86458582767E+01  0.91434469545E+01 -0.41332636986E+01  0.13245276756E+02  0.00000000000E+00 0.  1.
</event>
<event>
 7    1  0.2492468E-009  0.4778727E+02  0.7816164E-02  0.1312668E+00
        -11   -1    0    0    0    0  0.00000000000E+00  0.00000000000E+00  0.45593999997E+02  0.45594000000E+02  0.51100000000E-03 0.  1.
         11   -1    0    0    0    0 -0.00000000000E+00 -0.00000000000E+00 -0.45593999997E+02  0.45594000000E+02  0.51100000000E-03 0. -1.
    9900012    2    1    2    0    0 -0.38746074926E+01  0.11957948683E+02  0.41540558590E+02  0.47787272726E+02  0.20000007668E+02 0.  0.
         12    1    1    2    0    0  0.38746074926E+01 -0.11957948683E+02 -0.41540558590E+02  0.43400727274E+02  0.00000000000E+00 0. -1.
         11    1    3    3    0    0  0.51302168970E+01 -0.20518467947E+01  0.15380777454E+02  0.16343118308E+02  0.51100000000E-03 0. -1.
        -11    1    3    3    0    0 -0.75854218005E+00  0.51933405569E+01  0.97424129300E+01  0.11066199995E+02  0.51100000000E-03 0.  1.
         12    1    3    3    0    0 -0.82462822095E+01  0.88164549208E+01  0.16417368206E+02  0.20377954423E+02  0.00000000000E+00 0. -1.
</event>
<event>
 7    1  0.2492468E-009  0.4778727E+02  0.7816164E-02  0.1312668E+00
        -11   -1    0    0    0    0  0.00000000000E+00  0.00000000000E+00  0.45593999997E+02  0.45594000000E+02  0.51100000000E-03 0.  1.
         11   -1    0    0    0    0 -0.00000000000E+00 -0.00000000000E+00 -0.45593999997E+02  0.45594000000E+02  0.51100000000E-03 0. -1.
    9900012    2    1    2    0    0  0.27951871632E+02 -0.14993225776E+02  0.29622950687E+02  0.47787272422E+02  0.20000006280E+02 0.  0.
         12    1    1    2    0    0 -0.27951871632E+02  0.14993225776E+02 -0.29622950687E+02  0.43400727578E+02  0.00000000000E+00 0. -1.
         11    1    3    3    0    0  0.11726561904E+02 -0.58556183453E+01  0.41267494728E+01  0.13741564022E+02  0.51100000000E-03 0. -1.
        -11    1    3    3    0    0  0.75052856317E+01 -0.27791039019E+01  0.20905784277E+01  0.82718347018E+01  0.51100000000E-03 0.  1.
         12    1    3    3    0    0  0.87200240960E+01 -0.63585035285E+01  0.23405622787E+02  0.25773873698E+02  0.00000000000E+00 0. -1.
</event>
<event>
 7    1  0.2492468E-009  0.4778728E+02  0.7816164E-02  0.1312668E+00
        -11   -1    0    0    0    0  0.00000000000E+00  0.00000000000E+00  0.45593999997E+02  0.45594000000E+02  0.51100000000E-03 0.  1.
         11   -1    0    0    0    0 -0.00000000000E+00 -0.00000000000E+00 -0.45593999997E+02  0.45594000000E+02  0.51100000000E-03 0. -1.
    9900012    2    1    2    0    0 -0.29107473158E+02 -0.13476692171E+02  0.29236208746E+02  0.47787284253E+02  0.20000060223E+02 0.  0.
         12    1    1    2    0    0  0.29107473158E+02  0.13476692171E+02 -0.29236208746E+02  0.43400715747E+02  0.00000000000E+00 0. -1.
         11    1    3    3    0    0  0.15828406034E+01  0.13826965180E+01  0.75406311044E+00  0.22329006857E+01  0.51100000000E-03 0. -1.
        -11    1    3    3    0    0 -0.94247296881E+01 -0.63458531080E+01  0.15520844861E+02  0.19235176288E+02  0.51100000000E-03 0.  1.
         12    1    3    3    0    0 -0.21265584073E+02 -0.85135355810E+01  0.12961300775E+02  0.26319207280E+02  0.00000000000E+00 0. -1.
</event>
<event>
 7    1  0.2492468E-009  0.4778730E+02  0.7816164E-02  0.1312668E+00
        -11   -1    0    0    0    0  0.00000000000E+00  0.00000000000E+00  0.45593999997E+02  0.45594000000E+02  0.51100000000E-03 0.  1.
         11   -1    0    0    0    0 -0.00000000000E+00 -0.00000000000E+00 -0.45593999997E+02  0.45594000000E+02  0.51100000000E-03 0. -1.
    9900012    2    1    2    0    0 -0.28384791198E+02  0.13206128456E+02  0.30058654035E+02  0.47787298594E+02  0.20000125610E+02 0.  0.
         12    1    1    2    0    0  0.28384791198E+02 -0.13206128456E+02 -0.30058654035E+02  0.43400701406E+02  0.00000000000E+00 0. -1.
         11    1    3    3    0    0 -0.49977291589E+01  0.67329248122E+01  0.11594081878E+02  0.14308469804E+02  0.51100000000E-03 0. -1.
        -11    1    3    3    0    0 -0.10033464173E+02  0.75066920299E+00  0.15764876113E+02  0.18702011301E+02  0.51100000000E-03 0.  1.
         12    1    3    3    0    0 -0.13353597866E+02  0.57225344407E+01  0.26996960429E+01  0.14776817490E+02  0.00000000000E+00 0. -1.
</event>
<event>
 7    1  0.2492468E-009  0.4778728E+02  0.7816164E-02  0.1312668E+00
        -11   -1    0    0    0    0  0.00000000000E+00  0.00000000000E+00  0.45593999997E+02  0.45594000000E+02  0.51100000000E-03 0. -1.
         11   -1    0    0    0    0 -0.00000000000E+00 -0.00000000000E+00 -0.45593999997E+02  0.45594000000E+02  0.51100000000E-03 0.  1.
    9900012    2    1    2    0    0 -0.19171218600E+02 -0.27136529769E+02 -0.27923037086E+02  0.47787275690E+02  0.20000021182E+02 0.  0.
         12    1    1    2    0    0  0.19171218600E+02  0.27136529769E+02  0.27923037086E+02  0.43400724310E+02  0.00000000000E+00 0. -1.
         11    1    3    3    0    0  0.67914632573E+00 -0.42403964259E+00 -0.42405420786E+01  0.43154659924E+01  0.51100000000E-03 0. -1.
        -11    1    3    3    0    0 -0.44809285178E+01 -0.10538306951E+02 -0.16398172612E+02  0.20000867457E+02  0.51100000000E-03 0.  1.
         12    1    3    3    0    0 -0.15369436408E+02 -0.16174183175E+02 -0.72843223955E+01  0.23470942240E+02  0.00000000000E+00 0. -1.
</event>
<event>
 7    1  0.2492468E-009  0.4778727E+02  0.7816164E-02  0.1312668E+00
        -11   -1    0    0    0    0  0.00000000000E+00  0.00000000000E+00  0.45593999997E+02  0.45594000000E+02  0.51100000000E-03 0.  1.
         11   -1    0    0    0    0 -0.00000000000E+00 -0.00000000000E+00 -0.45593999997E+02  0.45594000000E+02  0.51100000000E-03 0. -1.
    9900012    2    1    2    0    0  0.10416042766E+02  0.15662323536E+02  0.39112925898E+02  0.47787270770E+02  0.19999998748E+02 0.  0.
         12    1    1    2    0    0 -0.10416042766E+02 -0.15662323536E+02 -0.39112925898E+02  0.43400729230E+02  0.00000000000E+00 0. -1.
         11    1    3    3    0    0  0.72285637640E+01  0.80777518643E+01  0.35060343241E+02  0.36697818432E+02  0.51100000000E-03 0. -1.
        -11    1    3    3    0    0  0.88081295197E+00  0.38324264857E+01  0.52176102300E+01  0.65335121487E+01  0.51100000000E-03 0.  1.
        -12    1    3    3    0    0  0.23066660502E+01  0.37521451856E+01 -0.11650275729E+01  0.45559401891E+01  0.00000000000E+00 0.  1.
</event>
<event>
 7    1  0.2492468E-009  0.4778727E+02  0.7816164E-02  0.1312668E+00
        -11   -1    0    0    0    0  0.00000000000E+00  0.00000000000E+00  0.45593999997E+02  0.45594000000E+02  0.51100000000E-03 0.  1.
         11   -1    0    0    0    0 -0.00000000000E+00 -0.00000000000E+00 -0.45593999997E+02  0.45594000000E+02  0.51100000000E-03 0. -1.
    9900012    2    1    2    0    0  0.49626607671E+01  0.17764192725E+02  0.39286495786E+02  0.47787270788E+02  0.19999998829E+02 0.  0.
         12    1    1    2    0    0 -0.49626607671E+01 -0.17764192725E+02 -0.39286495786E+02  0.43400729212E+02  0.00000000000E+00 0. -1.
         11    1    3    3    0    0 -0.35573659557E+01  0.55581832532E+01  0.17072675910E+02  0.18303674948E+02  0.51100000000E-03 0. -1.
        -11    1    3    3    0    0  0.39625528213E+01  0.10342157785E+02  0.21910245424E+02  0.24550374892E+02  0.51100000000E-03 0.  1.
        -12    1    3    3    0    0  0.45574739016E+01  0.18638516861E+01  0.30357445178E+00  0.49332209477E+01  0.00000000000E+00 0.  1.
</event>
<event>
 7    1  0.2492468E-009  0.4778727E+02  0.7816164E-02  0.1312668E+00
        -11   -1    0    0    0    0  0.00000000000E+00  0.00000000000E+00  0.45593999997E+02  0.45594000000E+02  0.51100000000E-03 0.  1.
         11   -1    0    0    0    0 -0.00000000000E+00 -0.00000000000E+00 -0.45593999997E+02  0.45594000000E+02  0.51100000000E-03 0. -1.
    9900012    2    1    2    0    0 -0.21557645197E+02  0.12455913969E+02  0.35549137147E+02  0.47787274071E+02  0.20000013801E+02 0.  0.
         12    1    1    2    0    0  0.21557645197E+02 -0.12455913969E+02 -0.35549137147E+02  0.43400725929E+02  0.00000000000E+00 0. -1.
         11    1    3    3    0    0 -0.42916961795E+01 -0.17672298573E+00  0.17935820468E+01  0.46547635741E+01  0.51100000000E-03 0. -1.
        -11    1    3    3    0    0 -0.10100597886E+02 -0.69607309888E+00  0.21107801668E+02  0.23410379897E+02  0.51100000000E-03 0.  1.
         12    1    3    3    0    0 -0.71653511315E+01  0.13328710054E+02  0.12647753432E+02  0.19722130600E+02  0.00000000000E+00 0. -1.
</event>
<event>
 7    1  0.2492468E-009  0.4778727E+02  0.7816164E-02  0.1312668E+00
        -11   -1    0    0    0    0  0.00000000000E+00  0.00000000000E+00  0.45593999997E+02  0.45594000000E+02  0.51100000000E-03 0. -1.
         11   -1    0    0    0    0 -0.00000000000E+00 -0.00000000000E+00 -0.45593999997E+02  0.45594000000E+02  0.51100000000E-03 0.  1.
    9900012    2    1    2    0    0 -0.38832441735E+01 -0.40089549429E+02 -0.16167001317E+02  0.47787268551E+02  0.19999988631E+02 0.  0.
         12    1    1    2    0    0  0.38832441735E+01  0.40089549429E+02  0.16167001317E+02  0.43400731449E+02  0.00000000000E+00 0. -1.
         11    1    3    3    0    0  0.33149099064E+01 -0.21524590124E+02 -0.48607199767E+01  0.22314192942E+02  0.51100000000E-03 0. -1.
        -11    1    3    3    0    0 -0.13356249466E+00 -0.10917123329E+02 -0.10305792081E+02  0.15013686137E+02  0.51100000000E-03 0.  1.
         12    1    3    3    0    0 -0.70645915852E+01 -0.76478359755E+01 -0.10004892595E+01  0.10459389472E+02  0.00000000000E+00 0. -1.
</event>
<event>
 7    1  0.2492468E-009  0.4778727E+02  0.7816164E-02  0.1312668E+00
        -11   -1    0    0    0    0  0.00000000000E+00  0.00000000000E+00  0.45593999997E+02  0.45594000000E+02  0.51100000000E-03 0. -1.
         11   -1    0    0    0    0 -0.00000000000E+00 -0.00000000000E+00 -0.45593999997E+02  0.45594000000E+02  0.51100000000E-03 0.  1.
    9900012    2    1    2    0    0  0.11658868780E+02  0.21279568033E+02 -0.35984358113E+02  0.47787271138E+02  0.20000000427E+02 0.  0.
         12    1    1    2    0    0 -0.11658868780E+02 -0.21279568033E+02  0.35984358113E+02  0.43400728862E+02  0.00000000000E+00 0. -1.
         11    1    3    3    0    0 -0.38209373233E+00  0.37019080993E+01 -0.13313996169E+02  0.13824348573E+02  0.51100000000E-03 0. -1.
        -11    1    3    3    0    0  0.52709333739E+01 -0.71512092206E+00 -0.24115272226E+01  0.58403424875E+01  0.51100000000E-03 0.  1.
        -12    1    3    3    0    0  0.67700291388E+01  0.18292780856E+02 -0.20258834721E+02  0.28122580078E+02  0.00000000000E+00 0.  1.
</event>
<event>
 7    1  0.2492468E-009  0.4778727E+02  0.7816164E-02  0.1312668E+00
        -11   -1    0    0    0    0  0.00000000000E+00  0.00000000000E+00  0.45593999997E+02  0.45594000000E+02  0.51100000000E-03 0.  1.
         11   -1    0    0    0    0 -0.00000000000E+00 -0.00000000000E+00 -0.45593999997E+02  0.45594000000E+02  0.51100000000E-03 0. -1.
    9900012    2    1    2    0    0  0.36906404393E+02  0.22449467538E+02  0.41906640216E+01  0.47787274857E+02  0.20000017383E+02 0.  0.
         12    1    1    2    0    0 -0.36906404393E+02 -0.22449467538E+02 -0.41906640216E+01  0.43400725143E+02  0.00000000000E+00 0. -1.
         11    1    3    3    0    0  0.70570298410E+01  0.48523074700E+00 -0.35261692834E+01  0.79038591290E+01  0.51100000000E-03 0. -1.
        -11    1    3    3    0    0  0.97019098964E+01  0.39265796794E+01 -0.28541430679E+01  0.10848558270E+02  0.51100000000E-03 0.  1.
         12    1    3    3    0    0  0.20147464656E+02  0.18037657112E+02  0.10570976373E+02  0.29034857458E+02  0.00000000000E+00 0. -1.
</event>
<event>
 7    1  0.2492468E-009  0.4778727E+02  0.7816164E-02  0.1312668E+00
        -11   -1    0    0    0    0  0.00000000000E+00  0.00000000000E+00  0.45593999997E+02  0.45594000000E+02  0.51100000000E-03 0.  1.
         11   -1    0    0    0    0 -0.00000000000E+00 -0.00000000000E+00 -0.45593999997E+02  0.45594000000E+02  0.51100000000E-03 0. -1.
    9900012    2    1    2    0    0  0.18512129842E+02  0.22814327251E+01  0.39188256273E+02  0.47787270556E+02  0.19999997772E+02 0.  0.
         12    1    1    2    0    0 -0.18512129842E+02 -0.22814327251E+01 -0.39188256273E+02  0.43400729444E+02  0.00000000000E+00 0. -1.
         11    1    3    3    0    0  0.15488581228E+01 -0.40436668281E+01  0.13408083896E+01  0.45329869071E+01  0.51100000000E-03 0. -1.
        -11    1    3    3    0    0  0.63625000185E+00  0.31660528961E+01  0.12710469974E+02  0.13114295720E+02  0.51100000000E-03 0.  1.
        -12    1    3    3    0    0  0.16327021718E+02  0.31590466571E+01  0.25136977909E+02  0.30139987929E+02  0.00000000000E+00 0.  1.
</event>
<event>
 7    1  0.2492468E-009  0.4778727E+02  0.7816164E-02  0.1312668E+00
        -11   -1    0    0    0    0  0.00000000000E+00  0.00000000000E+00  0.45593999997E+02  0.45594000000E+02  0.51100000000E-03 0. -1.
         11   -1    0    0    0    0 -0.00000000000E+00 -0.00000000000E+00 -0.45593999997E+02  0.45594000000E+02  0.51100000000E-03 0.  1.
    9900012    2    1    2    0    0 -0.41586819215E+02  0.62518075963E+01 -0.10727301286E+02  0.47787267016E+02  0.19999981634E+02 0.  0.
         12    1    1    2    0    0  0.41586819215E+02 -0.62518075963E+01  0.10727301286E+02  0.43400732984E+02  0.00000000000E+00 0. -1.
         11    1    3    3    0    0 -0.24499637427E+02  0.31498512271E+00 -0.32216614686E+01  0.24712558600E+02  0.51100000000E-03 0. -1.
        -11    1    3    3    0    0 -0.15863059095E+02  0.78749636182E+01 -0.29217804233E+01  0.17949609939E+02  0.51100000000E-03 0.  1.
         12    1    3    3    0    0 -0.12241226935E+01 -0.19381411446E+01 -0.45838593941E+01  0.51250984781E+01  0.00000000000E+00 0. -1.
</event>
<event>
 7    1  0.2492468E-009  0.4778727E+02  0.7816164E-02  0.1312668E+00
        -11   -1    0    0    0    0  0.00000000000E+00  0.00000000000E+00  0.45593999997E+02  0.45594000000E+02  0.51100000000E-03 0.  1.
         11   -1    0    0    0    0 -0.00000000000E+00 -0.00000000000E+00 -0.45593999997E+02  0.45594000000E+02  0.51100000000E-03 0. -1.
    9900012    2    1    2    0    0 -0.17418813306E+02  0.21676542843E+02  0.33321705217E+02  0.47787267228E+02  0.19999982598E+02 0.  0.
         12    1    1    2    0    0  0.17418813306E+02 -0.21676542843E+02 -0.33321705217E+02  0.43400732772E+02  0.00000000000E+00 0. -1.
         11    1    3    3    0    0 -0.38305771890E+01 -0.20779286234E+01  0.16329350223E+01  0.46537711604E+01  0.51100000000E-03 0. -1.
        -11    1    3    3    0    0 -0.76173567473E+01  0.50977495921E+01  0.14038598940E+02  0.16765841321E+02  0.51100000000E-03 0.  1.
        -12    1    3    3    0    0 -0.59708793700E+01  0.18656721874E+02  0.17650171254E+02  0.26367654747E+02  0.00000000000E+00 0.  1.
</event>
<event>
 7    1  0.2492468E-009  0.4778727E+02  0.7816164E-02  0.1312668E+00
        -11   -1    0    0    0    0  0.00000000000E+00  0.00000000000E+00  0.45593999997E+02  0.45594000000E+02  0.51100000000E-03 0.  1.
         11   -1    0    0    0    0 -0.00000000000E+00 -0.00000000000E+00 -0.45593999997E+02  0.45594000000E+02  0.51100000000E-03 0. -1.
    9900012    2    1    2    0    0 -0.41362281537E+02  0.79608389656E+01  0.10459910207E+02  0.47787274055E+02  0.20000013727E+02 0.  0.
         12    1    1    2    0    0  0.41362281537E+02 -0.79608389656E+01 -0.10459910207E+02  0.43400725945E+02  0.00000000000E+00 0. -1.
         11    1    3    3    0    0 -0.16413881536E+02 -0.33789917104E+01 -0.11974284035E+01  0.16800801383E+02  0.51100000000E-03 0. -1.
        -11    1    3    3    0    0 -0.81711613632E+00  0.30914406411E+01  0.10394724473E+01  0.33623187308E+01  0.51100000000E-03 0.  1.
        -12    1    3    3    0    0 -0.24131283865E+02  0.82483900348E+01  0.10617866164E+02  0.27624153942E+02  0.00000000000E+00 0.  1.
</event>
<event>
 7    1  0.2492468E-009  0.4778727E+02  0.7816164E-02  0.1312668E+00
        -11   -1    0    0    0    0  0.00000000000E+00  0.00000000000E+00  0.45593999997E+02  0.45594000000E+02  0.51100000000E-03 0.  1.
         11   -1    0    0    0    0 -0.00000000000E+00 -0.00000000000E+00 -0.45593999997E+02  0.45594000000E+02  0.51100000000E-03 0. -1.
    9900012    2    1    2    0    0  0.16358316981E+02 -0.11307139520E+02  0.38576906846E+02  0.47787266361E+02  0.19999978647E+02 0.  0.
         12    1    1    2    0    0 -0.16358316981E+02  0.11307139520E+02 -0.38576906846E+02  0.43400733639E+02  0.00000000000E+00 0. -1.
         11    1    3    3    0    0  0.90598510942E+01  0.39190026623E+01  0.11123278345E+02  0.14871677952E+02  0.51100000000E-03 0. -1.
        -11    1    3    3    0    0  0.16492521759E+01 -0.96306900940E+00  0.62322830883E+00  0.20089670089E+01  0.51100000000E-03 0.  1.
         12    1    3    3    0    0  0.56492137113E+01 -0.14263073173E+02  0.26830400192E+02  0.30906621400E+02  0.00000000000E+00 0. -1.
</event>
<event>
 7    1  0.2492468E-009  0.4778727E+02  0.7816164E-02  0.1312668E+00
        -11   -1    0    0    0    0  0.00000000000E+00  0.00000000000E+00  0.45593999997E+02  0.45594000000E+02  0.51100000000E-03 0.  1.
         11   -1    0    0    0    0 -0.00000000000E+00 -0.00000000000E+00 -0.45593999997E+02  0.45594000000E+02  0.51100000000E-03 0. -1.
    9900012    2    1    2    0    0 -0.25228677400E+02  0.26289716982E+02  0.23579391984E+02  0.47787272948E+02  0.20000008677E+02 0.  0.
         12    1    1    2    0    0  0.25228677400E+02 -0.26289716982E+02 -0.23579391984E+02  0.43400727052E+02  0.00000000000E+00 0. -1.
         11    1    3    3    0    0 -0.71155935032E+01  0.15573957794E+02  0.20067534791E+02  0.26379647176E+02  0.51100000000E-03 0. -1.
        -11    1    3    3    0    0 -0.15697272725E+01  0.11530020557E+01  0.80921476863E+00  0.21090960749E+01  0.51100000000E-03 0.  1.
        -12    1    3    3    0    0 -0.16543356625E+02  0.95627571316E+01  0.27026424241E+01  0.19298529696E+02  0.00000000000E+00 0.  1.
</event>
<event>
 7    1  0.2492468E-009  0.4778726E+02  0.7816164E-02  0.1312668E+00
        -11   -1    0    0    0    0  0.00000000000E+00  0.00000000000E+00  0.45593999997E+02  0.45594000000E+02  0.51100000000E-03 0. -1.
         11   -1    0    0    0    0 -0.00000000000E+00 -0.00000000000E+00 -0.45593999997E+02  0.45594000000E+02  0.51100000000E-03 0.  1.
    9900012    2    1    2    0    0  0.31913321103E+02 -0.21773556560E+02  0.19775659236E+02  0.47787256604E+02  0.19999934159E+02 0.  0.
         12    1    1    2    0    0 -0.31913321103E+02  0.21773556560E+02 -0.19775659236E+02  0.43400743396E+02  0.00000000000E+00 0. -1.
         11    1    3    3    0    0  0.75232026026E+01 -0.72132625490E+01  0.12594186232E+02  0.16347576613E+02  0.51100000000E-03 0. -1.
        -11    1    3    3    0    0  0.24873694620E+00 -0.14274569228E+01 -0.19951208506E+01  0.24657677922E+01  0.51100000000E-03 0.  1.
        -12    1    3    3    0    0  0.24141381554E+02 -0.13132837088E+02  0.91765938553E+01  0.28973912199E+02  0.00000000000E+00 0.  1.
</event>
<event>
 7    1  0.2492468E-009  0.4778727E+02  0.7816164E-02  0.1312668E+00
        -11   -1    0    0    0    0  0.00000000000E+00  0.00000000000E+00  0.45593999997E+02  0.45594000000E+02  0.51100000000E-03 0.  1.
         11   -1    0    0    0    0 -0.00000000000E+00 -0.00000000000E+00 -0.45593999997E+02  0.45594000000E+02  0.51100000000E-03 0. -1.
    9900012    2    1    2    0    0 -0.20360292427E+02  0.33875094083E+02  0.17932084246E+02  0.47787272446E+02  0.20000006389E+02 0.  0.
         12    1    1    2    0    0  0.20360292427E+02 -0.33875094083E+02 -0.17932084246E+02  0.43400727554E+02  0.00000000000E+00 0. -1.
         11    1    3    3    0    0 -0.67527948984E+01  0.10945286070E+02  0.83030604567E+01  0.15308178837E+02  0.51100000000E-03 0. -1.
        -11    1    3    3    0    0 -0.11513690966E+02  0.22843480002E+02  0.12857218733E+02  0.28630363813E+02  0.51100000000E-03 0.  1.
         12    1    3    3    0    0 -0.20938065631E+01  0.86328011456E-01 -0.32281949438E+01  0.38487297963E+01  0.00000000000E+00 0. -1.
</event>
<event>
 7    1  0.2492468E-009  0.4778727E+02  0.7816164E-02  0.1312668E+00
        -11   -1    0    0    0    0  0.00000000000E+00  0.00000000000E+00  0.45593999997E+02  0.45594000000E+02  0.51100000000E-03 0.  1.
         11   -1    0    0    0    0 -0.00000000000E+00 -0.00000000000E+00 -0.45593999997E+02  0.45594000000E+02  0.51100000000E-03 0. -1.
    9900012    2    1    2    0    0  0.19979241510E+02  0.37005632375E+02  0.10725503297E+02  0.47787270286E+02  0.19999996540E+02 0.  0.
         12    1    1    2    0    0 -0.19979241510E+02 -0.37005632375E+02 -0.10725503297E+02  0.43400729714E+02  0.00000000000E+00 0. -1.
         11    1    3    3    0    0  0.12678892962E+01  0.34683025399E+01 -0.14740894831E+01  0.39761295051E+01  0.51100000000E-03 0. -1.
        -11    1    3    3    0    0  0.17828424660E+02  0.17293610081E+02  0.27287382449E+01  0.24987350563E+02  0.51100000000E-03 0.  1.
         12    1    3    3    0    0  0.88292755337E+00  0.16243719754E+02  0.94708545353E+01  0.18823790217E+02  0.00000000000E+00 0. -1.
</event>
<event>
 7    1  0.2492468E-009  0.4778730E+02  0.7816164E-02  0.1312668E+00
        -11   -1    0    0    0    0  0.00000000000E+00  0.00000000000E+00  0.45593999997E+02  0.45594000000E+02  0.51100000000E-03 0.  1.
         11   -1    0    0    0    0 -0.00000000000E+00 -0.00000000000E+00 -0.45593999997E+02  0.45594000000E+02  0.51100000000E-03 0. -1.
    9900012    2    1    2    0    0 -0.41822585651E+01  0.20109785532E+01  0.43151892797E+02  0.47787295243E+02  0.20000110331E+02 0.  0.
         12    1    1    2    0    0  0.41822585651E+01 -0.20109785532E+01 -0.43151892797E+02  0.43400704757E+02  0.00000000000E+00 0. -1.
         11    1    3    3    0    0  0.16866557062E+01  0.73924039940E-02 -0.28796655593E+00  0.17110777648E+01  0.51100000000E-03 0. -1.
        -11    1    3    3    0    0 -0.74857471957E+01 -0.11492583234E+01  0.10499902452E+02  0.12946241058E+02  0.51100000000E-03 0.  1.
        -12    1    3    3    0    0  0.16168329245E+01  0.31528444727E+01  0.32939956900E+02  0.33129976420E+02  0.00000000000E+00 0.  1.
</event>
<event>
 7    1  0.2492468E-009  0.4778727E+02  0.7816164E-02  0.1312668E+00
        -11   -1    0    0    0    0  0.00000000000E+00  0.00000000000E+00  0.45593999997E+02  0.45594000000E+02  0.51100000000E-03 0.  1.
         11   -1    0    0    0    0 -0.00000000000E+00 -0.00000000000E+00 -0.45593999997E+02  0.45594000000E+02  0.51100000000E-03 0. -1.
    9900012    2    1    2    0    0 -0.29917354063E+02 -0.30594797445E+02  0.72480148473E+01  0.47787269314E+02  0.19999992110E+02 0.  0.
         12    1    1    2    0    0  0.29917354063E+02  0.30594797445E+02 -0.72480148473E+01  0.43400730686E+02  0.00000000000E+00 0. -1.
         11    1    3    3    0    0 -0.14194096001E+02 -0.61863030965E+01  0.14534984719E+01  0.15551699758E+02  0.51100000000E-03 0. -1.
        -11    1    3    3    0    0 -0.11943354021E+02 -0.72858909762E+01  0.43045555957E+01  0.14637524098E+02  0.51100000000E-03 0.  1.
        -12    1    3    3    0    0 -0.37799040411E+01 -0.17122603372E+02  0.14899607797E+01  0.17598045458E+02  0.00000000000E+00 0.  1.
</event>
<event>
 7    1  0.2492468E-009  0.4778725E+02  0.7816164E-02  0.1312668E+00
        -11   -1    0    0    0    0  0.00000000000E+00  0.00000000000E+00  0.45593999997E+02  0.45594000000E+02  0.51100000000E-03 0. -1.
         11   -1    0    0    0    0 -0.00000000000E+00 -0.00000000000E+00 -0.45593999997E+02  0.45594000000E+02  0.51100000000E-03 0.  1.
    9900012    2    1    2    0    0 -0.26416189719E+02  0.32694409547E+02 -0.10811346366E+02  0.47787254555E+02  0.19999924819E+02 0.  0.
         12    1    1    2    0    0  0.26416189719E+02 -0.32694409547E+02  0.10811346366E+02  0.43400745445E+02  0.00000000000E+00 0. -1.
         11    1    3    3    0    0 -0.42434356611E+01  0.16457480744E+02 -0.20831674000E+01  0.17122937987E+02  0.51100000000E-03 0.  1.
        -11    1    3    3    0    0 -0.11766030866E+01 -0.28840141886E+00  0.16098252444E+01  0.20147227553E+01  0.51100000000E-03 0. -1.
        -12    1    3    3    0    0 -0.20996150971E+02  0.16525330222E+02 -0.10338004211E+02  0.28649593813E+02  0.00000000000E+00 0.  1.
</event>
<event>
 7    1  0.2492468E-009  0.4778727E+02  0.7816164E-02  0.1312668E+00
        -11   -1    0    0    0    0  0.00000000000E+00  0.00000000000E+00  0.45593999997E+02  0.45594000000E+02  0.51100000000E-03 0.  1.
         11   -1    0    0    0    0 -0.00000000000E+00 -0.00000000000E+00 -0.45593999997E+02  0.45594000000E+02  0.51100000000E-03 0. -1.
    9900012    2    1    2    0    0  0.13236919220E+02 -0.22827214529E+02  0.34457590038E+02  0.47787271149E+02  0.20000000475E+02 0.  0.
         12    1    1    2    0    0 -0.13236919220E+02  0.22827214529E+02 -0.34457590038E+02  0.43400728851E+02  0.00000000000E+00 0. -1.
         11    1    3    3    0    0  0.58601432176E+01 -0.37566815901E+01  0.31093227655E+01  0.76237670099E+01  0.51100000000E-03 0. -1.
        -11    1    3    3    0    0  0.11570296609E+02 -0.16427400740E+02  0.26186030113E+02  0.33006657389E+02  0.51100000000E-03 0.  1.
         12    1    3    3    0    0 -0.41935206065E+01 -0.26431321988E+01  0.51622371601E+01  0.71568467494E+01  0.00000000000E+00 0. -1.
</event>
<event>
 7    1  0.2492468E-009  0.4778727E+02  0.7816164E-02  0.1312668E+00
        -11   -1    0    0    0    0  0.00000000000E+00  0.00000000000E+00  0.45593999997E+02  0.45594000000E+02  0.51100000000E-03 0.  1.
         11   -1    0    0    0    0 -0.00000000000E+00 -0.00000000000E+00 -0.45593999997E+02  0.45594000000E+02  0.51100000000E-03 0. -1.
    9900012    2    1    2    0    0 -0.38744221871E+02 -0.18787205501E+02  0.54359356736E+01  0.47787271716E+02  0.20000003062E+02 0.  0.
         12    1    1    2    0    0  0.38744221871E+02  0.18787205501E+02 -0.54359356736E+01  0.43400728284E+02  0.00000000000E+00 0. -1.
         11    1    3    3    0    0 -0.66711760312E+01 -0.58967900877E+00 -0.94736622905E+00  0.67638608801E+01  0.51100000000E-03 0. -1.
        -11    1    3    3    0    0 -0.26187149507E+02 -0.68689041603E+01  0.78112729101E+01  0.28177377955E+02  0.51100000000E-03 0.  1.
         12    1    3    3    0    0 -0.58858963326E+01 -0.11328622332E+02 -0.14279710074E+01  0.12846032881E+02  0.00000000000E+00 0. -1.
</event>
<event>
 7    1  0.2492468E-009  0.4778727E+02  0.7816164E-02  0.1312668E+00
        -11   -1    0    0    0    0  0.00000000000E+00  0.00000000000E+00  0.45593999997E+02  0.45594000000E+02  0.51100000000E-03 0.  1.
         11   -1    0    0    0    0 -0.00000000000E+00 -0.00000000000E+00 -0.45593999997E+02  0.45594000000E+02  0.51100000000E-03 0. -1.
    9900012    2    1    2    0    0 -0.38239961200E+02 -0.20418496796E+02  0.21008762142E+01  0.47787270458E+02  0.19999997324E+02 0.  0.
         12    1    1    2    0    0  0.38239961200E+02  0.20418496796E+02 -0.21008762142E+01  0.43400729542E+02  0.00000000000E+00 0. -1.
         11    1    3    3    0    0 -0.53125655209E+01 -0.10747596667E+02 -0.18884672839E+01  0.12136741550E+02  0.51100000000E-03 0. -1.
        -11    1    3    3    0    0 -0.12050730084E+02 -0.68952323565E+01  0.44665929307E+01  0.14584744683E+02  0.51100000000E-03 0.  1.
         12    1    3    3    0    0 -0.20876665595E+02 -0.27756677729E+01 -0.47724943257E+00  0.21065784224E+02  0.00000000000E+00 0. -1.
</event>
<event>
 7    1  0.2492468E-009  0.4778727E+02  0.7816164E-02  0.1312668E+00
        -11   -1    0    0    0    0  0.00000000000E+00  0.00000000000E+00  0.45593999997E+02  0.45594000000E+02  0.51100000000E-03 0.  1.
         11   -1    0    0    0    0 -0.00000000000E+00 -0.00000000000E+00 -0.45593999997E+02  0.45594000000E+02  0.51100000000E-03 0. -1.
    9900012    2    1    2    0    0  0.65131303236E+01  0.26571239364E+02  0.33692308354E+02  0.47787271087E+02  0.20000000196E+02 0.  0.
         12    1    1    2    0    0 -0.65131303236E+01 -0.26571239364E+02 -0.33692308354E+02  0.43400728913E+02  0.00000000000E+00 0. -1.
         11    1    3    3    0    0 -0.14649969052E+01 -0.14151465059E-01 -0.36745339482E-01  0.14655260753E+01  0.51100000000E-03 0. -1.
        -11    1    3    3    0    0 -0.15940030075E+00  0.22649163136E+02  0.25372458726E+02  0.34011346067E+02  0.51100000000E-03 0.  1.
        -12    1    3    3    0    0  0.81375275295E+01  0.39362276923E+01  0.83565949669E+01  0.12310398945E+02  0.00000000000E+00 0.  1.
</event>
<event>
 7    1  0.2492468E-009  0.4778727E+02  0.7816164E-02  0.1312668E+00
        -11   -1    0    0    0    0  0.00000000000E+00  0.00000000000E+00  0.45593999997E+02  0.45594000000E+02  0.51100000000E-03 0. -1.
         11   -1    0    0    0    0 -0.00000000000E+00 -0.00000000000E+00 -0.45593999997E+02  0.45594000000E+02  0.51100000000E-03 0.  1.
    9900012    2    1    2    0    0  0.32892456583E+02  0.20270711367E+02 -0.19768858565E+02  0.47787271799E+02  0.20000003443E+02 0.  0.
         12    1    1    2    0    0 -0.32892456583E+02 -0.20270711367E+02  0.19768858565E+02  0.43400728201E+02  0.00000000000E+00 0. -1.
         11    1    3    3    0    0  0.74399546061E+01  0.26698873187E+01  0.12562736109E+01  0.80037145427E+01  0.51100000000E-03 0. -1.
        -11    1    3    3    0    0  0.67613729984E+01 -0.90536787967E+00 -0.77364471429E+01  0.10314478682E+02  0.51100000000E-03 0.  1.
        -12    1    3    3    0    0  0.18691128979E+02  0.18506191928E+02 -0.13288685033E+02  0.29469078575E+02  0.00000000000E+00 0.  1.
</event>
<event>
 7    1  0.2492468E-009  0.4778727E+02  0.7816164E-02  0.1312668E+00
        -11   -1    0    0    0    0  0.00000000000E+00  0.00000000000E+00  0.45593999997E+02  0.45594000000E+02  0.51100000000E-03 0.  1.
         11   -1    0    0    0    0 -0.00000000000E+00 -0.00000000000E+00 -0.45593999997E+02  0.45594000000E+02  0.51100000000E-03 0. -1.
    9900012    2    1    2    0    0  0.39881374727E+02  0.47069339423E+01  0.16460372395E+02  0.47787272625E+02  0.20000007207E+02 0.  0.
         12    1    1    2    0    0 -0.39881374727E+02 -0.47069339423E+01 -0.16460372395E+02  0.43400727375E+02  0.00000000000E+00 0. -1.
         11    1    3    3    0    0  0.85727744397E+01 -0.36380156884E+01  0.80059299759E+01  0.12280982647E+02  0.51100000000E-03 0. -1.
        -11    1    3    3    0    0  0.21561350209E+02  0.95876370986E+00  0.87101080802E+01  0.23273956125E+02  0.51100000000E-03 0.  1.
        -12    1    3    3    0    0  0.97472500788E+01  0.73861859209E+01 -0.25566566062E+00  0.12232333853E+02  0.00000000000E+00 0.  1.
</event>
<event>
 7    1  0.2492468E-009  0.4778727E+02  0.7816164E-02  0.1312668E+00
        -11   -1    0    0    0    0  0.00000000000E+00  0.00000000000E+00  0.45593999997E+02  0.45594000000E+02  0.51100000000E-03 0. -1.
         11   -1    0    0    0    0 -0.00000000000E+00 -0.00000000000E+00 -0.45593999997E+02  0.45594000000E+02  0.51100000000E-03 0.  1.
    9900012    2    1    2    0    0 -0.16526045083E+01  0.11775080497E+02 -0.41740142321E+02  0.47787273009E+02  0.20000008958E+02 0.  0.
         12    1    1    2    0    0  0.16526045083E+01 -0.11775080497E+02  0.41740142321E+02  0.43400726991E+02  0.00000000000E+00 0. -1.
         11    1    3    3    0    0 -0.57386868497E+01  0.12700957435E+02 -0.14483533133E+02  0.20100238277E+02  0.51100000000E-03 0. -1.
        -11    1    3    3    0    0  0.14178860668E+01 -0.15079125940E+01 -0.13987034543E+02  0.14139354188E+02  0.51100000000E-03 0.  1.
         12    1    3    3    0    0  0.26681962745E+01  0.58203565583E+00 -0.13269574645E+02  0.13547680544E+02  0.00000000000E+00 0. -1.
</event>
<event>
 7    1  0.2492468E-009  0.4778727E+02  0.7816164E-02  0.1312668E+00
        -11   -1    0    0    0    0  0.00000000000E+00  0.00000000000E+00  0.45593999997E+02  0.45594000000E+02  0.51100000000E-03 0. -1.
         11   -1    0    0    0    0 -0.00000000000E+00 -0.00000000000E+00 -0.45593999997E+02  0.45594000000E+02  0.51100000000E-03 0.  1.
    9900012    2    1    2    0    0  0.87214873025E+01 -0.35022752962E+02 -0.24103223643E+02  0.47787274709E+02  0.20000016710E+02 0.  0.
         12    1    1    2    0    0 -0.87214873025E+01  0.35022752962E+02  0.24103223643E+02  0.43400725291E+02  0.00000000000E+00 0. -1.
         11    1    3    3    0    0  0.42666606855E+01 -0.76329085553E+01 -0.10532609578E+01  0.88076696875E+01  0.51100000000E-03 0.  1.
        -11    1    3    3    0    0 -0.28962200138E+01 -0.23529518334E+00 -0.55168859638E+00  0.29576704955E+01  0.51100000000E-03 0. -1.
        -12    1    3    3    0    0  0.73510466308E+01 -0.27154549223E+02 -0.22498274088E+02  0.36021934526E+02  0.00000000000E+00 0.  1.
</event>
<event>
 7    1  0.2492468E-009  0.4778727E+02  0.7816164E-02  0.1312668E+00
        -11   -1    0    0    0    0  0.00000000000E+00  0.00000000000E+00  0.45593999997E+02  0.45594000000E+02  0.51100000000E-03 0. -1.
         11   -1    0    0    0    0 -0.00000000000E+00 -0.00000000000E+00 -0.45593999997E+02  0.45594000000E+02  0.51100000000E-03 0.  1.
    9900012    2    1    2    0    0  0.28789476430E+02 -0.32126451029E+02  0.47623879418E+01  0.47787272498E+02  0.20000006627E+02 0.  0.
         12    1    1    2    0    0 -0.28789476430E+02  0.32126451029E+02 -0.47623879418E+01  0.43400727502E+02  0.00000000000E+00 0. -1.
         11    1    3    3    0    0  0.23559080982E+01 -0.58193810025E+01 -0.35232186605E+01  0.71992060820E+01  0.51100000000E-03 0. -1.
        -11    1    3    3    0    0  0.28041957034E+02 -0.23938368843E+02  0.76548321155E+01  0.37656251966E+02  0.51100000000E-03 0.  1.
        -12    1    3    3    0    0 -0.16083887024E+01 -0.23687011838E+01  0.63077448680E+00  0.29318144501E+01  0.00000000000E+00 0.  1.
</event>
<event>
 7    1  0.2492468E-009  0.4778727E+02  0.7816164E-02  0.1312668E+00
        -11   -1    0    0    0    0  0.00000000000E+00  0.00000000000E+00  0.45593999997E+02  0.45594000000E+02  0.51100000000E-03 0.  1.
         11   -1    0    0    0    0 -0.00000000000E+00 -0.00000000000E+00 -0.45593999997E+02  0.45594000000E+02  0.51100000000E-03 0. -1.
    9900012    2    1    2    0    0 -0.12972204094E+02 -0.18250991487E+02  0.37178574316E+02  0.47787272385E+02  0.20000006113E+02 0.  0.
         12    1    1    2    0    0  0.12972204094E+02  0.18250991487E+02 -0.37178574316E+02  0.43400727615E+02  0.00000000000E+00 0. -1.
         11    1    3    3    0    0 -0.33001168491E+01 -0.12077746412E+02  0.61807585281E+01  0.13962969092E+02  0.51100000000E-03 0. -1.
        -11    1    3    3    0    0 -0.70002352192E+01 -0.75320183869E+01  0.20926302226E+02  0.23316190066E+02  0.51100000000E-03 0.  1.
        -12    1    3    3    0    0 -0.26718520261E+01  0.13587733120E+01  0.10071513562E+02  0.10508113227E+02  0.00000000000E+00 0.  1.
</event>
<event>
 7    1  0.2492468E-009  0.4778727E+02  0.7816164E-02  0.1312668E+00
        -11   -1    0    0    0    0  0.00000000000E+00  0.00000000000E+00  0.45593999997E+02  0.45594000000E+02  0.51100000000E-03 0.  1.
         11   -1    0    0    0    0 -0.00000000000E+00 -0.00000000000E+00 -0.45593999997E+02  0.45594000000E+02  0.51100000000E-03 0. -1.
    9900012    2    1    2    0    0 -0.33706530668E+02 -0.23305637121E+02  0.14294760725E+02  0.47787272870E+02  0.20000008322E+02 0.  0.
         12    1    1    2    0    0  0.33706530668E+02  0.23305637121E+02 -0.14294760725E+02  0.43400727130E+02  0.00000000000E+00 0. -1.
         11    1    3    3    0    0 -0.13676885067E+02 -0.98592097172E+01  0.98738185239E+01  0.19538513093E+02  0.51100000000E-03 0. -1.
        -11    1    3    3    0    0 -0.17139149340E+02 -0.16424547585E+02  0.40564109708E+01  0.24082580296E+02  0.51100000000E-03 0.  1.
        -12    1    3    3    0    0 -0.28904962604E+01  0.29781201814E+01  0.36453123013E+00  0.41661794805E+01  0.00000000000E+00 0.  1.
</event>
<event>
 7    1  0.2492468E-009  0.4778727E+02  0.7816164E-02  0.1312668E+00
        -11   -1    0    0    0    0  0.00000000000E+00  0.00000000000E+00  0.45593999997E+02  0.45594000000E+02  0.51100000000E-03 0.  1.
         11   -1    0    0    0    0 -0.00000000000E+00 -0.00000000000E+00 -0.45593999997E+02  0.45594000000E+02  0.51100000000E-03 0. -1.
    9900012    2    1    2    0    0 -0.21159701115E+02 -0.36218875526E+02  0.11139291130E+02  0.47787266106E+02  0.19999977484E+02 0.  0.
         12    1    1    2    0    0  0.21159701115E+02  0.36218875526E+02 -0.11139291130E+02  0.43400733894E+02  0.00000000000E+00 0. -1.
         11    1    3    3    0    0  0.18726381997E+01 -0.89811101543E+01  0.56200701031E+01  0.10758824362E+02  0.51100000000E-03 0. -1.
        -11    1    3    3    0    0 -0.66176760888E+01 -0.14146475395E+02  0.22065178618E+01  0.15772923770E+02  0.51100000000E-03 0.  1.
        -12    1    3    3    0    0 -0.16414663226E+02 -0.13091289977E+02  0.33127031652E+01  0.21255517974E+02  0.00000000000E+00 0.  1.
</event>
<event>
 7    1  0.2492468E-009  0.4778727E+02  0.7816164E-02  0.1312668E+00
        -11   -1    0    0    0    0  0.00000000000E+00  0.00000000000E+00  0.45593999997E+02  0.45594000000E+02  0.51100000000E-03 0.  1.
         11   -1    0    0    0    0 -0.00000000000E+00 -0.00000000000E+00 -0.45593999997E+02  0.45594000000E+02  0.51100000000E-03 0. -1.
    9900012    2    1    2    0    0  0.35155372613E+02  0.15053074218E+02  0.20521398472E+02  0.47787273483E+02  0.20000011117E+02 0.  0.
         12    1    1    2    0    0 -0.35155372613E+02 -0.15053074218E+02 -0.20521398472E+02  0.43400726517E+02  0.00000000000E+00 0. -1.
         11    1    3    3    0    0  0.20590857016E+02  0.10518198474E+02  0.64525570571E+01  0.24005236609E+02  0.51100000000E-03 0.  1.
        -11    1    3    3    0    0  0.65983613967E+00  0.33842419974E+01 -0.64186395554E+00  0.35072021936E+01  0.51100000000E-03 0. -1.
         12    1    3    3    0    0  0.13904679457E+02  0.11506337465E+01  0.14710705370E+02  0.20274834680E+02  0.00000000000E+00 0. -1.
</event>
<event>
 7    1  0.2492468E-009  0.4778729E+02  0.7816164E-02  0.1312668E+00
        -11   -1    0    0    0    0  0.00000000000E+00  0.00000000000E+00  0.45593999997E+02  0.45594000000E+02  0.51100000000E-03 0.  1.
         11   -1    0    0    0    0 -0.00000000000E+00 -0.00000000000E+00 -0.45593999997E+02  0.45594000000E+02  0.51100000000E-03 0. -1.
    9900012    2    1    2    0    0  0.39928656238E+02  0.90296106073E+01  0.14414942517E+02  0.47787285438E+02  0.20000065628E+02 0.  0.
         12    1    1    2    0    0 -0.39928656238E+02 -0.90296106073E+01 -0.14414942517E+02  0.43400714562E+02  0.00000000000E+00 0. -1.
         11    1    3    3    0    0  0.37050019903E+01 -0.23356458798E+01  0.36935556976E+01  0.57292787832E+01  0.51100000000E-03 0. -1.
        -11    1    3    3    0    0  0.30216221239E+02  0.31176722841E+01  0.68110661164E+01  0.31130861349E+02  0.51100000000E-03 0.  1.
         12    1    3    3    0    0  0.60074330084E+01  0.82475842030E+01  0.39103207032E+01  0.10927145306E+02  0.00000000000E+00 0. -1.
</event>
<event>
 7    1  0.2658170E-009  0.4778727E+02  0.7816164E-02  0.1312668E+00
        -11   -1    0    0    0    0  0.00000000000E+00  0.00000000000E+00  0.45593999997E+02  0.45594000000E+02  0.51100000000E-03 0. -1.
         11   -1    0    0    0    0 -0.00000000000E+00 -0.00000000000E+00 -0.45593999997E+02  0.45594000000E+02  0.51100000000E-03 0.  1.
    9900012    2    1    2    0    0  0.18984365780E+02  0.18544863317E+02 -0.34341012699E+02  0.47787271289E+02  0.20000001113E+02 0.  0.
         12    1    1    2    0    0 -0.18984365780E+02 -0.18544863317E+02  0.34341012699E+02  0.43400728711E+02  0.00000000000E+00 0. -1.
         11    1    3    3    0    0 -0.10765624096E+01  0.52784681390E+01 -0.40435618874E+01  0.67358448255E+01  0.51100000000E-03 0. -1.
        -11    1    3    3    0    0  0.71069505180E+01  0.12095881043E+02 -0.20158424940E+02  0.24559747153E+02  0.51100000000E-03 0.  1.
         12    1    3    3    0    0  0.12953977672E+02  0.11705141344E+01 -0.10139025871E+02  0.16491679310E+02  0.00000000000E+00 0. -1.
</event>
<event>
 7    1  0.2492468E-009  0.4778727E+02  0.7816164E-02  0.1312668E+00
        -11   -1    0    0    0    0  0.00000000000E+00  0.00000000000E+00  0.45593999997E+02  0.45594000000E+02  0.51100000000E-03 0. -1.
         11   -1    0    0    0    0 -0.00000000000E+00 -0.00000000000E+00 -0.45593999997E+02  0.45594000000E+02  0.51100000000E-03 0.  1.
    9900012    2    1    2    0    0  0.36793266807E+02  0.15818803694E+02 -0.16722579683E+02  0.47787266090E+02  0.19999977412E+02 0.  0.
         12    1    1    2    0    0 -0.36793266807E+02 -0.15818803694E+02  0.16722579683E+02  0.43400733910E+02  0.00000000000E+00 0. -1.
         11    1    3    3    0    0  0.15957167721E+01  0.50758404151E+01 -0.21890646008E+01  0.57534747783E+01  0.51100000000E-03 0. -1.
        -11    1    3    3    0    0  0.18822016712E+01 -0.20154065657E+01  0.12447632768E+01  0.30255549297E+01  0.51100000000E-03 0.  1.
        -12    1    3    3    0    0  0.33315348364E+02  0.12758369844E+02 -0.15778278359E+02  0.39008236382E+02  0.00000000000E+00 0.  1.
</event>
<event>
 7    1  0.2492468E-009  0.4778727E+02  0.7816164E-02  0.1312668E+00
        -11   -1    0    0    0    0  0.00000000000E+00  0.00000000000E+00  0.45593999997E+02  0.45594000000E+02  0.51100000000E-03 0. -1.
         11   -1    0    0    0    0 -0.00000000000E+00 -0.00000000000E+00 -0.45593999997E+02  0.45594000000E+02  0.51100000000E-03 0.  1.
    9900012    2    1    2    0    0 -0.30136682978E+02  0.19514074758E+02 -0.24384513059E+02  0.47787271300E+02  0.20000001164E+02 0.  0.
         12    1    1    2    0    0  0.30136682978E+02 -0.19514074758E+02  0.24384513059E+02  0.43400728700E+02  0.00000000000E+00 0. -1.
         11    1    3    3    0    0 -0.91600745574E+01 -0.41292999622E+00 -0.44946519254E+01  0.10211727242E+02  0.51100000000E-03 0. -1.
        -11    1    3    3    0    0  0.10658724042E+01  0.11880834036E+01 -0.45652741897E+01  0.48362542163E+01  0.51100000000E-03 0.  1.
        -12    1    3    3    0    0 -0.22042480824E+02  0.18738921351E+02 -0.15324586944E+02  0.32739289841E+02  0.00000000000E+00 0.  1.
</event>
<event>
 7    1  0.2492468E-009  0.4778727E+02  0.7816164E-02  0.1312668E+00
        -11   -1    0    0    0    0  0.00000000000E+00  0.00000000000E+00  0.45593999997E+02  0.45594000000E+02  0.51100000000E-03 0. -1.
         11   -1    0    0    0    0 -0.00000000000E+00 -0.00000000000E+00 -0.45593999997E+02  0.45594000000E+02  0.51100000000E-03 0.  1.
    9900012    2    1    2    0    0  0.26685486229E+02 -0.23479789787E+02 -0.24903961487E+02  0.47787274182E+02  0.20000014307E+02 0.  0.
         12    1    1    2    0    0 -0.26685486229E+02  0.23479789787E+02  0.24903961487E+02  0.43400725818E+02  0.00000000000E+00 0. -1.
         11    1    3    3    0    0  0.51707789445E+01 -0.16423096339E+02 -0.93005773145E+01  0.19569256166E+02  0.51100000000E-03 0. -1.
        -11    1    3    3    0    0  0.10905868512E+01  0.10716177525E+01 -0.97406234888E+00  0.18128822378E+01  0.51100000000E-03 0.  1.
         12    1    3    3    0    0  0.20424120433E+02 -0.81283112008E+01 -0.14629321823E+02  0.26405135778E+02  0.00000000000E+00 0. -1.
</event>
<event>
 7    1  0.2492468E-009  0.4778727E+02  0.7816164E-02  0.1312668E+00
        -11   -1    0    0    0    0  0.00000000000E+00  0.00000000000E+00  0.45593999997E+02  0.45594000000E+02  0.51100000000E-03 0.  1.
         11   -1    0    0    0    0 -0.00000000000E+00 -0.00000000000E+00 -0.45593999997E+02  0.45594000000E+02  0.51100000000E-03 0. -1.
    9900012    2    1    2    0    0 -0.12638384486E+02 -0.34688093701E+01  0.41374650278E+02  0.47787273203E+02  0.20000009841E+02 0.  0.
         12    1    1    2    0    0  0.12638384486E+02  0.34688093701E+01 -0.41374650278E+02  0.43400726797E+02  0.00000000000E+00 0. -1.
         11    1    3    3    0    0 -0.38849036521E+01 -0.31389742585E+01  0.13527134663E+02  0.14419743695E+02  0.51100000000E-03 0. -1.
        -11    1    3    3    0    0 -0.80391776946E+01  0.36282618383E+01  0.27986161199E+02  0.29343106190E+02  0.51100000000E-03 0.  1.
         12    1    3    3    0    0 -0.71430313908E+00 -0.39580969498E+01 -0.13864558390E+00  0.40244233173E+01  0.00000000000E+00 0. -1.
</event>
<event>
 7    1  0.2492468E-009  0.4778727E+02  0.7816164E-02  0.1312668E+00
        -11   -1    0    0    0    0  0.00000000000E+00  0.00000000000E+00  0.45593999997E+02  0.45594000000E+02  0.51100000000E-03 0. -1.
         11   -1    0    0    0    0 -0.00000000000E+00 -0.00000000000E+00 -0.45593999997E+02  0.45594000000E+02  0.51100000000E-03 0.  1.
    9900012    2    1    2    0    0  0.37013483512E+02 -0.19772695387E+02 -0.11075460775E+02  0.47787271020E+02  0.19999999891E+02 0.  0.
         12    1    1    2    0    0 -0.37013483512E+02  0.19772695387E+02  0.11075460775E+02  0.43400728980E+02  0.00000000000E+00 0. -1.
         11    1    3    3    0    0  0.93452727344E+01 -0.83655439174E+01  0.30018187864E+01  0.12896796649E+02  0.51100000000E-03 0. -1.
        -11    1    3    3    0    0  0.16960955049E+01 -0.41633914643E+01 -0.42660637124E+01  0.61975695483E+01  0.51100000000E-03 0.  1.
        -12    1    3    3    0    0  0.25972115273E+02 -0.72437600052E+01 -0.98112158488E+01  0.28692904823E+02  0.00000000000E+00 0.  1.
</event>
<event>
 7    1  0.2492468E-009  0.4778728E+02  0.7816164E-02  0.1312668E+00
        -11   -1    0    0    0    0  0.00000000000E+00  0.00000000000E+00  0.45593999997E+02  0.45594000000E+02  0.51100000000E-03 0.  1.
         11   -1    0    0    0    0 -0.00000000000E+00 -0.00000000000E+00 -0.45593999997E+02  0.45594000000E+02  0.51100000000E-03 0. -1.
    9900012    2    1    2    0    0  0.36170867588E+02 -0.12627058326E+02  0.20392365132E+02  0.47787276277E+02  0.20000023857E+02 0.  0.
         12    1    1    2    0    0 -0.36170867588E+02  0.12627058326E+02 -0.20392365132E+02  0.43400723723E+02  0.00000000000E+00 0. -1.
         11    1    3    3    0    0  0.43735359386E+00 -0.41518038428E-01 -0.25654525140E+01  0.26027963379E+01  0.51100000000E-03 0. -1.
        -11    1    3    3    0    0  0.15395309468E+02 -0.21177864777E+01  0.12900695770E+02  0.20197240524E+02  0.51100000000E-03 0.  1.
        -12    1    3    3    0    0  0.20338204526E+02 -0.10467753810E+02  0.10057121876E+02  0.24987239415E+02  0.00000000000E+00 0.  1.
</event>
<event>
 7    1  0.2492468E-009  0.4778725E+02  0.7816164E-02  0.1312668E+00
        -11   -1    0    0    0    0  0.00000000000E+00  0.00000000000E+00  0.45593999997E+02  0.45594000000E+02  0.51100000000E-03 0.  1.
         11   -1    0    0    0    0 -0.00000000000E+00 -0.00000000000E+00 -0.45593999997E+02  0.45594000000E+02  0.51100000000E-03 0. -1.
    9900012    2    1    2    0    0  0.32862940183E+02 -0.96986681230E+01  0.26638099756E+02  0.47787247018E+02  0.19999890453E+02 0.  0.
         12    1    1    2    0    0 -0.32862940183E+02  0.96986681230E+01 -0.26638099756E+02  0.43400752982E+02  0.00000000000E+00 0. -1.
         11    1    3    3    0    0 -0.45214968360E+00 -0.47168643129E+00  0.10861118902E+01  0.12675041322E+01  0.51100000000E-03 0. -1.
        -11    1    3    3    0    0  0.14744844655E+02 -0.12987638203E+02  0.15779220608E+02  0.25200654620E+02  0.51100000000E-03 0.  1.
         12    1    3    3    0    0  0.18570245212E+02  0.37606565117E+01  0.97727672573E+01  0.21319088266E+02  0.00000000000E+00 0. -1.
</event>
<event>
 7    1  0.2492468E-009  0.4778727E+02  0.7816164E-02  0.1312668E+00
        -11   -1    0    0    0    0  0.00000000000E+00  0.00000000000E+00  0.45593999997E+02  0.45594000000E+02  0.51100000000E-03 0.  1.
         11   -1    0    0    0    0 -0.00000000000E+00 -0.00000000000E+00 -0.45593999997E+02  0.45594000000E+02  0.51100000000E-03 0. -1.
    9900012    2    1    2    0    0 -0.21719754286E+02  0.33954499052E+02  0.16092469992E+02  0.47787270484E+02  0.19999997443E+02 0.  0.
         12    1    1    2    0    0  0.21719754286E+02 -0.33954499052E+02 -0.16092469992E+02  0.43400729516E+02  0.00000000000E+00 0. -1.
         11    1    3    3    0    0 -0.40447797662E+01  0.33810752877E+01  0.17387360121E+01  0.55511365178E+01  0.51100000000E-03 0. -1.
        -11    1    3    3    0    0  0.10201789868E+01  0.10505709671E+02  0.98594788500E+01  0.14443684582E+02  0.51100000000E-03 0.  1.
        -12    1    3    3    0    0 -0.18695153507E+02  0.20067714094E+02  0.44942551301E+01  0.27792449384E+02  0.00000000000E+00 0.  1.
</event>
<event>
 7    1  0.2492468E-009  0.4778727E+02  0.7816164E-02  0.1312668E+00
        -11   -1    0    0    0    0  0.00000000000E+00  0.00000000000E+00  0.45593999997E+02  0.45594000000E+02  0.51100000000E-03 0.  1.
         11   -1    0    0    0    0 -0.00000000000E+00 -0.00000000000E+00 -0.45593999997E+02  0.45594000000E+02  0.51100000000E-03 0. -1.
    9900012    2    1    2    0    0 -0.15682497346E+02  0.14973292580E+02  0.37596316761E+02  0.47787271346E+02  0.20000001376E+02 0.  0.
         12    1    1    2    0    0  0.15682497346E+02 -0.14973292580E+02 -0.37596316761E+02  0.43400728654E+02  0.00000000000E+00 0. -1.
         11    1    3    3    0    0 -0.96802209227E+01  0.76782224121E+01  0.62278190673E+01  0.13836455728E+02  0.51100000000E-03 0. -1.
        -11    1    3    3    0    0 -0.72234801561E+01  0.22972455945E+01  0.15228962374E+02  0.17011093384E+02  0.51100000000E-03 0.  1.
        -12    1    3    3    0    0  0.12212037324E+01  0.49978245737E+01  0.16139535319E+02  0.16939722234E+02  0.00000000000E+00 0.  1.
</event>
<event>
 7    1  0.2740588E-009  0.4778727E+02  0.7816164E-02  0.1312668E+00
        -11   -1    0    0    0    0  0.00000000000E+00  0.00000000000E+00  0.45593999997E+02  0.45594000000E+02  0.51100000000E-03 0. -1.
         11   -1    0    0    0    0 -0.00000000000E+00 -0.00000000000E+00 -0.45593999997E+02  0.45594000000E+02  0.51100000000E-03 0.  1.
    9900012    2    1    2    0    0 -0.11377417626E+02 -0.39337258013E+02 -0.14379073782E+02  0.47787271174E+02  0.20000000591E+02 0.  0.
         12    1    1    2    0    0  0.11377417626E+02  0.39337258013E+02  0.14379073782E+02  0.43400728826E+02  0.00000000000E+00 0. -1.
         11    1    3    3    0    0 -0.21624170978E+01 -0.18265300943E+02 -0.95618939551E+01  0.20729859684E+02  0.51100000000E-03 0. -1.
        -11    1    3    3    0    0 -0.71660490564E+01 -0.21882014927E+02 -0.68880098701E+01  0.24033716245E+02  0.51100000000E-03 0.  1.
         12    1    3    3    0    0 -0.20489514722E+01  0.81005785663E+00  0.20708300433E+01  0.30236952451E+01  0.00000000000E+00 0. -1.
</event>
<event>
 7    1  0.2492468E-009  0.4778727E+02  0.7816164E-02  0.1312668E+00
        -11   -1    0    0    0    0  0.00000000000E+00  0.00000000000E+00  0.45593999997E+02  0.45594000000E+02  0.51100000000E-03 0.  1.
         11   -1    0    0    0    0 -0.00000000000E+00 -0.00000000000E+00 -0.45593999997E+02  0.45594000000E+02  0.51100000000E-03 0. -1.
    9900012    2    1    2    0    0  0.35141694066E+02  0.13493783414E+02  0.21600984496E+02  0.47787269778E+02  0.19999994224E+02 0.  0.
         12    1    1    2    0    0 -0.35141694066E+02 -0.13493783414E+02 -0.21600984496E+02  0.43400730222E+02  0.00000000000E+00 0. -1.
         11    1    3    3    0    0  0.46333894734E-01  0.78011906487E+00  0.64230802177E+00  0.10115791818E+01  0.51100000000E-03 0. -1.
        -11    1    3    3    0    0  0.17611696511E+02  0.16229315542E+02  0.12952343235E+02  0.27227297561E+02  0.51100000000E-03 0.  1.
        -12    1    3    3    0    0  0.17483663661E+02 -0.35156511927E+01  0.80063332385E+01  0.19548393035E+02  0.00000000000E+00 0.  1.
</event>
<event>
 7    1  0.2492468E-009  0.4778731E+02  0.7816164E-02  0.1312668E+00
        -11   -1    0    0    0    0  0.00000000000E+00  0.00000000000E+00  0.45593999997E+02  0.45594000000E+02  0.51100000000E-03 0.  1.
         11   -1    0    0    0    0 -0.00000000000E+00 -0.00000000000E+00 -0.45593999997E+02  0.45594000000E+02  0.51100000000E-03 0. -1.
    9900012    2    1    2    0    0  0.25534521689E+02 -0.22246738299E+02  0.27142041296E+02  0.47787313732E+02  0.20000194628E+02 0.  0.
         12    1    1    2    0    0 -0.25534521689E+02  0.22246738299E+02 -0.27142041296E+02  0.43400686268E+02  0.00000000000E+00 0. -1.
         11    1    3    3    0    0 -0.41316853275E+00 -0.65745015353E+01  0.32938679232E+01  0.73650760234E+01  0.51100000000E-03 0. -1.
        -11    1    3    3    0    0  0.43109250786E+01 -0.25931503944E+01  0.10926268596E+02  0.12028792528E+02  0.51100000000E-03 0.  1.
        -12    1    3    3    0    0  0.21636765143E+02 -0.13079086369E+02  0.12921904777E+02  0.28393445180E+02  0.00000000000E+00 0.  1.
</event>
<event>
 7    1  0.2492468E-009  0.4778724E+02  0.7816164E-02  0.1312668E+00
        -11   -1    0    0    0    0  0.00000000000E+00  0.00000000000E+00  0.45593999997E+02  0.45594000000E+02  0.51100000000E-03 0.  1.
         11   -1    0    0    0    0 -0.00000000000E+00 -0.00000000000E+00 -0.45593999997E+02  0.45594000000E+02  0.51100000000E-03 0. -1.
    9900012    2    1    2    0    0 -0.19068455206E+02  0.97075818519E+01  0.37759544001E+02  0.47787236268E+02  0.19999841440E+02 0.  0.
         12    1    1    2    0    0  0.19068455206E+02 -0.97075818519E+01 -0.37759544001E+02  0.43400763732E+02  0.00000000000E+00 0. -1.
         11    1    3    3    0    0 -0.13569325954E+02  0.94733581053E+01  0.25193790145E+02  0.30142962408E+02  0.51100000000E-03 0. -1.
        -11    1    3    3    0    0 -0.80500412610E+01  0.27164070920E+01  0.68617624067E+01  0.10920888946E+02  0.51100000000E-03 0.  1.
         12    1    3    3    0    0  0.25509120085E+01 -0.24821833454E+01  0.57039914494E+01  0.67233849131E+01  0.00000000000E+00 0. -1.
</event>
<event>
 7    1  0.2492468E-009  0.4778727E+02  0.7816164E-02  0.1312668E+00
        -11   -1    0    0    0    0  0.00000000000E+00  0.00000000000E+00  0.45593999997E+02  0.45594000000E+02  0.51100000000E-03 0. -1.
         11   -1    0    0    0    0 -0.00000000000E+00 -0.00000000000E+00 -0.45593999997E+02  0.45594000000E+02  0.51100000000E-03 0.  1.
    9900012    2    1    2    0    0  0.18080021081E+02  0.37951514164E+02 -0.10789745291E+02  0.47787271975E+02  0.20000004244E+02 0.  0.
         12    1    1    2    0    0 -0.18080021081E+02 -0.37951514164E+02  0.10789745291E+02  0.43400728025E+02  0.00000000000E+00 0. -1.
         11    1    3    3    0    0  0.17182190776E+01 -0.22132133116E+00  0.30665608732E+00  0.17593459431E+01  0.51100000000E-03 0. -1.
        -11    1    3    3    0    0  0.19256813487E+01 -0.52774828062E+00 -0.35004636755E+01  0.40298899624E+01  0.51100000000E-03 0.  1.
        -12    1    3    3    0    0  0.14436120654E+02  0.38700583776E+02 -0.75959377033E+01  0.41998036070E+02  0.00000000000E+00 0.  1.
</event>
<event>
 7    1  0.2492468E-009  0.4778727E+02  0.7816164E-02  0.1312668E+00
        -11   -1    0    0    0    0  0.00000000000E+00  0.00000000000E+00  0.45593999997E+02  0.45594000000E+02  0.51100000000E-03 0. -1.
         11   -1    0    0    0    0 -0.00000000000E+00 -0.00000000000E+00 -0.45593999997E+02  0.45594000000E+02  0.51100000000E-03 0.  1.
    9900012    2    1    2    0    0 -0.32398084050E+02 -0.23866431886E+02  0.16259788691E+02  0.47787272479E+02  0.20000006540E+02 0.  0.
         12    1    1    2    0    0  0.32398084050E+02  0.23866431886E+02 -0.16259788691E+02  0.43400727521E+02  0.00000000000E+00 0. -1.
         11    1    3    3    0    0 -0.76931610784E+01 -0.67420539286E+01  0.37754381968E+01  0.10903850347E+02  0.51100000000E-03 0.  1.
        -11    1    3    3    0    0 -0.70033397060E+01 -0.13897402642E+02  0.11216037989E+01  0.15602646012E+02  0.51100000000E-03 0. -1.
         12    1    3    3    0    0 -0.17701583266E+02 -0.32269753156E+01  0.11362746695E+02  0.21280776120E+02  0.00000000000E+00 0. -1.
</event>
<event>
 7    1  0.2492468E-009  0.4778727E+02  0.7816164E-02  0.1312668E+00
        -11   -1    0    0    0    0  0.00000000000E+00  0.00000000000E+00  0.45593999997E+02  0.45594000000E+02  0.51100000000E-03 0.  1.
         11   -1    0    0    0    0 -0.00000000000E+00 -0.00000000000E+00 -0.45593999997E+02  0.45594000000E+02  0.51100000000E-03 0. -1.
    9900012    2    1    2    0    0  0.27857891296E+02 -0.10553336536E+02  0.31562451039E+02  0.47787270339E+02  0.19999996784E+02 0.  0.
         12    1    1    2    0    0 -0.27857891296E+02  0.10553336536E+02 -0.31562451039E+02  0.43400729661E+02  0.00000000000E+00 0. -1.
         11    1    3    3    0    0  0.18196575126E+02 -0.13235764009E+02  0.29466896707E+02  0.37075582221E+02  0.51100000000E-03 0.  1.
        -11    1    3    3    0    0  0.15574112902E+01 -0.13077155615E+00 -0.66736509378E+00  0.16994138861E+01  0.51100000000E-03 0. -1.
        -12    1    3    3    0    0  0.81039048797E+01  0.28131990289E+01  0.27629194255E+01  0.90122742317E+01  0.00000000000E+00 0.  1.
</event>
<event>
 7    1  0.2492468E-009  0.4778728E+02  0.7816164E-02  0.1312668E+00
        -11   -1    0    0    0    0  0.00000000000E+00  0.00000000000E+00  0.45593999997E+02  0.45594000000E+02  0.51100000000E-03 0.  1.
         11   -1    0    0    0    0 -0.00000000000E+00 -0.00000000000E+00 -0.45593999997E+02  0.45594000000E+02  0.51100000000E-03 0. -1.
    9900012    2    1    2    0    0 -0.22764665788E+01  0.15837481970E+02  0.40343707878E+02  0.47787275345E+02  0.20000019609E+02 0.  0.
         12    1    1    2    0    0  0.22764665788E+01 -0.15837481970E+02 -0.40343707878E+02  0.43400724655E+02  0.00000000000E+00 0. -1.
         11    1    3    3    0    0 -0.45007647153E+01  0.31499662610E+01  0.14038173649E+02  0.15074796520E+02  0.51100000000E-03 0. -1.
        -11    1    3    3    0    0 -0.59977645769E+01  0.30875038574E+01  0.10401089336E+02  0.12397117392E+02  0.51100000000E-03 0.  1.
        -12    1    3    3    0    0  0.82220627134E+01  0.96000118515E+01  0.15904444893E+02  0.20315361434E+02  0.00000000000E+00 0.  1.
</event>
<event>
 7    1  0.2492468E-009  0.4778727E+02  0.7816164E-02  0.1312668E+00
        -11   -1    0    0    0    0  0.00000000000E+00  0.00000000000E+00  0.45593999997E+02  0.45594000000E+02  0.51100000000E-03 0.  1.
         11   -1    0    0    0    0 -0.00000000000E+00 -0.00000000000E+00 -0.45593999997E+02  0.45594000000E+02  0.51100000000E-03 0. -1.
    9900012    2    1    2    0    0 -0.12664137214E+02  0.33166112134E+02  0.24965011662E+02  0.47787272210E+02  0.20000005314E+02 0.  0.
         12    1    1    2    0    0  0.12664137214E+02 -0.33166112134E+02 -0.24965011662E+02  0.43400727790E+02  0.00000000000E+00 0. -1.
         11    1    3    3    0    0 -0.43355626765E+01  0.13718415149E+02  0.19225286686E+02  0.24012573089E+02  0.51100000000E-03 0. -1.
        -11    1    3    3    0    0  0.14350604540E+01  0.71591442210E+01  0.27198602276E+01  0.77916868778E+01  0.51100000000E-03 0.  1.
        -12    1    3    3    0    0 -0.97636349917E+01  0.12288552763E+02  0.30198647484E+01  0.15983012243E+02  0.00000000000E+00 0.  1.
</event>
<event>
 7    1  0.2492468E-009  0.4778727E+02  0.7816164E-02  0.1312668E+00
        -11   -1    0    0    0    0  0.00000000000E+00  0.00000000000E+00  0.45593999997E+02  0.45594000000E+02  0.51100000000E-03 0.  1.
         11   -1    0    0    0    0 -0.00000000000E+00 -0.00000000000E+00 -0.45593999997E+02  0.45594000000E+02  0.51100000000E-03 0. -1.
    9900012    2    1    2    0    0  0.22669740193E+02  0.32182870541E+02  0.18274818790E+02  0.47787270991E+02  0.19999999757E+02 0.  0.
         12    1    1    2    0    0 -0.22669740193E+02 -0.32182870541E+02 -0.18274818790E+02  0.43400729009E+02  0.00000000000E+00 0. -1.
         11    1    3    3    0    0  0.12589250729E+02  0.16981356195E+02  0.13037497781E-02  0.21138961519E+02  0.51100000000E-03 0. -1.
        -11    1    3    3    0    0  0.24109115480E+01  0.73185994613E+01  0.41639929558E+01  0.87586089172E+01  0.51100000000E-03 0.  1.
        -12    1    3    3    0    0  0.76695779158E+01  0.78829148848E+01  0.14109522084E+02  0.17889700555E+02  0.00000000000E+00 0.  1.
</event>
<event>
 7    1  0.2492468E-009  0.4778728E+02  0.7816164E-02  0.1312668E+00
        -11   -1    0    0    0    0  0.00000000000E+00  0.00000000000E+00  0.45593999997E+02  0.45594000000E+02  0.51100000000E-03 0.  1.
         11   -1    0    0    0    0 -0.00000000000E+00 -0.00000000000E+00 -0.45593999997E+02  0.45594000000E+02  0.51100000000E-03 0. -1.
    9900012    2    1    2    0    0 -0.29717986283E+02 -0.97015799978E+01  0.30105539915E+02  0.47787275389E+02  0.20000019810E+02 0.  0.
         12    1    1    2    0    0  0.29717986283E+02  0.97015799978E+01 -0.30105539915E+02  0.43400724611E+02  0.00000000000E+00 0. -1.
         11    1    3    3    0    0 -0.67980292061E+01 -0.29819502730E+01  0.11637957750E-01  0.74232987426E+01  0.51100000000E-03 0. -1.
        -11    1    3    3    0    0 -0.40026898572E+01 -0.26064589632E+01  0.23997311493E+00  0.47825455332E+01  0.51100000000E-03 0.  1.
        -12    1    3    3    0    0 -0.18917267220E+02 -0.41131707616E+01  0.29853928842E+02  0.35581431114E+02  0.00000000000E+00 0.  1.
</event>
<event>
 7    1  0.2575088E-009  0.4778727E+02  0.7816164E-02  0.1312668E+00
        -11   -1    0    0    0    0  0.00000000000E+00  0.00000000000E+00  0.45593999997E+02  0.45594000000E+02  0.51100000000E-03 0. -1.
         11   -1    0    0    0    0 -0.00000000000E+00 -0.00000000000E+00 -0.45593999997E+02  0.45594000000E+02  0.51100000000E-03 0.  1.
    9900012    2    1    2    0    0  0.33357513760E+02  0.25432914853E+02 -0.11138510682E+02  0.47787270716E+02  0.19999998502E+02 0.  0.
         12    1    1    2    0    0 -0.33357513760E+02 -0.25432914853E+02  0.11138510682E+02  0.43400729284E+02  0.00000000000E+00 0. -1.
         11    1    3    3    0    0  0.10039679139E+02  0.16117735787E+02 -0.11568470739E+01  0.19024060017E+02  0.51100000000E-03 0. -1.
        -11    1    3    3    0    0  0.13425219004E+02  0.10259638475E+02 -0.76927019806E+01  0.18565407374E+02  0.51100000000E-03 0.  1.
         12    1    3    3    0    0  0.98926156176E+01 -0.94445940838E+00 -0.22889616274E+01  0.10197803325E+02  0.00000000000E+00 0. -1.
</event>
<event>
 7    1  0.2492468E-009  0.4778727E+02  0.7816164E-02  0.1312668E+00
        -11   -1    0    0    0    0  0.00000000000E+00  0.00000000000E+00  0.45593999997E+02  0.45594000000E+02  0.51100000000E-03 0.  1.
         11   -1    0    0    0    0 -0.00000000000E+00 -0.00000000000E+00 -0.45593999997E+02  0.45594000000E+02  0.51100000000E-03 0. -1.
    9900012    2    1    2    0    0  0.10232613085E+02  0.50753713856E+01  0.41870725061E+02  0.47787269794E+02  0.19999994301E+02 0.  0.
         12    1    1    2    0    0 -0.10232613085E+02 -0.50753713856E+01 -0.41870725061E+02  0.43400730206E+02  0.00000000000E+00 0. -1.
         11    1    3    3    0    0 -0.12663709830E+01  0.64718262083E-01 -0.10008551627E+01  0.16154241666E+01  0.51100000000E-03 0. -1.
        -11    1    3    3    0    0  0.76679170648E+01  0.15193613480E+01  0.90638112759E+01  0.11969047001E+02  0.51100000000E-03 0.  1.
        -12    1    3    3    0    0  0.38310670033E+01  0.34912917755E+01  0.33807768948E+02  0.34202798626E+02  0.00000000000E+00 0.  1.
</event>
<event>
 7    1  0.2492468E-009  0.4778727E+02  0.7816164E-02  0.1312668E+00
        -11   -1    0    0    0    0  0.00000000000E+00  0.00000000000E+00  0.45593999997E+02  0.45594000000E+02  0.51100000000E-03 0.  1.
         11   -1    0    0    0    0 -0.00000000000E+00 -0.00000000000E+00 -0.45593999997E+02  0.45594000000E+02  0.51100000000E-03 0. -1.
    9900012    2    1    2    0    0  0.47852108153E+01 -0.42063171665E+02  0.95611018420E+01  0.47787270495E+02  0.19999997496E+02 0.  0.
         12    1    1    2    0    0 -0.47852108153E+01  0.42063171665E+02 -0.95611018420E+01  0.43400729505E+02  0.00000000000E+00 0. -1.
         11    1    3    3    0    0 -0.37227579430E+00 -0.58641703468E+01  0.27096587446E+01  0.64706517366E+01  0.51100000000E-03 0. -1.
        -11    1    3    3    0    0  0.95432998869E+01 -0.34044116409E+02  0.81013554380E+01  0.36272694896E+02  0.51100000000E-03 0.  1.
         12    1    3    3    0    0 -0.43858132773E+01 -0.21548849098E+01 -0.12499123406E+01  0.50439238631E+01  0.00000000000E+00 0. -1.
</event>
<event>
 7    1  0.2492468E-009  0.4778728E+02  0.7816164E-02  0.1312668E+00
        -11   -1    0    0    0    0  0.00000000000E+00  0.00000000000E+00  0.45593999997E+02  0.45594000000E+02  0.51100000000E-03 0. -1.
         11   -1    0    0    0    0 -0.00000000000E+00 -0.00000000000E+00 -0.45593999997E+02  0.45594000000E+02  0.51100000000E-03 0.  1.
    9900012    2    1    2    0    0 -0.13002130583E+02  0.31066121337E+02 -0.27376331080E+02  0.47787276527E+02  0.20000024995E+02 0.  0.
         12    1    1    2    0    0  0.13002130583E+02 -0.31066121337E+02  0.27376331080E+02  0.43400723473E+02  0.00000000000E+00 0. -1.
         11    1    3    3    0    0 -0.12663874464E+02  0.14601010670E+02 -0.14643315019E+02  0.24248503130E+02  0.51100000000E-03 0.  1.
        -11    1    3    3    0    0 -0.32713391676E+01  0.19968057838E+01  0.30262953248E+00  0.38445387477E+01  0.51100000000E-03 0. -1.
         12    1    3    3    0    0  0.29330830492E+01  0.14468304883E+02 -0.13035645594E+02  0.19694234649E+02  0.00000000000E+00 0. -1.
</event>
<event>
 7    1  0.2492468E-009  0.4778729E+02  0.7816164E-02  0.1312668E+00
        -11   -1    0    0    0    0  0.00000000000E+00  0.00000000000E+00  0.45593999997E+02  0.45594000000E+02  0.51100000000E-03 0. -1.
         11   -1    0    0    0    0 -0.00000000000E+00 -0.00000000000E+00 -0.45593999997E+02  0.45594000000E+02  0.51100000000E-03 0.  1.
    9900012    2    1    2    0    0  0.43353327774E+01 -0.42962790264E+02 -0.43617998718E+01  0.47787288535E+02  0.20000079746E+02 0.  0.
         12    1    1    2    0    0 -0.43353327774E+01  0.42962790264E+02  0.43617998718E+01  0.43400711465E+02  0.00000000000E+00 0. -1.
         11    1    3    3    0    0 -0.72166080360E+00 -0.24488851118E+01 -0.46061057477E+01  0.52663120897E+01  0.51100000000E-03 0. -1.
        -11    1    3    3    0    0 -0.17494320408E+01 -0.40409619668E+01 -0.29201550617E+01  0.52836722010E+01  0.51100000000E-03 0.  1.
        -12    1    3    3    0    0  0.68064256218E+01 -0.36472943185E+02  0.31644609376E+01  0.37237304244E+02  0.00000000000E+00 0.  1.
</event>
<event>
 7    1  0.2492468E-009  0.4778727E+02  0.7816164E-02  0.1312668E+00
        -11   -1    0    0    0    0  0.00000000000E+00  0.00000000000E+00  0.45593999997E+02  0.45594000000E+02  0.51100000000E-03 0. -1.
         11   -1    0    0    0    0 -0.00000000000E+00 -0.00000000000E+00 -0.45593999997E+02  0.45594000000E+02  0.51100000000E-03 0.  1.
    9900012    2    1    2    0    0 -0.35116736794E+02  0.19917749485E+02 -0.15928632107E+02  0.47787271107E+02  0.20000000286E+02 0.  0.
         12    1    1    2    0    0  0.35116736794E+02 -0.19917749485E+02  0.15928632107E+02  0.43400728893E+02  0.00000000000E+00 0. -1.
         11    1    3    3    0    0 -0.20705803696E+02  0.19752183506E+02 -0.96506280350E+01  0.30199564263E+02  0.51100000000E-03 0. -1.
        -11    1    3    3    0    0 -0.20114032048E+01  0.13998863631E+01 -0.43302429000E+01  0.49755832337E+01  0.51100000000E-03 0.  1.
        -12    1    3    3    0    0 -0.12399529894E+02 -0.12343203833E+01 -0.19477611716E+01  0.12612123611E+02  0.00000000000E+00 0.  1.
</event>
<event>
 7    1  0.2492468E-009  0.4778727E+02  0.7816164E-02  0.1312668E+00
        -11   -1    0    0    0    0  0.00000000000E+00  0.00000000000E+00  0.45593999997E+02  0.45594000000E+02  0.51100000000E-03 0.  1.
         11   -1    0    0    0    0 -0.00000000000E+00 -0.00000000000E+00 -0.45593999997E+02  0.45594000000E+02  0.51100000000E-03 0. -1.
    9900012    2    1    2    0    0  0.22055513060E+02  0.70938687622E+01  0.36699518636E+02  0.47787270761E+02  0.19999998707E+02 0.  0.
         12    1    1    2    0    0 -0.22055513060E+02 -0.70938687622E+01 -0.36699518636E+02  0.43400729239E+02  0.00000000000E+00 0. -1.
         11    1    3    3    0    0 -0.25231031698E+01  0.18070909927E+01  0.54647714991E+01  0.62845330184E+01  0.51100000000E-03 0. -1.
        -11    1    3    3    0    0  0.99988760452E+00  0.12777123064E+01  0.79822400195E+01  0.81454576267E+01  0.51100000000E-03 0.  1.
         12    1    3    3    0    0  0.23578728625E+02  0.40090654631E+01  0.23252507118E+02  0.33357280116E+02  0.00000000000E+00 0. -1.
</event>
<event>
 7    1  0.2492468E-009  0.4778727E+02  0.7816164E-02  0.1312668E+00
        -11   -1    0    0    0    0  0.00000000000E+00  0.00000000000E+00  0.45593999997E+02  0.45594000000E+02  0.51100000000E-03 0.  1.
         11   -1    0    0    0    0 -0.00000000000E+00 -0.00000000000E+00 -0.45593999997E+02  0.45594000000E+02  0.51100000000E-03 0. -1.
    9900012    2    1    2    0    0  0.32900152907E+01 -0.17719109555E+02  0.39482049254E+02  0.47787271235E+02  0.20000000868E+02 0.  0.
         12    1    1    2    0    0 -0.32900152907E+01  0.17719109555E+02 -0.39482049254E+02  0.43400728765E+02  0.00000000000E+00 0. -1.
         11    1    3    3    0    0  0.12896963127E+01 -0.39092976553E+01  0.89261322760E+01  0.98296369417E+01  0.51100000000E-03 0.  1.
        -11    1    3    3    0    0 -0.22490786072E+01 -0.94109706184E+01  0.36118555580E+01  0.10328127778E+02  0.51100000000E-03 0. -1.
         12    1    3    3    0    0  0.42493975851E+01 -0.43988412815E+01  0.26944061420E+02  0.27629506515E+02  0.00000000000E+00 0. -1.
</event>
<event>
 7    1  0.2492468E-009  0.4778727E+02  0.7816164E-02  0.1312668E+00
        -11   -1    0    0    0    0  0.00000000000E+00  0.00000000000E+00  0.45593999997E+02  0.45594000000E+02  0.51100000000E-03 0.  1.
         11   -1    0    0    0    0 -0.00000000000E+00 -0.00000000000E+00 -0.45593999997E+02  0.45594000000E+02  0.51100000000E-03 0. -1.
    9900012    2    1    2    0    0 -0.13165798739E+02  0.41227738335E+02  0.32494331136E+01  0.47787268667E+02  0.19999989160E+02 0.  0.
         12    1    1    2    0    0  0.13165798739E+02 -0.41227738335E+02 -0.32494331136E+01  0.43400731333E+02  0.00000000000E+00 0. -1.
         11    1    3    3    0    0  0.51208434509E-01  0.12826638546E+02  0.10239329475E+01  0.12867545129E+02  0.51100000000E-03 0. -1.
        -11    1    3    3    0    0  0.10872164081E+01  0.14390982943E+02  0.35217168422E+01  0.14855467659E+02  0.51100000000E-03 0.  1.
         12    1    3    3    0    0 -0.14304223582E+02  0.14010116846E+02 -0.12962166761E+01  0.20064255880E+02  0.00000000000E+00 0. -1.
</event>
<event>
 7    1  0.2492468E-009  0.4778727E+02  0.7816164E-02  0.1312668E+00
        -11   -1    0    0    0    0  0.00000000000E+00  0.00000000000E+00  0.45593999997E+02  0.45594000000E+02  0.51100000000E-03 0.  1.
         11   -1    0    0    0    0 -0.00000000000E+00 -0.00000000000E+00 -0.45593999997E+02  0.45594000000E+02  0.51100000000E-03 0. -1.
    9900012    2    1    2    0    0  0.34466720853E+02 -0.14637789323E+02  0.21940905538E+02  0.47787273526E+02  0.20000011314E+02 0.  0.
         12    1    1    2    0    0 -0.34466720853E+02  0.14637789323E+02 -0.21940905538E+02  0.43400726474E+02  0.00000000000E+00 0. -1.
         11    1    3    3    0    0  0.13512693767E+02 -0.32496972478E+00  0.88043944946E+01  0.16131207669E+02  0.51100000000E-03 0. -1.
        -11    1    3    3    0    0  0.13111993074E+02 -0.55515266891E+01  0.13866395575E+02  0.19875128615E+02  0.51100000000E-03 0.  1.
         12    1    3    3    0    0  0.78420340116E+01 -0.87612929096E+01 -0.72988453074E+00  0.11780937243E+02  0.00000000000E+00 0. -1.
</event>
<event>
 7    1  0.2492468E-009  0.4778727E+02  0.7816164E-02  0.1312668E+00
        -11   -1    0    0    0    0  0.00000000000E+00  0.00000000000E+00  0.45593999997E+02  0.45594000000E+02  0.51100000000E-03 0.  1.
         11   -1    0    0    0    0 -0.00000000000E+00 -0.00000000000E+00 -0.45593999997E+02  0.45594000000E+02  0.51100000000E-03 0. -1.
    9900012    2    1    2    0    0  0.32535249158E+02 -0.25734452269E+02  0.12760044801E+02  0.47787271727E+02  0.20000003110E+02 0.  0.
         12    1    1    2    0    0 -0.32535249158E+02  0.25734452269E+02 -0.12760044801E+02  0.43400728273E+02  0.00000000000E+00 0. -1.
         11    1    3    3    0    0  0.50721615164E+01 -0.11693668103E+02  0.71540618621E+01  0.14616747160E+02  0.51100000000E-03 0. -1.
        -11    1    3    3    0    0  0.14128692292E+02 -0.12000720739E+02  0.65185088084E+01  0.19650145076E+02  0.51100000000E-03 0.  1.
         12    1    3    3    0    0  0.13334395349E+02 -0.20400634263E+01 -0.91252586922E+00  0.13520379491E+02  0.00000000000E+00 0. -1.
</event>
<event>
 7    1  0.2492468E-009  0.4778726E+02  0.7816164E-02  0.1312668E+00
        -11   -1    0    0    0    0  0.00000000000E+00  0.00000000000E+00  0.45593999997E+02  0.45594000000E+02  0.51100000000E-03 0.  1.
         11   -1    0    0    0    0 -0.00000000000E+00 -0.00000000000E+00 -0.45593999997E+02  0.45594000000E+02  0.51100000000E-03 0. -1.
    9900012    2    1    2    0    0  0.30737877633E+02 -0.18785575614E+02  0.24205562478E+02  0.47787260059E+02  0.19999949913E+02 0.  0.
         12    1    1    2    0    0 -0.30737877633E+02  0.18785575614E+02 -0.24205562478E+02  0.43400739941E+02  0.00000000000E+00 0. -1.
         11    1    3    3    0    0  0.77190285462E+01 -0.17013569096E+01 -0.18322046150E+01  0.81138764498E+01  0.51100000000E-03 0. -1.
        -11    1    3    3    0    0  0.31733034639E+01 -0.52619856284E+00  0.65724302499E+01  0.73173478427E+01  0.51100000000E-03 0.  1.
         12    1    3    3    0    0  0.19845545623E+02 -0.16558020142E+02  0.19465336843E+02  0.32356035766E+02  0.00000000000E+00 0. -1.
</event>
<event>
 7    1  0.2492468E-009  0.4778728E+02  0.7816164E-02  0.1312668E+00
        -11   -1    0    0    0    0  0.00000000000E+00  0.00000000000E+00  0.45593999997E+02  0.45594000000E+02  0.51100000000E-03 0.  1.
         11   -1    0    0    0    0 -0.00000000000E+00 -0.00000000000E+00 -0.45593999997E+02  0.45594000000E+02  0.51100000000E-03 0. -1.
    9900012    2    1    2    0    0 -0.10537573121E+02 -0.42095247608E+02 -0.75666318324E+00  0.47787275840E+02  0.20000021864E+02 0.  0.
         12    1    1    2    0    0  0.10537573121E+02  0.42095247608E+02  0.75666318324E+00  0.43400724160E+02  0.00000000000E+00 0. -1.
         11    1    3    3    0    0 -0.74371635568E+00  0.79388519711E+00 -0.22331532150E+01  0.24840171631E+01  0.51100000000E-03 0. -1.
        -11    1    3    3    0    0 -0.20693896385E+01 -0.10193065044E+02  0.49672619023E+01  0.11526258697E+02  0.51100000000E-03 0.  1.
        -12    1    3    3    0    0 -0.77244671270E+01 -0.32696067761E+02 -0.34907718705E+01  0.33776999980E+02  0.00000000000E+00 0.  1.
</event>
<event>
 7    1  0.2492468E-009  0.4778727E+02  0.7816164E-02  0.1312668E+00
        -11   -1    0    0    0    0  0.00000000000E+00  0.00000000000E+00  0.45593999997E+02  0.45594000000E+02  0.51100000000E-03 0.  1.
         11   -1    0    0    0    0 -0.00000000000E+00 -0.00000000000E+00 -0.45593999997E+02  0.45594000000E+02  0.51100000000E-03 0. -1.
    9900012    2    1    2    0    0  0.20517960127E+02  0.30219003686E+02  0.23440317579E+02  0.47787270055E+02  0.19999995489E+02 0.  0.
         12    1    1    2    0    0 -0.20517960127E+02 -0.30219003686E+02 -0.23440317579E+02  0.43400729945E+02  0.00000000000E+00 0. -1.
         11    1    3    3    0    0  0.11651169175E+02  0.15636021130E+02  0.95063882934E+01  0.21693462577E+02  0.51100000000E-03 0. -1.
        -11    1    3    3    0    0  0.94778675267E+01  0.16634510133E+02  0.99622858287E+01  0.21582030475E+02  0.51100000000E-03 0.  1.
        -12    1    3    3    0    0 -0.61107657525E+00 -0.20515275768E+01  0.39716434571E+01  0.45117770035E+01  0.00000000000E+00 0.  1.
</event>
<event>
 7    1  0.2492468E-009  0.4778727E+02  0.7816164E-02  0.1312668E+00
        -11   -1    0    0    0    0  0.00000000000E+00  0.00000000000E+00  0.45593999997E+02  0.45594000000E+02  0.51100000000E-03 0.  1.
         11   -1    0    0    0    0 -0.00000000000E+00 -0.00000000000E+00 -0.45593999997E+02  0.45594000000E+02  0.51100000000E-03 0. -1.
    9900012    2    1    2    0    0 -0.28916357796E+02  0.31410712186E+02  0.77996552441E+01  0.47787271779E+02  0.20000003348E+02 0.  0.
         12    1    1    2    0    0  0.28916357796E+02 -0.31410712186E+02 -0.77996552441E+01  0.43400728221E+02  0.00000000000E+00 0. -1.
         11    1    3    3    0    0  0.12091854724E+01  0.38287334677E+01 -0.20561124669E+00  0.40203987015E+01  0.51100000000E-03 0. -1.
        -11    1    3    3    0    0 -0.47555615091E+01  0.49087364395E+01  0.69174711119E+01  0.97243233978E+01  0.51100000000E-03 0.  1.
        -12    1    3    3    0    0 -0.25369981759E+02  0.22673242279E+02  0.10877953789E+01  0.34042549680E+02  0.00000000000E+00 0.  1.
</event>
<event>
 7    1  0.2492468E-009  0.4778727E+02  0.7816164E-02  0.1312668E+00
        -11   -1    0    0    0    0  0.00000000000E+00  0.00000000000E+00  0.45593999997E+02  0.45594000000E+02  0.51100000000E-03 0. -1.
         11   -1    0    0    0    0 -0.00000000000E+00 -0.00000000000E+00 -0.45593999997E+02  0.45594000000E+02  0.51100000000E-03 0.  1.
    9900012    2    1    2    0    0  0.19288245889E+02 -0.99119383983E+01 -0.37594422935E+02  0.47787267425E+02  0.19999983496E+02 0.  0.
         12    1    1    2    0    0 -0.19288245889E+02  0.99119383983E+01  0.37594422935E+02  0.43400732575E+02  0.00000000000E+00 0. -1.
         11    1    3    3    0    0  0.82796801904E+01 -0.66145055917E+01 -0.13980646382E+02  0.17543182773E+02  0.51100000000E-03 0.  1.
        -11    1    3    3    0    0 -0.44146898572E+00 -0.32466720598E+01 -0.16370655849E+02  0.16695333106E+02  0.51100000000E-03 0. -1.
         12    1    3    3    0    0  0.11450034684E+02 -0.50760746736E-01 -0.72431207031E+01  0.13548751545E+02  0.00000000000E+00 0. -1.
</event>
<event>
 7    1  0.2492468E-009  0.4778727E+02  0.7816164E-02  0.1312668E+00
        -11   -1    0    0    0    0  0.00000000000E+00  0.00000000000E+00  0.45593999997E+02  0.45594000000E+02  0.51100000000E-03 0.  1.
         11   -1    0    0    0    0 -0.00000000000E+00 -0.00000000000E+00 -0.45593999997E+02  0.45594000000E+02  0.51100000000E-03 0. -1.
    9900012    2    1    2    0    0  0.17990745100E+02  0.39015248090E+02  0.61454797759E+01  0.47787269424E+02  0.19999992614E+02 0.  0.
         12    1    1    2    0    0 -0.17990745100E+02 -0.39015248090E+02 -0.61454797759E+01  0.43400730576E+02  0.00000000000E+00 0. -1.
         11    1    3    3    0    0  0.34323383991E+01  0.12561344890E+02 -0.47026700172E+01  0.13844978796E+02  0.51100000000E-03 0. -1.
        -11    1    3    3    0    0  0.92374709225E+01  0.22673751675E+02  0.46096907938E+01  0.24913432793E+02  0.51100000000E-03 0.  1.
         12    1    3    3    0    0  0.53209357788E+01  0.37801515261E+01  0.62384589994E+01  0.90288578352E+01  0.00000000000E+00 0. -1.
</event>
<event>
 7    1  0.2492468E-009  0.4778727E+02  0.7816164E-02  0.1312668E+00
        -11   -1    0    0    0    0  0.00000000000E+00  0.00000000000E+00  0.45593999997E+02  0.45594000000E+02  0.51100000000E-03 0. -1.
         11   -1    0    0    0    0 -0.00000000000E+00 -0.00000000000E+00 -0.45593999997E+02  0.45594000000E+02  0.51100000000E-03 0.  1.
    9900012    2    1    2    0    0 -0.40363208518E+02  0.14550990071E+02  0.65347750985E+01  0.47787271901E+02  0.20000003907E+02 0.  0.
         12    1    1    2    0    0  0.40363208518E+02 -0.14550990071E+02 -0.65347750985E+01  0.43400728099E+02  0.00000000000E+00 0. -1.
         11    1    3    3    0    0 -0.15442041115E+02  0.55949961861E+01  0.56763422813E+01  0.17377614280E+02  0.51100000000E-03 0. -1.
        -11    1    3    3    0    0 -0.25135366305E+02  0.73148542763E+01  0.43580674913E+01  0.26538396427E+02  0.51100000000E-03 0.  1.
        -12    1    3    3    0    0  0.21419890211E+00  0.16411396083E+01 -0.34996346741E+01  0.38712611945E+01  0.00000000000E+00 0.  1.
</event>
<event>
 7    1  0.2492468E-009  0.4778727E+02  0.7816164E-02  0.1312668E+00
        -11   -1    0    0    0    0  0.00000000000E+00  0.00000000000E+00  0.45593999997E+02  0.45594000000E+02  0.51100000000E-03 0.  1.
         11   -1    0    0    0    0 -0.00000000000E+00 -0.00000000000E+00 -0.45593999997E+02  0.45594000000E+02  0.51100000000E-03 0. -1.
    9900012    2    1    2    0    0  0.47770307222E+01  0.34151919666E+02  0.26352408802E+02  0.47787273174E+02  0.20000009707E+02 0.  0.
         12    1    1    2    0    0 -0.47770307222E+01 -0.34151919666E+02 -0.26352408802E+02  0.43400726826E+02  0.00000000000E+00 0. -1.
         11    1    3    3    0    0  0.36449802445E+01  0.62189703289E+01  0.54026102968E+01  0.90083112299E+01  0.51100000000E-03 0. -1.
        -11    1    3    3    0    0 -0.91630403605E+00  0.71395662412E+01 -0.22650895168E+01  0.75461016412E+01  0.51100000000E-03 0.  1.
        -12    1    3    3    0    0  0.20483545138E+01  0.20793383096E+02  0.23214888022E+02  0.31232860302E+02  0.00000000000E+00 0.  1.
</event>
<event>
 7    1  0.2492468E-009  0.4778726E+02  0.7816164E-02  0.1312668E+00
        -11   -1    0    0    0    0  0.00000000000E+00  0.00000000000E+00  0.45593999997E+02  0.45594000000E+02  0.51100000000E-03 0.  1.
         11   -1    0    0    0    0 -0.00000000000E+00 -0.00000000000E+00 -0.45593999997E+02  0.45594000000E+02  0.51100000000E-03 0. -1.
    9900012    2    1    2    0    0 -0.20185204352E+02 -0.12684158527E+02  0.36266980093E+02  0.47787260406E+02  0.19999951495E+02 0.  0.
         12    1    1    2    0    0  0.20185204352E+02  0.12684158527E+02 -0.36266980093E+02  0.43400739594E+02  0.00000000000E+00 0. -1.
         11    1    3    3    0    0 -0.17413094703E+01 -0.12328092582E+01 -0.16005822616E+01  0.26671785047E+01  0.51100000000E-03 0. -1.
        -11    1    3    3    0    0 -0.81055047989E+01 -0.26291344183E+01  0.24968137928E+02  0.26382180875E+02  0.51100000000E-03 0.  1.
         12    1    3    3    0    0 -0.10338390082E+02 -0.88222148508E+01  0.12899424426E+02  0.18737901027E+02  0.00000000000E+00 0. -1.
</event>
<event>
 7    1  0.2492468E-009  0.4778727E+02  0.7816164E-02  0.1312668E+00
        -11   -1    0    0    0    0  0.00000000000E+00  0.00000000000E+00  0.45593999997E+02  0.45594000000E+02  0.51100000000E-03 0.  1.
         11   -1    0    0    0    0 -0.00000000000E+00 -0.00000000000E+00 -0.45593999997E+02  0.45594000000E+02  0.51100000000E-03 0. -1.
    9900012    2    1    2    0    0 -0.16765077299E+01  0.21927393441E+01  0.43312868957E+02  0.47787269576E+02  0.19999993306E+02 0.  0.
         12    1    1    2    0    0  0.16765077299E+01 -0.21927393441E+01 -0.43312868957E+02  0.43400730424E+02  0.00000000000E+00 0. -1.
         11    1    3    3    0    0  0.12799429230E+01  0.16473639861E+01 -0.42017287971E+00  0.21280525132E+01  0.51100000000E-03 0. -1.
        -11    1    3    3    0    0  0.37192051027E+01 -0.22675399059E+01  0.72018391203E+01  0.84166923905E+01  0.51100000000E-03 0.  1.
         12    1    3    3    0    0 -0.66756557555E+01  0.28129152639E+01  0.36531202717E+02  0.37242524673E+02  0.00000000000E+00 0. -1.
</event>
<event>
 7    1  0.2492468E-009  0.4778726E+02  0.7816164E-02  0.1312668E+00
        -11   -1    0    0    0    0  0.00000000000E+00  0.00000000000E+00  0.45593999997E+02  0.45594000000E+02  0.51100000000E-03 0.  1.
         11   -1    0    0    0    0 -0.00000000000E+00 -0.00000000000E+00 -0.45593999997E+02  0.45594000000E+02  0.51100000000E-03 0. -1.
    9900012    2    1    2    0    0  0.23750203944E+02 -0.11501542174E+02  0.34456729168E+02  0.47787264468E+02  0.19999970015E+02 0.  0.
         12    1    1    2    0    0 -0.23750203944E+02  0.11501542174E+02 -0.34456729168E+02  0.43400735532E+02  0.00000000000E+00 0. -1.
         11    1    3    3    0    0  0.32447580036E+01  0.36109572391E+01  0.48074955114E+01  0.68322382890E+01  0.51100000000E-03 0. -1.
        -11    1    3    3    0    0  0.12642955546E+02 -0.17769810352E+01  0.13014577009E+02  0.18231324733E+02  0.51100000000E-03 0.  1.
         12    1    3    3    0    0  0.78624903946E+01 -0.13335518378E+02  0.16634656648E+02  0.22723701446E+02  0.00000000000E+00 0. -1.
</event>
<event>
 7    1  0.2492468E-009  0.4778727E+02  0.7816164E-02  0.1312668E+00
        -11   -1    0    0    0    0  0.00000000000E+00  0.00000000000E+00  0.45593999997E+02  0.45594000000E+02  0.51100000000E-03 0. -1.
         11   -1    0    0    0    0 -0.00000000000E+00 -0.00000000000E+00 -0.45593999997E+02  0.45594000000E+02  0.51100000000E-03 0.  1.
    9900012    2    1    2    0    0  0.36909672630E+02 -0.21257084680E+02 -0.83328017904E+01  0.47787272260E+02  0.20000005542E+02 0.  0.
         12    1    1    2    0    0 -0.36909672630E+02  0.21257084680E+02  0.83328017904E+01  0.43400727740E+02  0.00000000000E+00 0. -1.
         11    1    3    3    0    0  0.16543818997E+02 -0.15795621394E+02 -0.56065400043E+01  0.23550645284E+02  0.51100000000E-03 0. -1.
        -11    1    3    3    0    0  0.11236687907E+02 -0.23714666994E+01 -0.72589926109E+01  0.13586021618E+02  0.51100000000E-03 0.  1.
         12    1    3    3    0    0  0.91291657262E+01 -0.30899965863E+01  0.45327308248E+01  0.10650605358E+02  0.00000000000E+00 0. -1.
</event>
<event>
 7    1  0.2492468E-009  0.4778727E+02  0.7816164E-02  0.1312668E+00
        -11   -1    0    0    0    0  0.00000000000E+00  0.00000000000E+00  0.45593999997E+02  0.45594000000E+02  0.51100000000E-03 0.  1.
         11   -1    0    0    0    0 -0.00000000000E+00 -0.00000000000E+00 -0.45593999997E+02  0.45594000000E+02  0.51100000000E-03 0. -1.
    9900012    2    1    2    0    0 -0.31301403570E+02 -0.28266140340E+02  0.10240639619E+02  0.47787271262E+02  0.20000000991E+02 0.  0.
         12    1    1    2    0    0  0.31301403570E+02  0.28266140340E+02 -0.10240639619E+02  0.43400728738E+02  0.00000000000E+00 0. -1.
         11    1    3    3    0    0  0.12238109399E+01 -0.31582834916E+01  0.76757432637E+00  0.34729869619E+01  0.51100000000E-03 0. -1.
        -11    1    3    3    0    0 -0.16775325973E+01  0.16381638245E+01  0.12833432221E+01  0.26729508820E+01  0.51100000000E-03 0.  1.
        -12    1    3    3    0    0 -0.30847681913E+02 -0.26746020673E+02  0.81897220710E+01  0.41641333418E+02  0.00000000000E+00 0.  1.
</event>
<event>
 7    1  0.2492468E-009  0.4778727E+02  0.7816164E-02  0.1312668E+00
        -11   -1    0    0    0    0  0.00000000000E+00  0.00000000000E+00  0.45593999997E+02  0.45594000000E+02  0.51100000000E-03 0. -1.
         11   -1    0    0    0    0 -0.00000000000E+00 -0.00000000000E+00 -0.45593999997E+02  0.45594000000E+02  0.51100000000E-03 0.  1.
    9900012    2    1    2    0    0  0.24727412227E+02 -0.32861418823E+01 -0.35515902536E+02  0.47787274466E+02  0.20000015600E+02 0.  0.
         12    1    1    2    0    0 -0.24727412227E+02  0.32861418823E+01  0.35515902536E+02  0.43400725534E+02  0.00000000000E+00 0. -1.
         11    1    3    3    0    0  0.25329595985E+01 -0.12722351215E+01 -0.13194582361E+02  0.13495609304E+02  0.51100000000E-03 0. -1.
        -11    1    3    3    0    0  0.14799589668E+02 -0.66571076763E+01 -0.18906660406E+02  0.24915993757E+02  0.51100000000E-03 0.  1.
         12    1    3    3    0    0  0.73948629611E+01  0.46432009154E+01 -0.34146597690E+01  0.93756714049E+01  0.00000000000E+00 0. -1.
</event>
<event>
 7    1  0.2492468E-009  0.4778727E+02  0.7816164E-02  0.1312668E+00
        -11   -1    0    0    0    0  0.00000000000E+00  0.00000000000E+00  0.45593999997E+02  0.45594000000E+02  0.51100000000E-03 0.  1.
         11   -1    0    0    0    0 -0.00000000000E+00 -0.00000000000E+00 -0.45593999997E+02  0.45594000000E+02  0.51100000000E-03 0. -1.
    9900012    2    1    2    0    0 -0.40591485803E+02 -0.63914740848E+01  0.13967957011E+02  0.47787268627E+02  0.19999988977E+02 0.  0.
         12    1    1    2    0    0  0.40591485803E+02  0.63914740848E+01 -0.13967957011E+02  0.43400731373E+02  0.00000000000E+00 0. -1.
         11    1    3    3    0    0 -0.96667531292E+01 -0.10256574092E+02  0.64663821965E+01  0.15506692979E+02  0.51100000000E-03 0. -1.
        -11    1    3    3    0    0 -0.82846169945E+01  0.48516124856E+00  0.36574498603E+01  0.90690241991E+01  0.51100000000E-03 0.  1.
        -12    1    3    3    0    0 -0.22640115679E+02  0.33799387590E+01  0.38441249543E+01  0.23211551449E+02  0.00000000000E+00 0.  1.
</event>
<event>
 7    1  0.2492468E-009  0.4778727E+02  0.7816164E-02  0.1312668E+00
        -11   -1    0    0    0    0  0.00000000000E+00  0.00000000000E+00  0.45593999997E+02  0.45594000000E+02  0.51100000000E-03 0.  1.
         11   -1    0    0    0    0 -0.00000000000E+00 -0.00000000000E+00 -0.45593999997E+02  0.45594000000E+02  0.51100000000E-03 0. -1.
    9900012    2    1    2    0    0 -0.47648922189E+01  0.17420813776E+02  0.39464340963E+02  0.47787272378E+02  0.20000006078E+02 0.  0.
         12    1    1    2    0    0  0.47648922189E+01 -0.17420813776E+02 -0.39464340963E+02  0.43400727622E+02  0.00000000000E+00 0. -1.
         11    1    3    3    0    0 -0.35613246670E+01 -0.80645449106E+00  0.14816010182E+01  0.39406273699E+01  0.51100000000E-03 0. -1.
        -11    1    3    3    0    0  0.14721178668E+01 -0.31882787748E+00  0.14511914354E-01  0.15063177242E+01  0.51100000000E-03 0.  1.
        -12    1    3    3    0    0 -0.26756854187E+01  0.18546096145E+02  0.37968228031E+02  0.42340327284E+02  0.00000000000E+00 0.  1.
</event>
<event>
 7    1  0.2492468E-009  0.4778728E+02  0.7816164E-02  0.1312668E+00
        -11   -1    0    0    0    0  0.00000000000E+00  0.00000000000E+00  0.45593999997E+02  0.45594000000E+02  0.51100000000E-03 0.  1.
         11   -1    0    0    0    0 -0.00000000000E+00 -0.00000000000E+00 -0.45593999997E+02  0.45594000000E+02  0.51100000000E-03 0. -1.
    9900012    2    1    2    0    0 -0.39666576608E+02  0.16412148296E+02  0.63896016893E+01  0.47787275107E+02  0.20000018524E+02 0.  0.
         12    1    1    2    0    0  0.39666576608E+02 -0.16412148296E+02 -0.63896016893E+01  0.43400724893E+02  0.00000000000E+00 0. -1.
         11    1    3    3    0    0 -0.17125147311E+02  0.13043890700E+02  0.39000391145E+01  0.21877478382E+02  0.51100000000E-03 0. -1.
        -11    1    3    3    0    0 -0.12311648080E+01  0.23206608107E+00  0.41220329164E+01  0.43082220318E+01  0.51100000000E-03 0.  1.
        -12    1    3    3    0    0 -0.21310264489E+02  0.31361915148E+01 -0.16324703415E+01  0.21601574693E+02  0.00000000000E+00 0.  1.
</event>
<event>
 7    1  0.2492468E-009  0.4778727E+02  0.7816164E-02  0.1312668E+00
        -11   -1    0    0    0    0  0.00000000000E+00  0.00000000000E+00  0.45593999997E+02  0.45594000000E+02  0.51100000000E-03 0. -1.
         11   -1    0    0    0    0 -0.00000000000E+00 -0.00000000000E+00 -0.45593999997E+02  0.45594000000E+02  0.51100000000E-03 0.  1.
    9900012    2    1    2    0    0 -0.35683317681E+02 -0.23359974826E+02  0.80396286386E+01  0.47787271743E+02  0.20000003184E+02 0.  0.
         12    1    1    2    0    0  0.35683317681E+02  0.23359974826E+02 -0.80396286386E+01  0.43400728257E+02  0.00000000000E+00 0. -1.
         11    1    3    3    0    0 -0.51244777548E+01 -0.30360602001E+01 -0.14576894899E+00  0.59581190527E+01  0.51100000000E-03 0. -1.
        -11    1    3    3    0    0 -0.21710824823E+02 -0.61523344475E+01 -0.13257385490E+01  0.22604617153E+02  0.51100000000E-03 0.  1.
         12    1    3    3    0    0 -0.88480151030E+01 -0.14171580179E+02  0.95111361366E+01  0.19224535538E+02  0.00000000000E+00 0. -1.
</event>
<event>
 7    1  0.2492468E-009  0.4778727E+02  0.7816164E-02  0.1312668E+00
        -11   -1    0    0    0    0  0.00000000000E+00  0.00000000000E+00  0.45593999997E+02  0.45594000000E+02  0.51100000000E-03 0.  1.
         11   -1    0    0    0    0 -0.00000000000E+00 -0.00000000000E+00 -0.45593999997E+02  0.45594000000E+02  0.51100000000E-03 0. -1.
    9900012    2    1    2    0    0 -0.17459982918E+02  0.15955397292E+02  0.36389525230E+02  0.47787271288E+02  0.20000001112E+02 0.  0.
         12    1    1    2    0    0  0.17459982918E+02 -0.15955397292E+02 -0.36389525230E+02  0.43400728712E+02  0.00000000000E+00 0. -1.
         11    1    3    3    0    0 -0.10722617162E+02  0.33358814243E+01  0.45238057956E+01  0.12106504154E+02  0.51100000000E-03 0. -1.
        -11    1    3    3    0    0  0.12992195347E+01  0.49426509303E+00  0.41954048542E+01  0.44196936017E+01  0.51100000000E-03 0.  1.
        -12    1    3    3    0    0 -0.80365852906E+01  0.12125250775E+02  0.27670314580E+02  0.31261073533E+02  0.00000000000E+00 0.  1.
</event>
<event>
 7    1  0.2492468E-009  0.4778725E+02  0.7816164E-02  0.1312668E+00
        -11   -1    0    0    0    0  0.00000000000E+00  0.00000000000E+00  0.45593999997E+02  0.45594000000E+02  0.51100000000E-03 0.  1.
         11   -1    0    0    0    0 -0.00000000000E+00 -0.00000000000E+00 -0.45593999997E+02  0.45594000000E+02  0.51100000000E-03 0. -1.
    9900012    2    1    2    0    0 -0.36398627051E+02 -0.21296960471E+02  0.10256917116E+02  0.47787252020E+02  0.19999913260E+02 0.  0.
         12    1    1    2    0    0  0.36398627051E+02  0.21296960471E+02 -0.10256917116E+02  0.43400747980E+02  0.00000000000E+00 0. -1.
         11    1    3    3    0    0 -0.12650069478E+01  0.25648342796E+01  0.28703774776E+01  0.40518742065E+01  0.51100000000E-03 0. -1.
        -11    1    3    3    0    0 -0.11552358671E+02 -0.65299087087E+01  0.56365011323E+01  0.14417588005E+02  0.51100000000E-03 0.  1.
        -12    1    3    3    0    0 -0.23581261432E+02 -0.17331886042E+02  0.17500385062E+01  0.29317789809E+02  0.00000000000E+00 0.  1.
</event>
<event>
 7    1  0.2492468E-009  0.4778727E+02  0.7816164E-02  0.1312668E+00
        -11   -1    0    0    0    0  0.00000000000E+00  0.00000000000E+00  0.45593999997E+02  0.45594000000E+02  0.51100000000E-03 0.  1.
         11   -1    0    0    0    0 -0.00000000000E+00 -0.00000000000E+00 -0.45593999997E+02  0.45594000000E+02  0.51100000000E-03 0. -1.
    9900012    2    1    2    0    0  0.12423528823E+02 -0.30952762231E+02  0.27770586679E+02  0.47787273708E+02  0.20000012145E+02 0.  0.
         12    1    1    2    0    0 -0.12423528823E+02  0.30952762231E+02 -0.27770586679E+02  0.43400726292E+02  0.00000000000E+00 0. -1.
         11    1    3    3    0    0  0.13676416961E+01 -0.16104544643E+01 -0.45723315313E+00  0.21617284307E+01  0.51100000000E-03 0. -1.
        -11    1    3    3    0    0  0.62748861668E+01 -0.29076896695E+02  0.19194352672E+02  0.35401458904E+02  0.51100000000E-03 0.  1.
        -12    1    3    3    0    0  0.47810009606E+01 -0.26541107168E+00  0.90334671605E+01  0.10224086373E+02  0.00000000000E+00 0.  1.
</event>
<event>
 7    1  0.2492468E-009  0.4778727E+02  0.7816164E-02  0.1312668E+00
        -11   -1    0    0    0    0  0.00000000000E+00  0.00000000000E+00  0.45593999997E+02  0.45594000000E+02  0.51100000000E-03 0.  1.
         11   -1    0    0    0    0 -0.00000000000E+00 -0.00000000000E+00 -0.45593999997E+02  0.45594000000E+02  0.51100000000E-03 0. -1.
    9900012    2    1    2    0    0 -0.11162987203E+01  0.30576913956E+02  0.30780343507E+02  0.47787270325E+02  0.19999996720E+02 0.  0.
         12    1    1    2    0    0  0.11162987203E+01 -0.30576913956E+02 -0.30780343507E+02  0.43400729675E+02  0.00000000000E+00 0. -1.
         11    1    3    3    0    0 -0.50906058342E+01  0.71819559913E+01  0.14549746566E+02  0.17005583936E+02  0.51100000000E-03 0. -1.
        -11    1    3    3    0    0  0.68806124309E+01  0.96481395896E+01  0.95711347610E+01  0.15232729428E+02  0.51100000000E-03 0.  1.
         12    1    3    3    0    0 -0.29063053170E+01  0.13746818375E+02  0.66594621803E+01  0.15548956960E+02  0.00000000000E+00 0. -1.
</event>
<event>
 7    1  0.2492468E-009  0.4778728E+02  0.7816164E-02  0.1312668E+00
        -11   -1    0    0    0    0  0.00000000000E+00  0.00000000000E+00  0.45593999997E+02  0.45594000000E+02  0.51100000000E-03 0. -1.
         11   -1    0    0    0    0 -0.00000000000E+00 -0.00000000000E+00 -0.45593999997E+02  0.45594000000E+02  0.51100000000E-03 0.  1.
    9900012    2    1    2    0    0 -0.10995243217E+02  0.19944394822E+02 -0.36945210678E+02  0.47787275925E+02  0.20000022252E+02 0.  0.
         12    1    1    2    0    0  0.10995243217E+02 -0.19944394822E+02  0.36945210678E+02  0.43400724075E+02  0.00000000000E+00 0. -1.
         11    1    3    3    0    0 -0.48289116004E+01  0.14406113494E+02 -0.19955777850E+02  0.25081618032E+02  0.51100000000E-03 0. -1.
        -11    1    3    3    0    0  0.16636477658E+01  0.62767300253E+01 -0.43388698904E+01  0.78096642621E+01  0.51100000000E-03 0.  1.
         12    1    3    3    0    0 -0.78299793823E+01 -0.73844869801E+00 -0.12650562938E+02  0.14895993631E+02  0.00000000000E+00 0. -1.
</event>
<event>
 7    1  0.2492468E-009  0.4778727E+02  0.7816164E-02  0.1312668E+00
        -11   -1    0    0    0    0  0.00000000000E+00  0.00000000000E+00  0.45593999997E+02  0.45594000000E+02  0.51100000000E-03 0.  1.
         11   -1    0    0    0    0 -0.00000000000E+00 -0.00000000000E+00 -0.45593999997E+02  0.45594000000E+02  0.51100000000E-03 0. -1.
    9900012    2    1    2    0    0  0.26090524812E+02  0.34517052943E+02 -0.33883388543E+01  0.47787271100E+02  0.20000000254E+02 0.  0.
         12    1    1    2    0    0 -0.26090524812E+02 -0.34517052943E+02  0.33883388543E+01  0.43400728900E+02  0.00000000000E+00 0. -1.
         11    1    3    3    0    0  0.13299352828E+02  0.13458138311E+02  0.33360624777E+01  0.19212589247E+02  0.51100000000E-03 0. -1.
        -11    1    3    3    0    0  0.13183271857E+02  0.18667610015E+02 -0.16037644875E+01  0.22909613295E+02  0.51100000000E-03 0.  1.
        -12    1    3    3    0    0 -0.39209987272E+00  0.23913046166E+01 -0.51206368445E+01  0.56650685586E+01  0.00000000000E+00 0.  1.
</event>
<event>
 7    1  0.2492468E-009  0.4778727E+02  0.7816164E-02  0.1312668E+00
        -11   -1    0    0    0    0  0.00000000000E+00  0.00000000000E+00  0.45593999997E+02  0.45594000000E+02  0.51100000000E-03 0. -1.
         11   -1    0    0    0    0 -0.00000000000E+00 -0.00000000000E+00 -0.45593999997E+02  0.45594000000E+02  0.51100000000E-03 0.  1.
    9900012    2    1    2    0    0 -0.80806152460E+00  0.33607112973E+02 -0.27450538187E+02  0.47787273594E+02  0.20000011625E+02 0.  0.
         12    1    1    2    0    0  0.80806152460E+00 -0.33607112973E+02  0.27450538187E+02  0.43400726406E+02  0.00000000000E+00 0. -1.
         11    1    3    3    0    0 -0.29453001836E+01  0.40697706042E+01  0.60820800791E+00  0.50604093890E+01  0.51100000000E-03 0. -1.
        -11    1    3    3    0    0 -0.22893822146E+01  0.70359165094E+01 -0.13980331398E+02  0.15817555383E+02  0.51100000000E-03 0.  1.
        -12    1    3    3    0    0  0.44266208736E+01  0.22501425860E+02 -0.14078414797E+02  0.26909308822E+02  0.00000000000E+00 0.  1.
</event>
<event>
 7    1  0.2492468E-009  0.4778727E+02  0.7816164E-02  0.1312668E+00
        -11   -1    0    0    0    0  0.00000000000E+00  0.00000000000E+00  0.45593999997E+02  0.45594000000E+02  0.51100000000E-03 0.  1.
         11   -1    0    0    0    0 -0.00000000000E+00 -0.00000000000E+00 -0.45593999997E+02  0.45594000000E+02  0.51100000000E-03 0. -1.
    9900012    2    1    2    0    0 -0.29097883083E+02  0.32757517128E+01  0.32034449004E+02  0.47787271064E+02  0.20000000089E+02 0.  0.
         12    1    1    2    0    0  0.29097883083E+02 -0.32757517128E+01 -0.32034449004E+02  0.43400728936E+02  0.00000000000E+00 0. -1.
         11    1    3    3    0    0 -0.52797807390E+01  0.37966947356E+01  0.34917891346E+01  0.73812984758E+01  0.51100000000E-03 0.  1.
        -11    1    3    3    0    0  0.75576455014E+00 -0.68637632064E+00  0.88661900301E+01  0.89247755389E+01  0.51100000000E-03 0. -1.
        -12    1    3    3    0    0 -0.24573866894E+02  0.16543329778E+00  0.19676469839E+02  0.31481197049E+02  0.00000000000E+00 0.  1.
</event>
<event>
 7    1  0.2492468E-009  0.4778729E+02  0.7816164E-02  0.1312668E+00
        -11   -1    0    0    0    0  0.00000000000E+00  0.00000000000E+00  0.45593999997E+02  0.45594000000E+02  0.51100000000E-03 0. -1.
         11   -1    0    0    0    0 -0.00000000000E+00 -0.00000000000E+00 -0.45593999997E+02  0.45594000000E+02  0.51100000000E-03 0.  1.
    9900012    2    1    2    0    0  0.15648907391E+02  0.23938257712E+02 -0.32644957118E+02  0.47787289060E+02  0.20000082141E+02 0.  0.
         12    1    1    2    0    0 -0.15648907391E+02 -0.23938257712E+02  0.32644957118E+02  0.43400710940E+02  0.00000000000E+00 0. -1.
         11    1    3    3    0    0  0.37344605861E+00  0.84625865806E+00  0.71010468534E+00  0.11661323254E+01  0.51100000000E-03 0. -1.
        -11    1    3    3    0    0  0.18781682419E+01  0.15062519672E+02 -0.24052115154E+02  0.28441365271E+02  0.51100000000E-03 0.  1.
        -12    1    3    3    0    0  0.13397293091E+02  0.80294793820E+01 -0.93029466491E+01  0.18179791464E+02  0.00000000000E+00 0.  1.
</event>
<event>
 7    1  0.2492468E-009  0.4778727E+02  0.7816164E-02  0.1312668E+00
        -11   -1    0    0    0    0  0.00000000000E+00  0.00000000000E+00  0.45593999997E+02  0.45594000000E+02  0.51100000000E-03 0.  1.
         11   -1    0    0    0    0 -0.00000000000E+00 -0.00000000000E+00 -0.45593999997E+02  0.45594000000E+02  0.51100000000E-03 0. -1.
    9900012    2    1    2    0    0 -0.11845609138E+02 -0.37230849144E+02  0.18898900055E+02  0.47787274117E+02  0.20000014009E+02 0.  0.
         12    1    1    2    0    0  0.11845609138E+02  0.37230849144E+02 -0.18898900055E+02  0.43400725883E+02  0.00000000000E+00 0. -1.
         11    1    3    3    0    0 -0.89874030494E+01 -0.30693735841E+02  0.60127796301E+01  0.32542777272E+02  0.51100000000E-03 0. -1.
        -11    1    3    3    0    0 -0.20864722496E+01 -0.41311211217E+01  0.43840346303E+01  0.63748951420E+01  0.51100000000E-03 0.  1.
         12    1    3    3    0    0 -0.77173383902E+00 -0.24059921815E+01  0.85020857951E+01  0.88696017026E+01  0.00000000000E+00 0. -1.
</event>
<event>
 7    1  0.2492468E-009  0.4778728E+02  0.7816164E-02  0.1312668E+00
        -11   -1    0    0    0    0  0.00000000000E+00  0.00000000000E+00  0.45593999997E+02  0.45594000000E+02  0.51100000000E-03 0.  1.
         11   -1    0    0    0    0 -0.00000000000E+00 -0.00000000000E+00 -0.45593999997E+02  0.45594000000E+02  0.51100000000E-03 0. -1.
    9900012    2    1    2    0    0 -0.88944192751E+01 -0.11265193739E+01  0.42464601179E+02  0.47787284644E+02  0.20000062004E+02 0.  0.
         12    1    1    2    0    0  0.88944192751E+01  0.11265193739E+01 -0.42464601179E+02  0.43400715356E+02  0.00000000000E+00 0. -1.
         11    1    3    3    0    0 -0.38594588486E+01 -0.60483418511E+00  0.25127854356E+02  0.25429713168E+02  0.51100000000E-03 0. -1.
        -11    1    3    3    0    0 -0.43914409263E+01 -0.60764745663E+01  0.13902732747E+02  0.15795387765E+02  0.51100000000E-03 0.  1.
         12    1    3    3    0    0 -0.64351950021E+00  0.55547893774E+01  0.34340140766E+01  0.65621837107E+01  0.00000000000E+00 0. -1.
</event>
<event>
 7    1  0.2492468E-009  0.4778727E+02  0.7816164E-02  0.1312668E+00
        -11   -1    0    0    0    0  0.00000000000E+00  0.00000000000E+00  0.45593999997E+02  0.45594000000E+02  0.51100000000E-03 0.  1.
         11   -1    0    0    0    0 -0.00000000000E+00 -0.00000000000E+00 -0.45593999997E+02  0.45594000000E+02  0.51100000000E-03 0. -1.
    9900012    2    1    2    0    0  0.62248216429E+01  0.17367458585E+02  0.39284175385E+02  0.47787268925E+02  0.19999990336E+02 0.  0.
         12    1    1    2    0    0 -0.62248216429E+01 -0.17367458585E+02 -0.39284175385E+02  0.43400731075E+02  0.00000000000E+00 0. -1.
         11    1    3    3    0    0  0.51922883621E+01  0.94320907383E+01  0.78393549771E+01  0.13318396332E+02  0.51100000000E-03 0. -1.
        -11    1    3    3    0    0 -0.21187063212E+01  0.10047615846E+02  0.24267885018E+02  0.26350972358E+02  0.51100000000E-03 0.  1.
         12    1    3    3    0    0  0.31512396019E+01 -0.21122480001E+01  0.71769353898E+01  0.81179002354E+01  0.00000000000E+00 0. -1.
</event>
<event>
 7    1  0.2492468E-009  0.4778727E+02  0.7816164E-02  0.1312668E+00
        -11   -1    0    0    0    0  0.00000000000E+00  0.00000000000E+00  0.45593999997E+02  0.45594000000E+02  0.51100000000E-03 0. -1.
         11   -1    0    0    0    0 -0.00000000000E+00 -0.00000000000E+00 -0.45593999997E+02  0.45594000000E+02  0.51100000000E-03 0.  1.
    9900012    2    1    2    0    0  0.34155804567E+02  0.24164819801E+01 -0.26667673975E+02  0.47787271826E+02  0.20000003563E+02 0.  0.
         12    1    1    2    0    0 -0.34155804567E+02 -0.24164819801E+01  0.26667673975E+02  0.43400728174E+02  0.00000000000E+00 0. -1.
         11    1    3    3    0    0  0.97234124931E+01 -0.26819876425E+01 -0.63005695666E+01  0.11892644170E+02  0.51100000000E-03 0. -1.
        -11    1    3    3    0    0  0.25644878170E+02  0.72131832765E+01 -0.20234593385E+02  0.33453378889E+02  0.51100000000E-03 0.  1.
         12    1    3    3    0    0 -0.12124860962E+01 -0.21147136539E+01 -0.13251102332E+00  0.24412487671E+01  0.00000000000E+00 0. -1.
</event>
<event>
 7    1  0.2492468E-009  0.4778728E+02  0.7816164E-02  0.1312668E+00
        -11   -1    0    0    0    0  0.00000000000E+00  0.00000000000E+00  0.45593999997E+02  0.45594000000E+02  0.51100000000E-03 0.  1.
         11   -1    0    0    0    0 -0.00000000000E+00 -0.00000000000E+00 -0.45593999997E+02  0.45594000000E+02  0.51100000000E-03 0. -1.
    9900012    2    1    2    0    0  0.92317823268E+01 -0.32200645380E+02  0.27595560519E+02  0.47787281939E+02  0.20000049674E+02 0.  0.
         12    1    1    2    0    0 -0.92317823268E+01  0.32200645380E+02 -0.27595560519E+02  0.43400718061E+02  0.00000000000E+00 0. -1.
         11    1    3    3    0    0  0.29972883761E+01 -0.12422399310E+01  0.64064430338E+01  0.71811844609E+01  0.51100000000E-03 0. -1.
        -11    1    3    3    0    0 -0.41481737651E+01 -0.71288951648E+01  0.25934861857E+01  0.86460778803E+01  0.51100000000E-03 0.  1.
        -12    1    3    3    0    0  0.10382667716E+02 -0.23829510284E+02  0.18595631300E+02  0.31960019598E+02  0.00000000000E+00 0.  1.
</event>
<event>
 7    1  0.2492468E-009  0.4778727E+02  0.7816164E-02  0.1312668E+00
        -11   -1    0    0    0    0  0.00000000000E+00  0.00000000000E+00  0.45593999997E+02  0.45594000000E+02  0.51100000000E-03 0.  1.
         11   -1    0    0    0    0 -0.00000000000E+00 -0.00000000000E+00 -0.45593999997E+02  0.45594000000E+02  0.51100000000E-03 0. -1.
    9900012    2    1    2    0    0  0.24790248716E+02  0.27756789012E+02  0.22329966939E+02  0.47787271997E+02  0.20000004344E+02 0.  0.
         12    1    1    2    0    0 -0.24790248716E+02 -0.27756789012E+02 -0.22329966939E+02  0.43400728003E+02  0.00000000000E+00 0. -1.
         11    1    3    3    0    0 -0.61086647916E+00 -0.14318124928E+01  0.38999059207E+01  0.41991083960E+01  0.51100000000E-03 0. -1.
        -11    1    3    3    0    0  0.29423049436E+01  0.55516854263E+01  0.32068155416E+00  0.62913596602E+01  0.51100000000E-03 0.  1.
        -12    1    3    3    0    0  0.22458810252E+02  0.23636916079E+02  0.18109379464E+02  0.37296803941E+02  0.00000000000E+00 0.  1.
</event>
<event>
 7    1  0.2492468E-009  0.4778727E+02  0.7816164E-02  0.1312668E+00
        -11   -1    0    0    0    0  0.00000000000E+00  0.00000000000E+00  0.45593999997E+02  0.45594000000E+02  0.51100000000E-03 0. -1.
         11   -1    0    0    0    0 -0.00000000000E+00 -0.00000000000E+00 -0.45593999997E+02  0.45594000000E+02  0.51100000000E-03 0.  1.
    9900012    2    1    2    0    0 -0.14980491769E+02 -0.40084299136E+02 -0.72427111973E+01  0.47787273781E+02  0.20000012476E+02 0.  0.
         12    1    1    2    0    0  0.14980491769E+02  0.40084299136E+02  0.72427111973E+01  0.43400726219E+02  0.00000000000E+00 0. -1.
         11    1    3    3    0    0 -0.83030190888E+00 -0.43175813192E+01  0.31295862191E+01  0.53967786569E+01  0.51100000000E-03 0. -1.
        -11    1    3    3    0    0 -0.10896776910E+02 -0.19488406760E+02  0.86452660018E+00  0.22344689561E+02  0.51100000000E-03 0.  1.
        -12    1    3    3    0    0 -0.32534129503E+01 -0.16278311057E+02 -0.11236824017E+02  0.20045805563E+02  0.00000000000E+00 0.  1.
</event>
<event>
 7    1  0.2492468E-009  0.4778727E+02  0.7816164E-02  0.1312668E+00
        -11   -1    0    0    0    0  0.00000000000E+00  0.00000000000E+00  0.45593999997E+02  0.45594000000E+02  0.51100000000E-03 0.  1.
         11   -1    0    0    0    0 -0.00000000000E+00 -0.00000000000E+00 -0.45593999997E+02  0.45594000000E+02  0.51100000000E-03 0. -1.
    9900012    2    1    2    0    0 -0.16348514700E+02 -0.32166096666E+02  0.24118276226E+02  0.47787274709E+02  0.20000016710E+02 0.  0.
         12    1    1    2    0    0  0.16348514700E+02  0.32166096666E+02 -0.24118276226E+02  0.43400725291E+02  0.00000000000E+00 0. -1.
         11    1    3    3    0    0  0.84230582257E+00 -0.10030291593E+02  0.12074535423E+02  0.15719753004E+02  0.51100000000E-03 0. -1.
        -11    1    3    3    0    0 -0.68779606694E+00  0.98606250228E+00  0.10860950137E+01  0.16201806467E+01  0.51100000000E-03 0.  1.
        -12    1    3    3    0    0 -0.16503024456E+02 -0.23121867575E+02  0.10957645790E+02  0.30447341059E+02  0.00000000000E+00 0.  1.
</event>
<event>
 7    1  0.2492468E-009  0.4778727E+02  0.7816164E-02  0.1312668E+00
        -11   -1    0    0    0    0  0.00000000000E+00  0.00000000000E+00  0.45593999997E+02  0.45594000000E+02  0.51100000000E-03 0.  1.
         11   -1    0    0    0    0 -0.00000000000E+00 -0.00000000000E+00 -0.45593999997E+02  0.45594000000E+02  0.51100000000E-03 0. -1.
    9900012    2    1    2    0    0  0.19189747384E+02 -0.32092141416E+02  0.22033418723E+02  0.47787268601E+02  0.19999988859E+02 0.  0.
         12    1    1    2    0    0 -0.19189747384E+02  0.32092141416E+02 -0.22033418723E+02  0.43400731399E+02  0.00000000000E+00 0. -1.
         11    1    3    3    0    0  0.83323261460E+01 -0.98872998233E+01  0.14855061468E+02  0.19694141471E+02  0.51100000000E-03 0. -1.
        -11    1    3    3    0    0  0.46282364021E+01 -0.16982578971E+02  0.89903256539E+01  0.19764982073E+02  0.51100000000E-03 0.  1.
        -12    1    3    3    0    0  0.62291848361E+01 -0.52222626213E+01 -0.18119683991E+01  0.83281450568E+01  0.00000000000E+00 0.  1.
</event>
<event>
 7    1  0.2492468E-009  0.4778728E+02  0.7816164E-02  0.1312668E+00
        -11   -1    0    0    0    0  0.00000000000E+00  0.00000000000E+00  0.45593999997E+02  0.45594000000E+02  0.51100000000E-03 0. -1.
         11   -1    0    0    0    0 -0.00000000000E+00 -0.00000000000E+00 -0.45593999997E+02  0.45594000000E+02  0.51100000000E-03 0.  1.
    9900012    2    1    2    0    0  0.54818828672E+01 -0.38616512096E+02 -0.19035142381E+02  0.47787277752E+02  0.20000030580E+02 0.  0.
         12    1    1    2    0    0 -0.54818828672E+01  0.38616512096E+02  0.19035142381E+02  0.43400722248E+02  0.00000000000E+00 0. -1.
         11    1    3    3    0    0 -0.57390727311E+01 -0.11644307806E+02 -0.51638768211E+01  0.13971130383E+02  0.51100000000E-03 0. -1.
        -11    1    3    3    0    0 -0.79898902011E-01 -0.35742938548E+01  0.12077890538E+01  0.37736871962E+01  0.51100000000E-03 0.  1.
        -12    1    3    3    0    0  0.11300854500E+02 -0.23397910434E+02 -0.15079054614E+02  0.30042460172E+02  0.00000000000E+00 0.  1.
</event>
<event>
 7    1  0.2492468E-009  0.4778727E+02  0.7816164E-02  0.1312668E+00
        -11   -1    0    0    0    0  0.00000000000E+00  0.00000000000E+00  0.45593999997E+02  0.45594000000E+02  0.51100000000E-03 0.  1.
         11   -1    0    0    0    0 -0.00000000000E+00 -0.00000000000E+00 -0.45593999997E+02  0.45594000000E+02  0.51100000000E-03 0. -1.
    9900012    2    1    2    0    0  0.17948673195E+02 -0.16272861122E+02  0.36009203736E+02  0.47787266916E+02  0.19999981176E+02 0.  0.
         12    1    1    2    0    0 -0.17948673195E+02  0.16272861122E+02 -0.36009203736E+02  0.43400733084E+02  0.00000000000E+00 0. -1.
         11    1    3    3    0    0 -0.15903258098E+01 -0.47927187549E+01  0.56783031714E+01  0.75988430969E+01  0.51100000000E-03 0. -1.
        -11    1    3    3    0    0  0.34410732184E+01 -0.70462518873E+01  0.35023252957E+01  0.85881856811E+01  0.51100000000E-03 0.  1.
        -12    1    3    3    0    0  0.16097925787E+02 -0.44338904799E+01  0.26828575269E+02  0.31600238138E+02  0.00000000000E+00 0.  1.
</event>
<event>
 7    1  0.2492468E-009  0.4778726E+02  0.7816164E-02  0.1312668E+00
        -11   -1    0    0    0    0  0.00000000000E+00  0.00000000000E+00  0.45593999997E+02  0.45594000000E+02  0.51100000000E-03 0.  1.
         11   -1    0    0    0    0 -0.00000000000E+00 -0.00000000000E+00 -0.45593999997E+02  0.45594000000E+02  0.51100000000E-03 0. -1.
    9900012    2    1    2    0    0  0.34862579647E+02  0.61855751946E+01  0.25099064840E+02  0.47787264339E+02  0.19999969425E+02 0.  0.
         12    1    1    2    0    0 -0.34862579647E+02 -0.61855751946E+01 -0.25099064840E+02  0.43400735661E+02  0.00000000000E+00 0. -1.
         11    1    3    3    0    0 -0.10802375349E+01 -0.29393951985E+01  0.23573128333E+00  0.31404660107E+01  0.51100000000E-03 0. -1.
        -11    1    3    3    0    0  0.12663295055E+02  0.32184491832E+01  0.87609107234E+01  0.15731211452E+02  0.51100000000E-03 0.  1.
         12    1    3    3    0    0  0.23279522127E+02  0.59065212100E+01  0.16102422833E+02  0.28915586876E+02  0.00000000000E+00 0. -1.
</event>
<event>
 7    1  0.2492468E-009  0.4778727E+02  0.7816164E-02  0.1312668E+00
        -11   -1    0    0    0    0  0.00000000000E+00  0.00000000000E+00  0.45593999997E+02  0.45594000000E+02  0.51100000000E-03 0.  1.
         11   -1    0    0    0    0 -0.00000000000E+00 -0.00000000000E+00 -0.45593999997E+02  0.45594000000E+02  0.51100000000E-03 0. -1.
    9900012    2    1    2    0    0 -0.16369963053E+02  0.39665132428E+02  0.65057695687E+01  0.47787268916E+02  0.19999990298E+02 0.  0.
         12    1    1    2    0    0  0.16369963053E+02 -0.39665132428E+02 -0.65057695687E+01  0.43400731084E+02  0.00000000000E+00 0. -1.
         11    1    3    3    0    0 -0.16033225353E+01  0.28623828390E+01 -0.18393248334E+01  0.37612490975E+01  0.51100000000E-03 0. -1.
        -11    1    3    3    0    0 -0.18054639545E+02  0.30125734674E+02  0.97545064661E+01  0.36451067136E+02  0.51100000000E-03 0.  1.
        -12    1    3    3    0    0  0.32879990267E+01  0.66770149151E+01 -0.14094120639E+01  0.75749526825E+01  0.00000000000E+00 0.  1.
</event>
<event>
 7    1  0.2492468E-009  0.4778727E+02  0.7816164E-02  0.1312668E+00
        -11   -1    0    0    0    0  0.00000000000E+00  0.00000000000E+00  0.45593999997E+02  0.45594000000E+02  0.51100000000E-03 0.  1.
         11   -1    0    0    0    0 -0.00000000000E+00 -0.00000000000E+00 -0.45593999997E+02  0.45594000000E+02  0.51100000000E-03 0. -1.
    9900012    2    1    2    0    0  0.20022643504E+02 -0.23061713253E+02  0.30836253614E+02  0.47787269500E+02  0.19999992956E+02 0.  0.
         12    1    1    2    0    0 -0.20022643504E+02  0.23061713253E+02 -0.30836253614E+02  0.43400730500E+02  0.00000000000E+00 0. -1.
         11    1    3    3    0    0  0.88821136786E+01 -0.82771689398E+01  0.85334995024E+01  0.14839948891E+02  0.51100000000E-03 0. -1.
        -11    1    3    3    0    0  0.99775057006E+01 -0.14283316301E+02  0.90483173095E+01  0.19632518711E+02  0.51100000000E-03 0.  1.
         12    1    3    3    0    0  0.11630241245E+01 -0.50122801217E+00  0.13254436802E+02  0.13314801898E+02  0.00000000000E+00 0. -1.
</event>
<event>
 7    1  0.2673414E-009  0.4778727E+02  0.7816164E-02  0.1312668E+00
        -11   -1    0    0    0    0  0.00000000000E+00  0.00000000000E+00  0.45593999997E+02  0.45594000000E+02  0.51100000000E-03 0.  1.
         11   -1    0    0    0    0 -0.00000000000E+00 -0.00000000000E+00 -0.45593999997E+02  0.45594000000E+02  0.51100000000E-03 0. -1.
    9900012    2    1    2    0    0 -0.34391166363E+02  0.21878401932E+02 -0.14906587409E+02  0.47787272552E+02  0.20000006872E+02 0.  0.
         12    1    1    2    0    0  0.34391166363E+02 -0.21878401932E+02  0.14906587409E+02  0.43400727448E+02  0.00000000000E+00 0. -1.
         11    1    3    3    0    0 -0.78049410770E+01  0.27567509759E+01 -0.94098001573E+01  0.12532402819E+02  0.51100000000E-03 0. -1.
        -11    1    3    3    0    0 -0.12924866052E+02  0.13199666734E+02 -0.80434783810E+01  0.20148967941E+02  0.51100000000E-03 0.  1.
         12    1    3    3    0    0 -0.13661359233E+02  0.59219842214E+01  0.25466911291E+01  0.15105901791E+02  0.00000000000E+00 0. -1.
</event>
<event>
 7    1  0.2492468E-009  0.4778727E+02  0.7816164E-02  0.1312668E+00
        -11   -1    0    0    0    0  0.00000000000E+00  0.00000000000E+00  0.45593999997E+02  0.45594000000E+02  0.51100000000E-03 0.  1.
         11   -1    0    0    0    0 -0.00000000000E+00 -0.00000000000E+00 -0.45593999997E+02  0.45594000000E+02  0.51100000000E-03 0. -1.
    9900012    2    1    2    0    0 -0.14954797048E+02  0.31219008036E+02  0.26179208888E+02  0.47787269644E+02  0.19999993614E+02 0.  0.
         12    1    1    2    0    0  0.14954797048E+02 -0.31219008036E+02 -0.26179208888E+02  0.43400730356E+02  0.00000000000E+00 0. -1.
         11    1    3    3    0    0  0.11886114507E+01 -0.80113313135E+00  0.53080415045E-01  0.14343741724E+01  0.51100000000E-03 0. -1.
        -11    1    3    3    0    0  0.93918727855E+00 -0.43391941364E+00 -0.37967921656E+00  0.11020505298E+01  0.51100000000E-03 0.  1.
        -12    1    3    3    0    0 -0.17082595777E+02  0.32454060581E+02  0.26505807689E+02  0.45250844941E+02  0.00000000000E+00 0.  1.
</event>
<event>
 7    1  0.2492468E-009  0.4778727E+02  0.7816164E-02  0.1312668E+00
        -11   -1    0    0    0    0  0.00000000000E+00  0.00000000000E+00  0.45593999997E+02  0.45594000000E+02  0.51100000000E-03 0.  1.
         11   -1    0    0    0    0 -0.00000000000E+00 -0.00000000000E+00 -0.45593999997E+02  0.45594000000E+02  0.51100000000E-03 0. -1.
    9900012    2    1    2    0    0 -0.11641950738E+02 -0.25050486763E+02  0.33474787293E+02  0.47787270878E+02  0.19999999240E+02 0.  0.
         12    1    1    2    0    0  0.11641950738E+02  0.25050486763E+02 -0.33474787293E+02  0.43400729122E+02  0.00000000000E+00 0. -1.
         11    1    3    3    0    0 -0.56333249948E+01 -0.75304104433E+01  0.33297867737E+01  0.99764178020E+01  0.51100000000E-03 0. -1.
        -11    1    3    3    0    0 -0.50670687682E+01 -0.54895581522E+01  0.29013218117E+01  0.80142437650E+01  0.51100000000E-03 0.  1.
        -12    1    3    3    0    0 -0.94155697489E+00 -0.12030518167E+02  0.27243678707E+02  0.29796609311E+02  0.00000000000E+00 0.  1.
</event>
<event>
 7    1  0.2492468E-009  0.4778727E+02  0.7816164E-02  0.1312668E+00
        -11   -1    0    0    0    0  0.00000000000E+00  0.00000000000E+00  0.45593999997E+02  0.45594000000E+02  0.51100000000E-03 0. -1.
         11   -1    0    0    0    0 -0.00000000000E+00 -0.00000000000E+00 -0.45593999997E+02  0.45594000000E+02  0.51100000000E-03 0.  1.
    9900012    2    1    2    0    0  0.23567731229E+02  0.98082892254E+01 -0.35099614149E+02  0.47787269520E+02  0.19999993047E+02 0.  0.
         12    1    1    2    0    0 -0.23567731229E+02 -0.98082892254E+01  0.35099614149E+02  0.43400730480E+02  0.00000000000E+00 0. -1.
         11    1    3    3    0    0  0.31321384992E+01  0.88543617894E+01 -0.12239757154E+02  0.15427950924E+02  0.51100000000E-03 0. -1.
        -11    1    3    3    0    0  0.44360364518E+01  0.26276524215E+01 -0.10553712922E+01  0.52627735535E+01  0.51100000000E-03 0.  1.
        -12    1    3    3    0    0  0.15999556278E+02 -0.16737249856E+01 -0.21804485703E+02  0.27096545042E+02  0.00000000000E+00 0.  1.
</event>
<event>
 7    1  0.2492468E-009  0.4778727E+02  0.7816164E-02  0.1312668E+00
        -11   -1    0    0    0    0  0.00000000000E+00  0.00000000000E+00  0.45593999997E+02  0.45594000000E+02  0.51100000000E-03 0.  1.
         11   -1    0    0    0    0 -0.00000000000E+00 -0.00000000000E+00 -0.45593999997E+02  0.45594000000E+02  0.51100000000E-03 0. -1.
    9900012    2    1    2    0    0  0.78524543843E+01  0.40280022300E+02  0.14123809422E+02  0.47787271563E+02  0.20000002363E+02 0.  0.
         12    1    1    2    0    0 -0.78524543843E+01 -0.40280022300E+02 -0.14123809422E+02  0.43400728437E+02  0.00000000000E+00 0. -1.
         11    1    3    3    0    0  0.67374264916E+01  0.19781143345E+02  0.28102249044E+01  0.21085158573E+02  0.51100000000E-03 0. -1.
        -11    1    3    3    0    0  0.17823257157E+01  0.21433820619E+02  0.75937968225E+01  0.22809013607E+02  0.51100000000E-03 0.  1.
         12    1    3    3    0    0 -0.66729782305E+00 -0.93494166522E+00  0.37197876951E+01  0.38930993821E+01  0.00000000000E+00 0. -1.
</event>
<event>
 7    1  0.2492468E-009  0.4778727E+02  0.7816164E-02  0.1312668E+00
        -11   -1    0    0    0    0  0.00000000000E+00  0.00000000000E+00  0.45593999997E+02  0.45594000000E+02  0.51100000000E-03 0.  1.
         11   -1    0    0    0    0 -0.00000000000E+00 -0.00000000000E+00 -0.45593999997E+02  0.45594000000E+02  0.51100000000E-03 0. -1.
    9900012    2    1    2    0    0 -0.38561633483E+02  0.12023902276E+01 -0.19879084395E+02  0.47787270564E+02  0.19999997811E+02 0.  0.
         12    1    1    2    0    0  0.38561633483E+02 -0.12023902276E+01  0.19879084395E+02  0.43400729436E+02  0.00000000000E+00 0. -1.
         11    1    3    3    0    0 -0.52012854471E+01  0.41610826399E+01 -0.24987718270E+01  0.71141998807E+01  0.51100000000E-03 0. -1.
        -11    1    3    3    0    0 -0.16442650064E+02  0.59977181224E+01 -0.99973386854E+01  0.20156392158E+02  0.51100000000E-03 0.  1.
         12    1    3    3    0    0 -0.16917697973E+02 -0.89564105347E+01 -0.73829738825E+01  0.20516678525E+02  0.00000000000E+00 0. -1.
</event>
<event>
 7    1  0.2492468E-009  0.4778725E+02  0.7816164E-02  0.1312668E+00
        -11   -1    0    0    0    0  0.00000000000E+00  0.00000000000E+00  0.45593999997E+02  0.45594000000E+02  0.51100000000E-03 0.  1.
         11   -1    0    0    0    0 -0.00000000000E+00 -0.00000000000E+00 -0.45593999997E+02  0.45594000000E+02  0.51100000000E-03 0. -1.
    9900012    2    1    2    0    0  0.30930049351E+02 -0.98220200992E+01  0.28818131153E+02  0.47787254444E+02  0.19999924311E+02 0.  0.
         12    1    1    2    0    0 -0.30930049351E+02  0.98220200992E+01 -0.28818131153E+02  0.43400745556E+02  0.00000000000E+00 0. -1.
         11    1    3    3    0    0  0.82910655157E+01 -0.10055718343E+02  0.14223957308E+02  0.19291972438E+02  0.51100000000E-03 0. -1.
        -11    1    3    3    0    0  0.49652128447E+01 -0.37717090457E+01  0.25535328483E+01  0.67379268315E+01  0.51100000000E-03 0.  1.
        -12    1    3    3    0    0  0.17673770991E+02  0.40054072892E+01  0.12040640996E+02  0.21757355175E+02  0.00000000000E+00 0.  1.
</event>
<event>
 7    1  0.2492468E-009  0.4778727E+02  0.7816164E-02  0.1312668E+00
        -11   -1    0    0    0    0  0.00000000000E+00  0.00000000000E+00  0.45593999997E+02  0.45594000000E+02  0.51100000000E-03 0.  1.
         11   -1    0    0    0    0 -0.00000000000E+00 -0.00000000000E+00 -0.45593999997E+02  0.45594000000E+02  0.51100000000E-03 0. -1.
    9900012    2    1    2    0    0 -0.23348242012E+02  0.23080402703E+01  0.36512406657E+02  0.47787270803E+02  0.19999998901E+02 0.  0.
         12    1    1    2    0    0  0.23348242012E+02 -0.23080402703E+01 -0.36512406657E+02  0.43400729197E+02  0.00000000000E+00 0. -1.
         11    1    3    3    0    0 -0.21985064950E+02 -0.51841200326E+01  0.23857371116E+02  0.32854106870E+02  0.51100000000E-03 0.  1.
        -11    1    3    3    0    0  0.59867165405E+00  0.22793161887E+01  0.38891176497E+01  0.45474087557E+01  0.51100000000E-03 0. -1.
        -12    1    3    3    0    0 -0.19618487156E+01  0.52128441143E+01  0.87659178912E+01  0.10385755178E+02  0.00000000000E+00 0.  1.
</event>
<event>
 7    1  0.2492468E-009  0.4778727E+02  0.7816164E-02  0.1312668E+00
        -11   -1    0    0    0    0  0.00000000000E+00  0.00000000000E+00  0.45593999997E+02  0.45594000000E+02  0.51100000000E-03 0.  1.
         11   -1    0    0    0    0 -0.00000000000E+00 -0.00000000000E+00 -0.45593999997E+02  0.45594000000E+02  0.51100000000E-03 0. -1.
    9900012    2    1    2    0    0 -0.98625847534E+01  0.68584935843E+01  0.41705080239E+02  0.47787271550E+02  0.20000002304E+02 0.  0.
         12    1    1    2    0    0  0.98625847534E+01 -0.68584935843E+01 -0.41705080239E+02  0.43400728450E+02  0.00000000000E+00 0. -1.
         11    1    3    3    0    0  0.29468672533E+01 -0.47125463192E+00  0.13481647570E+02  0.13808002354E+02  0.51100000000E-03 0.  1.
        -11    1    3    3    0    0 -0.23552797847E+01 -0.32662304425E+01  0.55714813091E+01  0.68743733101E+01  0.51100000000E-03 0. -1.
        -12    1    3    3    0    0 -0.10454172222E+02  0.10595978659E+02  0.22651951360E+02  0.27104895886E+02  0.00000000000E+00 0.  1.
</event>
<event>
 7    1  0.2492468E-009  0.4778727E+02  0.7816164E-02  0.1312668E+00
        -11   -1    0    0    0    0  0.00000000000E+00  0.00000000000E+00  0.45593999997E+02  0.45594000000E+02  0.51100000000E-03 0.  1.
         11   -1    0    0    0    0 -0.00000000000E+00 -0.00000000000E+00 -0.45593999997E+02  0.45594000000E+02  0.51100000000E-03 0. -1.
    9900012    2    1    2    0    0 -0.93955212369E+01  0.10796576275E+02  0.40972933728E+02  0.47787272162E+02  0.20000005095E+02 0.  0.
         12    1    1    2    0    0  0.93955212369E+01 -0.10796576275E+02 -0.40972933728E+02  0.43400727838E+02  0.00000000000E+00 0. -1.
         11    1    3    3    0    0 -0.15882099409E+01  0.12167609241E+01  0.22154907220E+02  0.22245063097E+02  0.51100000000E-03 0.  1.
        -11    1    3    3    0    0 -0.44564980659E+01 -0.20751210039E+01  0.74116033398E+01  0.88937262449E+01  0.51100000000E-03 0. -1.
         12    1    3    3    0    0 -0.33508132302E+01  0.11654936354E+02  0.11406423168E+02  0.16648482820E+02  0.00000000000E+00 0. -1.
</event>
<event>
 7    1  0.2492468E-009  0.4778724E+02  0.7816164E-02  0.1312668E+00
        -11   -1    0    0    0    0  0.00000000000E+00  0.00000000000E+00  0.45593999997E+02  0.45594000000E+02  0.51100000000E-03 0. -1.
         11   -1    0    0    0    0 -0.00000000000E+00 -0.00000000000E+00 -0.45593999997E+02  0.45594000000E+02  0.51100000000E-03 0.  1.
    9900012    2    1    2    0    0 -0.35912336431E+02  0.22383825421E+02 -0.96381758931E+01  0.47787239835E+02  0.19999857701E+02 0.  0.
         12    1    1    2    0    0  0.35912336431E+02 -0.22383825421E+02  0.96381758931E+01  0.43400760165E+02  0.00000000000E+00 0. -1.
         11    1    3    3    0    0 -0.78156290231E+01  0.20469391878E+01  0.24171650396E+01  0.84330720474E+01  0.51100000000E-03 0. -1.
        -11    1    3    3    0    0 -0.26323509224E+01  0.14499471922E+01  0.30093352845E+01  0.42529657128E+01  0.51100000000E-03 0.  1.
        -12    1    3    3    0    0 -0.25464356485E+02  0.18886939041E+02 -0.15064676217E+02  0.35101202074E+02  0.00000000000E+00 0.  1.
</event>
<event>
 7    1  0.2492468E-009  0.4778727E+02  0.7816164E-02  0.1312668E+00
        -11   -1    0    0    0    0  0.00000000000E+00  0.00000000000E+00  0.45593999997E+02  0.45594000000E+02  0.51100000000E-03 0.  1.
         11   -1    0    0    0    0 -0.00000000000E+00 -0.00000000000E+00 -0.45593999997E+02  0.45594000000E+02  0.51100000000E-03 0. -1.
    9900012    2    1    2    0    0 -0.22722882182E+01  0.43336089024E+02  0.66574319555E+00  0.47787272821E+02  0.20000008099E+02 0.  0.
         12    1    1    2    0    0  0.22722882182E+01 -0.43336089024E+02 -0.66574319555E+00  0.43400727179E+02  0.00000000000E+00 0. -1.
         11    1    3    3    0    0  0.39315741775E+01  0.45521308316E+01 -0.45929004335E+01  0.75679525153E+01  0.51100000000E-03 0. -1.
        -11    1    3    3    0    0  0.47570353997E+00  0.12759942911E+02  0.37559996609E+01  0.13309769745E+02  0.51100000000E-03 0.  1.
         12    1    3    3    0    0 -0.66795659357E+01  0.26024015282E+02  0.15026439681E+01  0.26909550560E+02  0.00000000000E+00 0. -1.
</event>
<event>
 7    1  0.2492468E-009  0.4778727E+02  0.7816164E-02  0.1312668E+00
        -11   -1    0    0    0    0  0.00000000000E+00  0.00000000000E+00  0.45593999997E+02  0.45594000000E+02  0.51100000000E-03 0.  1.
         11   -1    0    0    0    0 -0.00000000000E+00 -0.00000000000E+00 -0.45593999997E+02  0.45594000000E+02  0.51100000000E-03 0. -1.
    9900012    2    1    2    0    0 -0.17449197603E+02  0.39736927833E+02 -0.35369755772E+00  0.47787273825E+02  0.20000012675E+02 0.  0.
         12    1    1    2    0    0  0.17449197603E+02 -0.39736927833E+02  0.35369755772E+00  0.43400726175E+02  0.00000000000E+00 0. -1.
         11    1    3    3    0    0  0.17132624740E+01  0.49609745497E+01  0.14498641965E+01  0.54450567708E+01  0.51100000000E-03 0. -1.
        -11    1    3    3    0    0 -0.74367108875E+01  0.20376790375E+02 -0.74467858757E+01  0.22934098520E+02  0.51100000000E-03 0.  1.
        -12    1    3    3    0    0 -0.11725749189E+02  0.14399162909E+02  0.56432241215E+01  0.19408118534E+02  0.00000000000E+00 0.  1.
</event>
<event>
 7    1  0.2492468E-009  0.4778726E+02  0.7816164E-02  0.1312668E+00
        -11   -1    0    0    0    0  0.00000000000E+00  0.00000000000E+00  0.45593999997E+02  0.45594000000E+02  0.51100000000E-03 0.  1.
         11   -1    0    0    0    0 -0.00000000000E+00 -0.00000000000E+00 -0.45593999997E+02  0.45594000000E+02  0.51100000000E-03 0. -1.
    9900012    2    1    2    0    0 -0.18668735551E+02  0.22810994275E+02  0.31855308596E+02  0.47787264607E+02  0.19999970650E+02 0.  0.
         12    1    1    2    0    0  0.18668735551E+02 -0.22810994275E+02 -0.31855308596E+02  0.43400735393E+02  0.00000000000E+00 0. -1.
         11    1    3    3    0    0 -0.19348336606E+01  0.76656480495E+01  0.59410738316E+01  0.98894944182E+01  0.51100000000E-03 0. -1.
        -11    1    3    3    0    0 -0.17241374835E+02  0.17703659845E+02  0.21427965044E+02  0.32708443318E+02  0.51100000000E-03 0.  1.
         12    1    3    3    0    0  0.50747294461E+00 -0.25583136197E+01  0.44862697202E+01  0.51893268705E+01  0.00000000000E+00 0. -1.
</event>
<event>
 7    1  0.2492468E-009  0.4778727E+02  0.7816164E-02  0.1312668E+00
        -11   -1    0    0    0    0  0.00000000000E+00  0.00000000000E+00  0.45593999997E+02  0.45594000000E+02  0.51100000000E-03 0.  1.
         11   -1    0    0    0    0 -0.00000000000E+00 -0.00000000000E+00 -0.45593999997E+02  0.45594000000E+02  0.51100000000E-03 0. -1.
    9900012    2    1    2    0    0 -0.94545399433E+01 -0.31988326745E+02  0.27766559440E+02  0.47787271935E+02  0.20000004060E+02 0.  0.
         12    1    1    2    0    0  0.94545399433E+01  0.31988326745E+02 -0.27766559440E+02  0.43400728065E+02  0.00000000000E+00 0. -1.
         11    1    3    3    0    0 -0.25669801198E+01 -0.58252773470E+00  0.82345589813E+01  0.86450383096E+01  0.51100000000E-03 0. -1.
        -11    1    3    3    0    0 -0.20940276636E+01 -0.10403090247E+02  0.12683114334E+02  0.16536947361E+02  0.51100000000E-03 0.  1.
        -12    1    3    3    0    0 -0.47935321599E+01 -0.21002708763E+02  0.68488861246E+01  0.22605286265E+02  0.00000000000E+00 0.  1.
</event>
<event>
 7    1  0.2492468E-009  0.4778727E+02  0.7816164E-02  0.1312668E+00
        -11   -1    0    0    0    0  0.00000000000E+00  0.00000000000E+00  0.45593999997E+02  0.45594000000E+02  0.51100000000E-03 0.  1.
         11   -1    0    0    0    0 -0.00000000000E+00 -0.00000000000E+00 -0.45593999997E+02  0.45594000000E+02  0.51100000000E-03 0. -1.
    9900012    2    1    2    0    0 -0.17886840409E+02 -0.34736753778E+02  0.18895561303E+02  0.47787270055E+02  0.19999995487E+02 0.  0.
         12    1    1    2    0    0  0.17886840409E+02  0.34736753778E+02 -0.18895561303E+02  0.43400729945E+02  0.00000000000E+00 0. -1.
         11    1    3    3    0    0 -0.85723277468E+01 -0.17027526554E+02  0.54168523220E+01  0.19818268160E+02  0.51100000000E-03 0. -1.
        -11    1    3    3    0    0 -0.93666995964E+01 -0.50743243161E+01  0.18799654814E+01  0.10817490424E+02  0.51100000000E-03 0.  1.
         12    1    3    3    0    0  0.52186933972E-01 -0.12634902908E+02  0.11598743499E+02  0.17151511471E+02  0.00000000000E+00 0. -1.
</event>
<event>
 7    1  0.2492468E-009  0.4778727E+02  0.7816164E-02  0.1312668E+00
        -11   -1    0    0    0    0  0.00000000000E+00  0.00000000000E+00  0.45593999997E+02  0.45594000000E+02  0.51100000000E-03 0. -1.
         11   -1    0    0    0    0 -0.00000000000E+00 -0.00000000000E+00 -0.45593999997E+02  0.45594000000E+02  0.51100000000E-03 0.  1.
    9900012    2    1    2    0    0  0.36557268634E+02 -0.22852830813E+02 -0.49937667081E+01  0.47787268761E+02  0.19999989590E+02 0.  0.
         12    1    1    2    0    0 -0.36557268634E+02  0.22852830813E+02  0.49937667081E+01  0.43400731239E+02  0.00000000000E+00 0. -1.
         11    1    3    3    0    0  0.13592526490E+02 -0.14419094755E+02 -0.50943097302E+01  0.20460182350E+02  0.51100000000E-03 0. -1.
        -11    1    3    3    0    0 -0.12988025715E+01 -0.16446714514E+01  0.38125059912E+00  0.21300668025E+01  0.51100000000E-03 0.  1.
        -12    1    3    3    0    0  0.24263544716E+02 -0.67890646067E+01 -0.28070757701E+00  0.25197019608E+02  0.00000000000E+00 0.  1.
</event>
<event>
 7    1  0.2492468E-009  0.4778727E+02  0.7816164E-02  0.1312668E+00
        -11   -1    0    0    0    0  0.00000000000E+00  0.00000000000E+00  0.45593999997E+02  0.45594000000E+02  0.51100000000E-03 0.  1.
         11   -1    0    0    0    0 -0.00000000000E+00 -0.00000000000E+00 -0.45593999997E+02  0.45594000000E+02  0.51100000000E-03 0. -1.
    9900012    2    1    2    0    0  0.23928365930E+02  0.14888165931E+02  0.33006047027E+02  0.47787270499E+02  0.19999997515E+02 0.  0.
         12    1    1    2    0    0 -0.23928365930E+02 -0.14888165931E+02 -0.33006047027E+02  0.43400729501E+02  0.00000000000E+00 0. -1.
         11    1    3    3    0    0  0.72422513497E+01  0.15484048354E+01  0.29300771928E+01  0.79644908665E+01  0.51100000000E-03 0. -1.
        -11    1    3    3    0    0  0.10880203372E+02  0.99079019520E+00  0.20244095271E+02  0.23003997136E+02  0.51100000000E-03 0.  1.
        -12    1    3    3    0    0  0.58059112086E+01  0.12348970900E+02  0.98318745623E+01  0.16818782497E+02  0.00000000000E+00 0.  1.
</event>
<event>
 7    1 -0.2492468E-009  0.4778727E+02  0.7816164E-02  0.1312668E+00
        -11   -1    0    0    0    0  0.00000000000E+00  0.00000000000E+00  0.45593999997E+02  0.45594000000E+02  0.51100000000E-03 0.  1.
         11   -1    0    0    0    0 -0.00000000000E+00 -0.00000000000E+00 -0.45593999997E+02  0.45594000000E+02  0.51100000000E-03 0. -1.
    9900012    2    1    2    0    0  0.25225174696E+02  0.62775512708E+01  0.34754943543E+02  0.47787272021E+02  0.20000004454E+02 0.  0.
         12    1    1    2    0    0 -0.25225174696E+02 -0.62775512708E+01 -0.34754943543E+02  0.43400727979E+02  0.00000000000E+00 0. -1.
         11    1    3    3    0    0  0.56731786627E+01  0.27814994364E+01  0.16881471699E+01  0.65399951362E+01  0.51100000000E-03 0. -1.
        -11    1    3    3    0    0  0.69396245772E+01  0.78300667170E+01  0.20027448263E+02  0.22595730089E+02  0.51100000000E-03 0.  1.
        -12    1    3    3    0    0  0.12612371456E+02 -0.43340148826E+01  0.13039348111E+02  0.18651546796E+02  0.00000000000E+00 0.  1.
</event>
<event>
 7    1  0.2492468E-009  0.4778727E+02  0.7816164E-02  0.1312668E+00
        -11   -1    0    0    0    0  0.00000000000E+00  0.00000000000E+00  0.45593999997E+02  0.45594000000E+02  0.51100000000E-03 0.  1.
         11   -1    0    0    0    0 -0.00000000000E+00 -0.00000000000E+00 -0.45593999997E+02  0.45594000000E+02  0.51100000000E-03 0. -1.
    9900012    2    1    2    0    0 -0.34690777848E+02 -0.22099595485E+02 -0.13848519802E+02  0.47787266262E+02  0.19999978193E+02 0.  0.
         12    1    1    2    0    0  0.34690777848E+02  0.22099595485E+02  0.13848519802E+02  0.43400733738E+02  0.00000000000E+00 0. -1.
         11    1    3    3    0    0 -0.64554552938E+01  0.12459212439E+01 -0.79347623324E+01  0.10304643435E+02  0.51100000000E-03 0. -1.
        -11    1    3    3    0    0 -0.40702582079E+01 -0.12766125315E+01 -0.10926239589E+01  0.44034723584E+01  0.51100000000E-03 0.  1.
         12    1    3    3    0    0 -0.24165064347E+02 -0.22068904198E+02 -0.48211335106E+01  0.33079150468E+02  0.00000000000E+00 0. -1.
</event>
<event>
 7    1  0.2492468E-009  0.4778727E+02  0.7816164E-02  0.1312668E+00
        -11   -1    0    0    0    0  0.00000000000E+00  0.00000000000E+00  0.45593999997E+02  0.45594000000E+02  0.51100000000E-03 0.  1.
         11   -1    0    0    0    0 -0.00000000000E+00 -0.00000000000E+00 -0.45593999997E+02  0.45594000000E+02  0.51100000000E-03 0. -1.
    9900012    2    1    2    0    0  0.31239712530E+02  0.26184508720E+02  0.14902193494E+02  0.47787268361E+02  0.19999987766E+02 0.  0.
         12    1    1    2    0    0 -0.31239712530E+02 -0.26184508720E+02 -0.14902193494E+02  0.43400731639E+02  0.00000000000E+00 0. -1.
         11    1    3    3    0    0  0.47924147592E+01 -0.14001604015E+01 -0.95163925624E+00  0.50826475296E+01  0.51100000000E-03 0. -1.
        -11    1    3    3    0    0  0.71382474738E+01  0.68534972576E+01 -0.65076784984E+00  0.99170812597E+01  0.51100000000E-03 0.  1.
        -12    1    3    3    0    0  0.19309050297E+02  0.20731171864E+02  0.16504600600E+02  0.32787539572E+02  0.00000000000E+00 0.  1.
</event>
<event>
 7    1  0.2492468E-009  0.4778727E+02  0.7816164E-02  0.1312668E+00
        -11   -1    0    0    0    0  0.00000000000E+00  0.00000000000E+00  0.45593999997E+02  0.45594000000E+02  0.51100000000E-03 0. -1.
         11   -1    0    0    0    0 -0.00000000000E+00 -0.00000000000E+00 -0.45593999997E+02  0.45594000000E+02  0.51100000000E-03 0.  1.
    9900012    2    1    2    0    0 -0.23888118165E+02 -0.43125221139E+01 -0.35977536263E+02  0.47787272448E+02  0.20000006399E+02 0.  0.
         12    1    1    2    0    0  0.23888118165E+02  0.43125221139E+01  0.35977536263E+02  0.43400727552E+02  0.00000000000E+00 0. -1.
         11    1    3    3    0    0  0.26791529991E+00  0.11628668655E+00  0.80775018066E+00  0.85893062402E+00  0.51100000000E-03 0. -1.
        -11    1    3    3    0    0 -0.68538170572E+01 -0.42150907306E+01 -0.24281336282E+02  0.25579778928E+02  0.51100000000E-03 0.  1.
        -12    1    3    3    0    0 -0.17302216408E+02 -0.21371806982E+00 -0.12503950162E+02  0.21348562895E+02  0.00000000000E+00 0.  1.
</event>
<event>
 7    1  0.2492468E-009  0.4778727E+02  0.7816164E-02  0.1312668E+00
        -11   -1    0    0    0    0  0.00000000000E+00  0.00000000000E+00  0.45593999997E+02  0.45594000000E+02  0.51100000000E-03 0. -1.
         11   -1    0    0    0    0 -0.00000000000E+00 -0.00000000000E+00 -0.45593999997E+02  0.45594000000E+02  0.51100000000E-03 0.  1.
    9900012    2    1    2    0    0 -0.32870563606E+02 -0.28220501265E+02 -0.25985972313E+01  0.47787270156E+02  0.19999995950E+02 0.  0.
         12    1    1    2    0    0  0.32870563606E+02  0.28220501265E+02  0.25985972313E+01  0.43400729844E+02  0.00000000000E+00 0. -1.
         11    1    3    3    0    0 -0.10377408547E+02 -0.28191043427E+01  0.17694155425E+01  0.10898109427E+02  0.51100000000E-03 0. -1.
        -11    1    3    3    0    0 -0.18757476830E+02 -0.12697590413E+02 -0.62912603180E+01  0.23508545169E+02  0.51100000000E-03 0.  1.
         12    1    3    3    0    0 -0.37356782280E+01 -0.12703806509E+02  0.19232475442E+01  0.13380615560E+02  0.00000000000E+00 0. -1.
</event>
<event>
 7    1  0.2492468E-009  0.4778725E+02  0.7816164E-02  0.1312668E+00
        -11   -1    0    0    0    0  0.00000000000E+00  0.00000000000E+00  0.45593999997E+02  0.45594000000E+02  0.51100000000E-03 0.  1.
         11   -1    0    0    0    0 -0.00000000000E+00 -0.00000000000E+00 -0.45593999997E+02  0.45594000000E+02  0.51100000000E-03 0. -1.
    9900012    2    1    2    0    0  0.31034533043E+02  0.27505981356E+02  0.12802485259E+02  0.47787252537E+02  0.19999915618E+02 0.  0.
         12    1    1    2    0    0 -0.31034533043E+02 -0.27505981356E+02 -0.12802485259E+02  0.43400747463E+02  0.00000000000E+00 0. -1.
         11    1    3    3    0    0  0.30527030347E+01  0.12598633087E+02  0.83483622762E+01  0.15418810085E+02  0.51100000000E-03 0. -1.
        -11    1    3    3    0    0  0.93023240951E+01  0.52980496835E+01 -0.73595101250E+00  0.10730525997E+02  0.51100000000E-03 0.  1.
        -12    1    3    3    0    0  0.18679505913E+02  0.96092985853E+01  0.51900739949E+01  0.21637916455E+02  0.00000000000E+00 0.  1.
</event>
<event>
 7    1  0.2492468E-009  0.4778727E+02  0.7816164E-02  0.1312668E+00
        -11   -1    0    0    0    0  0.00000000000E+00  0.00000000000E+00  0.45593999997E+02  0.45594000000E+02  0.51100000000E-03 0. -1.
         11   -1    0    0    0    0 -0.00000000000E+00 -0.00000000000E+00 -0.45593999997E+02  0.45594000000E+02  0.51100000000E-03 0.  1.
    9900012    2    1    2    0    0  0.38763689848E+02  0.19265913627E+02 -0.31343655919E+01  0.47787270442E+02  0.19999997253E+02 0.  0.
         12    1    1    2    0    0 -0.38763689848E+02 -0.19265913627E+02  0.31343655919E+01  0.43400729558E+02  0.00000000000E+00 0. -1.
         11    1    3    3    0    0  0.47200730924E+01  0.59416914556E+01  0.13127330539E+01  0.77010425062E+01  0.51100000000E-03 0. -1.
        -11    1    3    3    0    0  0.21818742746E+02  0.11943735156E+02 -0.97143087922E+01  0.26703522990E+02  0.51100000000E-03 0.  1.
         12    1    3    3    0    0  0.12224874009E+02  0.13804870151E+01  0.52672101464E+01  0.13382704946E+02  0.00000000000E+00 0. -1.
</event>
<event>
 7    1  0.2492468E-009  0.4778728E+02  0.7816164E-02  0.1312668E+00
        -11   -1    0    0    0    0  0.00000000000E+00  0.00000000000E+00  0.45593999997E+02  0.45594000000E+02  0.51100000000E-03 0. -1.
         11   -1    0    0    0    0 -0.00000000000E+00 -0.00000000000E+00 -0.45593999997E+02  0.45594000000E+02  0.51100000000E-03 0.  1.
    9900012    2    1    2    0    0 -0.40908686898E+02  0.85060317900E+01  0.11736649505E+02  0.47787283622E+02  0.20000057345E+02 0.  0.
         12    1    1    2    0    0  0.40908686898E+02 -0.85060317900E+01 -0.11736649505E+02  0.43400716378E+02  0.00000000000E+00 0. -1.
         11    1    3    3    0    0 -0.13923574294E+02 -0.17127475797E+00  0.22126584203E+01  0.14099330258E+02  0.51100000000E-03 0. -1.
        -11    1    3    3    0    0 -0.20233626061E+02 -0.44440408546E+00  0.26276909484E+01  0.20408377656E+02  0.51100000000E-03 0.  1.
         12    1    3    3    0    0 -0.67514865433E+01  0.91217106334E+01  0.68963001359E+01  0.13279575708E+02  0.00000000000E+00 0. -1.
</event>
<event>
 7    1  0.2492468E-009  0.4778727E+02  0.7816164E-02  0.1312668E+00
        -11   -1    0    0    0    0  0.00000000000E+00  0.00000000000E+00  0.45593999997E+02  0.45594000000E+02  0.51100000000E-03 0. -1.
         11   -1    0    0    0    0 -0.00000000000E+00 -0.00000000000E+00 -0.45593999997E+02  0.45594000000E+02  0.51100000000E-03 0.  1.
    9900012    2    1    2    0    0 -0.91196510993E+00  0.42276004724E+02  0.97740012990E+01  0.47787270085E+02  0.19999995624E+02 0.  0.
         12    1    1    2    0    0  0.91196510993E+00 -0.42276004724E+02 -0.97740012990E+01  0.43400729915E+02  0.00000000000E+00 0. -1.
         11    1    3    3    0    0 -0.93969317664E+01  0.23674978551E+02  0.98156920734E+01  0.27297522729E+02  0.51100000000E-03 0. -1.
        -11    1    3    3    0    0  0.95944641197E+00  0.33176400893E+01 -0.55464868745E-01  0.34540338435E+01  0.51100000000E-03 0.  1.
         12    1    3    3    0    0  0.75255202445E+01  0.15283386083E+02  0.13774094354E-01  0.17035713512E+02  0.00000000000E+00 0. -1.
</event>
<event>
 7    1  0.2492468E-009  0.4778727E+02  0.7816164E-02  0.1312668E+00
        -11   -1    0    0    0    0  0.00000000000E+00  0.00000000000E+00  0.45593999997E+02  0.45594000000E+02  0.51100000000E-03 0. -1.
         11   -1    0    0    0    0 -0.00000000000E+00 -0.00000000000E+00 -0.45593999997E+02  0.45594000000E+02  0.51100000000E-03 0.  1.
    9900012    2    1    2    0    0  0.25603536757E+02 -0.30007579417E+02 -0.18100476580E+02  0.47787272248E+02  0.20000005489E+02 0.  0.
         12    1    1    2    0    0 -0.25603536757E+02  0.30007579417E+02  0.18100476580E+02  0.43400727752E+02  0.00000000000E+00 0. -1.
         11    1    3    3    0    0  0.17087532552E+02 -0.21463996775E+02 -0.85582244097E+01  0.28739000184E+02  0.51100000000E-03 0. -1.
        -11    1    3    3    0    0  0.98335847196E+01 -0.78964020239E+01 -0.38742573016E+01  0.13193271894E+02  0.51100000000E-03 0.  1.
         12    1    3    3    0    0 -0.13175805144E+01 -0.64718061796E+00 -0.56679948686E+01  0.58550001703E+01  0.00000000000E+00 0. -1.
</event>
<event>
 7    1  0.2492468E-009  0.4778727E+02  0.7816164E-02  0.1312668E+00
        -11   -1    0    0    0    0  0.00000000000E+00  0.00000000000E+00  0.45593999997E+02  0.45594000000E+02  0.51100000000E-03 0. -1.
         11   -1    0    0    0    0 -0.00000000000E+00 -0.00000000000E+00 -0.45593999997E+02  0.45594000000E+02  0.51100000000E-03 0.  1.
    9900012    2    1    2    0    0  0.28082089788E+02  0.25597872288E+02 -0.20970648573E+02  0.47787274959E+02  0.20000017848E+02 0.  0.
         12    1    1    2    0    0 -0.28082089788E+02 -0.25597872288E+02  0.20970648573E+02  0.43400725041E+02  0.00000000000E+00 0. -1.
         11    1    3    3    0    0  0.15606723984E+02  0.14906659760E+02 -0.34088221541E+01  0.21849448676E+02  0.51100000000E-03 0. -1.
        -11    1    3    3    0    0  0.10739057923E+02  0.11457354958E+02 -0.11171812863E+02  0.19271942056E+02  0.51100000000E-03 0.  1.
         12    1    3    3    0    0  0.17363078809E+01 -0.76614243001E+00 -0.63900135559E+01  0.66658842268E+01  0.00000000000E+00 0. -1.
</event>
<event>
 7    1  0.2492468E-009  0.4778727E+02  0.7816164E-02  0.1312668E+00
        -11   -1    0    0    0    0  0.00000000000E+00  0.00000000000E+00  0.45593999997E+02  0.45594000000E+02  0.51100000000E-03 0. -1.
         11   -1    0    0    0    0 -0.00000000000E+00 -0.00000000000E+00 -0.45593999997E+02  0.45594000000E+02  0.51100000000E-03 0.  1.
    9900012    2    1    2    0    0 -0.15645042646E+02  0.34802118722E+02 -0.20680157612E+02  0.47787265607E+02  0.19999975210E+02 0.  0.
         12    1    1    2    0    0  0.15645042646E+02 -0.34802118722E+02  0.20680157612E+02  0.43400734393E+02  0.00000000000E+00 0. -1.
         11    1    3    3    0    0 -0.90432887063E+01  0.12317788566E+02 -0.11177190743E+02  0.18932474190E+02  0.51100000000E-03 0. -1.
        -11    1    3    3    0    0 -0.10331277226E+02  0.18865050911E+02 -0.98278676520E+01  0.23647672567E+02  0.51100000000E-03 0.  1.
         12    1    3    3    0    0  0.37295232865E+01  0.36192792451E+01  0.32490078293E+00  0.52071188499E+01  0.00000000000E+00 0. -1.
</event>
<event>
 7    1  0.2492468E-009  0.4778727E+02  0.7816164E-02  0.1312668E+00
        -11   -1    0    0    0    0  0.00000000000E+00  0.00000000000E+00  0.45593999997E+02  0.45594000000E+02  0.51100000000E-03 0.  1.
         11   -1    0    0    0    0 -0.00000000000E+00 -0.00000000000E+00 -0.45593999997E+02  0.45594000000E+02  0.51100000000E-03 0. -1.
    9900012    2    1    2    0    0  0.81322105584E+01  0.25908308270E+02  0.33856319792E+02  0.47787266414E+02  0.19999978889E+02 0.  0.
         12    1    1    2    0    0 -0.81322105584E+01 -0.25908308270E+02 -0.33856319792E+02  0.43400733586E+02  0.00000000000E+00 0. -1.
         11    1    3    3    0    0 -0.22004871183E+01 -0.46464156731E+00  0.30617438863E+00  0.22697529296E+01  0.51100000000E-03 0. -1.
        -11    1    3    3    0    0 -0.31764671489E+00  0.86397432813E+01  0.16824799697E+02  0.18916129322E+02  0.51100000000E-03 0.  1.
         12    1    3    3    0    0  0.10650344392E+02  0.17733206556E+02  0.16725345706E+02  0.26601384163E+02  0.00000000000E+00 0. -1.
</event>
<event>
 7    1  0.2492468E-009  0.4778727E+02  0.7816164E-02  0.1312668E+00
        -11   -1    0    0    0    0  0.00000000000E+00  0.00000000000E+00  0.45593999997E+02  0.45594000000E+02  0.51100000000E-03 0.  1.
         11   -1    0    0    0    0 -0.00000000000E+00 -0.00000000000E+00 -0.45593999997E+02  0.45594000000E+02  0.51100000000E-03 0. -1.
    9900012    2    1    2    0    0 -0.70968722342E+01  0.38994838269E+02  0.17682205222E+02  0.47787269722E+02  0.19999993970E+02 0.  0.
         12    1    1    2    0    0  0.70968722342E+01 -0.38994838269E+02 -0.17682205222E+02  0.43400730278E+02  0.00000000000E+00 0. -1.
         11    1    3    3    0    0 -0.38833358102E+01  0.51145564878E+01  0.24893851561E+01  0.68873814907E+01  0.51100000000E-03 0. -1.
        -11    1    3    3    0    0 -0.16464763552E+01  0.28344237555E+02  0.18852415184E+02  0.34081083397E+02  0.51100000000E-03 0.  1.
         12    1    3    3    0    0 -0.15670600689E+01  0.55360442261E+01 -0.36595951186E+01  0.68188048340E+01  0.00000000000E+00 0. -1.
</event>
<event>
 7    1  0.2492468E-009  0.4778728E+02  0.7816164E-02  0.1312668E+00
        -11   -1    0    0    0    0  0.00000000000E+00  0.00000000000E+00  0.45593999997E+02  0.45594000000E+02  0.51100000000E-03 0.  1.
         11   -1    0    0    0    0 -0.00000000000E+00 -0.00000000000E+00 -0.45593999997E+02  0.45594000000E+02  0.51100000000E-03 0. -1.
    9900012    2    1    2    0    0 -0.30951648094E+01  0.40184838393E+02  0.16100353688E+02  0.47787277993E+02  0.20000031681E+02 0.  0.
         12    1    1    2    0    0  0.30951648094E+01 -0.40184838393E+02 -0.16100353688E+02  0.43400722007E+02  0.00000000000E+00 0. -1.
         11    1    3    3    0    0  0.15757934976E+01  0.20985561672E+01 -0.19499457522E+01  0.32694574216E+01  0.51100000000E-03 0. -1.
        -11    1    3    3    0    0 -0.57822317350E+00  0.36062698328E+02  0.16773921731E+02  0.39777091438E+02  0.51100000000E-03 0.  1.
         12    1    3    3    0    0 -0.40927351334E+01  0.20235838975E+01  0.12763777091E+01  0.47407291337E+01  0.00000000000E+00 0. -1.
</event>
<event>
 7    1  0.2492468E-009  0.4778727E+02  0.7816164E-02  0.1312668E+00
        -11   -1    0    0    0    0  0.00000000000E+00  0.00000000000E+00  0.45593999997E+02  0.45594000000E+02  0.51100000000E-03 0.  1.
         11   -1    0    0    0    0 -0.00000000000E+00 -0.00000000000E+00 -0.45593999997E+02  0.45594000000E+02  0.51100000000E-03 0. -1.
    9900012    2    1    2    0    0  0.41958449638E+02  0.93101236095E+01 -0.60360054977E+01  0.47787271204E+02  0.20000000727E+02 0.  0.
         12    1    1    2    0    0 -0.41958449638E+02 -0.93101236095E+01  0.60360054977E+01  0.43400728796E+02  0.00000000000E+00 0. -1.
         11    1    3    3    0    0  0.23757253384E+01  0.20748459780E+01  0.17142199429E+01  0.35899313349E+01  0.51100000000E-03 0. -1.
        -11    1    3    3    0    0  0.36987216095E+02  0.22092376589E+01 -0.36942708906E+01  0.37236843625E+02  0.51100000000E-03 0.  1.
        -12    1    3    3    0    0  0.25955082045E+01  0.50260399726E+01 -0.40559545500E+01  0.69604962436E+01  0.00000000000E+00 0.  1.
</event>
<event>
 7    1  0.2492468E-009  0.4778727E+02  0.7816164E-02  0.1312668E+00
        -11   -1    0    0    0    0  0.00000000000E+00  0.00000000000E+00  0.45593999997E+02  0.45594000000E+02  0.51100000000E-03 0. -1.
         11   -1    0    0    0    0 -0.00000000000E+00 -0.00000000000E+00 -0.45593999997E+02  0.45594000000E+02  0.51100000000E-03 0.  1.
    9900012    2    1    2    0    0 -0.16352447766E+02  0.39268230878E+02  0.86154901495E+01  0.47787272187E+02  0.20000005208E+02 0.  0.
         12    1    1    2    0    0  0.16352447766E+02 -0.39268230878E+02 -0.86154901495E+01  0.43400727813E+02  0.00000000000E+00 0. -1.
         11    1    3    3    0    0  0.48109114482E+00  0.53479340187E+00  0.28752916896E+01  0.29639087762E+01  0.51100000000E-03 0. -1.
        -11    1    3    3    0    0  0.14116112701E+01  0.12880356157E+01 -0.16431005817E+01  0.25202106872E+01  0.51100000000E-03 0.  1.
        -12    1    3    3    0    0 -0.18245150181E+02  0.37445401860E+02  0.73832990416E+01  0.42303152723E+02  0.00000000000E+00 0.  1.
</event>
<event>
 7    1  0.2492468E-009  0.4778726E+02  0.7816164E-02  0.1312668E+00
        -11   -1    0    0    0    0  0.00000000000E+00  0.00000000000E+00  0.45593999997E+02  0.45594000000E+02  0.51100000000E-03 0.  1.
         11   -1    0    0    0    0 -0.00000000000E+00 -0.00000000000E+00 -0.45593999997E+02  0.45594000000E+02  0.51100000000E-03 0. -1.
    9900012    2    1    2    0    0  0.23805275868E+02  0.28239082227E+02  0.22792255324E+02  0.47787264673E+02  0.19999970952E+02 0.  0.
         12    1    1    2    0    0 -0.23805275868E+02 -0.28239082227E+02 -0.22792255324E+02  0.43400735327E+02  0.00000000000E+00 0. -1.
         11    1    3    3    0    0  0.10491502870E+02  0.10752353778E+02  0.59209157670E+01  0.16147507177E+02  0.51100000000E-03 0. -1.
        -11    1    3    3    0    0  0.13596236645E+02  0.95255060932E+01  0.16877286577E+02  0.23673523602E+02  0.51100000000E-03 0.  1.
         12    1    3    3    0    0 -0.28246364749E+00  0.79612223554E+01 -0.59470207444E-02  0.79662338951E+01  0.00000000000E+00 0. -1.
</event>
<event>
 7    1  0.2492468E-009  0.4778727E+02  0.7816164E-02  0.1312668E+00
        -11   -1    0    0    0    0  0.00000000000E+00  0.00000000000E+00  0.45593999997E+02  0.45594000000E+02  0.51100000000E-03 0.  1.
         11   -1    0    0    0    0 -0.00000000000E+00 -0.00000000000E+00 -0.45593999997E+02  0.45594000000E+02  0.51100000000E-03 0. -1.
    9900012    2    1    2    0    0 -0.20755888896E+02 -0.79575907330E+01  0.37275904221E+02  0.47787271784E+02  0.20000003372E+02 0.  0.
         12    1    1    2    0    0  0.20755888896E+02  0.79575907330E+01 -0.37275904221E+02  0.43400728216E+02  0.00000000000E+00 0. -1.
         11    1    3    3    0    0 -0.10997636803E+02 -0.37672141855E+01  0.11266487144E+02  0.16188688977E+02  0.51100000000E-03 0.  1.
        -11    1    3    3    0    0 -0.15636242947E-01 -0.10095576650E+01 -0.17429583339E+01  0.20142877614E+01  0.51100000000E-03 0. -1.
         12    1    3    3    0    0 -0.97426158505E+01 -0.31808188826E+01  0.27752375411E+02  0.29584295045E+02  0.00000000000E+00 0. -1.
</event>
<event>
 7    1  0.2492468E-009  0.4778727E+02  0.7816164E-02  0.1312668E+00
        -11   -1    0    0    0    0  0.00000000000E+00  0.00000000000E+00  0.45593999997E+02  0.45594000000E+02  0.51100000000E-03 0.  1.
         11   -1    0    0    0    0 -0.00000000000E+00 -0.00000000000E+00 -0.45593999997E+02  0.45594000000E+02  0.51100000000E-03 0. -1.
    9900012    2    1    2    0    0 -0.30042566171E+02  0.27417159682E+02  0.15144875400E+02  0.47787266388E+02  0.19999978770E+02 0.  0.
         12    1    1    2    0    0  0.30042566171E+02 -0.27417159682E+02 -0.15144875400E+02  0.43400733612E+02  0.00000000000E+00 0. -1.
         11    1    3    3    0    0 -0.94263572775E+01  0.13727455519E+02  0.51996612364E+01  0.17445220657E+02  0.51100000000E-03 0. -1.
        -11    1    3    3    0    0 -0.16064144080E+02  0.13762464960E+02  0.13028480919E+02  0.24843580300E+02  0.51100000000E-03 0.  1.
        -12    1    3    3    0    0 -0.45520648142E+01 -0.72760797423E-01 -0.30832667558E+01  0.54984654308E+01  0.00000000000E+00 0.  1.
</event>
<event>
 7    1  0.2492468E-009  0.4778728E+02  0.7816164E-02  0.1312668E+00
        -11   -1    0    0    0    0  0.00000000000E+00  0.00000000000E+00  0.45593999997E+02  0.45594000000E+02  0.51100000000E-03 0.  1.
         11   -1    0    0    0    0 -0.00000000000E+00 -0.00000000000E+00 -0.45593999997E+02  0.45594000000E+02  0.51100000000E-03 0. -1.
    9900012    2    1    2    0    0 -0.14586631886E+02 -0.38187294590E+02 -0.14580245944E+02  0.47787275701E+02  0.20000021233E+02 0.  0.
         12    1    1    2    0    0  0.14586631886E+02  0.38187294590E+02  0.14580245944E+02  0.43400724299E+02  0.00000000000E+00 0. -1.
         11    1    3    3    0    0 -0.47841273313E+01 -0.40407499232E+01 -0.50907244118E+01  0.80703785266E+01  0.51100000000E-03 0. -1.
        -11    1    3    3    0    0  0.15172450216E+01  0.42613078952E+00 -0.20492895519E+01  0.25851900963E+01  0.51100000000E-03 0.  1.
        -12    1    3    3    0    0 -0.11319749576E+02 -0.34572675456E+02 -0.74402319803E+01  0.37131707079E+02  0.00000000000E+00 0.  1.
</event>
<event>
 7    1  0.2492468E-009  0.4778727E+02  0.7816164E-02  0.1312668E+00
        -11   -1    0    0    0    0  0.00000000000E+00  0.00000000000E+00  0.45593999997E+02  0.45594000000E+02  0.51100000000E-03 0.  1.
         11   -1    0    0    0    0 -0.00000000000E+00 -0.00000000000E+00 -0.45593999997E+02  0.45594000000E+02  0.51100000000E-03 0. -1.
    9900012    2    1    2    0    0  0.15732585213E+02 -0.23234648352E+02  0.33109822183E+02  0.47787269056E+02  0.19999990933E+02 0.  0.
         12    1    1    2    0    0 -0.15732585213E+02  0.23234648352E+02 -0.33109822183E+02  0.43400730944E+02  0.00000000000E+00 0. -1.
         11    1    3    3    0    0  0.42829031910E+01 -0.25219413852E+01  0.49745598769E+01  0.70320476622E+01  0.51100000000E-03 0. -1.
        -11    1    3    3    0    0 -0.93502977534E+00 -0.16104260108E+02  0.17424901104E+02  0.23745497532E+02  0.51100000000E-03 0.  1.
        -12    1    3    3    0    0  0.12384711798E+02 -0.46084468582E+01  0.10710361202E+02  0.17009723861E+02  0.00000000000E+00 0.  1.
</event>
<event>
 7    1  0.2492468E-009  0.4778727E+02  0.7816164E-02  0.1312668E+00
        -11   -1    0    0    0    0  0.00000000000E+00  0.00000000000E+00  0.45593999997E+02  0.45594000000E+02  0.51100000000E-03 0.  1.
         11   -1    0    0    0    0 -0.00000000000E+00 -0.00000000000E+00 -0.45593999997E+02  0.45594000000E+02  0.51100000000E-03 0. -1.
    9900012    2    1    2    0    0  0.21130722882E+02  0.33042140733E+02  0.18583131965E+02  0.47787270659E+02  0.19999998243E+02 0.  0.
         12    1    1    2    0    0 -0.21130722882E+02 -0.33042140733E+02 -0.18583131965E+02  0.43400729341E+02  0.00000000000E+00 0. -1.
         11    1    3    3    0    0  0.73922213645E+01  0.32512784176E+01  0.34154757272E+01  0.87681938137E+01  0.51100000000E-03 0.  1.
        -11    1    3    3    0    0  0.64629607340E+01  0.17546528619E+02  0.69251328577E+00  0.18711763758E+02  0.51100000000E-03 0. -1.
         12    1    3    3    0    0  0.72755407835E+01  0.12244333696E+02  0.14475142952E+02  0.20307313087E+02  0.00000000000E+00 0. -1.
</event>
<event>
 7    1  0.2492468E-009  0.4778726E+02  0.7816164E-02  0.1312668E+00
        -11   -1    0    0    0    0  0.00000000000E+00  0.00000000000E+00  0.45593999997E+02  0.45594000000E+02  0.51100000000E-03 0.  1.
         11   -1    0    0    0    0 -0.00000000000E+00 -0.00000000000E+00 -0.45593999997E+02  0.45594000000E+02  0.51100000000E-03 0. -1.
    9900012    2    1    2    0    0 -0.27171453828E+02 -0.13565236817E+02  0.31005166802E+02  0.47787263584E+02  0.19999965987E+02 0.  0.
         12    1    1    2    0    0  0.27171453828E+02  0.13565236817E+02 -0.31005166802E+02  0.43400736416E+02  0.00000000000E+00 0. -1.
         11    1    3    3    0    0 -0.22552209898E+02 -0.79495790542E+01  0.23782304384E+02  0.33725301785E+02  0.51100000000E-03 0.  1.
        -11    1    3    3    0    0 -0.37426603769E+01  0.19722096197E+01  0.38198886572E+01  0.56998830773E+01  0.51100000000E-03 0. -1.
        -12    1    3    3    0    0 -0.87658355303E+00 -0.75878673824E+01  0.34029737606E+01  0.83620787221E+01  0.00000000000E+00 0.  1.
</event>
<event>
 7    1  0.2492468E-009  0.4778724E+02  0.7816164E-02  0.1312668E+00
        -11   -1    0    0    0    0  0.00000000000E+00  0.00000000000E+00  0.45593999997E+02  0.45594000000E+02  0.51100000000E-03 0.  1.
         11   -1    0    0    0    0 -0.00000000000E+00 -0.00000000000E+00 -0.45593999997E+02  0.45594000000E+02  0.51100000000E-03 0. -1.
    9900012    2    1    2    0    0  0.10580643323E+02 -0.16582263113E+02  0.38687261907E+02  0.47787243130E+02  0.19999872724E+02 0.  0.
         12    1    1    2    0    0 -0.10580643323E+02  0.16582263113E+02 -0.38687261907E+02  0.43400756870E+02  0.00000000000E+00 0. -1.
         11    1    3    3    0    0 -0.32712341621E+01  0.10659448350E+00  0.49387465255E+01  0.59248251309E+01  0.51100000000E-03 0. -1.
        -11    1    3    3    0    0  0.27545297625E+01 -0.12256988920E+02  0.20292074834E+02  0.23866074519E+02  0.51100000000E-03 0.  1.
         12    1    3    3    0    0  0.11097347723E+02 -0.44318686763E+01  0.13456440547E+02  0.17996343480E+02  0.00000000000E+00 0. -1.
</event>
<event>
 7    1  0.2492468E-009  0.4778728E+02  0.7816164E-02  0.1312668E+00
        -11   -1    0    0    0    0  0.00000000000E+00  0.00000000000E+00  0.45593999997E+02  0.45594000000E+02  0.51100000000E-03 0. -1.
         11   -1    0    0    0    0 -0.00000000000E+00 -0.00000000000E+00 -0.45593999997E+02  0.45594000000E+02  0.51100000000E-03 0.  1.
    9900012    2    1    2    0    0  0.22147492415E+02 -0.26166974488E+02 -0.26615792865E+02  0.47787281066E+02  0.20000045694E+02 0.  0.
         12    1    1    2    0    0 -0.22147492415E+02  0.26166974488E+02  0.26615792865E+02  0.43400718934E+02  0.00000000000E+00 0. -1.
         11    1    3    3    0    0  0.55964816276E+00  0.18241240048E+01 -0.10118932686E+01  0.21597598707E+01  0.51100000000E-03 0. -1.
        -11    1    3    3    0    0  0.11457783614E+02 -0.94922906539E+01 -0.17654675870E+02  0.23088351339E+02  0.51100000000E-03 0.  1.
        -12    1    3    3    0    0  0.10130060637E+02 -0.18498807839E+02 -0.79492237265E+01  0.22539169857E+02  0.00000000000E+00 0.  1.
</event>
<event>
 7    1  0.2492468E-009  0.4778728E+02  0.7816164E-02  0.1312668E+00
        -11   -1    0    0    0    0  0.00000000000E+00  0.00000000000E+00  0.45593999997E+02  0.45594000000E+02  0.51100000000E-03 0.  1.
         11   -1    0    0    0    0 -0.00000000000E+00 -0.00000000000E+00 -0.45593999997E+02  0.45594000000E+02  0.51100000000E-03 0. -1.
    9900012    2    1    2    0    0 -0.38187002220E+02  0.94324074176E+01  0.18341358202E+02  0.47787275710E+02  0.20000021272E+02 0.  0.
         12    1    1    2    0    0  0.38187002220E+02 -0.94324074176E+01 -0.18341358202E+02  0.43400724290E+02  0.00000000000E+00 0. -1.
         11    1    3    3    0    0 -0.28401401922E+01  0.31130871965E+01 -0.21130291624E+01  0.47140853521E+01  0.51100000000E-03 0. -1.
        -11    1    3    3    0    0 -0.12885256551E+02 -0.28407736515E+01  0.40982462133E+01  0.13816492088E+02  0.51100000000E-03 0.  1.
        -12    1    3    3    0    0 -0.22461605476E+02  0.91600938726E+01  0.16356141151E+02  0.29256698270E+02  0.00000000000E+00 0.  1.
</event>
<event>
 7    1  0.2492468E-009  0.4778727E+02  0.7816164E-02  0.1312668E+00
        -11   -1    0    0    0    0  0.00000000000E+00  0.00000000000E+00  0.45593999997E+02  0.45594000000E+02  0.51100000000E-03 0.  1.
         11   -1    0    0    0    0 -0.00000000000E+00 -0.00000000000E+00 -0.45593999997E+02  0.45594000000E+02  0.51100000000E-03 0. -1.
    9900012    2    1    2    0    0  0.22907284687E+02 -0.36836034479E+02 -0.14093300761E+01  0.47787270292E+02  0.19999996570E+02 0.  0.
         12    1    1    2    0    0 -0.22907284687E+02  0.36836034479E+02  0.14093300761E+01  0.43400729708E+02  0.00000000000E+00 0. -1.
         11    1    3    3    0    0  0.65440777178E+01 -0.13026685107E+01 -0.93643334088E+00  0.67378636145E+01  0.51100000000E-03 0. -1.
        -11    1    3    3    0    0  0.12736042006E+02 -0.18539426568E+02  0.45774513667E+01  0.22953652535E+02  0.51100000000E-03 0.  1.
        -12    1    3    3    0    0  0.36271649636E+01 -0.16993939401E+02 -0.50503481019E+01  0.18095754142E+02  0.00000000000E+00 0.  1.
</event>
<event>
 7    1  0.2492468E-009  0.4778727E+02  0.7816164E-02  0.1312668E+00
        -11   -1    0    0    0    0  0.00000000000E+00  0.00000000000E+00  0.45593999997E+02  0.45594000000E+02  0.51100000000E-03 0.  1.
         11   -1    0    0    0    0 -0.00000000000E+00 -0.00000000000E+00 -0.45593999997E+02  0.45594000000E+02  0.51100000000E-03 0. -1.
    9900012    2    1    2    0    0 -0.36415294276E+02  0.12066818972E+02  0.20296346182E+02  0.47787269066E+02  0.19999990978E+02 0.  0.
         12    1    1    2    0    0  0.36415294276E+02 -0.12066818972E+02 -0.20296346182E+02  0.43400730934E+02  0.00000000000E+00 0. -1.
         11    1    3    3    0    0 -0.51020586013E+01 -0.44783253313E+01  0.31050744339E+01  0.74651113351E+01  0.51100000000E-03 0.  1.
        -11    1    3    3    0    0 -0.92733890959E+01  0.19815925513E+01  0.15118138545E+01  0.96025015363E+01  0.51100000000E-03 0. -1.
        -12    1    3    3    0    0 -0.22039846578E+02  0.14563551752E+02  0.15679457894E+02  0.30719656194E+02  0.00000000000E+00 0.  1.
</event>
<event>
 7    1  0.2546233E-009  0.4778724E+02  0.7816164E-02  0.1312668E+00
        -11   -1    0    0    0    0  0.00000000000E+00  0.00000000000E+00  0.45593999997E+02  0.45594000000E+02  0.51100000000E-03 0. -1.
         11   -1    0    0    0    0 -0.00000000000E+00 -0.00000000000E+00 -0.45593999997E+02  0.45594000000E+02  0.51100000000E-03 0.  1.
    9900012    2    1    2    0    0  0.10396220742E+02 -0.62736492228E+00 -0.42132544296E+02  0.47787236398E+02  0.19999842030E+02 0.  0.
         12    1    1    2    0    0 -0.10396220742E+02  0.62736492228E+00  0.42132544296E+02  0.43400763602E+02  0.00000000000E+00 0. -1.
         11    1    3    3    0    0  0.13198032362E+00 -0.27953158218E+01 -0.13927561942E+02  0.14205920993E+02  0.51100000000E-03 0. -1.
        -11    1    3    3    0    0  0.65387017590E+01 -0.51718754519E+01 -0.21173566119E+02  0.22755720574E+02  0.51100000000E-03 0.  1.
         12    1    3    3    0    0  0.37255386590E+01  0.73398263514E+01 -0.70314162342E+01  0.10825594830E+02  0.00000000000E+00 0. -1.
</event>
<event>
 7    1  0.2492468E-009  0.4778727E+02  0.7816164E-02  0.1312668E+00
        -11   -1    0    0    0    0  0.00000000000E+00  0.00000000000E+00  0.45593999997E+02  0.45594000000E+02  0.51100000000E-03 0. -1.
         11   -1    0    0    0    0 -0.00000000000E+00 -0.00000000000E+00 -0.45593999997E+02  0.45594000000E+02  0.51100000000E-03 0.  1.
    9900012    2    1    2    0    0  0.30455415799E+02 -0.30913584275E+02 -0.66460109593E+00  0.47787265688E+02  0.19999975576E+02 0.  0.
         12    1    1    2    0    0 -0.30455415799E+02  0.30913584275E+02  0.66460109593E+00  0.43400734312E+02  0.00000000000E+00 0. -1.
         11    1    3    3    0    0  0.47163590059E+01 -0.60689410162E+01  0.43524032921E+01  0.88328648812E+01  0.51100000000E-03 0. -1.
        -11    1    3    3    0    0  0.13684837939E+02 -0.22171043785E+02 -0.14158598097E+01  0.26092808036E+02  0.51100000000E-03 0.  1.
        -12    1    3    3    0    0  0.12054218854E+02 -0.26735994744E+01 -0.36011445783E+01  0.12861592771E+02  0.00000000000E+00 0.  1.
</event>
<event>
 7    1  0.2492468E-009  0.4778727E+02  0.7816164E-02  0.1312668E+00
        -11   -1    0    0    0    0  0.00000000000E+00  0.00000000000E+00  0.45593999997E+02  0.45594000000E+02  0.51100000000E-03 0.  1.
         11   -1    0    0    0    0 -0.00000000000E+00 -0.00000000000E+00 -0.45593999997E+02  0.45594000000E+02  0.51100000000E-03 0. -1.
    9900012    2    1    2    0    0  0.36087850719E+02 -0.19907339563E+02  0.13601038457E+02  0.47787269763E+02  0.19999994159E+02 0.  0.
         12    1    1    2    0    0 -0.36087850719E+02  0.19907339563E+02 -0.13601038457E+02  0.43400730237E+02  0.00000000000E+00 0. -1.
         11    1    3    3    0    0  0.18321714413E+02 -0.51144187793E+01  0.25999512910E+01  0.19199016783E+02  0.51100000000E-03 0. -1.
        -11    1    3    3    0    0  0.14477405504E+02 -0.38789385136E+01  0.62789371972E+01  0.16250122668E+02  0.51100000000E-03 0.  1.
         12    1    3    3    0    0  0.32887308018E+01 -0.10913982270E+02  0.47221499685E+01  0.12338130312E+02  0.00000000000E+00 0. -1.
</event>
<event>
 7    1  0.2492468E-009  0.4778727E+02  0.7816164E-02  0.1312668E+00
        -11   -1    0    0    0    0  0.00000000000E+00  0.00000000000E+00  0.45593999997E+02  0.45594000000E+02  0.51100000000E-03 0. -1.
         11   -1    0    0    0    0 -0.00000000000E+00 -0.00000000000E+00 -0.45593999997E+02  0.45594000000E+02  0.51100000000E-03 0.  1.
    9900012    2    1    2    0    0 -0.30045062658E+02  0.67647534575E+01 -0.30580316344E+02  0.47787269279E+02  0.19999991950E+02 0.  0.
         12    1    1    2    0    0  0.30045062658E+02 -0.67647534575E+01  0.30580316344E+02  0.43400730721E+02  0.00000000000E+00 0. -1.
         11    1    3    3    0    0 -0.99478533918E+01  0.19373093483E+01 -0.11655920964E+01  0.10201546932E+02  0.51100000000E-03 0. -1.
        -11    1    3    3    0    0 -0.17780040960E+02  0.32068152283E+01 -0.16843980579E+02  0.24700874528E+02  0.51100000000E-03 0.  1.
        -12    1    3    3    0    0 -0.23171683060E+01  0.16206288809E+01 -0.12570743669E+02  0.12884847819E+02  0.00000000000E+00 0.  1.
</event>
<event>
 7    1  0.2492468E-009  0.4778727E+02  0.7816164E-02  0.1312668E+00
        -11   -1    0    0    0    0  0.00000000000E+00  0.00000000000E+00  0.45593999997E+02  0.45594000000E+02  0.51100000000E-03 0.  1.
         11   -1    0    0    0    0 -0.00000000000E+00 -0.00000000000E+00 -0.45593999997E+02  0.45594000000E+02  0.51100000000E-03 0. -1.
    9900012    2    1    2    0    0  0.18237859541E+02 -0.11031840893E+02  0.37806112570E+02  0.47787272106E+02  0.20000004838E+02 0.  0.
         12    1    1    2    0    0 -0.18237859541E+02  0.11031840893E+02 -0.37806112570E+02  0.43400727894E+02  0.00000000000E+00 0. -1.
         11    1    3    3    0    0  0.22700729776E+01  0.23068404860E+01  0.13202176826E+02  0.13593094481E+02  0.51100000000E-03 0. -1.
        -11    1    3    3    0    0  0.10130982955E+02 -0.50579705365E+01  0.20178915219E+02  0.23138895852E+02  0.51100000000E-03 0.  1.
        -12    1    3    3    0    0  0.58368036087E+01 -0.82807108428E+01  0.44250205243E+01  0.11055281773E+02  0.00000000000E+00 0.  1.
</event>
<event>
 7    1  0.2492468E-009  0.4778729E+02  0.7816164E-02  0.1312668E+00
        -11   -1    0    0    0    0  0.00000000000E+00  0.00000000000E+00  0.45593999997E+02  0.45594000000E+02  0.51100000000E-03 0. -1.
         11   -1    0    0    0    0 -0.00000000000E+00 -0.00000000000E+00 -0.45593999997E+02  0.45594000000E+02  0.51100000000E-03 0.  1.
    9900012    2    1    2    0    0  0.41881873613E+02 -0.49108748375E+01 -0.10267110145E+02  0.47787290562E+02  0.20000088988E+02 0.  0.
         12    1    1    2    0    0 -0.41881873613E+02  0.49108748375E+01  0.10267110145E+02  0.43400709438E+02  0.00000000000E+00 0. -1.
         11    1    3    3    0    0  0.23810987970E+01 -0.39050072001E+01 -0.47373598698E+00  0.45981668913E+01  0.51100000000E-03 0. -1.
        -11    1    3    3    0    0  0.61455395776E+01  0.33349917926E+01  0.24272416504E+01  0.74014410250E+01  0.51100000000E-03 0.  1.
        -12    1    3    3    0    0  0.33355235238E+02 -0.43408594299E+01 -0.12220615808E+02  0.35787682646E+02  0.00000000000E+00 0.  1.
</event>
<event>
 7    1  0.2492468E-009  0.4778729E+02  0.7816164E-02  0.1312668E+00
        -11   -1    0    0    0    0  0.00000000000E+00  0.00000000000E+00  0.45593999997E+02  0.45594000000E+02  0.51100000000E-03 0.  1.
         11   -1    0    0    0    0 -0.00000000000E+00 -0.00000000000E+00 -0.45593999997E+02  0.45594000000E+02  0.51100000000E-03 0. -1.
    9900012    2    1    2    0    0 -0.30948979352E+02  0.25098094110E+02  0.17200822590E+02  0.47787286311E+02  0.20000069607E+02 0.  0.
         12    1    1    2    0    0  0.30948979352E+02 -0.25098094110E+02 -0.17200822590E+02  0.43400713689E+02  0.00000000000E+00 0. -1.
         11    1    3    3    0    0 -0.86539645887E+01  0.15980287650E+02  0.95935116283E+01  0.20549845793E+02  0.51100000000E-03 0.  1.
        -11    1    3    3    0    0 -0.61036067645E+01  0.76413462640E+01  0.41023554260E+01  0.10605352826E+02  0.51100000000E-03 0. -1.
        -12    1    3    3    0    0 -0.16191407999E+02  0.14764601961E+01  0.35049555360E+01  0.16632087692E+02  0.00000000000E+00 0.  1.
</event>
<event>
 7    1  0.2492468E-009  0.4778727E+02  0.7816164E-02  0.1312668E+00
        -11   -1    0    0    0    0  0.00000000000E+00  0.00000000000E+00  0.45593999997E+02  0.45594000000E+02  0.51100000000E-03 0.  1.
         11   -1    0    0    0    0 -0.00000000000E+00 -0.00000000000E+00 -0.45593999997E+02  0.45594000000E+02  0.51100000000E-03 0. -1.
    9900012    2    1    2    0    0 -0.42872195225E+02  0.41071145066E+01  0.53600184710E+01  0.47787270617E+02  0.19999998051E+02 0.  0.
         12    1    1    2    0    0  0.42872195225E+02 -0.41071145066E+01 -0.53600184710E+01  0.43400729383E+02  0.00000000000E+00 0. -1.
         11    1    3    3    0    0 -0.95001310528E+01  0.60761144591E+01  0.39270953498E+01  0.11941261872E+02  0.51100000000E-03 0. -1.
        -11    1    3    3    0    0 -0.26021626721E+02  0.37361635729E+01 -0.70861278909E+00  0.26298024789E+02  0.51100000000E-03 0.  1.
        -12    1    3    3    0    0 -0.73504374511E+01 -0.57051635254E+01  0.21415359103E+01  0.95479839563E+01  0.00000000000E+00 0.  1.
</event>
<event>
 7    1  0.2492468E-009  0.4778727E+02  0.7816164E-02  0.1312668E+00
        -11   -1    0    0    0    0  0.00000000000E+00  0.00000000000E+00  0.45593999997E+02  0.45594000000E+02  0.51100000000E-03 0.  1.
         11   -1    0    0    0    0 -0.00000000000E+00 -0.00000000000E+00 -0.45593999997E+02  0.45594000000E+02  0.51100000000E-03 0. -1.
    9900012    2    1    2    0    0 -0.39727123374E+02  0.17447386716E+02  0.98367195113E+00  0.47787271374E+02  0.20000001501E+02 0.  0.
         12    1    1    2    0    0  0.39727123374E+02 -0.17447386716E+02 -0.98367195113E+00  0.43400728626E+02  0.00000000000E+00 0. -1.
         11    1    3    3    0    0  0.91847303856E+00 -0.48363536311E+00  0.10722164107E+00  0.10435480959E+01  0.51100000000E-03 0. -1.
        -11    1    3    3    0    0 -0.90274205602E+01 -0.38375299034E+00  0.43712616447E+01  0.10037405888E+02  0.51100000000E-03 0.  1.
        -12    1    3    3    0    0 -0.31618175852E+02  0.18314775069E+02 -0.34948113346E+01  0.36706317390E+02  0.00000000000E+00 0.  1.
</event>
<event>
 7    1  0.2492468E-009  0.4778728E+02  0.7816164E-02  0.1312668E+00
        -11   -1    0    0    0    0  0.00000000000E+00  0.00000000000E+00  0.45593999997E+02  0.45594000000E+02  0.51100000000E-03 0.  1.
         11   -1    0    0    0    0 -0.00000000000E+00 -0.00000000000E+00 -0.45593999997E+02  0.45594000000E+02  0.51100000000E-03 0. -1.
    9900012    2    1    2    0    0  0.15453706587E+02 -0.57408729234E+01  0.40147822828E+02  0.47787281722E+02  0.20000048685E+02 0.  0.
         12    1    1    2    0    0 -0.15453706587E+02  0.57408729234E+01 -0.40147822828E+02  0.43400718278E+02  0.00000000000E+00 0. -1.
         11    1    3    3    0    0  0.16198275312E+02 -0.34216094984E+01  0.18059396122E+02  0.24499659655E+02  0.51100000000E-03 0. -1.
        -11    1    3    3    0    0  0.62261157747E+00  0.23400726523E+01  0.56506369895E+01  0.61476242438E+01  0.51100000000E-03 0.  1.
        -12    1    3    3    0    0 -0.13671803022E+01 -0.46593360773E+01  0.16437789716E+02  0.17139997824E+02  0.00000000000E+00 0.  1.
</event>
<event>
 7    1  0.2492468E-009  0.4778725E+02  0.7816164E-02  0.1312668E+00
        -11   -1    0    0    0    0  0.00000000000E+00  0.00000000000E+00  0.45593999997E+02  0.45594000000E+02  0.51100000000E-03 0.  1.
         11   -1    0    0    0    0 -0.00000000000E+00 -0.00000000000E+00 -0.45593999997E+02  0.45594000000E+02  0.51100000000E-03 0. -1.
    9900012    2    1    2    0    0  0.44274729674E+01 -0.28618105937E+02  0.32326873717E+02  0.47787248064E+02  0.19999895222E+02 0.  0.
         12    1    1    2    0    0 -0.44274729674E+01  0.28618105937E+02 -0.32326873717E+02  0.43400751936E+02  0.00000000000E+00 0. -1.
         11    1    3    3    0    0 -0.53931683139E+01 -0.49321628215E+01  0.65580468072E+01  0.98193926873E+01  0.51100000000E-03 0. -1.
        -11    1    3    3    0    0  0.19531095584E+01 -0.18146007837E+02  0.17377203922E+02  0.25200385984E+02  0.51100000000E-03 0.  1.
        -12    1    3    3    0    0  0.78675317229E+01 -0.55399352784E+01  0.83916229885E+01  0.12767469392E+02  0.00000000000E+00 0.  1.
</event>
<event>
 7    1  0.2492468E-009  0.4778727E+02  0.7816164E-02  0.1312668E+00
        -11   -1    0    0    0    0  0.00000000000E+00  0.00000000000E+00  0.45593999997E+02  0.45594000000E+02  0.51100000000E-03 0.  1.
         11   -1    0    0    0    0 -0.00000000000E+00 -0.00000000000E+00 -0.45593999997E+02  0.45594000000E+02  0.51100000000E-03 0. -1.
    9900012    2    1    2    0    0 -0.33797121109E+02  0.74336038763E+01  0.26193883005E+02  0.47787269951E+02  0.19999995016E+02 0.  0.
         12    1    1    2    0    0  0.33797121109E+02 -0.74336038763E+01 -0.26193883005E+02  0.43400730049E+02  0.00000000000E+00 0. -1.
         11    1    3    3    0    0 -0.14308332053E+02  0.69345421730E+01  0.15841378692E+01  0.15978915306E+02  0.51100000000E-03 0. -1.
        -11    1    3    3    0    0 -0.88858063554E+01  0.13644353276E+01  0.77317972303E+01  0.11857484009E+02  0.51100000000E-03 0.  1.
        -12    1    3    3    0    0 -0.10602982701E+02 -0.86537362427E+00  0.16877947906E+02  0.19950870637E+02  0.00000000000E+00 0.  1.
</event>
<event>
 7    1  0.2492468E-009  0.4778727E+02  0.7816164E-02  0.1312668E+00
        -11   -1    0    0    0    0  0.00000000000E+00  0.00000000000E+00  0.45593999997E+02  0.45594000000E+02  0.51100000000E-03 0. -1.
         11   -1    0    0    0    0 -0.00000000000E+00 -0.00000000000E+00 -0.45593999997E+02  0.45594000000E+02  0.51100000000E-03 0.  1.
    9900012    2    1    2    0    0  0.35128872219E+02  0.78046605790E+01 -0.24262576655E+02  0.47787274015E+02  0.20000013542E+02 0.  0.
         12    1    1    2    0    0 -0.35128872219E+02 -0.78046605790E+01  0.24262576655E+02  0.43400725985E+02  0.00000000000E+00 0. -1.
         11    1    3    3    0    0  0.28987941538E+01 -0.26290600622E+01 -0.43742432470E+01  0.58693243735E+01  0.51100000000E-03 0. -1.
        -11    1    3    3    0    0  0.61000433194E+01  0.36768451499E+00  0.19417959954E+01  0.64121987142E+01  0.51100000000E-03 0.  1.
        -12    1    3    3    0    0  0.26130034746E+02  0.10066036126E+02 -0.21830129403E+02  0.35505750927E+02  0.00000000000E+00 0.  1.
</event>
<event>
 7    1  0.2492468E-009  0.4778727E+02  0.7816164E-02  0.1312668E+00
        -11   -1    0    0    0    0  0.00000000000E+00  0.00000000000E+00  0.45593999997E+02  0.45594000000E+02  0.51100000000E-03 0.  1.
         11   -1    0    0    0    0 -0.00000000000E+00 -0.00000000000E+00 -0.45593999997E+02  0.45594000000E+02  0.51100000000E-03 0. -1.
    9900012    2    1    2    0    0  0.42265086723E+02 -0.86496264765E+01  0.47402269609E+01  0.47787270219E+02  0.19999996238E+02 0.  0.
         12    1    1    2    0    0 -0.42265086723E+02  0.86496264765E+01 -0.47402269609E+01  0.43400729781E+02  0.00000000000E+00 0. -1.
         11    1    3    3    0    0  0.39896448213E+01 -0.19336574683E+01  0.42913976781E+01  0.61702829187E+01  0.51100000000E-03 0. -1.
        -11    1    3    3    0    0  0.24080482327E+02 -0.16941783918E+01  0.70910441909E+01  0.25159943909E+02  0.51100000000E-03 0.  1.
        -12    1    3    3    0    0  0.14194959575E+02 -0.50217906164E+01 -0.66422149082E+01  0.16457043392E+02  0.00000000000E+00 0.  1.
</event>
<event>
 7    1  0.2492468E-009  0.4778727E+02  0.7816164E-02  0.1312668E+00
        -11   -1    0    0    0    0  0.00000000000E+00  0.00000000000E+00  0.45593999997E+02  0.45594000000E+02  0.51100000000E-03 0.  1.
         11   -1    0    0    0    0 -0.00000000000E+00 -0.00000000000E+00 -0.45593999997E+02  0.45594000000E+02  0.51100000000E-03 0. -1.
    9900012    2    1    2    0    0  0.27210273237E+02  0.21950387239E+02  0.25717793684E+02  0.47787269804E+02  0.19999994342E+02 0.  0.
         12    1    1    2    0    0 -0.27210273237E+02 -0.21950387239E+02 -0.25717793684E+02  0.43400730196E+02  0.00000000000E+00 0. -1.
         11    1    3    3    0    0  0.83848609600E+01  0.14054475219E+02  0.38412893369E+01  0.16810403655E+02  0.51100000000E-03 0. -1.
        -11    1    3    3    0    0  0.90104680212E+01 -0.33577407654E+00  0.75663548087E+01  0.11770769029E+02  0.51100000000E-03 0.  1.
        -12    1    3    3    0    0  0.98149442560E+01  0.82316860970E+01  0.14310149539E+02  0.19206097120E+02  0.00000000000E+00 0.  1.
</event>
<event>
 7    1  0.2492468E-009  0.4778727E+02  0.7816164E-02  0.1312668E+00
        -11   -1    0    0    0    0  0.00000000000E+00  0.00000000000E+00  0.45593999997E+02  0.45594000000E+02  0.51100000000E-03 0. -1.
         11   -1    0    0    0    0 -0.00000000000E+00 -0.00000000000E+00 -0.45593999997E+02  0.45594000000E+02  0.51100000000E-03 0.  1.
    9900012    2    1    2    0    0 -0.31813747160E+02 -0.91507144732E+01 -0.28067292725E+02  0.47787274147E+02  0.20000014144E+02 0.  0.
         12    1    1    2    0    0  0.31813747160E+02  0.91507144732E+01  0.28067292725E+02  0.43400725853E+02  0.00000000000E+00 0. -1.
         11    1    3    3    0    0 -0.84646589239E+01 -0.24566924139E+01 -0.37736718061E+01  0.95878249606E+01  0.51100000000E-03 0. -1.
        -11    1    3    3    0    0  0.24622248110E+01 -0.17525622786E+01 -0.39042877968E+01  0.49373564811E+01  0.51100000000E-03 0.  1.
         12    1    3    3    0    0 -0.25811313047E+02 -0.49414597808E+01 -0.20389333122E+02  0.33262092705E+02  0.00000000000E+00 0. -1.
</event>
<event>
 7    1  0.2492468E-009  0.4778727E+02  0.7816164E-02  0.1312668E+00
        -11   -1    0    0    0    0  0.00000000000E+00  0.00000000000E+00  0.45593999997E+02  0.45594000000E+02  0.51100000000E-03 0. -1.
         11   -1    0    0    0    0 -0.00000000000E+00 -0.00000000000E+00 -0.45593999997E+02  0.45594000000E+02  0.51100000000E-03 0.  1.
    9900012    2    1    2    0    0  0.12238270951E+02 -0.40927947125E+02  0.76649251012E+01  0.47787271797E+02  0.20000003432E+02 0.  0.
         12    1    1    2    0    0 -0.12238270951E+02  0.40927947125E+02 -0.76649251012E+01  0.43400728203E+02  0.00000000000E+00 0. -1.
         11    1    3    3    0    0  0.37690335620E+01 -0.20227638989E+02  0.78104320333E+01  0.22008313018E+02  0.51100000000E-03 0.  1.
        -11    1    3    3    0    0  0.11204049498E+02 -0.14275843299E+02  0.24865232951E+01  0.18317020102E+02  0.51100000000E-03 0. -1.
         12    1    3    3    0    0 -0.27348121095E+01 -0.64244648365E+01 -0.26320302273E+01  0.74619386775E+01  0.00000000000E+00 0. -1.
</event>
<event>
 7    1  0.2492468E-009  0.4778727E+02  0.7816164E-02  0.1312668E+00
        -11   -1    0    0    0    0  0.00000000000E+00  0.00000000000E+00  0.45593999997E+02  0.45594000000E+02  0.51100000000E-03 0.  1.
         11   -1    0    0    0    0 -0.00000000000E+00 -0.00000000000E+00 -0.45593999997E+02  0.45594000000E+02  0.51100000000E-03 0. -1.
    9900012    2    1    2    0    0 -0.23769232019E+02  0.20270750966E+01  0.36256554928E+02  0.47787271902E+02  0.20000003909E+02 0.  0.
         12    1    1    2    0    0  0.23769232019E+02 -0.20270750966E+01 -0.36256554928E+02  0.43400728098E+02  0.00000000000E+00 0. -1.
         11    1    3    3    0    0 -0.24794028154E+01  0.20287139480E+01  0.82731772107E+00  0.33087117548E+01  0.51100000000E-03 0. -1.
        -11    1    3    3    0    0 -0.23127263670E+02  0.30484525206E+01  0.30523824239E+02  0.38417017506E+02  0.51100000000E-03 0.  1.
         12    1    3    3    0    0  0.18374344672E+01 -0.30500913720E+01  0.49054129685E+01  0.60615426411E+01  0.00000000000E+00 0. -1.
</event>
<event>
 7    1  0.2492468E-009  0.4778727E+02  0.7816164E-02  0.1312668E+00
        -11   -1    0    0    0    0  0.00000000000E+00  0.00000000000E+00  0.45593999997E+02  0.45594000000E+02  0.51100000000E-03 0.  1.
         11   -1    0    0    0    0 -0.00000000000E+00 -0.00000000000E+00 -0.45593999997E+02  0.45594000000E+02  0.51100000000E-03 0. -1.
    9900012    2    1    2    0    0 -0.81489400348E+01  0.55340644725E+01  0.42268100365E+02  0.47787269572E+02  0.19999993285E+02 0.  0.
         12    1    1    2    0    0  0.81489400348E+01 -0.55340644725E+01 -0.42268100365E+02  0.43400730428E+02  0.00000000000E+00 0. -1.
         11    1    3    3    0    0 -0.14139092977E+01  0.72849163951E+00  0.26966773179E+01  0.31307999599E+01  0.51100000000E-03 0. -1.
        -11    1    3    3    0    0 -0.10755260011E+02 -0.16468630278E+01  0.32502787920E+02  0.34275632723E+02  0.51100000000E-03 0.  1.
        -12    1    3    3    0    0  0.40202292738E+01  0.64524358608E+01  0.70686351270E+01  0.10380836889E+02  0.00000000000E+00 0.  1.
</event>
<event>
 7    1  0.2492468E-009  0.4778728E+02  0.7816164E-02  0.1312668E+00
        -11   -1    0    0    0    0  0.00000000000E+00  0.00000000000E+00  0.45593999997E+02  0.45594000000E+02  0.51100000000E-03 0.  1.
         11   -1    0    0    0    0 -0.00000000000E+00 -0.00000000000E+00 -0.45593999997E+02  0.45594000000E+02  0.51100000000E-03 0. -1.
    9900012    2    1    2    0    0  0.38956460144E+02  0.24583186157E+01  0.18972974647E+02  0.47787275532E+02  0.20000020462E+02 0.  0.
         12    1    1    2    0    0 -0.38956460144E+02 -0.24583186157E+01 -0.18972974647E+02  0.43400724468E+02  0.00000000000E+00 0. -1.
         11    1    3    3    0    0  0.39267880724E+01  0.48535947799E+01  0.37958216380E+01  0.73065250990E+01  0.51100000000E-03 0. -1.
        -11    1    3    3    0    0  0.14572208039E+02  0.55335257008E+01  0.63733007366E+01  0.16840074713E+02  0.51100000000E-03 0.  1.
        -12    1    3    3    0    0  0.20457464033E+02 -0.79288018650E+01  0.88038522723E+01  0.23640675720E+02  0.00000000000E+00 0.  1.
</event>
<event>
 7    1  0.2492468E-009  0.4778727E+02  0.7816164E-02  0.1312668E+00
        -11   -1    0    0    0    0  0.00000000000E+00  0.00000000000E+00  0.45593999997E+02  0.45594000000E+02  0.51100000000E-03 0.  1.
         11   -1    0    0    0    0 -0.00000000000E+00 -0.00000000000E+00 -0.45593999997E+02  0.45594000000E+02  0.51100000000E-03 0. -1.
    9900012    2    1    2    0    0  0.25094027598E+01 -0.36975946966E+01  0.43170057485E+02  0.47787272218E+02  0.20000005350E+02 0.  0.
         12    1    1    2    0    0 -0.25094027598E+01  0.36975946966E+01 -0.43170057485E+02  0.43400727782E+02  0.00000000000E+00 0. -1.
         11    1    3    3    0    0 -0.44169287074E+01 -0.29204753588E+01  0.84341653086E+01  0.99585932862E+01  0.51100000000E-03 0. -1.
        -11    1    3    3    0    0 -0.18819624255E+01 -0.14303841063E+01  0.23097968530E+02  0.23218611753E+02  0.51100000000E-03 0.  1.
        -12    1    3    3    0    0  0.88082938927E+01  0.65326476845E+00  0.11637923646E+02  0.14610067178E+02  0.00000000000E+00 0.  1.
</event>
<event>
 7    1  0.2492468E-009  0.4778727E+02  0.7816164E-02  0.1312668E+00
        -11   -1    0    0    0    0  0.00000000000E+00  0.00000000000E+00  0.45593999997E+02  0.45594000000E+02  0.51100000000E-03 0.  1.
         11   -1    0    0    0    0 -0.00000000000E+00 -0.00000000000E+00 -0.45593999997E+02  0.45594000000E+02  0.51100000000E-03 0. -1.
    9900012    2    1    2    0    0 -0.37023513861E+02 -0.76725507535E+01  0.21307617340E+02  0.47787272236E+02  0.20000005434E+02 0.  0.
         12    1    1    2    0    0  0.37023513861E+02  0.76725507535E+01 -0.21307617340E+02  0.43400727764E+02  0.00000000000E+00 0. -1.
         11    1    3    3    0    0 -0.11766655483E+02  0.32172062887E+01  0.10765110097E+02  0.16269363639E+02  0.51100000000E-03 0. -1.
        -11    1    3    3    0    0 -0.11590562610E+02 -0.57237129233E+01  0.10891745504E+02  0.16903613567E+02  0.51100000000E-03 0.  1.
         12    1    3    3    0    0 -0.13666295769E+02 -0.51660441189E+01 -0.34923826036E+00  0.14614295030E+02  0.00000000000E+00 0. -1.
</event>
<event>
 7    1  0.2492468E-009  0.4778727E+02  0.7816164E-02  0.1312668E+00
        -11   -1    0    0    0    0  0.00000000000E+00  0.00000000000E+00  0.45593999997E+02  0.45594000000E+02  0.51100000000E-03 0.  1.
         11   -1    0    0    0    0 -0.00000000000E+00 -0.00000000000E+00 -0.45593999997E+02  0.45594000000E+02  0.51100000000E-03 0. -1.
    9900012    2    1    2    0    0 -0.22010603488E+02  0.31492510581E+02  0.20183623889E+02  0.47787267727E+02  0.19999984872E+02 0.  0.
         12    1    1    2    0    0  0.22010603488E+02 -0.31492510581E+02 -0.20183623889E+02  0.43400732273E+02  0.00000000000E+00 0. -1.
         11    1    3    3    0    0 -0.14370222766E+02  0.97052862576E+01  0.51028520475E+01  0.18075812097E+02  0.51100000000E-03 0. -1.
        -11    1    3    3    0    0 -0.92191514530E+01  0.19677541795E+02  0.15929189429E+02  0.26943226991E+02  0.51100000000E-03 0.  1.
         12    1    3    3    0    0  0.15787707310E+01  0.21096825286E+01 -0.84841758711E+00  0.27682286384E+01  0.00000000000E+00 0. -1.
</event>
<event>
 7    1  0.2492468E-009  0.4778727E+02  0.7816164E-02  0.1312668E+00
        -11   -1    0    0    0    0  0.00000000000E+00  0.00000000000E+00  0.45593999997E+02  0.45594000000E+02  0.51100000000E-03 0.  1.
         11   -1    0    0    0    0 -0.00000000000E+00 -0.00000000000E+00 -0.45593999997E+02  0.45594000000E+02  0.51100000000E-03 0. -1.
    9900012    2    1    2    0    0 -0.14501664817E+02  0.32846671280E+02  0.24380757020E+02  0.47787269482E+02  0.19999992878E+02 0.  0.
         12    1    1    2    0    0  0.14501664817E+02 -0.32846671280E+02 -0.24380757020E+02  0.43400730518E+02  0.00000000000E+00 0. -1.
         11    1    3    3    0    0 -0.43178477719E+01  0.52699848725E+01 -0.60516570831E-01  0.68132380301E+01  0.51100000000E-03 0. -1.
        -11    1    3    3    0    0 -0.11513328201E+02  0.10594298694E+02  0.94216241613E+01  0.18263704257E+02  0.51100000000E-03 0.  1.
         12    1    3    3    0    0  0.13295111557E+01  0.16982387713E+02  0.15019649429E+02  0.22710327196E+02  0.00000000000E+00 0. -1.
</event>
<event>
 7    1  0.2492468E-009  0.4778728E+02  0.7816164E-02  0.1312668E+00
        -11   -1    0    0    0    0  0.00000000000E+00  0.00000000000E+00  0.45593999997E+02  0.45594000000E+02  0.51100000000E-03 0.  1.
         11   -1    0    0    0    0 -0.00000000000E+00 -0.00000000000E+00 -0.45593999997E+02  0.45594000000E+02  0.51100000000E-03 0. -1.
    9900012    2    1    2    0    0  0.41117529925E+01  0.17982619294E+02  0.39285385775E+02  0.47787278291E+02  0.20000033039E+02 0.  0.
         12    1    1    2    0    0 -0.41117529925E+01 -0.17982619294E+02 -0.39285385775E+02  0.43400721709E+02  0.00000000000E+00 0. -1.
         11    1    3    3    0    0 -0.58693903883E+01  0.13712920186E+02  0.15288353684E+02  0.21359486936E+02  0.51100000000E-03 0. -1.
        -11    1    3    3    0    0  0.11648626991E+01  0.12381428399E+01  0.46667420525E+01  0.49667277402E+01  0.51100000000E-03 0.  1.
         12    1    3    3    0    0  0.88162806817E+01  0.30315562690E+01  0.19330290039E+02  0.21461063615E+02  0.00000000000E+00 0. -1.
</event>
<event>
 7    1  0.2492468E-009  0.4778727E+02  0.7816164E-02  0.1312668E+00
        -11   -1    0    0    0    0  0.00000000000E+00  0.00000000000E+00  0.45593999997E+02  0.45594000000E+02  0.51100000000E-03 0.  1.
         11   -1    0    0    0    0 -0.00000000000E+00 -0.00000000000E+00 -0.45593999997E+02  0.45594000000E+02  0.51100000000E-03 0. -1.
    9900012    2    1    2    0    0 -0.54801399767E+01 -0.13484992337E+02  0.40886999555E+02  0.47787266307E+02  0.19999978400E+02 0.  0.
         12    1    1    2    0    0  0.54801399767E+01  0.13484992337E+02 -0.40886999555E+02  0.43400733693E+02  0.00000000000E+00 0. -1.
         11    1    3    3    0    0 -0.62641512489E+00 -0.76191475636E+00 -0.11768032803E+01  0.15355052023E+01  0.51100000000E-03 0. -1.
        -11    1    3    3    0    0 -0.74669003705E+01 -0.69904787193E+01  0.13150562742E+02  0.16660092874E+02  0.51100000000E-03 0.  1.
        -12    1    3    3    0    0  0.26131755187E+01 -0.57325988613E+01  0.28913240093E+02  0.29591668231E+02  0.00000000000E+00 0.  1.
</event>
<event>
 7    1  0.2492468E-009  0.4778727E+02  0.7816164E-02  0.1312668E+00
        -11   -1    0    0    0    0  0.00000000000E+00  0.00000000000E+00  0.45593999997E+02  0.45594000000E+02  0.51100000000E-03 0.  1.
         11   -1    0    0    0    0 -0.00000000000E+00 -0.00000000000E+00 -0.45593999997E+02  0.45594000000E+02  0.51100000000E-03 0. -1.
    9900012    2    1    2    0    0  0.34087984000E+02 -0.13388564675E+02  0.23289028223E+02  0.47787272439E+02  0.20000006359E+02 0.  0.
         12    1    1    2    0    0 -0.34087984000E+02  0.13388564675E+02 -0.23289028223E+02  0.43400727561E+02  0.00000000000E+00 0. -1.
         11    1    3    3    0    0  0.33841573647E+01 -0.97248095119E+00  0.14712310775E+00  0.35241858265E+01  0.51100000000E-03 0. -1.
        -11    1    3    3    0    0  0.26960226602E+02 -0.67696367870E+01  0.24840009084E+02  0.37278785552E+02  0.51100000000E-03 0.  1.
        -12    1    3    3    0    0  0.37436000329E+01 -0.56464469364E+01 -0.16981039691E+01  0.69843010604E+01  0.00000000000E+00 0.  1.
</event>
<event>
 7    1  0.2492468E-009  0.4778727E+02  0.7816164E-02  0.1312668E+00
        -11   -1    0    0    0    0  0.00000000000E+00  0.00000000000E+00  0.45593999997E+02  0.45594000000E+02  0.51100000000E-03 0. -1.
         11   -1    0    0    0    0 -0.00000000000E+00 -0.00000000000E+00 -0.45593999997E+02  0.45594000000E+02  0.51100000000E-03 0.  1.
    9900012    2    1    2    0    0 -0.39714971165E+02 -0.11994685315E+02  0.12746444499E+02  0.47787271229E+02  0.20000000842E+02 0.  0.
         12    1    1    2    0    0  0.39714971165E+02  0.11994685315E+02 -0.12746444499E+02  0.43400728771E+02  0.00000000000E+00 0. -1.
         11    1    3    3    0    0 -0.16886276011E+02  0.35543342217E+00  0.42112307401E+01  0.17407099558E+02  0.51100000000E-03 0. -1.
        -11    1    3    3    0    0 -0.82921332928E+01 -0.29030786583E+01 -0.33043885555E+01  0.93864969093E+01  0.51100000000E-03 0.  1.
         12    1    3    3    0    0 -0.14536561862E+02 -0.94470400791E+01  0.11839602315E+02  0.20993674761E+02  0.00000000000E+00 0. -1.
</event>
<event>
 7    1  0.2492468E-009  0.4778727E+02  0.7816164E-02  0.1312668E+00
        -11   -1    0    0    0    0  0.00000000000E+00  0.00000000000E+00  0.45593999997E+02  0.45594000000E+02  0.51100000000E-03 0.  1.
         11   -1    0    0    0    0 -0.00000000000E+00 -0.00000000000E+00 -0.45593999997E+02  0.45594000000E+02  0.51100000000E-03 0. -1.
    9900012    2    1    2    0    0 -0.31051428200E+02  0.12135811638E+02  0.27787662561E+02  0.47787270651E+02  0.19999998207E+02 0.  0.
         12    1    1    2    0    0  0.31051428200E+02 -0.12135811638E+02 -0.27787662561E+02  0.43400729349E+02  0.00000000000E+00 0. -1.
         11    1    3    3    0    0 -0.23113431437E+02  0.51759342158E+01  0.18733998333E+02  0.30199067893E+02  0.51100000000E-03 0. -1.
        -11    1    3    3    0    0 -0.10390493145E+02  0.39014544986E+01  0.73618872545E+01  0.13318448829E+02  0.51100000000E-03 0.  1.
         12    1    3    3    0    0  0.24524963821E+01  0.30584229238E+01  0.16917769736E+01  0.42697539290E+01  0.00000000000E+00 0. -1.
</event>
<event>
 7    1  0.2492468E-009  0.4778727E+02  0.7816164E-02  0.1312668E+00
        -11   -1    0    0    0    0  0.00000000000E+00  0.00000000000E+00  0.45593999997E+02  0.45594000000E+02  0.51100000000E-03 0. -1.
         11   -1    0    0    0    0 -0.00000000000E+00 -0.00000000000E+00 -0.45593999997E+02  0.45594000000E+02  0.51100000000E-03 0.  1.
    9900012    2    1    2    0    0 -0.17320161309E+02  0.34995404542E+02 -0.18946162365E+02  0.47787269647E+02  0.19999993627E+02 0.  0.
         12    1    1    2    0    0  0.17320161309E+02 -0.34995404542E+02  0.18946162365E+02  0.43400730353E+02  0.00000000000E+00 0. -1.
         11    1    3    3    0    0 -0.16674024141E+00 -0.20882023863E+00  0.10756949478E+01  0.11083898601E+01  0.51100000000E-03 0. -1.
        -11    1    3    3    0    0 -0.62432524652E+01  0.27244127846E+02 -0.93723843877E+01  0.29479862497E+02  0.51100000000E-03 0.  1.
         12    1    3    3    0    0 -0.10910168603E+02  0.79600969343E+01 -0.10649472926E+02  0.17199017290E+02  0.00000000000E+00 0. -1.
</event>
<event>
 7    1  0.2492468E-009  0.4778727E+02  0.7816164E-02  0.1312668E+00
        -11   -1    0    0    0    0  0.00000000000E+00  0.00000000000E+00  0.45593999997E+02  0.45594000000E+02  0.51100000000E-03 0.  1.
         11   -1    0    0    0    0 -0.00000000000E+00 -0.00000000000E+00 -0.45593999997E+02  0.45594000000E+02  0.51100000000E-03 0. -1.
    9900012    2    1    2    0    0 -0.56297026379E+01  0.22720045108E+02  0.36547630558E+02  0.47787270733E+02  0.19999998579E+02 0.  0.
         12    1    1    2    0    0  0.56297026379E+01 -0.22720045108E+02 -0.36547630558E+02  0.43400729267E+02  0.00000000000E+00 0. -1.
         11    1    3    3    0    0 -0.74492356557E+01  0.82171906847E+00  0.56784236287E+01  0.94027032948E+01  0.51100000000E-03 0. -1.
        -11    1    3    3    0    0 -0.18395728511E+01  0.76484202178E+01  0.13471954621E+02  0.15600510302E+02  0.51100000000E-03 0.  1.
        -12    1    3    3    0    0  0.36591058689E+01  0.14249905822E+02  0.17397252309E+02  0.22784057136E+02  0.00000000000E+00 0.  1.
</event>
<event>
 7    1  0.2492468E-009  0.4778727E+02  0.7816164E-02  0.1312668E+00
        -11   -1    0    0    0    0  0.00000000000E+00  0.00000000000E+00  0.45593999997E+02  0.45594000000E+02  0.51100000000E-03 0.  1.
         11   -1    0    0    0    0 -0.00000000000E+00 -0.00000000000E+00 -0.45593999997E+02  0.45594000000E+02  0.51100000000E-03 0. -1.
    9900012    2    1    2    0    0  0.42268325717E+02  0.46378660855E+01  0.86891938264E+01  0.47787271319E+02  0.20000001251E+02 0.  0.
         12    1    1    2    0    0 -0.42268325717E+02 -0.46378660855E+01 -0.86891938264E+01  0.43400728681E+02  0.00000000000E+00 0. -1.
         11    1    3    3    0    0  0.15665176905E+02 -0.85051246367E-01  0.11942676793E+02  0.19698541327E+02  0.51100000000E-03 0. -1.
        -11    1    3    3    0    0  0.77431589630E+01 -0.17027757627E+00  0.18171104165E+01  0.79553375608E+01  0.51100000000E-03 0.  1.
        -12    1    3    3    0    0  0.18859989849E+02  0.48931949081E+01 -0.50705933834E+01  0.20133392430E+02  0.00000000000E+00 0.  1.
</event>
<event>
 7    1  0.2492468E-009  0.4778727E+02  0.7816164E-02  0.1312668E+00
        -11   -1    0    0    0    0  0.00000000000E+00  0.00000000000E+00  0.45593999997E+02  0.45594000000E+02  0.51100000000E-03 0.  1.
         11   -1    0    0    0    0 -0.00000000000E+00 -0.00000000000E+00 -0.45593999997E+02  0.45594000000E+02  0.51100000000E-03 0. -1.
    9900012    2    1    2    0    0  0.11645871559E+02  0.13979701686E+02  0.39402599776E+02  0.47787271288E+02  0.20000001111E+02 0.  0.
         12    1    1    2    0    0 -0.11645871559E+02 -0.13979701686E+02 -0.39402599776E+02  0.43400728712E+02  0.00000000000E+00 0. -1.
         11    1    3    3    0    0  0.45177991075E+01 -0.74390322652E+00  0.23546610532E+01  0.51486240611E+01  0.51100000000E-03 0. -1.
        -11    1    3    3    0    0  0.57552386691E+01  0.24683396758E+01  0.23493700207E+02  0.24313975869E+02  0.51100000000E-03 0.  1.
        -12    1    3    3    0    0  0.13728337827E+01  0.12255265237E+02  0.13554238516E+02  0.18324671358E+02  0.00000000000E+00 0.  1.
</event>
<event>
 7    1  0.2492468E-009  0.4778727E+02  0.7816164E-02  0.1312668E+00
        -11   -1    0    0    0    0  0.00000000000E+00  0.00000000000E+00  0.45593999997E+02  0.45594000000E+02  0.51100000000E-03 0. -1.
         11   -1    0    0    0    0 -0.00000000000E+00 -0.00000000000E+00 -0.45593999997E+02  0.45594000000E+02  0.51100000000E-03 0.  1.
    9900012    2    1    2    0    0  0.29522260509E+01 -0.42072338605E+02 -0.10238442657E+02  0.47787273942E+02  0.20000013212E+02 0.  0.
         12    1    1    2    0    0 -0.29522260509E+01  0.42072338605E+02  0.10238442657E+02  0.43400726058E+02  0.00000000000E+00 0. -1.
         11    1    3    3    0    0  0.35890368500E+01 -0.24196322068E+02 -0.80588398665E+01  0.25754379965E+02  0.51100000000E-03 0. -1.
        -11    1    3    3    0    0 -0.56247483757E+01 -0.12401011528E+02 -0.43840816273E+01  0.14305350509E+02  0.51100000000E-03 0.  1.
         12    1    3    3    0    0  0.49879375766E+01 -0.54750050089E+01  0.22044788372E+01  0.77275434686E+01  0.00000000000E+00 0. -1.
</event>
<event>
 7    1  0.2492468E-009  0.4778726E+02  0.7816164E-02  0.1312668E+00
        -11   -1    0    0    0    0  0.00000000000E+00  0.00000000000E+00  0.45593999997E+02  0.45594000000E+02  0.51100000000E-03 0.  1.
         11   -1    0    0    0    0 -0.00000000000E+00 -0.00000000000E+00 -0.45593999997E+02  0.45594000000E+02  0.51100000000E-03 0. -1.
    9900012    2    1    2    0    0  0.21450132299E+02  0.25746104519E+02  0.27579955480E+02  0.47787262474E+02  0.19999960926E+02 0.  0.
         12    1    1    2    0    0 -0.21450132299E+02 -0.25746104519E+02 -0.27579955480E+02  0.43400737526E+02  0.00000000000E+00 0. -1.
         11    1    3    3    0    0  0.17447992624E+02  0.22950803833E+02  0.14879350139E+02  0.32443287503E+02  0.51100000000E-03 0.  1.
        -11    1    3    3    0    0  0.48996416388E+01  0.37360147899E+01  0.12616997529E+02  0.14041115398E+02  0.51100000000E-03 0. -1.
        -12    1    3    3    0    0 -0.89750196413E+00 -0.94071410452E+00  0.83607811520E-01  0.13028595735E+01  0.00000000000E+00 0.  1.
</event>
<event>
 7    1  0.2492468E-009  0.4778727E+02  0.7816164E-02  0.1312668E+00
        -11   -1    0    0    0    0  0.00000000000E+00  0.00000000000E+00  0.45593999997E+02  0.45594000000E+02  0.51100000000E-03 0.  1.
         11   -1    0    0    0    0 -0.00000000000E+00 -0.00000000000E+00 -0.45593999997E+02  0.45594000000E+02  0.51100000000E-03 0. -1.
    9900012    2    1    2    0    0 -0.14015184618E+02  0.40951620703E+02 -0.31878492467E+01  0.47787273959E+02  0.20000013288E+02 0.  0.
         12    1    1    2    0    0  0.14015184618E+02 -0.40951620703E+02  0.31878492467E+01  0.43400726041E+02  0.00000000000E+00 0. -1.
         11    1    3    3    0    0 -0.30301960897E+01 -0.29441584731E+00  0.21627787791E+01  0.37344854186E+01  0.51100000000E-03 0. -1.
        -11    1    3    3    0    0 -0.38890526735E+01  0.11654092178E+02  0.26914780630E+01  0.12577227421E+02  0.51100000000E-03 0.  1.
        -12    1    3    3    0    0 -0.70959358542E+01  0.29591944373E+02 -0.80421060888E+01  0.31475561119E+02  0.00000000000E+00 0.  1.
</event>
<event>
 7    1  0.2492468E-009  0.4778727E+02  0.7816164E-02  0.1312668E+00
        -11   -1    0    0    0    0  0.00000000000E+00  0.00000000000E+00  0.45593999997E+02  0.45594000000E+02  0.51100000000E-03 0. -1.
         11   -1    0    0    0    0 -0.00000000000E+00 -0.00000000000E+00 -0.45593999997E+02  0.45594000000E+02  0.51100000000E-03 0.  1.
    9900012    2    1    2    0    0  0.37924063586E+02  0.13890954018E+02 -0.15888042330E+02  0.47787273145E+02  0.20000009578E+02 0.  0.
         12    1    1    2    0    0 -0.37924063586E+02 -0.13890954018E+02  0.15888042330E+02  0.43400726855E+02  0.00000000000E+00 0. -1.
         11    1    3    3    0    0  0.10125515951E+02  0.10182017110E+02 -0.73313743507E+01  0.16122921442E+02  0.51100000000E-03 0. -1.
        -11    1    3    3    0    0  0.12514140500E+02  0.76885201469E+01 -0.44096062427E+01  0.15334982294E+02  0.51100000000E-03 0.  1.
         12    1    3    3    0    0  0.15284407136E+02 -0.39795832383E+01 -0.41470617366E+01  0.16329369409E+02  0.00000000000E+00 0. -1.
</event>
<event>
 7    1  0.2492468E-009  0.4778727E+02  0.7816164E-02  0.1312668E+00
        -11   -1    0    0    0    0  0.00000000000E+00  0.00000000000E+00  0.45593999997E+02  0.45594000000E+02  0.51100000000E-03 0.  1.
         11   -1    0    0    0    0 -0.00000000000E+00 -0.00000000000E+00 -0.45593999997E+02  0.45594000000E+02  0.51100000000E-03 0. -1.
    9900012    2    1    2    0    0 -0.20964379246E+02  0.11590038838E+02  0.36191006276E+02  0.47787272671E+02  0.20000007416E+02 0.  0.
         12    1    1    2    0    0  0.20964379246E+02 -0.11590038838E+02 -0.36191006276E+02  0.43400727329E+02  0.00000000000E+00 0. -1.
         11    1    3    3    0    0 -0.51729509839E+01  0.41138282998E+01  0.21046091183E+02  0.22059486837E+02  0.51100000000E-03 0. -1.
        -11    1    3    3    0    0 -0.48561772222E+01 -0.40230615077E+00  0.10319686954E+02  0.11412284895E+02  0.51100000000E-03 0.  1.
         12    1    3    3    0    0 -0.10935251040E+02  0.78785166885E+01  0.48252281387E+01  0.14315500938E+02  0.00000000000E+00 0. -1.
</event>
<event>
 7    1  0.2492468E-009  0.4778726E+02  0.7816164E-02  0.1312668E+00
        -11   -1    0    0    0    0  0.00000000000E+00  0.00000000000E+00  0.45593999997E+02  0.45594000000E+02  0.51100000000E-03 0.  1.
         11   -1    0    0    0    0 -0.00000000000E+00 -0.00000000000E+00 -0.45593999997E+02  0.45594000000E+02  0.51100000000E-03 0. -1.
    9900012    2    1    2    0    0  0.11982614601E+02  0.41541002914E+02 -0.37929190203E+01  0.47787260254E+02  0.19999950804E+02 0.  0.
         12    1    1    2    0    0 -0.11982614601E+02 -0.41541002914E+02  0.37929190203E+01  0.43400739746E+02  0.00000000000E+00 0. -1.
         11    1    3    3    0    0  0.51189382708E+01  0.27146548000E+02 -0.35899039068E+01  0.27857243361E+02  0.51100000000E-03 0. -1.
        -11    1    3    3    0    0 -0.89833527331E+00  0.10878250388E+02  0.20721244070E+01  0.11110222211E+02  0.51100000000E-03 0.  1.
         12    1    3    3    0    0  0.77620116033E+01  0.35162045260E+01 -0.22751395205E+01  0.88197946822E+01  0.00000000000E+00 0. -1.
</event>
<event>
 7    1  0.2492468E-009  0.4778727E+02  0.7816164E-02  0.1312668E+00
        -11   -1    0    0    0    0  0.00000000000E+00  0.00000000000E+00  0.45593999997E+02  0.45594000000E+02  0.51100000000E-03 0. -1.
         11   -1    0    0    0    0 -0.00000000000E+00 -0.00000000000E+00 -0.45593999997E+02  0.45594000000E+02  0.51100000000E-03 0.  1.
    9900012    2    1    2    0    0 -0.27330001055E+02 -0.27527843352E+02 -0.19465669430E+02  0.47787269550E+02  0.19999993185E+02 0.  0.
         12    1    1    2    0    0  0.27330001055E+02  0.27527843352E+02  0.19465669430E+02  0.43400730450E+02  0.00000000000E+00 0. -1.
         11    1    3    3    0    0 -0.45101957902E+01 -0.32197198998E+00 -0.17428575893E+01  0.48459348805E+01  0.51100000000E-03 0. -1.
        -11    1    3    3    0    0 -0.13292405518E+02 -0.13147705834E+02 -0.42584465490E+00  0.18701111119E+02  0.51100000000E-03 0.  1.
         12    1    3    3    0    0 -0.95273997466E+01 -0.14058165528E+02 -0.17296967185E+02  0.24240223550E+02  0.00000000000E+00 0. -1.
</event>
<event>
 7    1  0.2492468E-009  0.4778727E+02  0.7816164E-02  0.1312668E+00
        -11   -1    0    0    0    0  0.00000000000E+00  0.00000000000E+00  0.45593999997E+02  0.45594000000E+02  0.51100000000E-03 0.  1.
         11   -1    0    0    0    0 -0.00000000000E+00 -0.00000000000E+00 -0.45593999997E+02  0.45594000000E+02  0.51100000000E-03 0. -1.
    9900012    2    1    2    0    0  0.35834763311E+01  0.39178081843E+02  0.18326486270E+02  0.47787268456E+02  0.19999988200E+02 0.  0.
         12    1    1    2    0    0 -0.35834763311E+01 -0.39178081843E+02 -0.18326486270E+02  0.43400731544E+02  0.00000000000E+00 0. -1.
         11    1    3    3    0    0  0.25664087184E+01  0.64381497202E+01  0.13191690226E+01  0.70552415055E+01  0.51100000000E-03 0. -1.
        -11    1    3    3    0    0  0.27937647661E+01  0.29474841423E+02  0.75266478098E+01  0.30548679611E+02  0.51100000000E-03 0.  1.
         12    1    3    3    0    0 -0.17766971534E+01  0.32650907000E+01  0.94806694376E+01  0.10183347340E+02  0.00000000000E+00 0. -1.
</event>
<event>
 7    1  0.2492468E-009  0.4778727E+02  0.7816164E-02  0.1312668E+00
        -11   -1    0    0    0    0  0.00000000000E+00  0.00000000000E+00  0.45593999997E+02  0.45594000000E+02  0.51100000000E-03 0. -1.
         11   -1    0    0    0    0 -0.00000000000E+00 -0.00000000000E+00 -0.45593999997E+02  0.45594000000E+02  0.51100000000E-03 0.  1.
    9900012    2    1    2    0    0  0.22107417175E+02  0.25725326095E+02 -0.27075688130E+02  0.47787272073E+02  0.20000004691E+02 0.  0.
         12    1    1    2    0    0 -0.22107417175E+02 -0.25725326095E+02  0.27075688130E+02  0.43400727927E+02  0.00000000000E+00 0. -1.
         11    1    3    3    0    0  0.13704828692E+02  0.78838760975E+01 -0.30430308507E+01  0.16100865468E+02  0.51100000000E-03 0. -1.
        -11    1    3    3    0    0  0.56754997767E+01  0.99762946760E+01 -0.93331981996E+01  0.14793456056E+02  0.51100000000E-03 0.  1.
         12    1    3    3    0    0  0.27270887069E+01  0.78651553217E+01 -0.14699459080E+02  0.16892950550E+02  0.00000000000E+00 0. -1.
</event>
<event>
 7    1  0.2492468E-009  0.4778727E+02  0.7816164E-02  0.1312668E+00
        -11   -1    0    0    0    0  0.00000000000E+00  0.00000000000E+00  0.45593999997E+02  0.45594000000E+02  0.51100000000E-03 0.  1.
         11   -1    0    0    0    0 -0.00000000000E+00 -0.00000000000E+00 -0.45593999997E+02  0.45594000000E+02  0.51100000000E-03 0. -1.
    9900012    2    1    2    0    0 -0.31220359802E+02 -0.11538449228E+02  0.27852760587E+02  0.47787274786E+02  0.20000017061E+02 0.  0.
         12    1    1    2    0    0  0.31220359802E+02  0.11538449228E+02 -0.27852760587E+02  0.43400725214E+02  0.00000000000E+00 0. -1.
         11    1    3    3    0    0 -0.22464247596E+01 -0.27952916883E+01 -0.10641542640E+01  0.37406556085E+01  0.51100000000E-03 0. -1.
        -11    1    3    3    0    0 -0.20167811372E+01  0.29906775265E+01  0.48951632244E+01  0.60806398905E+01  0.51100000000E-03 0.  1.
        -12    1    3    3    0    0 -0.26957153905E+02 -0.11733835066E+02  0.24021751627E+02  0.37965979287E+02  0.00000000000E+00 0.  1.
</event>
<event>
 7    1  0.2492468E-009  0.4778727E+02  0.7816164E-02  0.1312668E+00
        -11   -1    0    0    0    0  0.00000000000E+00  0.00000000000E+00  0.45593999997E+02  0.45594000000E+02  0.51100000000E-03 0.  1.
         11   -1    0    0    0    0 -0.00000000000E+00 -0.00000000000E+00 -0.45593999997E+02  0.45594000000E+02  0.51100000000E-03 0. -1.
    9900012    2    1    2    0    0 -0.31680171124E+02  0.29639374865E+02 -0.12237516033E+01  0.47787270135E+02  0.19999995852E+02 0.  0.
         12    1    1    2    0    0  0.31680171124E+02 -0.29639374865E+02  0.12237516033E+01  0.43400729865E+02  0.00000000000E+00 0. -1.
         11    1    3    3    0    0 -0.59929983557E+00 -0.10271565496E+01  0.17272455808E+01  0.20970427816E+01  0.51100000000E-03 0. -1.
        -11    1    3    3    0    0 -0.16929503395E+02  0.24836381777E+02 -0.41284666367E+01  0.30339712952E+02  0.51100000000E-03 0.  1.
        -12    1    3    3    0    0 -0.14151367894E+02  0.58301496371E+01  0.11774694526E+01  0.15350514401E+02  0.00000000000E+00 0.  1.
</event>
<event>
 7    1  0.2492468E-009  0.4778729E+02  0.7816164E-02  0.1312668E+00
        -11   -1    0    0    0    0  0.00000000000E+00  0.00000000000E+00  0.45593999997E+02  0.45594000000E+02  0.51100000000E-03 0.  1.
         11   -1    0    0    0    0 -0.00000000000E+00 -0.00000000000E+00 -0.45593999997E+02  0.45594000000E+02  0.51100000000E-03 0. -1.
    9900012    2    1    2    0    0 -0.32181931333E+02 -0.22742956636E+02  0.18185241438E+02  0.47787288174E+02  0.20000078098E+02 0.  0.
         12    1    1    2    0    0  0.32181931333E+02  0.22742956636E+02 -0.18185241438E+02  0.43400711826E+02  0.00000000000E+00 0. -1.
         11    1    3    3    0    0 -0.12537237943E+02 -0.11447437288E+02  0.34945463359E+01  0.17333147725E+02  0.51100000000E-03 0. -1.
        -11    1    3    3    0    0 -0.89000883959E+01 -0.12973938647E+02  0.76081169373E+01  0.17476215295E+02  0.51100000000E-03 0.  1.
         12    1    3    3    0    0 -0.10744604995E+02  0.16784192980E+01  0.70825781647E+01  0.12977925153E+02  0.00000000000E+00 0. -1.
</event>
<event>
 7    1  0.2492468E-009  0.4778726E+02  0.7816164E-02  0.1312668E+00
        -11   -1    0    0    0    0  0.00000000000E+00  0.00000000000E+00  0.45593999997E+02  0.45594000000E+02  0.51100000000E-03 0. -1.
         11   -1    0    0    0    0 -0.00000000000E+00 -0.00000000000E+00 -0.45593999997E+02  0.45594000000E+02  0.51100000000E-03 0.  1.
    9900012    2    1    2    0    0 -0.97523789024E+01  0.40604199612E+02  0.11824296457E+02  0.47787263749E+02  0.19999966739E+02 0.  0.
         12    1    1    2    0    0  0.97523789024E+01 -0.40604199612E+02 -0.11824296457E+02  0.43400736251E+02  0.00000000000E+00 0. -1.
         11    1    3    3    0    0 -0.43741265513E+01  0.33694908497E+01  0.36831862841E+01  0.66371916604E+01  0.51100000000E-03 0. -1.
        -11    1    3    3    0    0 -0.31321666159E+01  0.51012327796E+01  0.65871038228E+01  0.89007292181E+01  0.51100000000E-03 0.  1.
         12    1    3    3    0    0 -0.22460857351E+01  0.32133475983E+02  0.15540063505E+01  0.32249342871E+02  0.00000000000E+00 0. -1.
</event>
<event>
 7    1  0.2492468E-009  0.4778728E+02  0.7816164E-02  0.1312668E+00
        -11   -1    0    0    0    0  0.00000000000E+00  0.00000000000E+00  0.45593999997E+02  0.45594000000E+02  0.51100000000E-03 0.  1.
         11   -1    0    0    0    0 -0.00000000000E+00 -0.00000000000E+00 -0.45593999997E+02  0.45594000000E+02  0.51100000000E-03 0. -1.
    9900012    2    1    2    0    0  0.18947295295E+02  0.34876872630E+02  0.17556385237E+02  0.47787275282E+02  0.20000019320E+02 0.  0.
         12    1    1    2    0    0 -0.18947295295E+02 -0.34876872630E+02 -0.17556385237E+02  0.43400724718E+02  0.00000000000E+00 0. -1.
         11    1    3    3    0    0  0.37909047651E+01  0.96429320994E+01 -0.33348710143E+01  0.10884781273E+02  0.51100000000E-03 0. -1.
        -11    1    3    3    0    0  0.76984391383E-01  0.57294671524E+01  0.46548529204E+01  0.73824370243E+01  0.51100000000E-03 0.  1.
        -12    1    3    3    0    0  0.15079406138E+02  0.19504473379E+02  0.16236403331E+02  0.29520056985E+02  0.00000000000E+00 0.  1.
</event>
<event>
 7    1  0.2492468E-009  0.4778734E+02  0.7816164E-02  0.1312667E+00
        -11   -1    0    0    0    0  0.00000000000E+00  0.00000000000E+00  0.45593999997E+02  0.45594000000E+02  0.51100000000E-03 0.  1.
         11   -1    0    0    0    0 -0.00000000000E+00 -0.00000000000E+00 -0.45593999997E+02  0.45594000000E+02  0.51100000000E-03 0. -1.
    9900012    2    1    2    0    0  0.32317962473E+02 -0.19743855454E+02  0.21197808937E+02  0.47787336061E+02  0.20000296436E+02 0.  0.
         12    1    1    2    0    0 -0.32317962473E+02  0.19743855454E+02 -0.21197808937E+02  0.43400663939E+02  0.00000000000E+00 0. -1.
         11    1    3    3    0    0  0.48766410236E+01  0.14840861447E+01  0.19429887993E+01  0.54552126534E+01  0.51100000000E-03 0. -1.
        -11    1    3    3    0    0  0.16313739183E+02 -0.41430692826E+01  0.12078397968E+02  0.20716920789E+02  0.51100000000E-03 0.  1.
         12    1    3    3    0    0  0.11127582266E+02 -0.17084872316E+02  0.71764221695E+01  0.21615202620E+02  0.00000000000E+00 0. -1.
</event>
<event>
 7    1  0.2492468E-009  0.4778727E+02  0.7816164E-02  0.1312668E+00
        -11   -1    0    0    0    0  0.00000000000E+00  0.00000000000E+00  0.45593999997E+02  0.45594000000E+02  0.51100000000E-03 0. -1.
         11   -1    0    0    0    0 -0.00000000000E+00 -0.00000000000E+00 -0.45593999997E+02  0.45594000000E+02  0.51100000000E-03 0.  1.
    9900012    2    1    2    0    0  0.15028330752E+02  0.35885715108E+02 -0.19235072316E+02  0.47787270962E+02  0.19999999624E+02 0.  0.
         12    1    1    2    0    0 -0.15028330752E+02 -0.35885715108E+02  0.19235072316E+02  0.43400729038E+02  0.00000000000E+00 0. -1.
         11    1    3    3    0    0  0.67600216824E+00  0.97295673436E+01 -0.23426501208E+01  0.10030427183E+02  0.51100000000E-03 0. -1.
        -11    1    3    3    0    0  0.11840260369E+01  0.22175542775E+01 -0.89617595654E+01  0.93076634769E+01  0.51100000000E-03 0.  1.
        -12    1    3    3    0    0  0.13168302547E+02  0.23938593487E+02 -0.79306626296E+01  0.28449180302E+02  0.00000000000E+00 0.  1.
</event>
<event>
 7    1  0.2492468E-009  0.4778727E+02  0.7816164E-02  0.1312668E+00
        -11   -1    0    0    0    0  0.00000000000E+00  0.00000000000E+00  0.45593999997E+02  0.45594000000E+02  0.51100000000E-03 0.  1.
         11   -1    0    0    0    0 -0.00000000000E+00 -0.00000000000E+00 -0.45593999997E+02  0.45594000000E+02  0.51100000000E-03 0. -1.
    9900012    2    1    2    0    0 -0.12088461368E+02  0.28601894090E+02  0.30322003917E+02  0.47787272295E+02  0.20000005703E+02 0.  0.
         12    1    1    2    0    0  0.12088461368E+02 -0.28601894090E+02 -0.30322003917E+02  0.43400727705E+02  0.00000000000E+00 0. -1.
         11    1    3    3    0    0  0.33864538798E+00  0.17821298353E+02  0.13058755261E+02  0.22096254092E+02  0.51100000000E-03 0.  1.
        -11    1    3    3    0    0 -0.40358053214E+01  0.70804359003E+00  0.10654829549E+00  0.40988294814E+01  0.51100000000E-03 0. -1.
        -12    1    3    3    0    0 -0.83913014348E+01  0.10072552147E+02  0.17156700361E+02  0.21592188722E+02  0.00000000000E+00 0.  1.
</event>
<event>
 7    1  0.2492468E-009  0.4778725E+02  0.7816164E-02  0.1312668E+00
        -11   -1    0    0    0    0  0.00000000000E+00  0.00000000000E+00  0.45593999997E+02  0.45594000000E+02  0.51100000000E-03 0.  1.
         11   -1    0    0    0    0 -0.00000000000E+00 -0.00000000000E+00 -0.45593999997E+02  0.45594000000E+02  0.51100000000E-03 0. -1.
    9900012    2    1    2    0    0 -0.73280063486E+01  0.37259398867E+02 -0.21015769444E+02  0.47787250625E+02  0.19999906901E+02 0.  0.
         12    1    1    2    0    0  0.73280063486E+01 -0.37259398867E+02  0.21015769444E+02  0.43400749375E+02  0.00000000000E+00 0. -1.
         11    1    3    3    0    0 -0.20994858487E+01 -0.23039802674E+00 -0.16891636602E+00  0.21188338961E+01  0.51100000000E-03 0. -1.
        -11    1    3    3    0    0  0.17798994853E+01 -0.18893562501E+00  0.41962222771E+00  0.18384292000E+01  0.51100000000E-03 0.  1.
        -12    1    3    3    0    0 -0.70084199853E+01  0.37678732519E+02 -0.21266475306E+02  0.43829987529E+02  0.00000000000E+00 0.  1.
</event>
<event>
 7    1  0.2492468E-009  0.4778727E+02  0.7816164E-02  0.1312668E+00
        -11   -1    0    0    0    0  0.00000000000E+00  0.00000000000E+00  0.45593999997E+02  0.45594000000E+02  0.51100000000E-03 0.  1.
         11   -1    0    0    0    0 -0.00000000000E+00 -0.00000000000E+00 -0.45593999997E+02  0.45594000000E+02  0.51100000000E-03 0. -1.
    9900012    2    1    2    0    0  0.42016306418E+02 -0.10866806405E+02  0.40703032934E+00  0.47787272355E+02  0.20000005976E+02 0.  0.
         12    1    1    2    0    0 -0.42016306418E+02  0.10866806405E+02 -0.40703032934E+00  0.43400727645E+02  0.00000000000E+00 0. -1.
         11    1    3    3    0    0  0.83503594605E+01 -0.16901426465E+01  0.36032178446E+01  0.92503115830E+01  0.51100000000E-03 0. -1.
        -11    1    3    3    0    0  0.40664882657E+01 -0.32779546780E+01  0.50332734650E+01  0.72536305200E+01  0.51100000000E-03 0.  1.
         12    1    3    3    0    0  0.29599458691E+02 -0.58987090801E+01 -0.82294609802E+01  0.31283330252E+02  0.00000000000E+00 0. -1.
</event>
<event>
 7    1  0.2492468E-009  0.4778727E+02  0.7816164E-02  0.1312668E+00
        -11   -1    0    0    0    0  0.00000000000E+00  0.00000000000E+00  0.45593999997E+02  0.45594000000E+02  0.51100000000E-03 0.  1.
         11   -1    0    0    0    0 -0.00000000000E+00 -0.00000000000E+00 -0.45593999997E+02  0.45594000000E+02  0.51100000000E-03 0. -1.
    9900012    2    1    2    0    0 -0.21994048440E+02  0.16971764225E+02  0.33344330714E+02  0.47787270301E+02  0.19999996608E+02 0.  0.
         12    1    1    2    0    0  0.21994048440E+02 -0.16971764225E+02 -0.33344330714E+02  0.43400729699E+02  0.00000000000E+00 0. -1.
         11    1    3    3    0    0 -0.47609255131E+01  0.10912814416E+01  0.10249959303E+02  0.11354249112E+02  0.51100000000E-03 0. -1.
        -11    1    3    3    0    0 -0.35082143034E+01 -0.11239793267E+01  0.10686759684E+02  0.11303881188E+02  0.51100000000E-03 0.  1.
        -12    1    3    3    0    0 -0.13724908623E+02  0.17004462110E+02  0.12407611727E+02  0.25129140000E+02  0.00000000000E+00 0.  1.
</event>
<event>
 7    1  0.2492468E-009  0.4778726E+02  0.7816164E-02  0.1312668E+00
        -11   -1    0    0    0    0  0.00000000000E+00  0.00000000000E+00  0.45593999997E+02  0.45594000000E+02  0.51100000000E-03 0.  1.
         11   -1    0    0    0    0 -0.00000000000E+00 -0.00000000000E+00 -0.45593999997E+02  0.45594000000E+02  0.51100000000E-03 0. -1.
    9900012    2    1    2    0    0 -0.16852165611E+01 -0.15898340942E+02  0.40348822271E+02  0.47787255096E+02  0.19999927284E+02 0.  0.
         12    1    1    2    0    0  0.16852165611E+01  0.15898340942E+02 -0.40348822271E+02  0.43400744904E+02  0.00000000000E+00 0. -1.
         11    1    3    3    0    0 -0.20212990911E+01 -0.26762561094E+01  0.15118036350E+02  0.15485574582E+02  0.51100000000E-03 0. -1.
        -11    1    3    3    0    0  0.37316367447E+01  0.22297658812E+01  0.52608731714E+01  0.68244967188E+01  0.51100000000E-03 0.  1.
        -12    1    3    3    0    0 -0.33955542147E+01 -0.15451850714E+02  0.19969912750E+02  0.25477183795E+02  0.00000000000E+00 0.  1.
</event>
<event>
 7    1  0.2492468E-009  0.4778727E+02  0.7816164E-02  0.1312668E+00
        -11   -1    0    0    0    0  0.00000000000E+00  0.00000000000E+00  0.45593999997E+02  0.45594000000E+02  0.51100000000E-03 0.  1.
         11   -1    0    0    0    0 -0.00000000000E+00 -0.00000000000E+00 -0.45593999997E+02  0.45594000000E+02  0.51100000000E-03 0. -1.
    9900012    2    1    2    0    0 -0.24051452464E+01  0.35895317441E+02  0.24276830325E+02  0.47787273872E+02  0.20000012891E+02 0.  0.
         12    1    1    2    0    0  0.24051452464E+01 -0.35895317441E+02 -0.24276830325E+02  0.43400726128E+02  0.00000000000E+00 0. -1.
         11    1    3    3    0    0  0.63033032796E+00 -0.11976121338E+01 -0.94672389561E+00  0.16516287540E+01  0.51100000000E-03 0. -1.
        -11    1    3    3    0    0  0.30947128261E+01  0.11273812875E+02  0.47503462816E+01  0.12619108299E+02  0.51100000000E-03 0.  1.
         12    1    3    3    0    0 -0.61301884005E+01  0.25819116700E+02  0.20473207939E+02  0.33516536818E+02  0.00000000000E+00 0. -1.
</event>
<event>
 7    1  0.2492468E-009  0.4778727E+02  0.7816164E-02  0.1312668E+00
        -11   -1    0    0    0    0  0.00000000000E+00  0.00000000000E+00  0.45593999997E+02  0.45594000000E+02  0.51100000000E-03 0.  1.
         11   -1    0    0    0    0 -0.00000000000E+00 -0.00000000000E+00 -0.45593999997E+02  0.45594000000E+02  0.51100000000E-03 0. -1.
    9900012    2    1    2    0    0 -0.25282888233E+02 -0.33712686753E+02  0.10385248012E+02  0.47787273488E+02  0.20000011143E+02 0.  0.
         12    1    1    2    0    0  0.25282888233E+02  0.33712686753E+02 -0.10385248012E+02  0.43400726512E+02  0.00000000000E+00 0. -1.
         11    1    3    3    0    0 -0.11814544986E+02 -0.27292711212E+02  0.12762283010E+02  0.32362809310E+02  0.51100000000E-03 0.  1.
        -11    1    3    3    0    0 -0.18444786514E+01 -0.48968900541E-01  0.38390398888E+00  0.18846437283E+01  0.51100000000E-03 0. -1.
        -12    1    3    3    0    0 -0.11623864595E+02 -0.63710066397E+01 -0.27609389869E+01  0.13539820450E+02  0.00000000000E+00 0.  1.
</event>
<event>
 7    1  0.2492468E-009  0.4778727E+02  0.7816164E-02  0.1312668E+00
        -11   -1    0    0    0    0  0.00000000000E+00  0.00000000000E+00  0.45593999997E+02  0.45594000000E+02  0.51100000000E-03 0.  1.
         11   -1    0    0    0    0 -0.00000000000E+00 -0.00000000000E+00 -0.45593999997E+02  0.45594000000E+02  0.51100000000E-03 0. -1.
    9900012    2    1    2    0    0  0.12348577984E+02  0.26898207637E+02  0.31743064744E+02  0.47787272913E+02  0.20000008521E+02 0.  0.
         12    1    1    2    0    0 -0.12348577984E+02 -0.26898207637E+02 -0.31743064744E+02  0.43400727087E+02  0.00000000000E+00 0. -1.
         11    1    3    3    0    0 -0.12737443796E+01  0.30132178710E+01  0.55151133877E-01  0.32718417736E+01  0.51100000000E-03 0. -1.
        -11    1    3    3    0    0 -0.23151812468E+01  0.95382846255E+01  0.95454794840E+01  0.13691424931E+02  0.51100000000E-03 0.  1.
        -12    1    3    3    0    0  0.15937503611E+02  0.14346705141E+02  0.22142434126E+02  0.30824006209E+02  0.00000000000E+00 0.  1.
</event>
<event>
 7    1  0.2492468E-009  0.4778726E+02  0.7816164E-02  0.1312668E+00
        -11   -1    0    0    0    0  0.00000000000E+00  0.00000000000E+00  0.45593999997E+02  0.45594000000E+02  0.51100000000E-03 0.  1.
         11   -1    0    0    0    0 -0.00000000000E+00 -0.00000000000E+00 -0.45593999997E+02  0.45594000000E+02  0.51100000000E-03 0. -1.
    9900012    2    1    2    0    0 -0.33525551447E+02 -0.87914153540E+01  0.26122256127E+02  0.47787264420E+02  0.19999969797E+02 0.  0.
         12    1    1    2    0    0  0.33525551447E+02  0.87914153540E+01 -0.26122256127E+02  0.43400735580E+02  0.00000000000E+00 0. -1.
         11    1    3    3    0    0  0.66127527694E+00 -0.60251836794E+00  0.32901428388E+01  0.34095972690E+01  0.51100000000E-03 0. -1.
        -11    1    3    3    0    0 -0.32317808870E+01  0.36265259468E+01  0.20958362115E+01  0.52904279440E+01  0.51100000000E-03 0.  1.
        -12    1    3    3    0    0 -0.30955045837E+02 -0.11815422933E+02  0.20736277076E+02  0.39087239207E+02  0.00000000000E+00 0.  1.
</event>
<event>
 7    1  0.2492468E-009  0.4778727E+02  0.7816164E-02  0.1312668E+00
        -11   -1    0    0    0    0  0.00000000000E+00  0.00000000000E+00  0.45593999997E+02  0.45594000000E+02  0.51100000000E-03 0.  1.
         11   -1    0    0    0    0 -0.00000000000E+00 -0.00000000000E+00 -0.45593999997E+02  0.45594000000E+02  0.51100000000E-03 0. -1.
    9900012    2    1    2    0    0 -0.84849683317E-01  0.32058215918E+00  0.43399460423E+02  0.47787272617E+02  0.20000007171E+02 0.  0.
         12    1    1    2    0    0  0.84849683317E-01 -0.32058215918E+00 -0.43399460423E+02  0.43400727383E+02  0.00000000000E+00 0. -1.
         11    1    3    3    0    0  0.34318744190E+01  0.11716201862E+01  0.42392675386E+01  0.55786956731E+01  0.51100000000E-03 0. -1.
        -11    1    3    3    0    0  0.85437351124E+00  0.68278656444E+01  0.18498265497E+02  0.19736654479E+02  0.51100000000E-03 0.  1.
        -12    1    3    3    0    0 -0.43710976136E+01 -0.76789036714E+01  0.20661927387E+02  0.22471922465E+02  0.00000000000E+00 0.  1.
</event>
<event>
 7    1  0.2492468E-009  0.4778727E+02  0.7816164E-02  0.1312668E+00
        -11   -1    0    0    0    0  0.00000000000E+00  0.00000000000E+00  0.45593999997E+02  0.45594000000E+02  0.51100000000E-03 0.  1.
         11   -1    0    0    0    0 -0.00000000000E+00 -0.00000000000E+00 -0.45593999997E+02  0.45594000000E+02  0.51100000000E-03 0. -1.
    9900012    2    1    2    0    0  0.26614219072E+01  0.42192357614E+02  0.98155515615E+01  0.47787271204E+02  0.20000000728E+02 0.  0.
         12    1    1    2    0    0 -0.26614219072E+01 -0.42192357614E+02 -0.98155515615E+01  0.43400728796E+02  0.00000000000E+00 0. -1.
         11    1    3    3    0    0 -0.39204199466E+01  0.31816534263E+01  0.31511178065E+01  0.59516514325E+01  0.51100000000E-03 0. -1.
        -11    1    3    3    0    0 -0.26186065193E+01  0.15814761926E+02  0.51446890369E+01  0.16835427539E+02  0.51100000000E-03 0.  1.
         12    1    3    3    0    0  0.92004483731E+01  0.23195942261E+02  0.15197447181E+01  0.25000192232E+02  0.00000000000E+00 0. -1.
</event>
<event>
 7    1  0.2492468E-009  0.4778728E+02  0.7816164E-02  0.1312668E+00
        -11   -1    0    0    0    0  0.00000000000E+00  0.00000000000E+00  0.45593999997E+02  0.45594000000E+02  0.51100000000E-03 0.  1.
         11   -1    0    0    0    0 -0.00000000000E+00 -0.00000000000E+00 -0.45593999997E+02  0.45594000000E+02  0.51100000000E-03 0. -1.
    9900012    2    1    2    0    0 -0.27931616241E+02  0.30313014149E+01  0.33079574757E+02  0.47787282953E+02  0.20000054295E+02 0.  0.
         12    1    1    2    0    0  0.27931616241E+02 -0.30313014149E+01 -0.33079574757E+02  0.43400717047E+02  0.00000000000E+00 0. -1.
         11    1    3    3    0    0 -0.94878596410E-01 -0.30130597617E+01  0.62473116699E+01  0.69366010723E+01  0.51100000000E-03 0. -1.
        -11    1    3    3    0    0 -0.82926312527E+01 -0.40949023701E+00  0.18943129773E+01  0.85160928403E+01  0.51100000000E-03 0.  1.
        -12    1    3    3    0    0 -0.19544106392E+02  0.64538514136E+01  0.24937950110E+02  0.32334589040E+02  0.00000000000E+00 0.  1.
</event>
<event>
 7    1  0.2492468E-009  0.4778727E+02  0.7816164E-02  0.1312668E+00
        -11   -1    0    0    0    0  0.00000000000E+00  0.00000000000E+00  0.45593999997E+02  0.45594000000E+02  0.51100000000E-03 0.  1.
         11   -1    0    0    0    0 -0.00000000000E+00 -0.00000000000E+00 -0.45593999997E+02  0.45594000000E+02  0.51100000000E-03 0. -1.
    9900012    2    1    2    0    0  0.20538222201E+02 -0.24300112346E+02  0.29517950168E+02  0.47787269438E+02  0.19999992676E+02 0.  0.
         12    1    1    2    0    0 -0.20538222201E+02  0.24300112346E+02 -0.29517950168E+02  0.43400730562E+02  0.00000000000E+00 0. -1.
         11    1    3    3    0    0  0.26089871298E+01 -0.87930255249E+01  0.68767596093E+00  0.91976633018E+01  0.51100000000E-03 0. -1.
        -11    1    3    3    0    0  0.65411218227E+01 -0.11785890422E+02  0.12905234730E+02  0.18661151396E+02  0.51100000000E-03 0.  1.
        -12    1    3    3    0    0  0.11388113248E+02 -0.37211963997E+01  0.15925039477E+02  0.19928454740E+02  0.00000000000E+00 0.  1.
</event>
<event>
 7    1  0.2492468E-009  0.4778728E+02  0.7816164E-02  0.1312668E+00
        -11   -1    0    0    0    0  0.00000000000E+00  0.00000000000E+00  0.45593999997E+02  0.45594000000E+02  0.51100000000E-03 0.  1.
         11   -1    0    0    0    0 -0.00000000000E+00 -0.00000000000E+00 -0.45593999997E+02  0.45594000000E+02  0.51100000000E-03 0. -1.
    9900012    2    1    2    0    0 -0.34475865660E+02  0.16595176579E+02  0.20485060988E+02  0.47787275094E+02  0.20000018463E+02 0.  0.
         12    1    1    2    0    0  0.34475865660E+02 -0.16595176579E+02 -0.20485060988E+02  0.43400724906E+02  0.00000000000E+00 0. -1.
         11    1    3    3    0    0 -0.49150986950E+01 -0.33697982594E+01  0.18058673343E+01  0.62269488982E+01  0.51100000000E-03 0. -1.
        -11    1    3    3    0    0 -0.33161409052E+01  0.23228146506E+01 -0.11815887354E+01  0.42176309232E+01  0.51100000000E-03 0.  1.
        -12    1    3    3    0    0 -0.26244626060E+02  0.17642160188E+02  0.19860782389E+02  0.37342695272E+02  0.00000000000E+00 0.  1.
</event>
<event>
 7    1  0.2492468E-009  0.4778727E+02  0.7816164E-02  0.1312668E+00
        -11   -1    0    0    0    0  0.00000000000E+00  0.00000000000E+00  0.45593999997E+02  0.45594000000E+02  0.51100000000E-03 0.  1.
         11   -1    0    0    0    0 -0.00000000000E+00 -0.00000000000E+00 -0.45593999997E+02  0.45594000000E+02  0.51100000000E-03 0. -1.
    9900012    2    1    2    0    0  0.41014824671E+02 -0.11143961707E+02  0.87874729760E+01  0.47787269515E+02  0.19999993026E+02 0.  0.
         12    1    1    2    0    0 -0.41014824671E+02  0.11143961707E+02 -0.87874729760E+01  0.43400730485E+02  0.00000000000E+00 0. -1.
         11    1    3    3    0    0  0.32850602975E+01  0.27846231885E+01 -0.19926180124E+01  0.47451316383E+01  0.51100000000E-03 0. -1.
        -11    1    3    3    0    0  0.73468965644E+01 -0.17784624584E+01  0.66358087831E+01  0.10058517600E+02  0.51100000000E-03 0.  1.
        -12    1    3    3    0    0  0.30382867809E+02 -0.12150122437E+02  0.41442822053E+01  0.32983620277E+02  0.00000000000E+00 0.  1.
</event>
<event>
 7    1  0.2492468E-009  0.4778727E+02  0.7816164E-02  0.1312668E+00
        -11   -1    0    0    0    0  0.00000000000E+00  0.00000000000E+00  0.45593999997E+02  0.45594000000E+02  0.51100000000E-03 0.  1.
         11   -1    0    0    0    0 -0.00000000000E+00 -0.00000000000E+00 -0.45593999997E+02  0.45594000000E+02  0.51100000000E-03 0. -1.
    9900012    2    1    2    0    0 -0.35197982176E+02 -0.25357095069E+02  0.13201518704E+01  0.47787273962E+02  0.20000013303E+02 0.  0.
         12    1    1    2    0    0  0.35197982176E+02  0.25357095069E+02 -0.13201518704E+01  0.43400726038E+02  0.00000000000E+00 0. -1.
         11    1    3    3    0    0 -0.12161889532E+02 -0.54118939554E+00 -0.13936244264E+01  0.12253433489E+02  0.51100000000E-03 0. -1.
        -11    1    3    3    0    0 -0.10094184751E+02 -0.11286052166E+02  0.64219951899E+01  0.16447174887E+02  0.51100000000E-03 0.  1.
         12    1    3    3    0    0 -0.12941907893E+02 -0.13529853508E+02 -0.37082188931E+01  0.19086665586E+02  0.00000000000E+00 0. -1.
</event>
<event>
 7    1  0.2492468E-009  0.4778727E+02  0.7816164E-02  0.1312668E+00
        -11   -1    0    0    0    0  0.00000000000E+00  0.00000000000E+00  0.45593999997E+02  0.45594000000E+02  0.51100000000E-03 0.  1.
         11   -1    0    0    0    0 -0.00000000000E+00 -0.00000000000E+00 -0.45593999997E+02  0.45594000000E+02  0.51100000000E-03 0. -1.
    9900012    2    1    2    0    0  0.42143473191E+02  0.95251763166E+01  0.41014677649E+01  0.47787270118E+02  0.19999995774E+02 0.  0.
         12    1    1    2    0    0 -0.42143473191E+02 -0.95251763166E+01 -0.41014677649E+01  0.43400729882E+02  0.00000000000E+00 0. -1.
         11    1    3    3    0    0  0.11861259653E+01  0.84180383573E+00  0.12851815820E+01  0.19409328847E+01  0.51100000000E-03 0. -1.
        -11    1    3    3    0    0  0.14566424125E+02  0.17551733513E+01 -0.77425123612E+01  0.16589389476E+02  0.51100000000E-03 0.  1.
        -12    1    3    3    0    0  0.26390923101E+02  0.69281991295E+01  0.10558798544E+02  0.29256947756E+02  0.00000000000E+00 0.  1.
</event>
<event>
 7    1  0.2492468E-009  0.4778726E+02  0.7816164E-02  0.1312668E+00
        -11   -1    0    0    0    0  0.00000000000E+00  0.00000000000E+00  0.45593999997E+02  0.45594000000E+02  0.51100000000E-03 0.  1.
         11   -1    0    0    0    0 -0.00000000000E+00 -0.00000000000E+00 -0.45593999997E+02  0.45594000000E+02  0.51100000000E-03 0. -1.
    9900012    2    1    2    0    0 -0.39895894351E+02 -0.15628909508E+02  0.69049695789E+01  0.47787264944E+02  0.19999972186E+02 0.  0.
         12    1    1    2    0    0  0.39895894351E+02  0.15628909508E+02 -0.69049695789E+01  0.43400735056E+02  0.00000000000E+00 0. -1.
         11    1    3    3    0    0 -0.16856353615E+02 -0.77996330819E+01  0.34628422262E+01  0.18893443570E+02  0.51100000000E-03 0.  1.
        -11    1    3    3    0    0 -0.17611916085E+02 -0.10475976173E+02 -0.22249517426E+01  0.20612522298E+02  0.51100000000E-03 0. -1.
         12    1    3    3    0    0 -0.54276246514E+01  0.26466997473E+01  0.56670790953E+01  0.82812990757E+01  0.00000000000E+00 0. -1.
</event>
<event>
 7    1  0.2492468E-009  0.4778727E+02  0.7816164E-02  0.1312668E+00
        -11   -1    0    0    0    0  0.00000000000E+00  0.00000000000E+00  0.45593999997E+02  0.45594000000E+02  0.51100000000E-03 0.  1.
         11   -1    0    0    0    0 -0.00000000000E+00 -0.00000000000E+00 -0.45593999997E+02  0.45594000000E+02  0.51100000000E-03 0. -1.
    9900012    2    1    2    0    0 -0.41099978472E+02  0.13492986722E+02 -0.35148919765E+01  0.47787269745E+02  0.19999994076E+02 0.  0.
         12    1    1    2    0    0  0.41099978472E+02 -0.13492986722E+02  0.35148919765E+01  0.43400730255E+02  0.00000000000E+00 0. -1.
         11    1    3    3    0    0 -0.62178433590E+01 -0.15819164905E+01 -0.31926332850E+01  0.71663758884E+01  0.51100000000E-03 0. -1.
        -11    1    3    3    0    0 -0.25939298470E+02  0.47735495960E+01  0.31005007377E+01  0.26556488585E+02  0.51100000000E-03 0.  1.
        -12    1    3    3    0    0 -0.89428366426E+01  0.10301353616E+02 -0.34227594292E+01  0.14064405272E+02  0.00000000000E+00 0.  1.
</event>
<event>
 7    1  0.2492468E-009  0.4778727E+02  0.7816164E-02  0.1312668E+00
        -11   -1    0    0    0    0  0.00000000000E+00  0.00000000000E+00  0.45593999997E+02  0.45594000000E+02  0.51100000000E-03 0.  1.
         11   -1    0    0    0    0 -0.00000000000E+00 -0.00000000000E+00 -0.45593999997E+02  0.45594000000E+02  0.51100000000E-03 0. -1.
    9900012    2    1    2    0    0 -0.26746678676E+02 -0.10976472366E+02  0.32369054898E+02  0.47787268660E+02  0.19999989130E+02 0.  0.
         12    1    1    2    0    0  0.26746678676E+02  0.10976472366E+02 -0.32369054898E+02  0.43400731340E+02  0.00000000000E+00 0. -1.
         11    1    3    3    0    0 -0.20554257053E+02 -0.70178831294E+01  0.10741376416E+02  0.24230256585E+02  0.51100000000E-03 0.  1.
        -11    1    3    3    0    0 -0.31586994385E+01  0.46824560856E+00  0.39310941143E+01  0.50645964587E+01  0.51100000000E-03 0. -1.
        -12    1    3    3    0    0 -0.30337221844E+01 -0.44268348455E+01  0.17696584368E+02  0.18492415616E+02  0.00000000000E+00 0.  1.
</event>
<event>
 7    1  0.2492468E-009  0.4778727E+02  0.7816164E-02  0.1312668E+00
        -11   -1    0    0    0    0  0.00000000000E+00  0.00000000000E+00  0.45593999997E+02  0.45594000000E+02  0.51100000000E-03 0.  1.
         11   -1    0    0    0    0 -0.00000000000E+00 -0.00000000000E+00 -0.45593999997E+02  0.45594000000E+02  0.51100000000E-03 0. -1.
    9900012    2    1    2    0    0  0.21909360862E+02 -0.11694257566E+02  0.35592799978E+02  0.47787272313E+02  0.20000005786E+02 0.  0.
         12    1    1    2    0    0 -0.21909360862E+02  0.11694257566E+02 -0.35592799978E+02  0.43400727687E+02  0.00000000000E+00 0. -1.
         11    1    3    3    0    0  0.23048826567E+01  0.18277697176E+01  0.49385145373E+01  0.57482303623E+01  0.51100000000E-03 0. -1.
        -11    1    3    3    0    0  0.49983228889E+01  0.35410909552E+01  0.86196315132E+01  0.10574526209E+02  0.51100000000E-03 0.  1.
         12    1    3    3    0    0  0.14606155317E+02 -0.17063118239E+02  0.22034653928E+02  0.31464515742E+02  0.00000000000E+00 0. -1.
</event>
<event>
 7    1  0.2492468E-009  0.4778727E+02  0.7816164E-02  0.1312668E+00
        -11   -1    0    0    0    0  0.00000000000E+00  0.00000000000E+00  0.45593999997E+02  0.45594000000E+02  0.51100000000E-03 0. -1.
         11   -1    0    0    0    0 -0.00000000000E+00 -0.00000000000E+00 -0.45593999997E+02  0.45594000000E+02  0.51100000000E-03 0.  1.
    9900012    2    1    2    0    0  0.38845359451E+02  0.19174395070E+02 -0.26465443480E+01  0.47787267585E+02  0.19999984228E+02 0.  0.
         12    1    1    2    0    0 -0.38845359451E+02 -0.19174395070E+02  0.26465443480E+01  0.43400732415E+02  0.00000000000E+00 0. -1.
         11    1    3    3    0    0 -0.54114478265E-01 -0.53759914181E+00  0.12508164018E+01  0.13625282185E+01  0.51100000000E-03 0. -1.
        -11    1    3    3    0    0  0.81494312742E+01  0.91238323107E+01  0.41567331788E+01  0.12920370626E+02  0.51100000000E-03 0.  1.
        -12    1    3    3    0    0  0.30750042655E+02  0.10588161901E+02 -0.80540939286E+01  0.33504368741E+02  0.00000000000E+00 0.  1.
</event>
<event>
 7    1  0.2492468E-009  0.4778727E+02  0.7816164E-02  0.1312668E+00
        -11   -1    0    0    0    0  0.00000000000E+00  0.00000000000E+00  0.45593999997E+02  0.45594000000E+02  0.51100000000E-03 0.  1.
         11   -1    0    0    0    0 -0.00000000000E+00 -0.00000000000E+00 -0.45593999997E+02  0.45594000000E+02  0.51100000000E-03 0. -1.
    9900012    2    1    2    0    0  0.22442505338E+02 -0.37147749630E+02 -0.43164976692E-01  0.47787271762E+02  0.20000003270E+02 0.  0.
         12    1    1    2    0    0 -0.22442505338E+02  0.37147749630E+02  0.43164976692E-01  0.43400728238E+02  0.00000000000E+00 0. -1.
         11    1    3    3    0    0  0.53407922511E+01 -0.20958250556E+01 -0.53597417132E+00  0.57622749940E+01  0.51100000000E-03 0. -1.
        -11    1    3    3    0    0  0.85482013799E+01 -0.58779780699E+01 -0.43324754839E+01  0.11242451561E+02  0.51100000000E-03 0.  1.
         12    1    3    3    0    0  0.85535117070E+01 -0.29173946504E+02  0.48252846785E+01  0.30782545207E+02  0.00000000000E+00 0. -1.
</event>
<event>
 7    1  0.2492468E-009  0.4778726E+02  0.7816164E-02  0.1312668E+00
        -11   -1    0    0    0    0  0.00000000000E+00  0.00000000000E+00  0.45593999997E+02  0.45594000000E+02  0.51100000000E-03 0. -1.
         11   -1    0    0    0    0 -0.00000000000E+00 -0.00000000000E+00 -0.45593999997E+02  0.45594000000E+02  0.51100000000E-03 0.  1.
    9900012    2    1    2    0    0 -0.37079849563E+02 -0.22140434083E+02 -0.43023941555E+01  0.47787255070E+02  0.19999927168E+02 0.  0.
         12    1    1    2    0    0  0.37079849563E+02  0.22140434083E+02  0.43023941555E+01  0.43400744930E+02  0.00000000000E+00 0. -1.
         11    1    3    3    0    0 -0.90723734875E+01  0.27123788883E+01  0.22520083551E+01  0.97332677875E+01  0.51100000000E-03 0. -1.
        -11    1    3    3    0    0 -0.12224630924E+02 -0.11043080719E+02 -0.37540208387E+01  0.16896268988E+02  0.51100000000E-03 0.  1.
         12    1    3    3    0    0 -0.15782845152E+02 -0.13809732252E+02 -0.28003816719E+01  0.21157718295E+02  0.00000000000E+00 0. -1.
</event>
<event>
 7    1  0.2492468E-009  0.4778727E+02  0.7816164E-02  0.1312668E+00
        -11   -1    0    0    0    0  0.00000000000E+00  0.00000000000E+00  0.45593999997E+02  0.45594000000E+02  0.51100000000E-03 0. -1.
         11   -1    0    0    0    0 -0.00000000000E+00 -0.00000000000E+00 -0.45593999997E+02  0.45594000000E+02  0.51100000000E-03 0.  1.
    9900012    2    1    2    0    0 -0.30242638992E+02 -0.25220365795E+02  0.18246623154E+02  0.47787270506E+02  0.19999997547E+02 0.  0.
         12    1    1    2    0    0  0.30242638992E+02  0.25220365795E+02 -0.18246623154E+02  0.43400729494E+02  0.00000000000E+00 0. -1.
         11    1    3    3    0    0 -0.26356732710E+01 -0.34117308816E+01 -0.31599809628E+01  0.53452933639E+01  0.51100000000E-03 0. -1.
        -11    1    3    3    0    0 -0.16593026241E+02 -0.15420567562E+02  0.81827737951E+01  0.24084854390E+02  0.51100000000E-03 0.  1.
         12    1    3    3    0    0 -0.11013939480E+02 -0.63880673518E+01  0.13223830322E+02  0.18357122752E+02  0.00000000000E+00 0. -1.
</event>
<event>
 7    1  0.2492468E-009  0.4778727E+02  0.7816164E-02  0.1312668E+00
        -11   -1    0    0    0    0  0.00000000000E+00  0.00000000000E+00  0.45593999997E+02  0.45594000000E+02  0.51100000000E-03 0.  1.
         11   -1    0    0    0    0 -0.00000000000E+00 -0.00000000000E+00 -0.45593999997E+02  0.45594000000E+02  0.51100000000E-03 0. -1.
    9900012    2    1    2    0    0 -0.29162213818E+01 -0.43099976108E+02  0.41846401143E+01  0.47787268433E+02  0.19999988093E+02 0.  0.
         12    1    1    2    0    0  0.29162213818E+01  0.43099976108E+02 -0.41846401143E+01  0.43400731567E+02  0.00000000000E+00 0. -1.
         11    1    3    3    0    0 -0.70367734767E+00 -0.38987160072E+01  0.49518229346E+01  0.63415848927E+01  0.51100000000E-03 0.  1.
        -11    1    3    3    0    0 -0.14580155592E+01 -0.18747285963E+01  0.31073506704E+01  0.39110158694E+01  0.51100000000E-03 0. -1.
         12    1    3    3    0    0 -0.75452847495E+00 -0.37326531505E+02 -0.38745334907E+01  0.37534667671E+02  0.00000000000E+00 0. -1.
</event>
<event>
 7    1  0.2492468E-009  0.4778727E+02  0.7816164E-02  0.1312668E+00
        -11   -1    0    0    0    0  0.00000000000E+00  0.00000000000E+00  0.45593999997E+02  0.45594000000E+02  0.51100000000E-03 0.  1.
         11   -1    0    0    0    0 -0.00000000000E+00 -0.00000000000E+00 -0.45593999997E+02  0.45594000000E+02  0.51100000000E-03 0. -1.
    9900012    2    1    2    0    0 -0.24967911337E+02 -0.10849632403E+02  0.33801069948E+02  0.47787269022E+02  0.19999990779E+02 0.  0.
         12    1    1    2    0    0  0.24967911337E+02  0.10849632403E+02 -0.33801069948E+02  0.43400730978E+02  0.00000000000E+00 0. -1.
         11    1    3    3    0    0 -0.38983912604E+01  0.16683495586E+01  0.15301071447E+01  0.45080009765E+01  0.51100000000E-03 0. -1.
        -11    1    3    3    0    0  0.23224780697E+01 -0.38463148203E-01  0.27823286828E+01  0.36244636787E+01  0.51100000000E-03 0.  1.
        -12    1    3    3    0    0 -0.23391998147E+02 -0.12479518813E+02  0.29488634120E+02  0.39654804367E+02  0.00000000000E+00 0.  1.
</event>
<event>
 7    1  0.2492468E-009  0.4778727E+02  0.7816164E-02  0.1312668E+00
        -11   -1    0    0    0    0  0.00000000000E+00  0.00000000000E+00  0.45593999997E+02  0.45594000000E+02  0.51100000000E-03 0.  1.
         11   -1    0    0    0    0 -0.00000000000E+00 -0.00000000000E+00 -0.45593999997E+02  0.45594000000E+02  0.51100000000E-03 0. -1.
    9900012    2    1    2    0    0 -0.61208196536E+01  0.41229703731E+02  0.12094225325E+02  0.47787272020E+02  0.20000004448E+02 0.  0.
         12    1    1    2    0    0  0.61208196536E+01 -0.41229703731E+02 -0.12094225325E+02  0.43400727980E+02  0.00000000000E+00 0. -1.
         11    1    3    3    0    0  0.72410935764E+00  0.23426885358E+02  0.27769176895E+01  0.23602003390E+02  0.51100000000E-03 0. -1.
        -11    1    3    3    0    0  0.26854713039E+01  0.72925152543E+01  0.12707564599E+01  0.78744750365E+01  0.51100000000E-03 0.  1.
        -12    1    3    3    0    0 -0.95304003152E+01  0.10510303119E+02  0.80465511755E+01  0.16310793593E+02  0.00000000000E+00 0.  1.
</event>
<event>
 7    1  0.2492468E-009  0.4778729E+02  0.7816164E-02  0.1312668E+00
        -11   -1    0    0    0    0  0.00000000000E+00  0.00000000000E+00  0.45593999997E+02  0.45594000000E+02  0.51100000000E-03 0.  1.
         11   -1    0    0    0    0 -0.00000000000E+00 -0.00000000000E+00 -0.45593999997E+02  0.45594000000E+02  0.51100000000E-03 0. -1.
    9900012    2    1    2    0    0  0.32151255039E+02 -0.16835734080E+02  0.23800774098E+02  0.47787285832E+02  0.20000067424E+02 0.  0.
         12    1    1    2    0    0 -0.32151255039E+02  0.16835734080E+02 -0.23800774098E+02  0.43400714168E+02  0.00000000000E+00 0. -1.
         11    1    3    3    0    0  0.62333430749E+00 -0.37533923527E+01  0.17280354076E+01  0.41788283577E+01  0.51100000000E-03 0. -1.
        -11    1    3    3    0    0  0.14428190005E+02 -0.46156546652E+00  0.23721251331E+01  0.14629172479E+02  0.51100000000E-03 0.  1.
         12    1    3    3    0    0  0.17099730726E+02 -0.12620776261E+02  0.19700613557E+02  0.28979284996E+02  0.00000000000E+00 0. -1.
</event>
<event>
 7    1  0.2492468E-009  0.4778729E+02  0.7816164E-02  0.1312668E+00
        -11   -1    0    0    0    0  0.00000000000E+00  0.00000000000E+00  0.45593999997E+02  0.45594000000E+02  0.51100000000E-03 0.  1.
         11   -1    0    0    0    0 -0.00000000000E+00 -0.00000000000E+00 -0.45593999997E+02  0.45594000000E+02  0.51100000000E-03 0. -1.
    9900012    2    1    2    0    0 -0.25233980546E+02 -0.82255394671E+01  0.34339606327E+02  0.47787287605E+02  0.20000075504E+02 0.  0.
         12    1    1    2    0    0  0.25233980546E+02  0.82255394671E+01 -0.34339606327E+02  0.43400712395E+02  0.00000000000E+00 0. -1.
         11    1    3    3    0    0 -0.55935460351E+01  0.36348003904E+01  0.86983264473E+01  0.10961770586E+02  0.51100000000E-03 0. -1.
        -11    1    3    3    0    0 -0.54229929730E+00 -0.14293103087E+01 -0.14292849817E+01  0.20928144463E+01  0.51100000000E-03 0.  1.
        -12    1    3    3    0    0 -0.19098135213E+02 -0.10431029549E+02  0.27070564862E+02  0.34732702573E+02  0.00000000000E+00 0.  1.
</event>
<event>
 7    1  0.2492468E-009  0.4778727E+02  0.7816164E-02  0.1312668E+00
        -11   -1    0    0    0    0  0.00000000000E+00  0.00000000000E+00  0.45593999997E+02  0.45594000000E+02  0.51100000000E-03 0.  1.
         11   -1    0    0    0    0 -0.00000000000E+00 -0.00000000000E+00 -0.45593999997E+02  0.45594000000E+02  0.51100000000E-03 0. -1.
    9900012    2    1    2    0    0  0.41739253908E+02  0.68417528624E+01  0.97287479696E+01  0.47787269176E+02  0.19999991480E+02 0.  0.
         12    1    1    2    0    0 -0.41739253908E+02 -0.68417528624E+01 -0.97287479696E+01  0.43400730824E+02  0.00000000000E+00 0. -1.
         11    1    3    3    0    0  0.45502248603E+01 -0.16945374796E+01 -0.73168069189E+00  0.49103320097E+01  0.51100000000E-03 0. -1.
        -11    1    3    3    0    0  0.63721484678E+01  0.25765734531E+01  0.91733445142E+01  0.11462689767E+02  0.51100000000E-03 0.  1.
         12    1    3    3    0    0  0.30816880580E+02  0.59597168889E+01  0.12870841473E+01  0.31414247399E+02  0.00000000000E+00 0. -1.
</event>
<event>
 7    1  0.2492468E-009  0.4778727E+02  0.7816164E-02  0.1312668E+00
        -11   -1    0    0    0    0  0.00000000000E+00  0.00000000000E+00  0.45593999997E+02  0.45594000000E+02  0.51100000000E-03 0.  1.
         11   -1    0    0    0    0 -0.00000000000E+00 -0.00000000000E+00 -0.45593999997E+02  0.45594000000E+02  0.51100000000E-03 0. -1.
    9900012    2    1    2    0    0  0.72379654624E+01  0.16023991627E+02  0.39679551143E+02  0.47787271543E+02  0.20000002273E+02 0.  0.
         12    1    1    2    0    0 -0.72379654624E+01 -0.16023991627E+02 -0.39679551143E+02  0.43400728457E+02  0.00000000000E+00 0. -1.
         11    1    3    3    0    0  0.81609077953E+00 -0.14027900162E+01 -0.34588020095E+00  0.16593545024E+01  0.51100000000E-03 0. -1.
        -11    1    3    3    0    0 -0.40321337557E+01  0.32066757569E+01  0.11207341596E+02  0.12334722451E+02  0.51100000000E-03 0.  1.
        -12    1    3    3    0    0  0.10454008439E+02  0.14220105886E+02  0.28818089748E+02  0.33793194590E+02  0.00000000000E+00 0.  1.
</event>
<event>
 7    1  0.2492468E-009  0.4778726E+02  0.7816164E-02  0.1312668E+00
        -11   -1    0    0    0    0  0.00000000000E+00  0.00000000000E+00  0.45593999997E+02  0.45594000000E+02  0.51100000000E-03 0.  1.
         11   -1    0    0    0    0 -0.00000000000E+00 -0.00000000000E+00 -0.45593999997E+02  0.45594000000E+02  0.51100000000E-03 0. -1.
    9900012    2    1    2    0    0 -0.15773279836E+02  0.14396803248E+02  0.37783060247E+02  0.47787263345E+02  0.19999964896E+02 0.  0.
         12    1    1    2    0    0  0.15773279836E+02 -0.14396803248E+02 -0.37783060247E+02  0.43400736655E+02  0.00000000000E+00 0. -1.
         11    1    3    3    0    0  0.24142921308E+01 -0.13377996339E+01  0.90957041219E+00  0.29061715278E+01  0.51100000000E-03 0.  1.
        -11    1    3    3    0    0 -0.49239389555E+01  0.71920754714E+00  0.40039097494E+01  0.63869967806E+01  0.51100000000E-03 0. -1.
        -12    1    3    3    0    0 -0.13263633011E+02  0.15015395335E+02  0.32869580085E+02  0.38494095037E+02  0.00000000000E+00 0.  1.
</event>
<event>
 7    1  0.2492468E-009  0.4778727E+02  0.7816164E-02  0.1312668E+00
        -11   -1    0    0    0    0  0.00000000000E+00  0.00000000000E+00  0.45593999997E+02  0.45594000000E+02  0.51100000000E-03 0.  1.
         11   -1    0    0    0    0 -0.00000000000E+00 -0.00000000000E+00 -0.45593999997E+02  0.45594000000E+02  0.51100000000E-03 0. -1.
    9900012    2    1    2    0    0  0.34452397429E+02 -0.97158558003E+01  0.24540947474E+02  0.47787266763E+02  0.19999980481E+02 0.  0.
         12    1    1    2    0    0 -0.34452397429E+02  0.97158558003E+01 -0.24540947474E+02  0.43400733237E+02  0.00000000000E+00 0. -1.
         11    1    3    3    0    0  0.11999696963E+02 -0.40502198071E+01  0.31321441344E+01  0.13046353315E+02  0.51100000000E-03 0.  1.
        -11    1    3    3    0    0  0.16885834425E+02 -0.50202950071E+01  0.64385145440E+01  0.18756045318E+02  0.51100000000E-03 0. -1.
        -12    1    3    3    0    0  0.55668660417E+01 -0.64534098610E+00  0.14970288796E+02  0.15984868130E+02  0.00000000000E+00 0.  1.
</event>
<event>
 7    1  0.2492468E-009  0.4778727E+02  0.7816164E-02  0.1312668E+00
        -11   -1    0    0    0    0  0.00000000000E+00  0.00000000000E+00  0.45593999997E+02  0.45594000000E+02  0.51100000000E-03 0.  1.
         11   -1    0    0    0    0 -0.00000000000E+00 -0.00000000000E+00 -0.45593999997E+02  0.45594000000E+02  0.51100000000E-03 0. -1.
    9900012    2    1    2    0    0 -0.36914687270E+02  0.20253374032E+02 -0.10522820458E+02  0.47787273666E+02  0.20000011955E+02 0.  0.
         12    1    1    2    0    0  0.36914687270E+02 -0.20253374032E+02  0.10522820458E+02  0.43400726334E+02  0.00000000000E+00 0. -1.
         11    1    3    3    0    0 -0.29324453073E+01  0.59293306155E+01 -0.13280677088E+01  0.67468482366E+01  0.51100000000E-03 0. -1.
        -11    1    3    3    0    0 -0.82515877075E+01  0.58943191305E+01  0.40238121597E+01  0.10909755371E+02  0.51100000000E-03 0.  1.
         12    1    3    3    0    0 -0.25730654255E+02  0.84297242858E+01 -0.13218564909E+02  0.30130670058E+02  0.00000000000E+00 0. -1.
</event>
<event>
 7    1  0.2492468E-009  0.4778724E+02  0.7816164E-02  0.1312668E+00
        -11   -1    0    0    0    0  0.00000000000E+00  0.00000000000E+00  0.45593999997E+02  0.45594000000E+02  0.51100000000E-03 0.  1.
         11   -1    0    0    0    0 -0.00000000000E+00 -0.00000000000E+00 -0.45593999997E+02  0.45594000000E+02  0.51100000000E-03 0. -1.
    9900012    2    1    2    0    0 -0.26437860385E+02 -0.36727218981E+01  0.34222460704E+02  0.47787237743E+02  0.19999848163E+02 0.  0.
         12    1    1    2    0    0  0.26437860385E+02  0.36727218981E+01 -0.34222460704E+02  0.43400762257E+02  0.00000000000E+00 0. -1.
         11    1    3    3    0    0  0.12437836643E+01  0.27385393617E+01  0.18153868947E+01  0.35131503637E+01  0.51100000000E-03 0. -1.
        -11    1    3    3    0    0 -0.13983557547E-02 -0.12915343890E+01 -0.72423764374E-01  0.12935642606E+01  0.51100000000E-03 0.  1.
        -12    1    3    3    0    0 -0.27680245694E+02 -0.51197268708E+01  0.32479497574E+02  0.42980523118E+02  0.00000000000E+00 0.  1.
</event>
<event>
 7    1  0.2492468E-009  0.4778728E+02  0.7816164E-02  0.1312668E+00
        -11   -1    0    0    0    0  0.00000000000E+00  0.00000000000E+00  0.45593999997E+02  0.45594000000E+02  0.51100000000E-03 0.  1.
         11   -1    0    0    0    0 -0.00000000000E+00 -0.00000000000E+00 -0.45593999997E+02  0.45594000000E+02  0.51100000000E-03 0. -1.
    9900012    2    1    2    0    0 -0.76965066834E+01 -0.40741967296E+02  0.12824924686E+02  0.47787276417E+02  0.20000024497E+02 0.  0.
         12    1    1    2    0    0  0.76965066834E+01  0.40741967296E+02 -0.12824924686E+02  0.43400723583E+02  0.00000000000E+00 0. -1.
         11    1    3    3    0    0  0.71084764768E+00  0.13133646670E+01  0.24031130922E+01  0.28293433729E+01  0.51100000000E-03 0. -1.
        -11    1    3    3    0    0 -0.57524715159E+01 -0.13057948335E+02  0.61089492459E+01  0.15521604440E+02  0.51100000000E-03 0.  1.
        -12    1    3    3    0    0 -0.26548828152E+01 -0.28997383628E+02  0.43128623482E+01  0.29436328604E+02  0.00000000000E+00 0.  1.
</event>
<event>
 7    1  0.2492468E-009  0.4778727E+02  0.7816164E-02  0.1312668E+00
        -11   -1    0    0    0    0  0.00000000000E+00  0.00000000000E+00  0.45593999997E+02  0.45594000000E+02  0.51100000000E-03 0.  1.
         11   -1    0    0    0    0 -0.00000000000E+00 -0.00000000000E+00 -0.45593999997E+02  0.45594000000E+02  0.51100000000E-03 0. -1.
    9900012    2    1    2    0    0  0.41774530761E+02  0.11059847558E+02 -0.40238691862E+01  0.47787272223E+02  0.20000005374E+02 0.  0.
         12    1    1    2    0    0 -0.41774530761E+02 -0.11059847558E+02  0.40238691862E+01  0.43400727777E+02  0.00000000000E+00 0. -1.
         11    1    3    3    0    0  0.88345641769E+01 -0.28690002532E+01 -0.63073997281E+01  0.11227821616E+02  0.51100000000E-03 0. -1.
        -11    1    3    3    0    0  0.16574741864E+02  0.31438280689E+01  0.47782650762E+00  0.16877027025E+02  0.51100000000E-03 0.  1.
        -12    1    3    3    0    0  0.16365224721E+02  0.10785019742E+02  0.18057040343E+01  0.19682423582E+02  0.00000000000E+00 0.  1.
</event>
<event>
 7    1  0.2492468E-009  0.4778727E+02  0.7816164E-02  0.1312668E+00
        -11   -1    0    0    0    0  0.00000000000E+00  0.00000000000E+00  0.45593999997E+02  0.45594000000E+02  0.51100000000E-03 0. -1.
         11   -1    0    0    0    0 -0.00000000000E+00 -0.00000000000E+00 -0.45593999997E+02  0.45594000000E+02  0.51100000000E-03 0.  1.
    9900012    2    1    2    0    0 -0.10145287532E+02  0.41231332566E+02 -0.89818584486E+01  0.47787269298E+02  0.19999992039E+02 0.  0.
         12    1    1    2    0    0  0.10145287532E+02 -0.41231332566E+02  0.89818584486E+01  0.43400730702E+02  0.00000000000E+00 0. -1.
         11    1    3    3    0    0  0.28979977235E+01  0.68780259805E+01 -0.26789224654E+00  0.74684267895E+01  0.51100000000E-03 0.  1.
        -11    1    3    3    0    0 -0.20392471496E+01  0.14775983684E+02  0.26496842736E+01  0.15149556092E+02  0.51100000000E-03 0. -1.
        -12    1    3    3    0    0 -0.11004038106E+02  0.19577322901E+02 -0.11363650476E+02  0.25169286417E+02  0.00000000000E+00 0.  1.
</event>
<event>
 7    1  0.2492468E-009  0.4778727E+02  0.7816164E-02  0.1312668E+00
        -11   -1    0    0    0    0  0.00000000000E+00  0.00000000000E+00  0.45593999997E+02  0.45594000000E+02  0.51100000000E-03 0.  1.
         11   -1    0    0    0    0 -0.00000000000E+00 -0.00000000000E+00 -0.45593999997E+02  0.45594000000E+02  0.51100000000E-03 0. -1.
    9900012    2    1    2    0    0 -0.18465417232E+02 -0.37151430459E+02  0.12744525797E+02  0.47787270093E+02  0.19999995660E+02 0.  0.
         12    1    1    2    0    0  0.18465417232E+02  0.37151430459E+02 -0.12744525797E+02  0.43400729907E+02  0.00000000000E+00 0. -1.
         11    1    3    3    0    0  0.17657077784E+01 -0.92687861979E+01 -0.90510585908E+00  0.94787835938E+01  0.51100000000E-03 0. -1.
        -11    1    3    3    0    0 -0.27305876726E+00 -0.62296433063E+01  0.35587703169E+01  0.71796840630E+01  0.51100000000E-03 0.  1.
        -12    1    3    3    0    0 -0.19958066243E+02 -0.21653000955E+02  0.10090861339E+02  0.31128802436E+02  0.00000000000E+00 0.  1.
</event>
<event>
 7    1  0.2492468E-009  0.4778727E+02  0.7816164E-02  0.1312668E+00
        -11   -1    0    0    0    0  0.00000000000E+00  0.00000000000E+00  0.45593999997E+02  0.45594000000E+02  0.51100000000E-03 0.  1.
         11   -1    0    0    0    0 -0.00000000000E+00 -0.00000000000E+00 -0.45593999997E+02  0.45594000000E+02  0.51100000000E-03 0. -1.
    9900012    2    1    2    0    0  0.15985181869E+00  0.99571160700E+01  0.42242795051E+02  0.47787269053E+02  0.19999990921E+02 0.  0.
         12    1    1    2    0    0 -0.15985181869E+00 -0.99571160700E+01 -0.42242795051E+02  0.43400730947E+02  0.00000000000E+00 0. -1.
         11    1    3    3    0    0 -0.13594898877E+01 -0.11620254527E+01 -0.11570718934E+01  0.21301012969E+01  0.51100000000E-03 0. -1.
        -11    1    3    3    0    0 -0.85598949062E+00  0.15739663426E+01  0.84617461920E+00  0.19814388214E+01  0.51100000000E-03 0.  1.
        -12    1    3    3    0    0  0.23753311970E+01  0.95451751801E+01  0.42553692325E+02  0.43675728935E+02  0.00000000000E+00 0.  1.
</event>
<event>
 7    1  0.2492468E-009  0.4778727E+02  0.7816164E-02  0.1312668E+00
        -11   -1    0    0    0    0  0.00000000000E+00  0.00000000000E+00  0.45593999997E+02  0.45594000000E+02  0.51100000000E-03 0.  1.
         11   -1    0    0    0    0 -0.00000000000E+00 -0.00000000000E+00 -0.45593999997E+02  0.45594000000E+02  0.51100000000E-03 0. -1.
    9900012    2    1    2    0    0  0.22649474699E+02 -0.35241957554E+01  0.36853829034E+02  0.47787269887E+02  0.19999994725E+02 0.  0.
         12    1    1    2    0    0 -0.22649474699E+02  0.35241957554E+01 -0.36853829034E+02  0.43400730113E+02  0.00000000000E+00 0. -1.
         11    1    3    3    0    0  0.90932175655E+01 -0.67033621077E+01  0.67359413419E+01  0.13152740219E+02  0.51100000000E-03 0. -1.
        -11    1    3    3    0    0  0.98708939435E+01 -0.94659074719E+00  0.11366027591E+02  0.15083672124E+02  0.51100000000E-03 0.  1.
        -12    1    3    3    0    0  0.36853631898E+01  0.41257570995E+01  0.18751860101E+02  0.19550857545E+02  0.00000000000E+00 0.  1.
</event>
<event>
 7    1  0.2492468E-009  0.4778727E+02  0.7816164E-02  0.1312668E+00
        -11   -1    0    0    0    0  0.00000000000E+00  0.00000000000E+00  0.45593999997E+02  0.45594000000E+02  0.51100000000E-03 0.  1.
         11   -1    0    0    0    0 -0.00000000000E+00 -0.00000000000E+00 -0.45593999997E+02  0.45594000000E+02  0.51100000000E-03 0. -1.
    9900012    2    1    2    0    0  0.33486298340E+02 -0.23366363166E+02  0.14707294223E+02  0.47787267202E+02  0.19999982479E+02 0.  0.
         12    1    1    2    0    0 -0.33486298340E+02  0.23366363166E+02 -0.14707294223E+02  0.43400732798E+02  0.00000000000E+00 0. -1.
         11    1    3    3    0    0  0.64769540899E+01 -0.13373941691E+02 -0.19806151262E+00  0.14861106260E+02  0.51100000000E-03 0. -1.
        -11    1    3    3    0    0  0.75692208834E+01 -0.38927053791E+01  0.17974062531E+01  0.86992487865E+01  0.51100000000E-03 0.  1.
         12    1    3    3    0    0  0.19440123366E+02 -0.60997160957E+01  0.13107949483E+02  0.24226912156E+02  0.00000000000E+00 0. -1.
</event>
<event>
 7    1  0.2492468E-009  0.4778721E+02  0.7816164E-02  0.1312668E+00
        -11   -1    0    0    0    0  0.00000000000E+00  0.00000000000E+00  0.45593999997E+02  0.45594000000E+02  0.51100000000E-03 0.  1.
         11   -1    0    0    0    0 -0.00000000000E+00 -0.00000000000E+00 -0.45593999997E+02  0.45594000000E+02  0.51100000000E-03 0. -1.
    9900012    2    1    2    0    0 -0.19342159401E+02  0.18256858997E+02  0.34295723071E+02  0.47787209089E+02  0.19999717519E+02 0.  0.
         12    1    1    2    0    0  0.19342159401E+02 -0.18256858997E+02 -0.34295723071E+02  0.43400790911E+02  0.00000000000E+00 0. -1.
         11    1    3    3    0    0 -0.14112695549E+02  0.81637440757E+01  0.13571742413E+02  0.21213370439E+02  0.51100000000E-03 0. -1.
        -11    1    3    3    0    0 -0.68181947835E+01  0.36573482740E+01  0.17640761176E+02  0.19262928947E+02  0.51100000000E-03 0.  1.
         12    1    3    3    0    0  0.15887309311E+01  0.64357666476E+01  0.30832194818E+01  0.73109097031E+01  0.00000000000E+00 0. -1.
</event>
<event>
 7    1  0.2492468E-009  0.4778725E+02  0.7816164E-02  0.1312668E+00
        -11   -1    0    0    0    0  0.00000000000E+00  0.00000000000E+00  0.45593999997E+02  0.45594000000E+02  0.51100000000E-03 0.  1.
         11   -1    0    0    0    0 -0.00000000000E+00 -0.00000000000E+00 -0.45593999997E+02  0.45594000000E+02  0.51100000000E-03 0. -1.
    9900012    2    1    2    0    0 -0.35362040612E+02 -0.21414627127E+02  0.13212300774E+02  0.47787250433E+02  0.19999906026E+02 0.  0.
         12    1    1    2    0    0  0.35362040612E+02  0.21414627127E+02 -0.13212300774E+02  0.43400749567E+02  0.00000000000E+00 0. -1.
         11    1    3    3    0    0 -0.11850395300E+02  0.16500360851E+01  0.36296142590E+01  0.12503143116E+02  0.51100000000E-03 0. -1.
        -11    1    3    3    0    0 -0.12200526252E+01 -0.15456718846E+01  0.30324371046E+01  0.36157025648E+01  0.51100000000E-03 0.  1.
        -12    1    3    3    0    0 -0.22291592687E+02 -0.21518991327E+02  0.65502494100E+01  0.31668404753E+02  0.00000000000E+00 0.  1.
</event>
<event>
 7    1  0.2492468E-009  0.4778728E+02  0.7816164E-02  0.1312668E+00
        -11   -1    0    0    0    0  0.00000000000E+00  0.00000000000E+00  0.45593999997E+02  0.45594000000E+02  0.51100000000E-03 0.  1.
         11   -1    0    0    0    0 -0.00000000000E+00 -0.00000000000E+00 -0.45593999997E+02  0.45594000000E+02  0.51100000000E-03 0. -1.
    9900012    2    1    2    0    0  0.22628394416E+02  0.13510008925E+02  0.34482723317E+02  0.47787276707E+02  0.20000025817E+02 0.  0.
         12    1    1    2    0    0 -0.22628394416E+02 -0.13510008925E+02 -0.34482723317E+02  0.43400723293E+02  0.00000000000E+00 0. -1.
         11    1    3    3    0    0  0.70443904319E+01  0.24755819978E+01  0.12187879292E+02  0.14293227231E+02  0.51100000000E-03 0. -1.
        -11    1    3    3    0    0  0.18528424246E+02  0.11520694350E+02  0.18114576728E+02  0.28357834784E+02  0.51100000000E-03 0.  1.
         12    1    3    3    0    0 -0.29444202617E+01 -0.48626742226E+00  0.41802672970E+01  0.51362146916E+01  0.00000000000E+00 0. -1.
</event>
<event>
 7    1  0.2492468E-009  0.4778727E+02  0.7816164E-02  0.1312668E+00
        -11   -1    0    0    0    0  0.00000000000E+00  0.00000000000E+00  0.45593999997E+02  0.45594000000E+02  0.51100000000E-03 0. -1.
         11   -1    0    0    0    0 -0.00000000000E+00 -0.00000000000E+00 -0.45593999997E+02  0.45594000000E+02  0.51100000000E-03 0.  1.
    9900012    2    1    2    0    0  0.15175462392E+02 -0.30853926896E+02 -0.26483272968E+02  0.47787271771E+02  0.20000003312E+02 0.  0.
         12    1    1    2    0    0 -0.15175462392E+02  0.30853926896E+02  0.26483272968E+02  0.43400728229E+02  0.00000000000E+00 0. -1.
         11    1    3    3    0    0  0.56502231333E+01 -0.15888132667E+02 -0.49894417173E+01  0.17585571074E+02  0.51100000000E-03 0. -1.
        -11    1    3    3    0    0 -0.11825277182E+01 -0.10456573413E+01  0.84147225761E+00  0.17888115891E+01  0.51100000000E-03 0.  1.
        -12    1    3    3    0    0  0.10707766976E+02 -0.13920136888E+02 -0.22335303509E+02  0.28412889107E+02  0.00000000000E+00 0.  1.
</event>
<event>
 7    1  0.2492468E-009  0.4778728E+02  0.7816164E-02  0.1312668E+00
        -11   -1    0    0    0    0  0.00000000000E+00  0.00000000000E+00  0.45593999997E+02  0.45594000000E+02  0.51100000000E-03 0.  1.
         11   -1    0    0    0    0 -0.00000000000E+00 -0.00000000000E+00 -0.45593999997E+02  0.45594000000E+02  0.51100000000E-03 0. -1.
    9900012    2    1    2    0    0  0.16276485282E+02 -0.13907282083E+02  0.37752961402E+02  0.47787279238E+02  0.20000037357E+02 0.  0.
         12    1    1    2    0    0 -0.16276485282E+02  0.13907282083E+02 -0.37752961402E+02  0.43400720762E+02  0.00000000000E+00 0. -1.
         11    1    3    3    0    0  0.22868270707E+01  0.22234528536E+01  0.42931086810E+00  0.32183270073E+01  0.51100000000E-03 0. -1.
        -11    1    3    3    0    0  0.41726568051E+01 -0.36458887249E+01  0.20918172175E+01  0.59227754424E+01  0.51100000000E-03 0.  1.
        -12    1    3    3    0    0  0.98170014066E+01 -0.12484846212E+02  0.35231833316E+02  0.38646176788E+02  0.00000000000E+00 0.  1.
</event>
<event>
 7    1  0.2492468E-009  0.4778727E+02  0.7816164E-02  0.1312668E+00
        -11   -1    0    0    0    0  0.00000000000E+00  0.00000000000E+00  0.45593999997E+02  0.45594000000E+02  0.51100000000E-03 0.  1.
         11   -1    0    0    0    0 -0.00000000000E+00 -0.00000000000E+00 -0.45593999997E+02  0.45594000000E+02  0.51100000000E-03 0. -1.
    9900012    2    1    2    0    0 -0.42665344436E+02  0.74825105148E+01 -0.27026256903E+01  0.47787265385E+02  0.19999974197E+02 0.  0.
         12    1    1    2    0    0  0.42665344436E+02 -0.74825105148E+01  0.27026256903E+01  0.43400734615E+02  0.00000000000E+00 0. -1.
         11    1    3    3    0    0  0.32387628479E+00  0.16686916240E+01  0.11650390649E+01  0.20607629334E+01  0.51100000000E-03 0. -1.
        -11    1    3    3    0    0 -0.14684510506E+02 -0.22890795902E+01 -0.63891657954E+01  0.16177026117E+02  0.51100000000E-03 0.  1.
        -12    1    3    3    0    0 -0.28304710215E+02  0.81028984810E+01  0.25215010402E+01  0.29549476335E+02  0.00000000000E+00 0.  1.
</event>
<event>
 7    1  0.2492468E-009  0.4778727E+02  0.7816164E-02  0.1312668E+00
        -11   -1    0    0    0    0  0.00000000000E+00  0.00000000000E+00  0.45593999997E+02  0.45594000000E+02  0.51100000000E-03 0. -1.
         11   -1    0    0    0    0 -0.00000000000E+00 -0.00000000000E+00 -0.45593999997E+02  0.45594000000E+02  0.51100000000E-03 0.  1.
    9900012    2    1    2    0    0  0.43459834047E+01  0.42846583345E+02  0.53764270932E+01  0.47787271385E+02  0.20000001551E+02 0.  0.
         12    1    1    2    0    0 -0.43459834047E+01 -0.42846583345E+02 -0.53764270932E+01  0.43400728615E+02  0.00000000000E+00 0. -1.
         11    1    3    3    0    0 -0.25703559461E+01 -0.22262325627E+00  0.23336838697E+01  0.34788462841E+01  0.51100000000E-03 0. -1.
        -11    1    3    3    0    0  0.11745291529E+01  0.27060133034E+02  0.33923434055E+01  0.27297221700E+02  0.51100000000E-03 0.  1.
        -12    1    3    3    0    0  0.57418101978E+01  0.16009073567E+02 -0.34960018207E+00  0.17011203400E+02  0.00000000000E+00 0.  1.
</event>
<event>
 7    1  0.2492468E-009  0.4778727E+02  0.7816164E-02  0.1312668E+00
        -11   -1    0    0    0    0  0.00000000000E+00  0.00000000000E+00  0.45593999997E+02  0.45594000000E+02  0.51100000000E-03 0.  1.
         11   -1    0    0    0    0 -0.00000000000E+00 -0.00000000000E+00 -0.45593999997E+02  0.45594000000E+02  0.51100000000E-03 0. -1.
    9900012    2    1    2    0    0  0.43439293182E+01 -0.11810202804E+00  0.43182632406E+02  0.47787269459E+02  0.19999992771E+02 0.  0.
         12    1    1    2    0    0 -0.43439293182E+01  0.11810202804E+00 -0.43182632406E+02  0.43400730541E+02  0.00000000000E+00 0. -1.
         11    1    3    3    0    0  0.48703265467E-01  0.18281561360E+01 -0.25288072643E+00  0.18462057818E+01  0.51100000000E-03 0. -1.
        -11    1    3    3    0    0  0.51157617573E+00  0.42895790309E+01  0.41714594182E+01  0.60052703840E+01  0.51100000000E-03 0.  1.
        -12    1    3    3    0    0  0.37836498770E+01 -0.62358371950E+01  0.39264053714E+02  0.39935793293E+02  0.00000000000E+00 0.  1.
</event>
<event>
 7    1  0.2492468E-009  0.4778729E+02  0.7816164E-02  0.1312668E+00
        -11   -1    0    0    0    0  0.00000000000E+00  0.00000000000E+00  0.45593999997E+02  0.45594000000E+02  0.51100000000E-03 0.  1.
         11   -1    0    0    0    0 -0.00000000000E+00 -0.00000000000E+00 -0.45593999997E+02  0.45594000000E+02  0.51100000000E-03 0. -1.
    9900012    2    1    2    0    0 -0.13515758791E+02 -0.39337417141E+02  0.12390059906E+02  0.47787289090E+02  0.20000082275E+02 0.  0.
         12    1    1    2    0    0  0.13515758791E+02  0.39337417141E+02 -0.12390059906E+02  0.43400710910E+02  0.00000000000E+00 0. -1.
         11    1    3    3    0    0 -0.76798555705E+01 -0.10691094727E+02  0.79336224065E+01  0.15369516999E+02  0.51100000000E-03 0. -1.
        -11    1    3    3    0    0 -0.42920909144E+01 -0.27554958762E+02  0.34153742124E+00  0.27889324927E+02  0.51100000000E-03 0.  1.
        -12    1    3    3    0    0 -0.15438123059E+01 -0.10913636525E+01  0.41149000785E+01  0.45284471637E+01  0.00000000000E+00 0.  1.
</event>
<event>
 7    1  0.2492468E-009  0.4778727E+02  0.7816164E-02  0.1312668E+00
        -11   -1    0    0    0    0  0.00000000000E+00  0.00000000000E+00  0.45593999997E+02  0.45594000000E+02  0.51100000000E-03 0. -1.
         11   -1    0    0    0    0 -0.00000000000E+00 -0.00000000000E+00 -0.45593999997E+02  0.45594000000E+02  0.51100000000E-03 0.  1.
    9900012    2    1    2    0    0 -0.40950093947E+02  0.13856495159E+02 -0.38354521005E+01  0.47787270223E+02  0.19999996256E+02 0.  0.
         12    1    1    2    0    0  0.40950093947E+02 -0.13856495159E+02  0.38354521005E+01  0.43400729777E+02  0.00000000000E+00 0. -1.
         11    1    3    3    0    0 -0.17377767047E+02  0.41731863731E+01  0.67388870359E+01  0.19100127508E+02  0.51100000000E-03 0. -1.
        -11    1    3    3    0    0 -0.11594038343E+02  0.42332224524E+01 -0.94173795367E+00  0.12378560824E+02  0.51100000000E-03 0.  1.
        -12    1    3    3    0    0 -0.11978288556E+02  0.54500863336E+01 -0.96326011827E+01  0.16308581892E+02  0.00000000000E+00 0.  1.
</event>
<event>
 7    1  0.2492468E-009  0.4778727E+02  0.7816164E-02  0.1312668E+00
        -11   -1    0    0    0    0  0.00000000000E+00  0.00000000000E+00  0.45593999997E+02  0.45594000000E+02  0.51100000000E-03 0.  1.
         11   -1    0    0    0    0 -0.00000000000E+00 -0.00000000000E+00 -0.45593999997E+02  0.45594000000E+02  0.51100000000E-03 0. -1.
    9900012    2    1    2    0    0  0.18679690285E+02 -0.35443221694E+02  0.16687441607E+02  0.47787268432E+02  0.19999988090E+02 0.  0.
         12    1    1    2    0    0 -0.18679690285E+02  0.35443221694E+02 -0.16687441607E+02  0.43400731568E+02  0.00000000000E+00 0. -1.
         11    1    3    3    0    0  0.10067191546E+02 -0.11223970132E+02  0.93298599780E+01  0.17730542536E+02  0.51100000000E-03 0.  1.
        -11    1    3    3    0    0  0.57842597993E+00 -0.73591599840E+00  0.50433212449E+01  0.51294481585E+01  0.51100000000E-03 0. -1.
         12    1    3    3    0    0  0.80340727596E+01 -0.23483335563E+02  0.23142603844E+01  0.24927277738E+02  0.00000000000E+00 0. -1.
</event>
<event>
 7    1  0.2492468E-009  0.4778726E+02  0.7816164E-02  0.1312668E+00
        -11   -1    0    0    0    0  0.00000000000E+00  0.00000000000E+00  0.45593999997E+02  0.45594000000E+02  0.51100000000E-03 0. -1.
         11   -1    0    0    0    0 -0.00000000000E+00 -0.00000000000E+00 -0.45593999997E+02  0.45594000000E+02  0.51100000000E-03 0.  1.
    9900012    2    1    2    0    0  0.58991017357E+01  0.97185045976E+01 -0.41885266098E+02  0.47787259811E+02  0.19999948781E+02 0.  0.
         12    1    1    2    0    0 -0.58991017357E+01 -0.97185045976E+01  0.41885266098E+02  0.43400740189E+02  0.00000000000E+00 0. -1.
         11    1    3    3    0    0  0.36241262630E+01 -0.24413093429E+01 -0.66285964655E+01  0.79393056271E+01  0.51100000000E-03 0. -1.
        -11    1    3    3    0    0  0.55865357941E+01  0.64703996120E+01 -0.76642712450E+01  0.11481137021E+02  0.51100000000E-03 0.  1.
        -12    1    3    3    0    0 -0.33115603214E+01  0.56894143285E+01 -0.27592398387E+02  0.28366817162E+02  0.00000000000E+00 0.  1.
</event>
<event>
 7    1  0.2492468E-009  0.4778727E+02  0.7816164E-02  0.1312668E+00
        -11   -1    0    0    0    0  0.00000000000E+00  0.00000000000E+00  0.45593999997E+02  0.45594000000E+02  0.51100000000E-03 0.  1.
         11   -1    0    0    0    0 -0.00000000000E+00 -0.00000000000E+00 -0.45593999997E+02  0.45594000000E+02  0.51100000000E-03 0. -1.
    9900012    2    1    2    0    0 -0.22298551735E+02 -0.19719165528E+02  0.31584051859E+02  0.47787271545E+02  0.20000002280E+02 0.  0.
         12    1    1    2    0    0  0.22298551735E+02  0.19719165528E+02 -0.31584051859E+02  0.43400728455E+02  0.00000000000E+00 0. -1.
         11    1    3    3    0    0 -0.10807010717E+02 -0.66718125733E+01  0.92922273846E+01  0.15736901019E+02  0.51100000000E-03 0. -1.
        -11    1    3    3    0    0 -0.28883203587E+01  0.25159662471E+01  0.40783075928E+00  0.38521171894E+01  0.51100000000E-03 0.  1.
        -12    1    3    3    0    0 -0.86032206599E+01 -0.15563319201E+02  0.21883993716E+02  0.28198253337E+02  0.00000000000E+00 0.  1.
</event>
<event>
 7    1  0.2492468E-009  0.4778727E+02  0.7816164E-02  0.1312668E+00
        -11   -1    0    0    0    0  0.00000000000E+00  0.00000000000E+00  0.45593999997E+02  0.45594000000E+02  0.51100000000E-03 0. -1.
         11   -1    0    0    0    0 -0.00000000000E+00 -0.00000000000E+00 -0.45593999997E+02  0.45594000000E+02  0.51100000000E-03 0.  1.
    9900012    2    1    2    0    0  0.28283543944E+02 -0.18772087356E+02 -0.27042064160E+02  0.47787270101E+02  0.19999995699E+02 0.  0.
         12    1    1    2    0    0 -0.28283543944E+02  0.18772087356E+02  0.27042064160E+02  0.43400729899E+02  0.00000000000E+00 0. -1.
         11    1    3    3    0    0 -0.60814026684E+00 -0.13823923174E+01  0.53009218546E+00  0.16005752371E+01  0.51100000000E-03 0. -1.
        -11    1    3    3    0    0  0.76870177611E+00 -0.57969401220E+01 -0.12937886796E+01  0.59890989812E+01  0.51100000000E-03 0.  1.
        -12    1    3    3    0    0  0.28122982435E+02 -0.11592754916E+02 -0.26278367666E+02  0.40197595883E+02  0.00000000000E+00 0.  1.
</event>
<event>
 7    1  0.2492468E-009  0.4778727E+02  0.7816164E-02  0.1312668E+00
        -11   -1    0    0    0    0  0.00000000000E+00  0.00000000000E+00  0.45593999997E+02  0.45594000000E+02  0.51100000000E-03 0.  1.
         11   -1    0    0    0    0 -0.00000000000E+00 -0.00000000000E+00 -0.45593999997E+02  0.45594000000E+02  0.51100000000E-03 0. -1.
    9900012    2    1    2    0    0  0.23127814941E+02  0.14450913586E+02  0.33762382747E+02  0.47787271709E+02  0.20000003031E+02 0.  0.
         12    1    1    2    0    0 -0.23127814941E+02 -0.14450913586E+02 -0.33762382747E+02  0.43400728291E+02  0.00000000000E+00 0. -1.
         11    1    3    3    0    0  0.98007762326E+01 -0.12705720927E+01  0.10904003749E+02  0.14716211001E+02  0.51100000000E-03 0.  1.
        -11    1    3    3    0    0 -0.16561791890E+01 -0.17190582602E+00  0.33985357821E+00  0.16994063184E+01  0.51100000000E-03 0. -1.
         12    1    3    3    0    0  0.14983217897E+02  0.15893391505E+02  0.22518525420E+02  0.31371654390E+02  0.00000000000E+00 0. -1.
</event>
<event>
 7    1  0.2492468E-009  0.4778728E+02  0.7816164E-02  0.1312668E+00
        -11   -1    0    0    0    0  0.00000000000E+00  0.00000000000E+00  0.45593999997E+02  0.45594000000E+02  0.51100000000E-03 0. -1.
         11   -1    0    0    0    0 -0.00000000000E+00 -0.00000000000E+00 -0.45593999997E+02  0.45594000000E+02  0.51100000000E-03 0.  1.
    9900012    2    1    2    0    0 -0.25422272052E+02  0.16858815488E+02 -0.30872496310E+02  0.47787278758E+02  0.20000035169E+02 0.  0.
         12    1    1    2    0    0  0.25422272052E+02 -0.16858815488E+02  0.30872496310E+02  0.43400721242E+02  0.00000000000E+00 0. -1.
         11    1    3    3    0    0 -0.40878799616E+01 -0.21003362886E+01 -0.15039449707E+01  0.48357032418E+01  0.51100000000E-03 0. -1.
        -11    1    3    3    0    0 -0.65455305125E+01  0.76259803312E+01 -0.26770937638E+01  0.10400306581E+02  0.51100000000E-03 0.  1.
        -12    1    3    3    0    0 -0.14788861577E+02  0.11333171446E+02 -0.26691457575E+02  0.32551268935E+02  0.00000000000E+00 0.  1.
</event>
<event>
 7    1  0.2492468E-009  0.4778726E+02  0.7816164E-02  0.1312668E+00
        -11   -1    0    0    0    0  0.00000000000E+00  0.00000000000E+00  0.45593999997E+02  0.45594000000E+02  0.51100000000E-03 0. -1.
         11   -1    0    0    0    0 -0.00000000000E+00 -0.00000000000E+00 -0.45593999997E+02  0.45594000000E+02  0.51100000000E-03 0.  1.
    9900012    2    1    2    0    0  0.38834945493E+02  0.75139869300E+00 -0.19362504663E+02  0.47787260626E+02  0.19999952497E+02 0.  0.
         12    1    1    2    0    0 -0.38834945493E+02 -0.75139869300E+00  0.19362504663E+02  0.43400739374E+02  0.00000000000E+00 0. -1.
         11    1    3    3    0    0  0.83992210100E+01 -0.61088747282E+01 -0.78100358702E+01  0.12994688322E+02  0.51100000000E-03 0. -1.
        -11    1    3    3    0    0  0.34012404484E+01 -0.19191830917E+01 -0.35137466403E+01  0.52533909088E+01  0.51100000000E-03 0.  1.
        -12    1    3    3    0    0  0.27034484034E+02  0.87794565129E+01 -0.80387221524E+01  0.29539181395E+02  0.00000000000E+00 0.  1.
</event>
<event>
 7    1  0.2492468E-009  0.4778727E+02  0.7816164E-02  0.1312668E+00
        -11   -1    0    0    0    0  0.00000000000E+00  0.00000000000E+00  0.45593999997E+02  0.45594000000E+02  0.51100000000E-03 0. -1.
         11   -1    0    0    0    0 -0.00000000000E+00 -0.00000000000E+00 -0.45593999997E+02  0.45594000000E+02  0.51100000000E-03 0.  1.
    9900012    2    1    2    0    0 -0.17681330275E+02 -0.39270482247E+02  0.53687199946E+01  0.47787269930E+02  0.19999994918E+02 0.  0.
         12    1    1    2    0    0  0.17681330275E+02  0.39270482247E+02 -0.53687199946E+01  0.43400730070E+02  0.00000000000E+00 0. -1.
         11    1    3    3    0    0  0.16613787341E+01 -0.19145814793E+00 -0.25805208742E+01  0.30750485791E+01  0.51100000000E-03 0. -1.
        -11    1    3    3    0    0 -0.65386478372E+01 -0.76600557124E+01  0.17029573964E+01  0.10214227000E+02  0.51100000000E-03 0.  1.
        -12    1    3    3    0    0 -0.12804061172E+02 -0.31418968387E+02  0.62462834723E+01  0.34497994351E+02  0.00000000000E+00 0.  1.
</event>
<event>
 7    1  0.2492468E-009  0.4778727E+02  0.7816164E-02  0.1312668E+00
        -11   -1    0    0    0    0  0.00000000000E+00  0.00000000000E+00  0.45593999997E+02  0.45594000000E+02  0.51100000000E-03 0. -1.
         11   -1    0    0    0    0 -0.00000000000E+00 -0.00000000000E+00 -0.45593999997E+02  0.45594000000E+02  0.51100000000E-03 0.  1.
    9900012    2    1    2    0    0 -0.14036671544E+02  0.39454409581E+02  0.11399327631E+02  0.47787271275E+02  0.20000001053E+02 0.  0.
         12    1    1    2    0    0  0.14036671544E+02 -0.39454409581E+02 -0.11399327631E+02  0.43400728725E+02  0.00000000000E+00 0. -1.
         11    1    3    3    0    0 -0.83020300260E+01  0.19955504569E+02  0.62085335295E+01  0.22487591112E+02  0.51100000000E-03 0.  1.
        -11    1    3    3    0    0 -0.18524279966E+01  0.14323257571E+02  0.97140496091E+01  0.17405457679E+02  0.51100000000E-03 0. -1.
         12    1    3    3    0    0 -0.38822135214E+01  0.51756474398E+01 -0.45232555079E+01  0.78942224846E+01  0.00000000000E+00 0. -1.
</event>
<event>
 7    1  0.2492468E-009  0.4778727E+02  0.7816164E-02  0.1312668E+00
        -11   -1    0    0    0    0  0.00000000000E+00  0.00000000000E+00  0.45593999997E+02  0.45594000000E+02  0.51100000000E-03 0.  1.
         11   -1    0    0    0    0 -0.00000000000E+00 -0.00000000000E+00 -0.45593999997E+02  0.45594000000E+02  0.51100000000E-03 0. -1.
    9900012    2    1    2    0    0  0.16468525958E+02 -0.29300355939E+02  0.27457241366E+02  0.47787270642E+02  0.19999998166E+02 0.  0.
         12    1    1    2    0    0 -0.16468525958E+02  0.29300355939E+02 -0.27457241366E+02  0.43400729358E+02  0.00000000000E+00 0. -1.
         11    1    3    3    0    0  0.11102070748E+02 -0.11844641414E+02  0.11686519154E+02  0.20003155634E+02  0.51100000000E-03 0. -1.
        -11    1    3    3    0    0  0.10008631955E+02 -0.12620384273E+02  0.12065670025E+02  0.20125287730E+02  0.51100000000E-03 0.  1.
         12    1    3    3    0    0 -0.46421767444E+01 -0.48353302510E+01  0.37050521865E+01  0.76588272776E+01  0.00000000000E+00 0. -1.
</event>
<event>
 7    1  0.2492468E-009  0.4778727E+02  0.7816164E-02  0.1312668E+00
        -11   -1    0    0    0    0  0.00000000000E+00  0.00000000000E+00  0.45593999997E+02  0.45594000000E+02  0.51100000000E-03 0. -1.
         11   -1    0    0    0    0 -0.00000000000E+00 -0.00000000000E+00 -0.45593999997E+02  0.45594000000E+02  0.51100000000E-03 0.  1.
    9900012    2    1    2    0    0  0.36673552341E+02 -0.90486041119E+01  0.21372792401E+02  0.47787274975E+02  0.20000017920E+02 0.  0.
         12    1    1    2    0    0 -0.36673552341E+02  0.90486041119E+01 -0.21372792401E+02  0.43400725025E+02  0.00000000000E+00 0. -1.
         11    1    3    3    0    0  0.17837865631E+02 -0.11551377837E+01  0.75114296654E+01  0.19389310701E+02  0.51100000000E-03 0. -1.
        -11    1    3    3    0    0  0.11026547953E+02  0.21726447327E+00  0.66147419429E+00  0.11048507229E+02  0.51100000000E-03 0.  1.
         12    1    3    3    0    0  0.78091387570E+01 -0.81107308015E+01  0.13199888541E+02  0.17349457045E+02  0.00000000000E+00 0. -1.
</event>
<event>
 7    1  0.2492468E-009  0.4778727E+02  0.7816164E-02  0.1312668E+00
        -11   -1    0    0    0    0  0.00000000000E+00  0.00000000000E+00  0.45593999997E+02  0.45594000000E+02  0.51100000000E-03 0.  1.
         11   -1    0    0    0    0 -0.00000000000E+00 -0.00000000000E+00 -0.45593999997E+02  0.45594000000E+02  0.51100000000E-03 0. -1.
    9900012    2    1    2    0    0  0.29615712150E+02  0.24821027852E+01  0.31628658392E+02  0.47787271065E+02  0.20000000095E+02 0.  0.
         12    1    1    2    0    0 -0.29615712150E+02 -0.24821027852E+01 -0.31628658392E+02  0.43400728935E+02  0.00000000000E+00 0. -1.
         11    1    3    3    0    0  0.33148267381E+01  0.38226308750E+01  0.10267776646E+01  0.51628340806E+01  0.51100000000E-03 0. -1.
        -11    1    3    3    0    0  0.16706285761E+02  0.13414810692E+01  0.94422160407E+01  0.19236813650E+02  0.51100000000E-03 0.  1.
         12    1    3    3    0    0  0.95945996510E+01 -0.26820091591E+01  0.21159664687E+02  0.23387623335E+02  0.00000000000E+00 0. -1.
</event>
<event>
 7    1  0.2492468E-009  0.4778727E+02  0.7816164E-02  0.1312668E+00
        -11   -1    0    0    0    0  0.00000000000E+00  0.00000000000E+00  0.45593999997E+02  0.45594000000E+02  0.51100000000E-03 0. -1.
         11   -1    0    0    0    0 -0.00000000000E+00 -0.00000000000E+00 -0.45593999997E+02  0.45594000000E+02  0.51100000000E-03 0.  1.
    9900012    2    1    2    0    0 -0.23506345158E+02  0.17804848765E+02  0.31844344981E+02  0.47787271786E+02  0.20000003380E+02 0.  0.
         12    1    1    2    0    0  0.23506345158E+02 -0.17804848765E+02 -0.31844344981E+02  0.43400728214E+02  0.00000000000E+00 0. -1.
         11    1    3    3    0    0 -0.43271396506E+00  0.38632651139E+01  0.42900880312E+01  0.57893794393E+01  0.51100000000E-03 0. -1.
        -11    1    3    3    0    0 -0.84111329628E+01  0.13805699002E+02  0.19282054918E+02  0.25162315569E+02  0.51100000000E-03 0.  1.
        -12    1    3    3    0    0 -0.14662498230E+02  0.13588464975E+00  0.82722020318E+01  0.16835576778E+02  0.00000000000E+00 0.  1.
</event>
<event>
 7    1  0.2492468E-009  0.4778727E+02  0.7816164E-02  0.1312668E+00
        -11   -1    0    0    0    0  0.00000000000E+00  0.00000000000E+00  0.45593999997E+02  0.45594000000E+02  0.51100000000E-03 0.  1.
         11   -1    0    0    0    0 -0.00000000000E+00 -0.00000000000E+00 -0.45593999997E+02  0.45594000000E+02  0.51100000000E-03 0. -1.
    9900012    2    1    2    0    0 -0.29135552167E+01 -0.25274813396E+02  0.35161321298E+02  0.47787268306E+02  0.19999987512E+02 0.  0.
         12    1    1    2    0    0  0.29135552167E+01  0.25274813396E+02 -0.35161321298E+02  0.43400731694E+02  0.00000000000E+00 0. -1.
         11    1    3    3    0    0 -0.17751346644E+01 -0.43312323271E+01  0.18793725203E+02  0.19367880209E+02  0.51100000000E-03 0.  1.
        -11    1    3    3    0    0  0.11483554932E+00 -0.10953586491E+02  0.24214286383E+01  0.11218625635E+02  0.51100000000E-03 0. -1.
         12    1    3    3    0    0 -0.12532561017E+01 -0.99899945777E+01  0.13946167457E+02  0.17200762462E+02  0.00000000000E+00 0. -1.
</event>
<event>
 7    1  0.2492468E-009  0.4778727E+02  0.7816164E-02  0.1312668E+00
        -11   -1    0    0    0    0  0.00000000000E+00  0.00000000000E+00  0.45593999997E+02  0.45594000000E+02  0.51100000000E-03 0. -1.
         11   -1    0    0    0    0 -0.00000000000E+00 -0.00000000000E+00 -0.45593999997E+02  0.45594000000E+02  0.51100000000E-03 0.  1.
    9900012    2    1    2    0    0  0.37122089393E+02 -0.14700404042E+02 -0.17013872200E+02  0.47787271353E+02  0.20000001406E+02 0.  0.
         12    1    1    2    0    0 -0.37122089393E+02  0.14700404042E+02  0.17013872200E+02  0.43400728647E+02  0.00000000000E+00 0. -1.
         11    1    3    3    0    0  0.13448577454E+02 -0.86388460957E+01 -0.13610552180E+02  0.20993833102E+02  0.51100000000E-03 0. -1.
        -11    1    3    3    0    0  0.17635159810E+02 -0.72282492666E+01 -0.61934500338E+01  0.20040091631E+02  0.51100000000E-03 0.  1.
         12    1    3    3    0    0  0.60383521287E+01  0.11666913207E+01  0.27901300145E+01  0.67533466197E+01  0.00000000000E+00 0. -1.
</event>
<event>
 7    1  0.2492468E-009  0.4778727E+02  0.7816164E-02  0.1312668E+00
        -11   -1    0    0    0    0  0.00000000000E+00  0.00000000000E+00  0.45593999997E+02  0.45594000000E+02  0.51100000000E-03 0.  1.
         11   -1    0    0    0    0 -0.00000000000E+00 -0.00000000000E+00 -0.45593999997E+02  0.45594000000E+02  0.51100000000E-03 0. -1.
    9900012    2    1    2    0    0 -0.90048358818E+01  0.25740591298E+02  0.33763271676E+02  0.47787267012E+02  0.19999981616E+02 0.  0.
         12    1    1    2    0    0  0.90048358818E+01 -0.25740591298E+02 -0.33763271676E+02  0.43400732988E+02  0.00000000000E+00 0. -1.
         11    1    3    3    0    0 -0.47222587637E+00  0.11774450742E+02  0.13599150355E+02  0.17994376293E+02  0.51100000000E-03 0. -1.
        -11    1    3    3    0    0 -0.33528174750E+01  0.13045011382E+02  0.20491417680E+02  0.24521661970E+02  0.51100000000E-03 0.  1.
         12    1    3    3    0    0 -0.51797925305E+01  0.92112917327E+00 -0.32729635898E+00  0.52712287485E+01  0.00000000000E+00 0. -1.
</event>
<event>
 7    1  0.2492468E-009  0.4778727E+02  0.7816164E-02  0.1312668E+00
        -11   -1    0    0    0    0  0.00000000000E+00  0.00000000000E+00  0.45593999997E+02  0.45594000000E+02  0.51100000000E-03 0.  1.
         11   -1    0    0    0    0 -0.00000000000E+00 -0.00000000000E+00 -0.45593999997E+02  0.45594000000E+02  0.51100000000E-03 0. -1.
    9900012    2    1    2    0    0  0.26827334445E+02  0.26721267888E+02  0.21210633871E+02  0.47787273967E+02  0.20000013325E+02 0.  0.
         12    1    1    2    0    0 -0.26827334445E+02 -0.26721267888E+02 -0.21210633871E+02  0.43400726033E+02  0.00000000000E+00 0. -1.
         11    1    3    3    0    0  0.99616829815E+01  0.19726763534E+02  0.56701008454E+01  0.22815134696E+02  0.51100000000E-03 0. -1.
        -11    1    3    3    0    0  0.94413573368E+01  0.63759191766E+01  0.60268000241E+01  0.12888517855E+02  0.51100000000E-03 0.  1.
         12    1    3    3    0    0  0.74242941266E+01  0.61858517802E+00  0.95137330014E+01  0.12083621416E+02  0.00000000000E+00 0. -1.
</event>
<event>
 7    1  0.2492468E-009  0.4778728E+02  0.7816164E-02  0.1312668E+00
        -11   -1    0    0    0    0  0.00000000000E+00  0.00000000000E+00  0.45593999997E+02  0.45594000000E+02  0.51100000000E-03 0.  1.
         11   -1    0    0    0    0 -0.00000000000E+00 -0.00000000000E+00 -0.45593999997E+02  0.45594000000E+02  0.51100000000E-03 0. -1.
    9900012    2    1    2    0    0 -0.33027205458E+02  0.27333221530E+02  0.67617223444E+01  0.47787283547E+02  0.20000057004E+02 0.  0.
         12    1    1    2    0    0  0.33027205458E+02 -0.27333221530E+02 -0.67617223444E+01  0.43400716453E+02  0.00000000000E+00 0. -1.
         11    1    3    3    0    0 -0.17450834620E+02  0.89502037712E+01 -0.40993587291E+01  0.20036030514E+02  0.51100000000E-03 0. -1.
        -11    1    3    3    0    0 -0.11075195806E+01 -0.69640240173E-01 -0.98159995692E+00  0.14815492300E+01  0.51100000000E-03 0.  1.
        -12    1    3    3    0    0 -0.14468851257E+02  0.18452657999E+02  0.11842681030E+02  0.26269703803E+02  0.00000000000E+00 0.  1.
</event>
<event>
 7    1  0.2492468E-009  0.4778726E+02  0.7816164E-02  0.1312668E+00
        -11   -1    0    0    0    0  0.00000000000E+00  0.00000000000E+00  0.45593999997E+02  0.45594000000E+02  0.51100000000E-03 0.  1.
         11   -1    0    0    0    0 -0.00000000000E+00 -0.00000000000E+00 -0.45593999997E+02  0.45594000000E+02  0.51100000000E-03 0. -1.
    9900012    2    1    2    0    0  0.40583863615E+02  0.13504322017E+02 -0.73625949230E+01  0.47787256883E+02  0.19999935434E+02 0.  0.
         12    1    1    2    0    0 -0.40583863615E+02 -0.13504322017E+02  0.73625949230E+01  0.43400743117E+02  0.00000000000E+00 0. -1.
         11    1    3    3    0    0  0.20856214241E+01 -0.68122587441E+00  0.99778115052E+00  0.24102806687E+01  0.51100000000E-03 0. -1.
        -11    1    3    3    0    0  0.10231011735E+02  0.29929065893E+01  0.54644806562E+01  0.11978799610E+02  0.51100000000E-03 0.  1.
         12    1    3    3    0    0  0.28267230456E+02  0.11192641302E+02 -0.13824856730E+02  0.33398176605E+02  0.00000000000E+00 0. -1.
</event>
<event>
 7    1  0.3054694E-009  0.4778727E+02  0.7816164E-02  0.1312668E+00
        -11   -1    0    0    0    0  0.00000000000E+00  0.00000000000E+00  0.45593999997E+02  0.45594000000E+02  0.51100000000E-03 0. -1.
         11   -1    0    0    0    0 -0.00000000000E+00 -0.00000000000E+00 -0.45593999997E+02  0.45594000000E+02  0.51100000000E-03 0.  1.
    9900012    2    1    2    0    0 -0.18956141833E+02 -0.38663535444E+02 -0.54239346980E+01  0.47787270123E+02  0.19999995800E+02 0.  0.
         12    1    1    2    0    0  0.18956141833E+02  0.38663535444E+02  0.54239346980E+01  0.43400729877E+02  0.00000000000E+00 0. -1.
         11    1    3    3    0    0 -0.38926011212E+00 -0.17270279449E+02 -0.48097364917E+01  0.17931749526E+02  0.51100000000E-03 0. -1.
        -11    1    3    3    0    0 -0.16869118000E+01 -0.30420637249E+01  0.30841213568E+01  0.46488308134E+01  0.51100000000E-03 0.  1.
         12    1    3    3    0    0 -0.16879969921E+02 -0.18351192270E+02 -0.36983195631E+01  0.25206689784E+02  0.00000000000E+00 0. -1.
</event>
<event>
 7    1  0.2492468E-009  0.4778724E+02  0.7816164E-02  0.1312668E+00
        -11   -1    0    0    0    0  0.00000000000E+00  0.00000000000E+00  0.45593999997E+02  0.45594000000E+02  0.51100000000E-03 0.  1.
         11   -1    0    0    0    0 -0.00000000000E+00 -0.00000000000E+00 -0.45593999997E+02  0.45594000000E+02  0.51100000000E-03 0. -1.
    9900012    2    1    2    0    0  0.91195593425E+01 -0.91430344990E+01  0.41435061778E+02  0.47787242092E+02  0.19999867992E+02 0.  0.
         12    1    1    2    0    0 -0.91195593425E+01  0.91430344990E+01 -0.41435061778E+02  0.43400757908E+02  0.00000000000E+00 0. -1.
         11    1    3    3    0    0  0.31758489560E+01  0.11895494280E+00  0.57284321600E+01  0.65509619250E+01  0.51100000000E-03 0. -1.
        -11    1    3    3    0    0  0.75647857361E+01 -0.63130825135E+01  0.36476857731E+02  0.37784152025E+02  0.51100000000E-03 0.  1.
         12    1    3    3    0    0 -0.16210753497E+01 -0.29489069284E+01 -0.77022811257E+00  0.34521281417E+01  0.00000000000E+00 0. -1.
</event>
<event>
 7    1  0.2492468E-009  0.4778727E+02  0.7816164E-02  0.1312668E+00
        -11   -1    0    0    0    0  0.00000000000E+00  0.00000000000E+00  0.45593999997E+02  0.45594000000E+02  0.51100000000E-03 0.  1.
         11   -1    0    0    0    0 -0.00000000000E+00 -0.00000000000E+00 -0.45593999997E+02  0.45594000000E+02  0.51100000000E-03 0. -1.
    9900012    2    1    2    0    0  0.40880851114E+02  0.41602565733E+01 -0.13966795328E+02  0.47787273113E+02  0.20000009433E+02 0.  0.
         12    1    1    2    0    0 -0.40880851114E+02 -0.41602565733E+01  0.13966795328E+02  0.43400726887E+02  0.00000000000E+00 0. -1.
         11    1    3    3    0    0  0.17962202981E+01 -0.70065091078E+00  0.31793685605E+01  0.37182931249E+01  0.51100000000E-03 0. -1.
        -11    1    3    3    0    0  0.72111110515E+01 -0.23837970223E+01 -0.54697713054E+01  0.93595410804E+01  0.51100000000E-03 0.  1.
        -12    1    3    3    0    0  0.31873519764E+02  0.72447045065E+01 -0.11676392583E+02  0.34709438908E+02  0.00000000000E+00 0.  1.
</event>
<event>
 7    1  0.2492468E-009  0.4778727E+02  0.7816164E-02  0.1312668E+00
        -11   -1    0    0    0    0  0.00000000000E+00  0.00000000000E+00  0.45593999997E+02  0.45594000000E+02  0.51100000000E-03 0. -1.
         11   -1    0    0    0    0 -0.00000000000E+00 -0.00000000000E+00 -0.45593999997E+02  0.45594000000E+02  0.51100000000E-03 0.  1.
    9900012    2    1    2    0    0 -0.16557152943E+02 -0.32208299592E+02 -0.23918810754E+02  0.47787269775E+02  0.19999994211E+02 0.  0.
         12    1    1    2    0    0  0.16557152943E+02  0.32208299592E+02  0.23918810754E+02  0.43400730225E+02  0.00000000000E+00 0. -1.
         11    1    3    3    0    0  0.11979960002E+01  0.35981084282E+00 -0.20673813941E+01  0.24163452462E+01  0.51100000000E-03 0. -1.
        -11    1    3    3    0    0 -0.11945279350E+02 -0.10064438889E+02 -0.41666957900E+01  0.16166136922E+02  0.51100000000E-03 0.  1.
        -12    1    3    3    0    0 -0.58098695934E+01 -0.22503671546E+02 -0.17684733570E+02  0.29204787607E+02  0.00000000000E+00 0.  1.
</event>
<event>
 7    1  0.2492468E-009  0.4778727E+02  0.7816164E-02  0.1312668E+00
        -11   -1    0    0    0    0  0.00000000000E+00  0.00000000000E+00  0.45593999997E+02  0.45594000000E+02  0.51100000000E-03 0. -1.
         11   -1    0    0    0    0 -0.00000000000E+00 -0.00000000000E+00 -0.45593999997E+02  0.45594000000E+02  0.51100000000E-03 0.  1.
    9900012    2    1    2    0    0 -0.64532747199E+01 -0.37976260133E+02 -0.19994556064E+02  0.47787270046E+02  0.19999995450E+02 0.  0.
         12    1    1    2    0    0  0.64532747199E+01  0.37976260133E+02  0.19994556064E+02  0.43400729954E+02  0.00000000000E+00 0. -1.
         11    1    3    3    0    0 -0.46656617862E+01 -0.18522153799E+02 -0.36281235002E+01  0.19442269972E+02  0.51100000000E-03 0.  1.
        -11    1    3    3    0    0  0.36284941932E+01 -0.57578495975E+01 -0.69876316762E+00  0.68415694342E+01  0.51100000000E-03 0. -1.
         12    1    3    3    0    0 -0.54161071268E+01 -0.13696256736E+02 -0.15667669396E+02  0.21503430640E+02  0.00000000000E+00 0. -1.
</event>
<event>
 7    1  0.2492468E-009  0.4778724E+02  0.7816164E-02  0.1312668E+00
        -11   -1    0    0    0    0  0.00000000000E+00  0.00000000000E+00  0.45593999997E+02  0.45594000000E+02  0.51100000000E-03 0.  1.
         11   -1    0    0    0    0 -0.00000000000E+00 -0.00000000000E+00 -0.45593999997E+02  0.45594000000E+02  0.51100000000E-03 0. -1.
    9900012    2    1    2    0    0  0.37077821205E+02  0.23043703173E+01  0.22439950332E+02  0.47787235965E+02  0.19999840060E+02 0.  0.
         12    1    1    2    0    0 -0.37077821205E+02 -0.23043703173E+01 -0.22439950332E+02  0.43400764035E+02  0.00000000000E+00 0. -1.
         11    1    3    3    0    0  0.17089135129E+02 -0.30127154555E+01  0.28454454518E+01  0.17584412244E+02  0.51100000000E-03 0. -1.
        -11    1    3    3    0    0  0.87072290573E+01  0.31279075238E+01  0.24635767935E+01  0.95743853177E+01  0.51100000000E-03 0.  1.
        -12    1    3    3    0    0  0.11281457018E+02  0.21891782490E+01  0.17130928087E+02  0.20628438404E+02  0.00000000000E+00 0.  1.
</event>
<event>
 7    1  0.2492468E-009  0.4778727E+02  0.7816164E-02  0.1312668E+00
        -11   -1    0    0    0    0  0.00000000000E+00  0.00000000000E+00  0.45593999997E+02  0.45594000000E+02  0.51100000000E-03 0. -1.
         11   -1    0    0    0    0 -0.00000000000E+00 -0.00000000000E+00 -0.45593999997E+02  0.45594000000E+02  0.51100000000E-03 0.  1.
    9900012    2    1    2    0    0 -0.40747942943E+02  0.48362658446E+01 -0.14136433802E+02  0.47787273255E+02  0.20000010078E+02 0.  0.
         12    1    1    2    0    0  0.40747942943E+02 -0.48362658446E+01  0.14136433802E+02  0.43400726745E+02  0.00000000000E+00 0. -1.
         11    1    3    3    0    0 -0.86064332726E+01  0.39132562760E+01 -0.16293050567E+01  0.95936908219E+01  0.51100000000E-03 0. -1.
        -11    1    3    3    0    0 -0.18683726468E+02  0.14457907362E+01 -0.15590791774E+02  0.24377135475E+02  0.51100000000E-03 0.  1.
        -12    1    3    3    0    0 -0.13457783202E+02 -0.52278116766E+00  0.30836630287E+01  0.13816446957E+02  0.00000000000E+00 0.  1.
</event>
<event>
 7    1  0.2492468E-009  0.4778727E+02  0.7816164E-02  0.1312668E+00
        -11   -1    0    0    0    0  0.00000000000E+00  0.00000000000E+00  0.45593999997E+02  0.45594000000E+02  0.51100000000E-03 0.  1.
         11   -1    0    0    0    0 -0.00000000000E+00 -0.00000000000E+00 -0.45593999997E+02  0.45594000000E+02  0.51100000000E-03 0. -1.
    9900012    2    1    2    0    0 -0.34681554087E+02 -0.24400839273E+02  0.92418714355E+01  0.47787270297E+02  0.19999996593E+02 0.  0.
         12    1    1    2    0    0  0.34681554087E+02  0.24400839273E+02 -0.92418714355E+01  0.43400729703E+02  0.00000000000E+00 0. -1.
         11    1    3    3    0    0  0.92739721213E+00  0.22433836012E+00  0.13502641041E+01  0.16533622412E+01  0.51100000000E-03 0. -1.
        -11    1    3    3    0    0 -0.12996204272E+02 -0.12525450705E+02 -0.29517552139E+01  0.18289371229E+02  0.51100000000E-03 0.  1.
        -12    1    3    3    0    0 -0.22612747027E+02 -0.12099726929E+02  0.10843362545E+02  0.27844536827E+02  0.00000000000E+00 0.  1.
</event>
<event>
 7    1  0.2492468E-009  0.4778727E+02  0.7816164E-02  0.1312668E+00
        -11   -1    0    0    0    0  0.00000000000E+00  0.00000000000E+00  0.45593999997E+02  0.45594000000E+02  0.51100000000E-03 0. -1.
         11   -1    0    0    0    0 -0.00000000000E+00 -0.00000000000E+00 -0.45593999997E+02  0.45594000000E+02  0.51100000000E-03 0.  1.
    9900012    2    1    2    0    0 -0.17464276517E+02 -0.14206126814E+02 -0.37105366745E+02  0.47787271497E+02  0.20000002063E+02 0.  0.
         12    1    1    2    0    0  0.17464276517E+02  0.14206126814E+02  0.37105366745E+02  0.43400728503E+02  0.00000000000E+00 0. -1.
         11    1    3    3    0    0 -0.53738553511E+01 -0.20446769962E+01 -0.18740330509E+01  0.60473982414E+01  0.51100000000E-03 0. -1.
        -11    1    3    3    0    0 -0.11433171940E+02 -0.45308141997E+01 -0.11627898820E+02  0.16924943993E+02  0.51100000000E-03 0.  1.
         12    1    3    3    0    0 -0.65724922594E+00 -0.76306356185E+01 -0.23603434873E+02  0.24814929263E+02  0.00000000000E+00 0. -1.
</event>
<event>
 7    1  0.2492468E-009  0.4778727E+02  0.7816164E-02  0.1312668E+00
        -11   -1    0    0    0    0  0.00000000000E+00  0.00000000000E+00  0.45593999997E+02  0.45594000000E+02  0.51100000000E-03 0. -1.
         11   -1    0    0    0    0 -0.00000000000E+00 -0.00000000000E+00 -0.45593999997E+02  0.45594000000E+02  0.51100000000E-03 0.  1.
    9900012    2    1    2    0    0 -0.40956795230E+02  0.13766779875E+02 -0.40792210613E+01  0.47787270189E+02  0.19999996099E+02 0.  0.
         12    1    1    2    0    0  0.40956795230E+02 -0.13766779875E+02  0.40792210613E+01  0.43400729811E+02  0.00000000000E+00 0. -1.
         11    1    3    3    0    0 -0.17710535999E+01 -0.97866174435E+00 -0.31314896946E+01  0.37283558886E+01  0.51100000000E-03 0. -1.
        -11    1    3    3    0    0 -0.22504601424E+01  0.53940430023E+01 -0.11546848001E+01  0.59576478591E+01  0.51100000000E-03 0.  1.
         12    1    3    3    0    0 -0.36935281488E+02  0.93513986172E+01  0.20695343337E+00  0.38101266441E+02  0.00000000000E+00 0. -1.
</event>
<event>
 7    1  0.2492468E-009  0.4778730E+02  0.7816164E-02  0.1312668E+00
        -11   -1    0    0    0    0  0.00000000000E+00  0.00000000000E+00  0.45593999997E+02  0.45594000000E+02  0.51100000000E-03 0.  1.
         11   -1    0    0    0    0 -0.00000000000E+00 -0.00000000000E+00 -0.45593999997E+02  0.45594000000E+02  0.51100000000E-03 0. -1.
    9900012    2    1    2    0    0 -0.33951562760E+02 -0.12333290799E+02  0.24058308362E+02  0.47787298658E+02  0.20000125901E+02 0.  0.
         12    1    1    2    0    0  0.33951562760E+02  0.12333290799E+02 -0.24058308362E+02  0.43400701342E+02  0.00000000000E+00 0. -1.
         11    1    3    3    0    0 -0.11600096018E+02 -0.60801111703E+01  0.50266623917E+01  0.14028446619E+02  0.51100000000E-03 0. -1.
        -11    1    3    3    0    0 -0.20897966904E+02 -0.54400401239E+01  0.86792526984E+01  0.23273342796E+02  0.51100000000E-03 0.  1.
        -12    1    3    3    0    0 -0.14534998374E+01 -0.81313950480E+00  0.10352393271E+02  0.10485509243E+02  0.00000000000E+00 0.  1.
</event>
<event>
 7    1  0.2492468E-009  0.4778727E+02  0.7816164E-02  0.1312668E+00
        -11   -1    0    0    0    0  0.00000000000E+00  0.00000000000E+00  0.45593999997E+02  0.45594000000E+02  0.51100000000E-03 0.  1.
         11   -1    0    0    0    0 -0.00000000000E+00 -0.00000000000E+00 -0.45593999997E+02  0.45594000000E+02  0.51100000000E-03 0. -1.
    9900012    2    1    2    0    0  0.19205558314E+02  0.25176239528E+02  0.29680414078E+02  0.47787268592E+02  0.19999988816E+02 0.  0.
         12    1    1    2    0    0 -0.19205558314E+02 -0.25176239528E+02 -0.29680414078E+02  0.43400731408E+02  0.00000000000E+00 0. -1.
         11    1    3    3    0    0  0.43890012840E+01  0.15063724687E+02  0.24440576359E+02  0.29043431387E+02  0.51100000000E-03 0. -1.
        -11    1    3    3    0    0  0.19030715714E+01  0.19013308336E+01  0.65361605809E+00  0.27683848282E+01  0.51100000000E-03 0.  1.
         12    1    3    3    0    0  0.12913485459E+02  0.82111840073E+01  0.45862216612E+01  0.15975452376E+02  0.00000000000E+00 0. -1.
</event>
<event>
 7    1  0.2492468E-009  0.4778727E+02  0.7816164E-02  0.1312668E+00
        -11   -1    0    0    0    0  0.00000000000E+00  0.00000000000E+00  0.45593999997E+02  0.45594000000E+02  0.51100000000E-03 0.  1.
         11   -1    0    0    0    0 -0.00000000000E+00 -0.00000000000E+00 -0.45593999997E+02  0.45594000000E+02  0.51100000000E-03 0. -1.
    9900012    2    1    2    0    0  0.18489251447E+02 -0.36240713132E+02 -0.15112294424E+02  0.47787272469E+02  0.20000006497E+02 0.  0.
         12    1    1    2    0    0 -0.18489251447E+02  0.36240713132E+02  0.15112294424E+02  0.43400727531E+02  0.00000000000E+00 0. -1.
         11    1    3    3    0    0  0.30769251055E+01 -0.92160103718E+00  0.12919783259E+00  0.32145775644E+01  0.51100000000E-03 0. -1.
        -11    1    3    3    0    0  0.88636707300E+00 -0.60509324190E+01  0.33563803109E+01  0.69760102337E+01  0.51100000000E-03 0.  1.
        -12    1    3    3    0    0  0.14525959269E+02 -0.29268179676E+02 -0.18597872568E+02  0.37596684671E+02  0.00000000000E+00 0.  1.
</event>
<event>
 7    1  0.2492468E-009  0.4778727E+02  0.7816164E-02  0.1312668E+00
        -11   -1    0    0    0    0  0.00000000000E+00  0.00000000000E+00  0.45593999997E+02  0.45594000000E+02  0.51100000000E-03 0.  1.
         11   -1    0    0    0    0 -0.00000000000E+00 -0.00000000000E+00 -0.45593999997E+02  0.45594000000E+02  0.51100000000E-03 0. -1.
    9900012    2    1    2    0    0  0.40718686787E+02  0.14741895302E+02  0.28790025507E+01  0.47787267443E+02  0.19999983581E+02 0.  0.
         12    1    1    2    0    0 -0.40718686787E+02 -0.14741895302E+02 -0.28790025507E+01  0.43400732557E+02  0.00000000000E+00 0. -1.
         11    1    3    3    0    0  0.19985721266E+02  0.88154140748E+00  0.87438916111E+00  0.20024253455E+02  0.51100000000E-03 0. -1.
        -11    1    3    3    0    0  0.12135568677E+00 -0.40063190429E+00  0.26575427954E+01  0.26903098512E+01  0.51100000000E-03 0.  1.
        -12    1    3    3    0    0  0.20611609835E+02  0.14260985798E+02 -0.65292940581E+00  0.25072704137E+02  0.00000000000E+00 0.  1.
</event>
<event>
 7    1  0.2492468E-009  0.4778728E+02  0.7816164E-02  0.1312668E+00
        -11   -1    0    0    0    0  0.00000000000E+00  0.00000000000E+00  0.45593999997E+02  0.45594000000E+02  0.51100000000E-03 0. -1.
         11   -1    0    0    0    0 -0.00000000000E+00 -0.00000000000E+00 -0.45593999997E+02  0.45594000000E+02  0.51100000000E-03 0.  1.
    9900012    2    1    2    0    0  0.22579062930E+02 -0.16439919526E+02 -0.33219533889E+02  0.47787280322E+02  0.20000042298E+02 0.  0.
         12    1    1    2    0    0 -0.22579062930E+02  0.16439919526E+02  0.33219533889E+02  0.43400719678E+02  0.00000000000E+00 0. -1.
         11    1    3    3    0    0  0.14967293310E+01 -0.49899294237E+01 -0.84020997056E+01  0.98860949858E+01  0.51100000000E-03 0. -1.
        -11    1    3    3    0    0  0.16432073929E+02 -0.15163182945E+02 -0.17061065058E+02  0.28124990877E+02  0.51100000000E-03 0.  1.
         12    1    3    3    0    0  0.46502596702E+01  0.37131928435E+01 -0.77563691248E+01  0.97761944586E+01  0.00000000000E+00 0. -1.
</event>
<event>
 7    1  0.2492468E-009  0.4778727E+02  0.7816164E-02  0.1312668E+00
        -11   -1    0    0    0    0  0.00000000000E+00  0.00000000000E+00  0.45593999997E+02  0.45594000000E+02  0.51100000000E-03 0. -1.
         11   -1    0    0    0    0 -0.00000000000E+00 -0.00000000000E+00 -0.45593999997E+02  0.45594000000E+02  0.51100000000E-03 0.  1.
    9900012    2    1    2    0    0 -0.39474090471E+02  0.11425009276E+02  0.13960241094E+02  0.47787274351E+02  0.20000015077E+02 0.  0.
         12    1    1    2    0    0  0.39474090471E+02 -0.11425009276E+02 -0.13960241094E+02  0.43400725649E+02  0.00000000000E+00 0. -1.
         11    1    3    3    0    0 -0.72657848320E+01 -0.14446396808E+01  0.69781649208E+01  0.10177101697E+02  0.51100000000E-03 0. -1.
        -11    1    3    3    0    0 -0.19395893454E+01 -0.21967717946E+01  0.17030216529E+01  0.33894094113E+01  0.51100000000E-03 0.  1.
        -12    1    3    3    0    0 -0.30268716293E+02  0.15066420751E+02  0.52790545198E+01  0.34220763243E+02  0.00000000000E+00 0.  1.
</event>
<event>
 7    1  0.2492468E-009  0.4778727E+02  0.7816164E-02  0.1312668E+00
        -11   -1    0    0    0    0  0.00000000000E+00  0.00000000000E+00  0.45593999997E+02  0.45594000000E+02  0.51100000000E-03 0. -1.
         11   -1    0    0    0    0 -0.00000000000E+00 -0.00000000000E+00 -0.45593999997E+02  0.45594000000E+02  0.51100000000E-03 0.  1.
    9900012    2    1    2    0    0  0.40957138935E+02 -0.14348949387E+02 -0.49379561003E+00  0.47787269449E+02  0.19999992726E+02 0.  0.
         12    1    1    2    0    0 -0.40957138935E+02  0.14348949387E+02  0.49379561003E+00  0.43400730551E+02  0.00000000000E+00 0. -1.
         11    1    3    3    0    0  0.89275253761E+01 -0.44750549273E+01 -0.10634426077E+01  0.10042795248E+02  0.51100000000E-03 0.  1.
        -11    1    3    3    0    0  0.28538581928E+02 -0.22574043354E+01  0.35603424918E+01  0.28848268089E+02  0.51100000000E-03 0. -1.
         12    1    3    3    0    0  0.34910316308E+01 -0.76164901245E+01 -0.29906954941E+01  0.88962061129E+01  0.00000000000E+00 0. -1.
</event>
<event>
 7    1  0.2492468E-009  0.4778727E+02  0.7816164E-02  0.1312668E+00
        -11   -1    0    0    0    0  0.00000000000E+00  0.00000000000E+00  0.45593999997E+02  0.45594000000E+02  0.51100000000E-03 0. -1.
         11   -1    0    0    0    0 -0.00000000000E+00 -0.00000000000E+00 -0.45593999997E+02  0.45594000000E+02  0.51100000000E-03 0.  1.
    9900012    2    1    2    0    0  0.73114016152E+00 -0.40814009580E+02 -0.14741280444E+02  0.47787270823E+02  0.19999998991E+02 0.  0.
         12    1    1    2    0    0 -0.73114016152E+00  0.40814009580E+02  0.14741280444E+02  0.43400729177E+02  0.00000000000E+00 0. -1.
         11    1    3    3    0    0 -0.38206091218E+01 -0.43166945207E+01  0.18967115424E+01  0.60686424003E+01  0.51100000000E-03 0. -1.
        -11    1    3    3    0    0  0.53436664964E+01 -0.10963392128E+02 -0.86510972553E+01  0.14953000454E+02  0.51100000000E-03 0.  1.
        -12    1    3    3    0    0 -0.79191721313E+00 -0.25533922931E+02 -0.79868947314E+01  0.26765627969E+02  0.00000000000E+00 0.  1.
</event>
<event>
 7    1  0.2492468E-009  0.4778729E+02  0.7816164E-02  0.1312668E+00
        -11   -1    0    0    0    0  0.00000000000E+00  0.00000000000E+00  0.45593999997E+02  0.45594000000E+02  0.51100000000E-03 0. -1.
         11   -1    0    0    0    0 -0.00000000000E+00 -0.00000000000E+00 -0.45593999997E+02  0.45594000000E+02  0.51100000000E-03 0.  1.
    9900012    2    1    2    0    0 -0.21349630462E+02  0.21499156609E+02 -0.31074125123E+02  0.47787289085E+02  0.20000082255E+02 0.  0.
         12    1    1    2    0    0  0.21349630462E+02 -0.21499156609E+02  0.31074125123E+02  0.43400710915E+02  0.00000000000E+00 0. -1.
         11    1    3    3    0    0 -0.23708567899E+01 -0.62469960626E+00  0.49924864392E+00  0.25020913225E+01  0.51100000000E-03 0. -1.
        -11    1    3    3    0    0 -0.15161006358E+02  0.82503004365E+01 -0.22165824201E+02  0.28093546125E+02  0.51100000000E-03 0.  1.
        -12    1    3    3    0    0 -0.38177673136E+01  0.13873555779E+02 -0.94075495658E+01  0.17191651638E+02  0.00000000000E+00 0.  1.
</event>
<event>
 7    1  0.2492468E-009  0.4778728E+02  0.7816164E-02  0.1312668E+00
        -11   -1    0    0    0    0  0.00000000000E+00  0.00000000000E+00  0.45593999997E+02  0.45594000000E+02  0.51100000000E-03 0.  1.
         11   -1    0    0    0    0 -0.00000000000E+00 -0.00000000000E+00 -0.45593999997E+02  0.45594000000E+02  0.51100000000E-03 0. -1.
    9900012    2    1    2    0    0 -0.22371383081E+01  0.15617743737E+02  0.40431475126E+02  0.47787275489E+02  0.20000020264E+02 0.  0.
         12    1    1    2    0    0  0.22371383081E+01 -0.15617743737E+02 -0.40431475126E+02  0.43400724511E+02  0.00000000000E+00 0. -1.
         11    1    3    3    0    0  0.37652057887E+01  0.14465995816E+02  0.27300212070E+02  0.31124642792E+02  0.51100000000E-03 0.  1.
        -11    1    3    3    0    0 -0.39689118562E+01  0.46564697195E+01  0.89379721438E+01  0.10831542728E+02  0.51100000000E-03 0. -1.
        -12    1    3    3    0    0 -0.20334322406E+01 -0.35047217978E+01  0.41932909113E+01  0.58310899688E+01  0.00000000000E+00 0.  1.
</event>
<event>
 7    1  0.2492468E-009  0.4778728E+02  0.7816164E-02  0.1312668E+00
        -11   -1    0    0    0    0  0.00000000000E+00  0.00000000000E+00  0.45593999997E+02  0.45594000000E+02  0.51100000000E-03 0.  1.
         11   -1    0    0    0    0 -0.00000000000E+00 -0.00000000000E+00 -0.45593999997E+02  0.45594000000E+02  0.51100000000E-03 0. -1.
    9900012    2    1    2    0    0  0.14597695967E+02 -0.15590061016E+02  0.37781998966E+02  0.47787283694E+02  0.20000057672E+02 0.  0.
         12    1    1    2    0    0 -0.14597695967E+02  0.15590061016E+02 -0.37781998966E+02  0.43400716306E+02  0.00000000000E+00 0. -1.
         11    1    3    3    0    0 -0.24598429378E+00  0.79385790966E+00  0.11071000678E+01  0.13843371969E+01  0.51100000000E-03 0. -1.
        -11    1    3    3    0    0  0.30280059812E+01 -0.15710589555E+02  0.16300552733E+02  0.22840741320E+02  0.51100000000E-03 0.  1.
        -12    1    3    3    0    0  0.11815674279E+02 -0.67332937109E+00  0.20374346166E+02  0.23562205177E+02  0.00000000000E+00 0.  1.
</event>
<event>
 7    1  0.2492468E-009  0.4778727E+02  0.7816164E-02  0.1312668E+00
        -11   -1    0    0    0    0  0.00000000000E+00  0.00000000000E+00  0.45593999997E+02  0.45594000000E+02  0.51100000000E-03 0.  1.
         11   -1    0    0    0    0 -0.00000000000E+00 -0.00000000000E+00 -0.45593999997E+02  0.45594000000E+02  0.51100000000E-03 0. -1.
    9900012    2    1    2    0    0 -0.29998729590E+02 -0.27168233432E+02  0.15671202213E+02  0.47787271162E+02  0.20000000537E+02 0.  0.
         12    1    1    2    0    0  0.29998729590E+02  0.27168233432E+02 -0.15671202213E+02  0.43400728838E+02  0.00000000000E+00 0. -1.
         11    1    3    3    0    0 -0.11319763236E+02 -0.10286201174E+02  0.14632162207E+02  0.21167029679E+02  0.51100000000E-03 0.  1.
        -11    1    3    3    0    0 -0.29296800212E+01 -0.49808494504E+00  0.24485408320E+01  0.38505150442E+01  0.51100000000E-03 0. -1.
        -12    1    3    3    0    0 -0.15749286333E+02 -0.16383947312E+02 -0.14095008256E+01  0.22769726439E+02  0.00000000000E+00 0.  1.
</event>
<event>
 7    1  0.2492468E-009  0.4778727E+02  0.7816164E-02  0.1312668E+00
        -11   -1    0    0    0    0  0.00000000000E+00  0.00000000000E+00  0.45593999997E+02  0.45594000000E+02  0.51100000000E-03 0.  1.
         11   -1    0    0    0    0 -0.00000000000E+00 -0.00000000000E+00 -0.45593999997E+02  0.45594000000E+02  0.51100000000E-03 0. -1.
    9900012    2    1    2    0    0 -0.41551863999E+02  0.12502581861E+02 -0.86679411720E+00  0.47787270893E+02  0.19999999308E+02 0.  0.
         12    1    1    2    0    0  0.41551863999E+02 -0.12502581861E+02  0.86679411720E+00  0.43400729107E+02  0.00000000000E+00 0. -1.
         11    1    3    3    0    0 -0.16824965358E+02 -0.11535774280E+01 -0.18887102846E+01  0.16969897671E+02  0.51100000000E-03 0. -1.
        -11    1    3    3    0    0 -0.16726517871E+02  0.38931230756E+01 -0.32762253489E+01  0.17483319484E+02  0.51100000000E-03 0.  1.
         12    1    3    3    0    0 -0.80003807704E+01  0.97630362138E+01  0.42981415164E+01  0.13334053738E+02  0.00000000000E+00 0. -1.
</event>
<event>
 7    1  0.2492468E-009  0.4778727E+02  0.7816164E-02  0.1312668E+00
        -11   -1    0    0    0    0  0.00000000000E+00  0.00000000000E+00  0.45593999997E+02  0.45594000000E+02  0.51100000000E-03 0. -1.
         11   -1    0    0    0    0 -0.00000000000E+00 -0.00000000000E+00 -0.45593999997E+02  0.45594000000E+02  0.51100000000E-03 0.  1.
    9900012    2    1    2    0    0  0.34657483357E+02 -0.24354850868E+02 -0.94511204390E+01  0.47787267390E+02  0.19999983340E+02 0.  0.
         12    1    1    2    0    0 -0.34657483357E+02  0.24354850868E+02  0.94511204390E+01  0.43400732610E+02  0.00000000000E+00 0. -1.
         11    1    3    3    0    0  0.17348931874E+00  0.17125813374E+01  0.23168541229E+00  0.17368683808E+01  0.51100000000E-03 0. -1.
        -11    1    3    3    0    0  0.71284550102E+01 -0.92387567155E+01  0.20676571775E+01  0.11850936796E+02  0.51100000000E-03 0.  1.
        -12    1    3    3    0    0  0.27355539029E+02 -0.16828675490E+02 -0.11750463029E+02  0.34199462214E+02  0.00000000000E+00 0.  1.
</event>
<event>
 7    1  0.2492468E-009  0.4778728E+02  0.7816164E-02  0.1312668E+00
        -11   -1    0    0    0    0  0.00000000000E+00  0.00000000000E+00  0.45593999997E+02  0.45594000000E+02  0.51100000000E-03 0.  1.
         11   -1    0    0    0    0 -0.00000000000E+00 -0.00000000000E+00 -0.45593999997E+02  0.45594000000E+02  0.51100000000E-03 0. -1.
    9900012    2    1    2    0    0  0.38108233740E+02 -0.19487361640E+02  0.71852756059E+01  0.47787275029E+02  0.20000018166E+02 0.  0.
         12    1    1    2    0    0 -0.38108233740E+02  0.19487361640E+02 -0.71852756059E+01  0.43400724971E+02  0.00000000000E+00 0. -1.
         11    1    3    3    0    0  0.17883784489E+02 -0.43957572433E+00 -0.82085570321E+00  0.17908008790E+02  0.51100000000E-03 0. -1.
        -11    1    3    3    0    0  0.72740832209E+01 -0.31874460896E+01  0.44288535803E+01  0.90932306457E+01  0.51100000000E-03 0.  1.
         12    1    3    3    0    0  0.12950366030E+02 -0.15860339826E+02  0.35772777288E+01  0.20786035593E+02  0.00000000000E+00 0. -1.
</event>
<event>
 7    1  0.2991622E-009  0.4778726E+02  0.7816164E-02  0.1312668E+00
        -11   -1    0    0    0    0  0.00000000000E+00  0.00000000000E+00  0.45593999997E+02  0.45594000000E+02  0.51100000000E-03 0.  1.
         11   -1    0    0    0    0 -0.00000000000E+00 -0.00000000000E+00 -0.45593999997E+02  0.45594000000E+02  0.51100000000E-03 0. -1.
    9900012    2    1    2    0    0 -0.22723669331E+01 -0.43221117995E+02 -0.32242666625E+01  0.47787255908E+02  0.19999930985E+02 0.  0.
         12    1    1    2    0    0  0.22723669331E+01  0.43221117995E+02  0.32242666625E+01  0.43400744092E+02  0.00000000000E+00 0. -1.
         11    1    3    3    0    0  0.55092377459E+01 -0.81305057185E+01 -0.12016050211E+01  0.98944771801E+01  0.51100000000E-03 0. -1.
        -11    1    3    3    0    0 -0.14052218436E+01 -0.15318357896E+02  0.46539667048E+01  0.16071283191E+02  0.51100000000E-03 0.  1.
         12    1    3    3    0    0 -0.63763828355E+01 -0.19772254381E+02 -0.66766283462E+01  0.21821495536E+02  0.00000000000E+00 0. -1.
</event>
<event>
 7    1  0.2492468E-009  0.4778726E+02  0.7816164E-02  0.1312668E+00
        -11   -1    0    0    0    0  0.00000000000E+00  0.00000000000E+00  0.45593999997E+02  0.45594000000E+02  0.51100000000E-03 0.  1.
         11   -1    0    0    0    0 -0.00000000000E+00 -0.00000000000E+00 -0.45593999997E+02  0.45594000000E+02  0.51100000000E-03 0. -1.
    9900012    2    1    2    0    0 -0.81799933808E+01  0.12113260171E+02  0.40865403996E+02  0.47787255681E+02  0.19999929952E+02 0.  0.
         12    1    1    2    0    0  0.81799933808E+01 -0.12113260171E+02 -0.40865403996E+02  0.43400744319E+02  0.00000000000E+00 0. -1.
         11    1    3    3    0    0 -0.17042050672E+01  0.71835366178E+01  0.38032325609E+02  0.38742293488E+02  0.51100000000E-03 0. -1.
        -11    1    3    3    0    0 -0.85041906673E+00  0.93564375116E+00  0.15955066787E+01  0.20357513701E+01  0.51100000000E-03 0.  1.
         12    1    3    3    0    0 -0.56253692469E+01  0.39940798018E+01  0.12375717088E+01  0.70092108231E+01  0.00000000000E+00 0. -1.
</event>
<event>
 7    1  0.2492468E-009  0.4778727E+02  0.7816164E-02  0.1312668E+00
        -11   -1    0    0    0    0  0.00000000000E+00  0.00000000000E+00  0.45593999997E+02  0.45594000000E+02  0.51100000000E-03 0.  1.
         11   -1    0    0    0    0 -0.00000000000E+00 -0.00000000000E+00 -0.45593999997E+02  0.45594000000E+02  0.51100000000E-03 0. -1.
    9900012    2    1    2    0    0  0.34909979840E+02 -0.60595862767E+01  0.25063882971E+02  0.47787268349E+02  0.19999987712E+02 0.  0.
         12    1    1    2    0    0 -0.34909979840E+02  0.60595862767E+01 -0.25063882971E+02  0.43400731651E+02  0.00000000000E+00 0. -1.
         11    1    3    3    0    0  0.10625910334E+02 -0.44245849069E+01  0.43204024012E+01  0.12294421466E+02  0.51100000000E-03 0. -1.
        -11    1    3    3    0    0  0.24098401704E+02 -0.29874645771E+01  0.12832776794E+02  0.27465215634E+02  0.51100000000E-03 0.  1.
         12    1    3    3    0    0  0.18566780204E+00  0.13524632073E+01  0.79107037751E+01  0.80276312495E+01  0.00000000000E+00 0. -1.
</event>
<event>
 7    1  0.2492468E-009  0.4778727E+02  0.7816164E-02  0.1312668E+00
        -11   -1    0    0    0    0  0.00000000000E+00  0.00000000000E+00  0.45593999997E+02  0.45594000000E+02  0.51100000000E-03 0.  1.
         11   -1    0    0    0    0 -0.00000000000E+00 -0.00000000000E+00 -0.45593999997E+02  0.45594000000E+02  0.51100000000E-03 0. -1.
    9900012    2    1    2    0    0  0.42878675904E+02  0.66393055104E+01 -0.98094176200E+00  0.47787268766E+02  0.19999989611E+02 0.  0.
         12    1    1    2    0    0 -0.42878675904E+02 -0.66393055104E+01  0.98094176200E+00  0.43400731234E+02  0.00000000000E+00 0. -1.
         11    1    3    3    0    0  0.14522441476E+02 -0.40528989428E+01  0.36274781866E+01  0.15507607633E+02  0.51100000000E-03 0. -1.
        -11    1    3    3    0    0  0.12920965916E+02  0.16167266337E+00 -0.42087492500E+01  0.13590109226E+02  0.51100000000E-03 0.  1.
        -12    1    3    3    0    0  0.15435268511E+02  0.10530531790E+02 -0.39967069853E+00  0.18689551906E+02  0.00000000000E+00 0.  1.
</event>
<event>
 7    1  0.2492468E-009  0.4778727E+02  0.7816164E-02  0.1312668E+00
        -11   -1    0    0    0    0  0.00000000000E+00  0.00000000000E+00  0.45593999997E+02  0.45594000000E+02  0.51100000000E-03 0. -1.
         11   -1    0    0    0    0 -0.00000000000E+00 -0.00000000000E+00 -0.45593999997E+02  0.45594000000E+02  0.51100000000E-03 0.  1.
    9900012    2    1    2    0    0  0.24545160413E+02  0.21526989381E+02 -0.28596278011E+02  0.47787270886E+02  0.19999999279E+02 0.  0.
         12    1    1    2    0    0 -0.24545160413E+02 -0.21526989381E+02  0.28596278011E+02  0.43400729114E+02  0.00000000000E+00 0. -1.
         11    1    3    3    0    0  0.71517903374E+01  0.82732141456E+01 -0.13540316881E+02  0.17405009590E+02  0.51100000000E-03 0. -1.
        -11    1    3    3    0    0  0.12563747046E+02  0.20160433322E+01 -0.12598457188E+02  0.17906236185E+02  0.51100000000E-03 0.  1.
        -12    1    3    3    0    0  0.48296230298E+01  0.11237731903E+02 -0.24575039420E+01  0.12476025111E+02  0.00000000000E+00 0.  1.
</event>
<event>
 7    1  0.2492468E-009  0.4778727E+02  0.7816164E-02  0.1312668E+00
        -11   -1    0    0    0    0  0.00000000000E+00  0.00000000000E+00  0.45593999997E+02  0.45594000000E+02  0.51100000000E-03 0. -1.
         11   -1    0    0    0    0 -0.00000000000E+00 -0.00000000000E+00 -0.45593999997E+02  0.45594000000E+02  0.51100000000E-03 0.  1.
    9900012    2    1    2    0    0  0.30778981809E+02  0.29552795088E+02 -0.79315611883E+01  0.47787273260E+02  0.20000010100E+02 0.  0.
         12    1    1    2    0    0 -0.30778981809E+02 -0.29552795088E+02  0.79315611883E+01  0.43400726740E+02  0.00000000000E+00 0. -1.
         11    1    3    3    0    0  0.16574013323E+02  0.54408955515E+01 -0.58888939675E+01  0.18411418589E+02  0.51100000000E-03 0.  1.
        -11    1    3    3    0    0 -0.31345129176E+00  0.62992547261E+01 -0.19400359948E-01  0.63070784403E+01  0.51100000000E-03 0. -1.
        -12    1    3    3    0    0  0.14518419777E+02  0.17812644810E+02 -0.20232668608E+01  0.23068776230E+02  0.00000000000E+00 0.  1.
</event>
<event>
 7    1  0.2492468E-009  0.4778727E+02  0.7816164E-02  0.1312668E+00
        -11   -1    0    0    0    0  0.00000000000E+00  0.00000000000E+00  0.45593999997E+02  0.45594000000E+02  0.51100000000E-03 0. -1.
         11   -1    0    0    0    0 -0.00000000000E+00 -0.00000000000E+00 -0.45593999997E+02  0.45594000000E+02  0.51100000000E-03 0.  1.
    9900012    2    1    2    0    0  0.39558943140E+02 -0.14585908609E+02 -0.10293905166E+02  0.47787271944E+02  0.20000004099E+02 0.  0.
         12    1    1    2    0    0 -0.39558943140E+02  0.14585908609E+02  0.10293905166E+02  0.43400728056E+02  0.00000000000E+00 0. -1.
         11    1    3    3    0    0  0.20849535061E+02  0.38653250350E+00 -0.91147709462E+01  0.22758109968E+02  0.51100000000E-03 0.  1.
        -11    1    3    3    0    0  0.43860686734E+01 -0.13194220476E+01  0.19813420052E+01  0.49904097377E+01  0.51100000000E-03 0. -1.
        -12    1    3    3    0    0  0.14323339405E+02 -0.13653019065E+02 -0.31604762251E+01  0.20038752238E+02  0.00000000000E+00 0.  1.
</event>
<event>
 7    1  0.2492468E-009  0.4778728E+02  0.7816164E-02  0.1312668E+00
        -11   -1    0    0    0    0  0.00000000000E+00  0.00000000000E+00  0.45593999997E+02  0.45594000000E+02  0.51100000000E-03 0. -1.
         11   -1    0    0    0    0 -0.00000000000E+00 -0.00000000000E+00 -0.45593999997E+02  0.45594000000E+02  0.51100000000E-03 0.  1.
    9900012    2    1    2    0    0 -0.29552566514E+02  0.27520227389E+02 -0.15903012406E+02  0.47787275274E+02  0.20000019286E+02 0.  0.
         12    1    1    2    0    0  0.29552566514E+02 -0.27520227389E+02  0.15903012406E+02  0.43400724726E+02  0.00000000000E+00 0. -1.
         11    1    3    3    0    0 -0.65747707329E+01 -0.12367248336E+01 -0.30514310770E+00  0.66970300194E+01  0.51100000000E-03 0. -1.
        -11    1    3    3    0    0 -0.31862242818E+01  0.14815865156E+01 -0.42874595805E+01  0.55434135415E+01  0.51100000000E-03 0.  1.
        -12    1    3    3    0    0 -0.19791571499E+02  0.27275365707E+02 -0.11310409718E+02  0.35546831713E+02  0.00000000000E+00 0.  1.
</event>
<event>
 7    1  0.2492468E-009  0.4778728E+02  0.7816164E-02  0.1312668E+00
        -11   -1    0    0    0    0  0.00000000000E+00  0.00000000000E+00  0.45593999997E+02  0.45594000000E+02  0.51100000000E-03 0. -1.
         11   -1    0    0    0    0 -0.00000000000E+00 -0.00000000000E+00 -0.45593999997E+02  0.45594000000E+02  0.51100000000E-03 0.  1.
    9900012    2    1    2    0    0 -0.51512324018E+00  0.30142638326E+02 -0.31221449701E+02  0.47787275137E+02  0.20000018660E+02 0.  0.
         12    1    1    2    0    0  0.51512324018E+00 -0.30142638326E+02  0.31221449701E+02  0.43400724863E+02  0.00000000000E+00 0. -1.
         11    1    3    3    0    0 -0.73248134142E+00  0.66651868113E+01 -0.85734840731E+00  0.67599031574E+01  0.51100000000E-03 0. -1.
        -11    1    3    3    0    0 -0.68751502698E+01  0.83146825843E+01 -0.10567317424E+02  0.15101981178E+02  0.51100000000E-03 0.  1.
        -12    1    3    3    0    0  0.70925083711E+01  0.15162768931E+02 -0.19796783870E+02  0.25925390802E+02  0.00000000000E+00 0.  1.
</event>
<event>
 7    1  0.2492468E-009  0.4778727E+02  0.7816164E-02  0.1312668E+00
        -11   -1    0    0    0    0  0.00000000000E+00  0.00000000000E+00  0.45593999997E+02  0.45594000000E+02  0.51100000000E-03 0. -1.
         11   -1    0    0    0    0 -0.00000000000E+00 -0.00000000000E+00 -0.45593999997E+02  0.45594000000E+02  0.51100000000E-03 0.  1.
    9900012    2    1    2    0    0 -0.33742244031E+02  0.35354538050E+01 -0.27066306917E+02  0.47787269177E+02  0.19999991484E+02 0.  0.
         12    1    1    2    0    0  0.33742244031E+02 -0.35354538050E+01  0.27066306917E+02  0.43400730823E+02  0.00000000000E+00 0. -1.
         11    1    3    3    0    0 -0.22646874666E+02  0.21847919172E+01 -0.99846390929E+01  0.24846473914E+02  0.51100000000E-03 0. -1.
        -11    1    3    3    0    0  0.16725898075E+01  0.67918630995E+00 -0.27880334423E+00  0.18266314006E+01  0.51100000000E-03 0.  1.
        -12    1    3    3    0    0 -0.12767959173E+02  0.67147557787E+00 -0.16802864480E+02  0.21114163862E+02  0.00000000000E+00 0.  1.
</event>
<event>
 7    1  0.2492468E-009  0.4778727E+02  0.7816164E-02  0.1312668E+00
        -11   -1    0    0    0    0  0.00000000000E+00  0.00000000000E+00  0.45593999997E+02  0.45594000000E+02  0.51100000000E-03 0.  1.
         11   -1    0    0    0    0 -0.00000000000E+00 -0.00000000000E+00 -0.45593999997E+02  0.45594000000E+02  0.51100000000E-03 0. -1.
    9900012    2    1    2    0    0  0.29715639416E+02 -0.24740736937E+02  0.19710404431E+02  0.47787270365E+02  0.19999996900E+02 0.  0.
         12    1    1    2    0    0 -0.29715639416E+02  0.24740736937E+02 -0.19710404431E+02  0.43400729635E+02  0.00000000000E+00 0. -1.
         11    1    3    3    0    0  0.20951254465E+01 -0.46956625770E+01  0.78286637606E+01  0.93662572147E+01  0.51100000000E-03 0. -1.
        -11    1    3    3    0    0  0.12040806255E+02 -0.12946116060E+02  0.11879194156E+02  0.21300192261E+02  0.51100000000E-03 0.  1.
        -12    1    3    3    0    0  0.15579707714E+02 -0.70989582998E+01  0.25465137294E-02  0.17120820888E+02  0.00000000000E+00 0.  1.
</event>
<event>
 7    1  0.2492468E-009  0.4778727E+02  0.7816164E-02  0.1312668E+00
        -11   -1    0    0    0    0  0.00000000000E+00  0.00000000000E+00  0.45593999997E+02  0.45594000000E+02  0.51100000000E-03 0. -1.
         11   -1    0    0    0    0 -0.00000000000E+00 -0.00000000000E+00 -0.45593999997E+02  0.45594000000E+02  0.51100000000E-03 0.  1.
    9900012    2    1    2    0    0  0.13617289330E+02 -0.31575538466E+02 -0.26479769350E+02  0.47787269788E+02  0.19999994271E+02 0.  0.
         12    1    1    2    0    0 -0.13617289330E+02  0.31575538466E+02  0.26479769350E+02  0.43400730212E+02  0.00000000000E+00 0. -1.
         11    1    3    3    0    0  0.59738541591E+01 -0.22591058218E+02 -0.11955432848E+02  0.26248337467E+02  0.51100000000E-03 0. -1.
        -11    1    3    3    0    0  0.86652460676E+01 -0.83231482289E+01 -0.69765784451E+01  0.13893665208E+02  0.51100000000E-03 0.  1.
        -12    1    3    3    0    0 -0.10218108962E+01 -0.66133201884E+00 -0.75477580564E+01  0.76452671127E+01  0.00000000000E+00 0.  1.
</event>
<event>
 7    1  0.2492468E-009  0.4778727E+02  0.7816164E-02  0.1312668E+00
        -11   -1    0    0    0    0  0.00000000000E+00  0.00000000000E+00  0.45593999997E+02  0.45594000000E+02  0.51100000000E-03 0.  1.
         11   -1    0    0    0    0 -0.00000000000E+00 -0.00000000000E+00 -0.45593999997E+02  0.45594000000E+02  0.51100000000E-03 0. -1.
    9900012    2    1    2    0    0 -0.13918328264E+02 -0.35418751416E+02  0.20866611277E+02  0.47787270977E+02  0.19999999692E+02 0.  0.
         12    1    1    2    0    0  0.13918328264E+02  0.35418751416E+02 -0.20866611277E+02  0.43400729023E+02  0.00000000000E+00 0. -1.
         11    1    3    3    0    0  0.46347102062E-01 -0.42068492945E+01 -0.64520643434E+00  0.42562918890E+01  0.51100000000E-03 0. -1.
        -11    1    3    3    0    0 -0.40497806814E+01 -0.94839771250E+01 -0.14334569976E+01  0.10411596655E+02  0.51100000000E-03 0.  1.
         12    1    3    3    0    0 -0.99148946845E+01 -0.21727924997E+02  0.22945274709E+02  0.33119382433E+02  0.00000000000E+00 0. -1.
</event>
<event>
 7    1  0.2492468E-009  0.4778727E+02  0.7816164E-02  0.1312668E+00
        -11   -1    0    0    0    0  0.00000000000E+00  0.00000000000E+00  0.45593999997E+02  0.45594000000E+02  0.51100000000E-03 0.  1.
         11   -1    0    0    0    0 -0.00000000000E+00 -0.00000000000E+00 -0.45593999997E+02  0.45594000000E+02  0.51100000000E-03 0. -1.
    9900012    2    1    2    0    0 -0.96497708574E+00 -0.57936344457E+01  0.43001466913E+02  0.47787268007E+02  0.19999986150E+02 0.  0.
         12    1    1    2    0    0  0.96497708574E+00  0.57936344457E+01 -0.43001466913E+02  0.43400731993E+02  0.00000000000E+00 0. -1.
         11    1    3    3    0    0 -0.10232917348E+01 -0.60448434096E+01  0.48728898602E+01  0.78314949832E+01  0.51100000000E-03 0. -1.
        -11    1    3    3    0    0 -0.30302212310E+01  0.22690467115E+01  0.35784511648E+01  0.52092347507E+01  0.51100000000E-03 0.  1.
        -12    1    3    3    0    0  0.30885358801E+01 -0.20178377477E+01  0.34550125888E+02  0.34746538273E+02  0.00000000000E+00 0.  1.
</event>
<event>
 7    1  0.2492468E-009  0.4778727E+02  0.7816164E-02  0.1312668E+00
        -11   -1    0    0    0    0  0.00000000000E+00  0.00000000000E+00  0.45593999997E+02  0.45594000000E+02  0.51100000000E-03 0.  1.
         11   -1    0    0    0    0 -0.00000000000E+00 -0.00000000000E+00 -0.45593999997E+02  0.45594000000E+02  0.51100000000E-03 0. -1.
    9900012    2    1    2    0    0 -0.22051824662E+02 -0.28591550251E+02  0.24080355756E+02  0.47787271320E+02  0.20000001255E+02 0.  0.
         12    1    1    2    0    0  0.22051824662E+02  0.28591550251E+02 -0.24080355756E+02  0.43400728680E+02  0.00000000000E+00 0. -1.
         11    1    3    3    0    0 -0.12690595730E+01 -0.63685025600E+00 -0.17403573428E+01  0.22460931393E+01  0.51100000000E-03 0.  1.
        -11    1    3    3    0    0  0.16819037963E+01 -0.52079058817E+01  0.28164057944E+01  0.61549350860E+01  0.51100000000E-03 0. -1.
        -12    1    3    3    0    0 -0.22464668885E+02 -0.22746794113E+02  0.23004307305E+02  0.39386243094E+02  0.00000000000E+00 0.  1.
</event>
<event>
 7    1  0.2492468E-009  0.4778729E+02  0.7816164E-02  0.1312668E+00
        -11   -1    0    0    0    0  0.00000000000E+00  0.00000000000E+00  0.45593999997E+02  0.45594000000E+02  0.51100000000E-03 0.  1.
         11   -1    0    0    0    0 -0.00000000000E+00 -0.00000000000E+00 -0.45593999997E+02  0.45594000000E+02  0.51100000000E-03 0. -1.
    9900012    2    1    2    0    0 -0.29166124662E+02  0.28645629359E+02  0.14573508236E+02  0.47787285127E+02  0.20000064209E+02 0.  0.
         12    1    1    2    0    0  0.29166124662E+02 -0.28645629359E+02 -0.14573508236E+02  0.43400714873E+02  0.00000000000E+00 0. -1.
         11    1    3    3    0    0 -0.16440794508E+01  0.91611065841E+01  0.68949534552E+01  0.11583145276E+02  0.51100000000E-03 0. -1.
        -11    1    3    3    0    0 -0.10420199551E+02  0.29270204814E+01  0.59167855254E+01  0.12335167562E+02  0.51100000000E-03 0.  1.
        -12    1    3    3    0    0 -0.17101845660E+02  0.16557502294E+02  0.17617692552E+01  0.23868972288E+02  0.00000000000E+00 0.  1.
</event>
<event>
 7    1  0.2492468E-009  0.4778728E+02  0.7816164E-02  0.1312668E+00
        -11   -1    0    0    0    0  0.00000000000E+00  0.00000000000E+00  0.45593999997E+02  0.45594000000E+02  0.51100000000E-03 0.  1.
         11   -1    0    0    0    0 -0.00000000000E+00 -0.00000000000E+00 -0.45593999997E+02  0.45594000000E+02  0.51100000000E-03 0. -1.
    9900012    2    1    2    0    0 -0.20005287276E+02 -0.35361397758E+02  0.15263762233E+02  0.47787281021E+02  0.20000045485E+02 0.  0.
         12    1    1    2    0    0  0.20005287276E+02  0.35361397758E+02 -0.15263762233E+02  0.43400718979E+02  0.00000000000E+00 0. -1.
         11    1    3    3    0    0 -0.11216539218E+02 -0.15321277593E+02  0.12357866939E+02  0.22655444702E+02  0.51100000000E-03 0. -1.
        -11    1    3    3    0    0 -0.58246451694E+00 -0.12883817946E+02  0.53664906427E+01  0.13968938824E+02  0.51100000000E-03 0.  1.
         12    1    3    3    0    0 -0.82062835416E+01 -0.71563022190E+01 -0.24605953481E+01  0.11162897495E+02  0.00000000000E+00 0. -1.
</event>
<event>
 7    1  0.2492468E-009  0.4778727E+02  0.7816164E-02  0.1312668E+00
        -11   -1    0    0    0    0  0.00000000000E+00  0.00000000000E+00  0.45593999997E+02  0.45594000000E+02  0.51100000000E-03 0. -1.
         11   -1    0    0    0    0 -0.00000000000E+00 -0.00000000000E+00 -0.45593999997E+02  0.45594000000E+02  0.51100000000E-03 0.  1.
    9900012    2    1    2    0    0  0.31748786930E+02  0.53717960673E+01 -0.29099512616E+02  0.47787270754E+02  0.19999998677E+02 0.  0.
         12    1    1    2    0    0 -0.31748786930E+02 -0.53717960673E+01  0.29099512616E+02  0.43400729246E+02  0.00000000000E+00 0. -1.
         11    1    3    3    0    0  0.86170477650E+01 -0.53355053417E+01 -0.13139989515E+02  0.16594591111E+02  0.51100000000E-03 0. -1.
        -11    1    3    3    0    0  0.21604425358E+01  0.21716774410E+00 -0.47074317204E+01  0.51840705477E+01  0.51100000000E-03 0.  1.
        -12    1    3    3    0    0  0.20971296630E+02  0.10490133665E+02 -0.11252091381E+02  0.26008609096E+02  0.00000000000E+00 0.  1.
</event>
<event>
 7    1  0.2492468E-009  0.4778727E+02  0.7816164E-02  0.1312668E+00
        -11   -1    0    0    0    0  0.00000000000E+00  0.00000000000E+00  0.45593999997E+02  0.45594000000E+02  0.51100000000E-03 0.  1.
         11   -1    0    0    0    0 -0.00000000000E+00 -0.00000000000E+00 -0.45593999997E+02  0.45594000000E+02  0.51100000000E-03 0. -1.
    9900012    2    1    2    0    0  0.26202389146E+01 -0.29125642978E+02  0.32069528076E+02  0.47787270030E+02  0.19999995376E+02 0.  0.
         12    1    1    2    0    0 -0.26202389146E+01  0.29125642978E+02 -0.32069528076E+02  0.43400729970E+02  0.00000000000E+00 0. -1.
         11    1    3    3    0    0  0.41303863731E+01 -0.18518774285E+02  0.11601922927E+02  0.22239822582E+02  0.51100000000E-03 0. -1.
        -11    1    3    3    0    0  0.44087616734E+01 -0.71960013074E+01  0.10686946301E+02  0.13617284451E+02  0.51100000000E-03 0.  1.
         12    1    3    3    0    0 -0.59189091320E+01 -0.34108673858E+01  0.97806588483E+01  0.11930162997E+02  0.00000000000E+00 0. -1.
</event>
<event>
 7    1  0.2492468E-009  0.4778727E+02  0.7816164E-02  0.1312668E+00
        -11   -1    0    0    0    0  0.00000000000E+00  0.00000000000E+00  0.45593999997E+02  0.45594000000E+02  0.51100000000E-03 0. -1.
         11   -1    0    0    0    0 -0.00000000000E+00 -0.00000000000E+00 -0.45593999997E+02  0.45594000000E+02  0.51100000000E-03 0.  1.
    9900012    2    1    2    0    0  0.18724591597E+02  0.28251244616E+00 -0.39152687167E+02  0.47787273553E+02  0.20000011436E+02 0.  0.
         12    1    1    2    0    0 -0.18724591597E+02 -0.28251244616E+00  0.39152687167E+02  0.43400726447E+02  0.00000000000E+00 0. -1.
         11    1    3    3    0    0  0.12185665301E+02 -0.38300524202E+01 -0.11468148036E+02  0.17166192356E+02  0.51100000000E-03 0.  1.
        -11    1    3    3    0    0 -0.52293135041E+00 -0.25329359295E+01 -0.23515141672E+01  0.34955458458E+01  0.51100000000E-03 0. -1.
        -12    1    3    3    0    0  0.70618576462E+01  0.66455007959E+01 -0.25333024964E+02  0.27125535351E+02  0.00000000000E+00 0.  1.
</event>
<event>
 7    1  0.2492468E-009  0.4778725E+02  0.7816164E-02  0.1312668E+00
        -11   -1    0    0    0    0  0.00000000000E+00  0.00000000000E+00  0.45593999997E+02  0.45594000000E+02  0.51100000000E-03 0.  1.
         11   -1    0    0    0    0 -0.00000000000E+00 -0.00000000000E+00 -0.45593999997E+02  0.45594000000E+02  0.51100000000E-03 0. -1.
    9900012    2    1    2    0    0  0.26251794577E+02  0.33290520542E+02 -0.92849182273E+01  0.47787249051E+02  0.19999899721E+02 0.  0.
         12    1    1    2    0    0 -0.26251794577E+02 -0.33290520542E+02  0.92849182273E+01  0.43400750949E+02  0.00000000000E+00 0. -1.
         11    1    3    3    0    0  0.46124763919E+01 -0.32403375975E+00  0.42058584021E+00  0.46429332381E+01  0.51100000000E-03 0.  1.
        -11    1    3    3    0    0  0.14157169521E+02  0.14093929732E+02  0.27538090379E+00  0.19978491911E+02  0.51100000000E-03 0. -1.
         12    1    3    3    0    0  0.74821486647E+01  0.19520624570E+02 -0.99808849713E+01  0.23165823902E+02  0.00000000000E+00 0. -1.
</event>
<event>
 7    1  0.2492468E-009  0.4778727E+02  0.7816164E-02  0.1312668E+00
        -11   -1    0    0    0    0  0.00000000000E+00  0.00000000000E+00  0.45593999997E+02  0.45594000000E+02  0.51100000000E-03 0.  1.
         11   -1    0    0    0    0 -0.00000000000E+00 -0.00000000000E+00 -0.45593999997E+02  0.45594000000E+02  0.51100000000E-03 0. -1.
    9900012    2    1    2    0    0 -0.88170632993E+00  0.39966982216E+02  0.16896335119E+02  0.47787271735E+02  0.20000003148E+02 0.  0.
         12    1    1    2    0    0  0.88170632993E+00 -0.39966982216E+02 -0.16896335119E+02  0.43400728265E+02  0.00000000000E+00 0. -1.
         11    1    3    3    0    0  0.44412406356E+01  0.14701382613E+02  0.79047297269E+01  0.17272522150E+02  0.51100000000E-03 0. -1.
        -11    1    3    3    0    0 -0.46225335952E+01  0.20829463221E+02  0.12577702166E+02  0.24767578544E+02  0.51100000000E-03 0.  1.
         12    1    3    3    0    0 -0.70041337037E+00  0.44361363819E+01 -0.35860967742E+01  0.57471710400E+01  0.00000000000E+00 0. -1.
</event>
<event>
 7    1  0.2492468E-009  0.4778727E+02  0.7816164E-02  0.1312668E+00
        -11   -1    0    0    0    0  0.00000000000E+00  0.00000000000E+00  0.45593999997E+02  0.45594000000E+02  0.51100000000E-03 0. -1.
         11   -1    0    0    0    0 -0.00000000000E+00 -0.00000000000E+00 -0.45593999997E+02  0.45594000000E+02  0.51100000000E-03 0.  1.
    9900012    2    1    2    0    0 -0.84763693752E+01 -0.89389626435E+01 -0.41615733653E+02  0.47787272144E+02  0.20000005014E+02 0.  0.
         12    1    1    2    0    0  0.84763693752E+01  0.89389626435E+01  0.41615733653E+02  0.43400727856E+02  0.00000000000E+00 0. -1.
         11    1    3    3    0    0  0.31462332979E+01  0.33600236629E+00 -0.41564673936E+01  0.52237824428E+01  0.51100000000E-03 0. -1.
        -11    1    3    3    0    0 -0.35041361703E+01 -0.24882909832E+01 -0.75394313593E+00  0.43633694354E+01  0.51100000000E-03 0.  1.
        -12    1    3    3    0    0 -0.81184665029E+01 -0.67866740267E+01 -0.36705323124E+02  0.38200120266E+02  0.00000000000E+00 0.  1.
</event>
<event>
 7    1  0.2492468E-009  0.4778727E+02  0.7816164E-02  0.1312668E+00
        -11   -1    0    0    0    0  0.00000000000E+00  0.00000000000E+00  0.45593999997E+02  0.45594000000E+02  0.51100000000E-03 0.  1.
         11   -1    0    0    0    0 -0.00000000000E+00 -0.00000000000E+00 -0.45593999997E+02  0.45594000000E+02  0.51100000000E-03 0. -1.
    9900012    2    1    2    0    0  0.17379647704E+02  0.25620497907E+02  0.30416469438E+02  0.47787266361E+02  0.19999978649E+02 0.  0.
         12    1    1    2    0    0 -0.17379647704E+02 -0.25620497907E+02 -0.30416469438E+02  0.43400733639E+02  0.00000000000E+00 0. -1.
         11    1    3    3    0    0  0.59997202754E+01  0.17275835507E+01  0.91907449187E+01  0.11110849685E+02  0.51100000000E-03 0. -1.
        -11    1    3    3    0    0  0.25763404785E+00  0.71552364889E+00 -0.19319261067E+01  0.20762196747E+01  0.51100000000E-03 0.  1.
        -12    1    3    3    0    0  0.11122293381E+02  0.23177390707E+02  0.23157650626E+02  0.34600197002E+02  0.00000000000E+00 0.  1.
</event>
<event>
 7    1  0.2492468E-009  0.4778728E+02  0.7816164E-02  0.1312668E+00
        -11   -1    0    0    0    0  0.00000000000E+00  0.00000000000E+00  0.45593999997E+02  0.45594000000E+02  0.51100000000E-03 0. -1.
         11   -1    0    0    0    0 -0.00000000000E+00 -0.00000000000E+00 -0.45593999997E+02  0.45594000000E+02  0.51100000000E-03 0.  1.
    9900012    2    1    2    0    0 -0.14083847514E+02  0.33202380739E+02  0.24142702368E+02  0.47787275062E+02  0.20000018315E+02 0.  0.
         12    1    1    2    0    0  0.14083847514E+02 -0.33202380739E+02 -0.24142702368E+02  0.43400724938E+02  0.00000000000E+00 0. -1.
         11    1    3    3    0    0 -0.58457217997E+01  0.58790217023E+01  0.87605255097E+01  0.12061598858E+02  0.51100000000E-03 0.  1.
        -11    1    3    3    0    0 -0.40651970270E+01 -0.50928460314E+00  0.21405001970E+01  0.46224386453E+01  0.51100000000E-03 0. -1.
        -12    1    3    3    0    0 -0.41729286875E+01  0.27832643640E+02  0.13241676662E+02  0.31103237559E+02  0.00000000000E+00 0.  1.
</event>
<event>
 7    1  0.2492468E-009  0.4778727E+02  0.7816164E-02  0.1312668E+00
        -11   -1    0    0    0    0  0.00000000000E+00  0.00000000000E+00  0.45593999997E+02  0.45594000000E+02  0.51100000000E-03 0.  1.
         11   -1    0    0    0    0 -0.00000000000E+00 -0.00000000000E+00 -0.45593999997E+02  0.45594000000E+02  0.51100000000E-03 0. -1.
    9900012    2    1    2    0    0 -0.65721573733E+01 -0.24559472262E+02  0.35174741269E+02  0.47787270125E+02  0.19999995808E+02 0.  0.
         12    1    1    2    0    0  0.65721573733E+01  0.24559472262E+02 -0.35174741269E+02  0.43400729875E+02  0.00000000000E+00 0. -1.
         11    1    3    3    0    0  0.66172248822E+01 -0.43310153183E+01  0.73448785087E+01  0.10793173741E+02  0.51100000000E-03 0. -1.
        -11    1    3    3    0    0 -0.24119766463E+01 -0.59835958468E+01  0.85571377255E+01  0.10716606595E+02  0.51100000000E-03 0.  1.
         12    1    3    3    0    0 -0.10777405609E+02 -0.14244861097E+02  0.19272725035E+02  0.26277489789E+02  0.00000000000E+00 0. -1.
</event>
<event>
 7    1  0.2492468E-009  0.4778727E+02  0.7816164E-02  0.1312668E+00
        -11   -1    0    0    0    0  0.00000000000E+00  0.00000000000E+00  0.45593999997E+02  0.45594000000E+02  0.51100000000E-03 0.  1.
         11   -1    0    0    0    0 -0.00000000000E+00 -0.00000000000E+00 -0.45593999997E+02  0.45594000000E+02  0.51100000000E-03 0. -1.
    9900012    2    1    2    0    0  0.31904363751E-01  0.19997712357E+02  0.38519003677E+02  0.47787272337E+02  0.20000005894E+02 0.  0.
         12    1    1    2    0    0 -0.31904363751E-01 -0.19997712357E+02 -0.38519003677E+02  0.43400727663E+02  0.00000000000E+00 0. -1.
         11    1    3    3    0    0  0.20436863241E+01  0.58334222685E+01  0.28928320376E+01  0.68245107233E+01  0.51100000000E-03 0. -1.
        -11    1    3    3    0    0 -0.52920870637E+01  0.43080535093E+01  0.45634955223E+01  0.82092022860E+01  0.51100000000E-03 0.  1.
        -12    1    3    3    0    0  0.32803051034E+01  0.98562365788E+01  0.31062676117E+02  0.32753559328E+02  0.00000000000E+00 0.  1.
</event>
<event>
 7    1  0.2492468E-009  0.4778729E+02  0.7816164E-02  0.1312668E+00
        -11   -1    0    0    0    0  0.00000000000E+00  0.00000000000E+00  0.45593999997E+02  0.45594000000E+02  0.51100000000E-03 0.  1.
         11   -1    0    0    0    0 -0.00000000000E+00 -0.00000000000E+00 -0.45593999997E+02  0.45594000000E+02  0.51100000000E-03 0. -1.
    9900012    2    1    2    0    0  0.97822867673E+01 -0.41728560915E+02 -0.68305122089E+01  0.47787287708E+02  0.20000075975E+02 0.  0.
         12    1    1    2    0    0 -0.97822867673E+01  0.41728560915E+02  0.68305122089E+01  0.43400712292E+02  0.00000000000E+00 0. -1.
         11    1    3    3    0    0  0.10283642076E+01 -0.11396535103E+02  0.50303318788E+01  0.12499711372E+02  0.51100000000E-03 0. -1.
        -11    1    3    3    0    0  0.14922608674E+01 -0.30632533391E+00 -0.26424636036E+01  0.30501298110E+01  0.51100000000E-03 0.  1.
        -12    1    3    3    0    0  0.72616616923E+01 -0.30025700478E+02 -0.92183804841E+01  0.32237446525E+02  0.00000000000E+00 0.  1.
</event>
<event>
 7    1  0.2492468E-009  0.4778727E+02  0.7816164E-02  0.1312668E+00
        -11   -1    0    0    0    0  0.00000000000E+00  0.00000000000E+00  0.45593999997E+02  0.45594000000E+02  0.51100000000E-03 0.  1.
         11   -1    0    0    0    0 -0.00000000000E+00 -0.00000000000E+00 -0.45593999997E+02  0.45594000000E+02  0.51100000000E-03 0. -1.
    9900012    2    1    2    0    0  0.27378853746E+02  0.10385769881E+02  0.32033692981E+02  0.47787270347E+02  0.19999996820E+02 0.  0.
         12    1    1    2    0    0 -0.27378853746E+02 -0.10385769881E+02 -0.32033692981E+02  0.43400729653E+02  0.00000000000E+00 0. -1.
         11    1    3    3    0    0  0.65237374213E+00  0.25485865406E+01  0.85036149829E+01  0.89012556919E+01  0.51100000000E-03 0. -1.
        -11    1    3    3    0    0  0.10071461543E+02  0.92612643802E+01  0.69666729704E+01  0.15353823240E+02  0.51100000000E-03 0.  1.
        -12    1    3    3    0    0  0.16655018460E+02 -0.14240810396E+01  0.16563405027E+02  0.23532191415E+02  0.00000000000E+00 0.  1.
</event>
<event>
 7    1  0.2492468E-009  0.4778727E+02  0.7816164E-02  0.1312668E+00
        -11   -1    0    0    0    0  0.00000000000E+00  0.00000000000E+00  0.45593999997E+02  0.45594000000E+02  0.51100000000E-03 0.  1.
         11   -1    0    0    0    0 -0.00000000000E+00 -0.00000000000E+00 -0.45593999997E+02  0.45594000000E+02  0.51100000000E-03 0. -1.
    9900012    2    1    2    0    0  0.40757249877E+02 -0.14458707294E+02 -0.36627295199E+01  0.47787271646E+02  0.20000002742E+02 0.  0.
         12    1    1    2    0    0 -0.40757249877E+02  0.14458707294E+02  0.36627295199E+01  0.43400728354E+02  0.00000000000E+00 0. -1.
         11    1    3    3    0    0  0.68943297132E+01 -0.18834584449E+01  0.49375052043E+01  0.86866654023E+01  0.51100000000E-03 0. -1.
        -11    1    3    3    0    0  0.18758912809E+02 -0.12033088126E+01 -0.13297345713E+01  0.18844440988E+02  0.51100000000E-03 0.  1.
        -12    1    3    3    0    0  0.15104007355E+02 -0.11371940036E+02 -0.72705001529E+01  0.20256165255E+02  0.00000000000E+00 0.  1.
</event>
<event>
 7    1  0.2492468E-009  0.4778727E+02  0.7816164E-02  0.1312668E+00
        -11   -1    0    0    0    0  0.00000000000E+00  0.00000000000E+00  0.45593999997E+02  0.45594000000E+02  0.51100000000E-03 0. -1.
         11   -1    0    0    0    0 -0.00000000000E+00 -0.00000000000E+00 -0.45593999997E+02  0.45594000000E+02  0.51100000000E-03 0.  1.
    9900012    2    1    2    0    0 -0.37849482283E+02 -0.47095325384E+01 -0.20708942648E+02  0.47787270612E+02  0.19999998029E+02 0.  0.
         12    1    1    2    0    0  0.37849482283E+02  0.47095325384E+01  0.20708942648E+02  0.43400729388E+02  0.00000000000E+00 0. -1.
         11    1    3    3    0    0  0.94319088585E-01  0.27718457471E+01 -0.10767542927E+01  0.29751344514E+01  0.51100000000E-03 0. -1.
        -11    1    3    3    0    0 -0.40544227533E+01  0.26408710743E+01 -0.32843084740E+01  0.58480104572E+01  0.51100000000E-03 0.  1.
        -12    1    3    3    0    0 -0.33889378618E+02 -0.10122249360E+02 -0.16347879881E+02  0.38964125703E+02  0.00000000000E+00 0.  1.
</event>
<event>
 7    1  0.2492468E-009  0.4778728E+02  0.7816164E-02  0.1312668E+00
        -11   -1    0    0    0    0  0.00000000000E+00  0.00000000000E+00  0.45593999997E+02  0.45594000000E+02  0.51100000000E-03 0.  1.
         11   -1    0    0    0    0 -0.00000000000E+00 -0.00000000000E+00 -0.45593999997E+02  0.45594000000E+02  0.51100000000E-03 0. -1.
    9900012    2    1    2    0    0  0.27386350018E+02  0.16343064536E+02  0.29436615689E+02  0.47787282621E+02  0.20000052783E+02 0.  0.
         12    1    1    2    0    0 -0.27386350018E+02 -0.16343064536E+02 -0.29436615689E+02  0.43400717379E+02  0.00000000000E+00 0. -1.
         11    1    3    3    0    0  0.86756869205E+01  0.33946558357E+01  0.85951162583E+00  0.93557464844E+01  0.51100000000E-03 0. -1.
        -11    1    3    3    0    0  0.10758232181E+02  0.10829114143E+01  0.83118168910E+01  0.13638128797E+02  0.51100000000E-03 0.  1.
         12    1    3    3    0    0  0.79524309166E+01  0.11865497286E+02  0.20265287173E+02  0.24793407340E+02  0.00000000000E+00 0. -1.
</event>
<event>
 7    1  0.2492468E-009  0.4778727E+02  0.7816164E-02  0.1312668E+00
        -11   -1    0    0    0    0  0.00000000000E+00  0.00000000000E+00  0.45593999997E+02  0.45594000000E+02  0.51100000000E-03 0. -1.
         11   -1    0    0    0    0 -0.00000000000E+00 -0.00000000000E+00 -0.45593999997E+02  0.45594000000E+02  0.51100000000E-03 0.  1.
    9900012    2    1    2    0    0 -0.95445112186E+01  0.38195963484E+02 -0.18264552793E+02  0.47787271785E+02  0.20000003376E+02 0.  0.
         12    1    1    2    0    0  0.95445112186E+01 -0.38195963484E+02  0.18264552793E+02  0.43400728215E+02  0.00000000000E+00 0. -1.
         11    1    3    3    0    0  0.36397468311E+01  0.88847756049E+01 -0.35472002573E+01  0.10235703418E+02  0.51100000000E-03 0. -1.
        -11    1    3    3    0    0 -0.18379898174E+01  0.86262462946E+01  0.14675684038E+01  0.89411458429E+01  0.51100000000E-03 0.  1.
        -12    1    3    3    0    0 -0.11346268232E+02  0.20684941584E+02 -0.16184920940E+02  0.28610422524E+02  0.00000000000E+00 0.  1.
</event>
<event>
 7    1  0.2492468E-009  0.4778727E+02  0.7816164E-02  0.1312668E+00
        -11   -1    0    0    0    0  0.00000000000E+00  0.00000000000E+00  0.45593999997E+02  0.45594000000E+02  0.51100000000E-03 0.  1.
         11   -1    0    0    0    0 -0.00000000000E+00 -0.00000000000E+00 -0.45593999997E+02  0.45594000000E+02  0.51100000000E-03 0. -1.
    9900012    2    1    2    0    0  0.23341438513E+02 -0.35919053712E+02  0.69729574696E+01  0.47787270659E+02  0.19999998245E+02 0.  0.
         12    1    1    2    0    0 -0.23341438513E+02  0.35919053712E+02 -0.69729574696E+01  0.43400729341E+02  0.00000000000E+00 0. -1.
         11    1    3    3    0    0  0.27135077841E+01 -0.17106116234E+02 -0.63937394330E+00  0.17331795533E+02  0.51100000000E-03 0. -1.
        -11    1    3    3    0    0  0.80699155302E+01 -0.31164656128E+01 -0.75094284901E+00  0.86833063981E+01  0.51100000000E-03 0.  1.
        -12    1    3    3    0    0  0.12558015199E+02 -0.15696471866E+02  0.83632742620E+01  0.21772168728E+02  0.00000000000E+00 0.  1.
</event>
<event>
 7    1  0.2492468E-009  0.4778727E+02  0.7816164E-02  0.1312668E+00
        -11   -1    0    0    0    0  0.00000000000E+00  0.00000000000E+00  0.45593999997E+02  0.45594000000E+02  0.51100000000E-03 0.  1.
         11   -1    0    0    0    0 -0.00000000000E+00 -0.00000000000E+00 -0.45593999997E+02  0.45594000000E+02  0.51100000000E-03 0. -1.
    9900012    2    1    2    0    0 -0.12840748868E+02 -0.12478568947E+02  0.39535096012E+02  0.47787270385E+02  0.19999996991E+02 0.  0.
         12    1    1    2    0    0  0.12840748868E+02  0.12478568947E+02 -0.39535096012E+02  0.43400729615E+02  0.00000000000E+00 0. -1.
         11    1    3    3    0    0 -0.31007408061E+01 -0.13930308729E+01  0.22950752223E+00  0.34070225305E+01  0.51100000000E-03 0. -1.
        -11    1    3    3    0    0  0.22415606488E+01  0.80726193235E+00  0.12326700959E+02  0.12554832646E+02  0.51100000000E-03 0.  1.
        -12    1    3    3    0    0 -0.11981568711E+02 -0.11892800006E+02  0.26978887531E+02  0.31825415208E+02  0.00000000000E+00 0.  1.
</event>
<event>
 7    1  0.2492468E-009  0.4778727E+02  0.7816164E-02  0.1312668E+00
        -11   -1    0    0    0    0  0.00000000000E+00  0.00000000000E+00  0.45593999997E+02  0.45594000000E+02  0.51100000000E-03 0. -1.
         11   -1    0    0    0    0 -0.00000000000E+00 -0.00000000000E+00 -0.45593999997E+02  0.45594000000E+02  0.51100000000E-03 0.  1.
    9900012    2    1    2    0    0  0.23355674966E+02  0.20926001771E+02 -0.30003971738E+02  0.47787269323E+02  0.19999992150E+02 0.  0.
         12    1    1    2    0    0 -0.23355674966E+02 -0.20926001771E+02  0.30003971738E+02  0.43400730677E+02  0.00000000000E+00 0. -1.
         11    1    3    3    0    0  0.29504917703E+01  0.16170261939E+01  0.17758232719E+01  0.38044347744E+01  0.51100000000E-03 0. -1.
        -11    1    3    3    0    0  0.56715543713E+01  0.11047332246E+02 -0.78483236530E+01  0.14690345917E+02  0.51100000000E-03 0.  1.
        -12    1    3    3    0    0  0.14733628825E+02  0.82616433304E+01 -0.23931471357E+02  0.29292488631E+02  0.00000000000E+00 0.  1.
</event>
<event>
 7    1  0.2492468E-009  0.4778727E+02  0.7816164E-02  0.1312668E+00
        -11   -1    0    0    0    0  0.00000000000E+00  0.00000000000E+00  0.45593999997E+02  0.45594000000E+02  0.51100000000E-03 0. -1.
         11   -1    0    0    0    0 -0.00000000000E+00 -0.00000000000E+00 -0.45593999997E+02  0.45594000000E+02  0.51100000000E-03 0.  1.
    9900012    2    1    2    0    0 -0.30392249432E+02 -0.21170608606E+02 -0.22621667298E+02  0.47787270448E+02  0.19999997281E+02 0.  0.
         12    1    1    2    0    0  0.30392249432E+02  0.21170608606E+02  0.22621667298E+02  0.43400729552E+02  0.00000000000E+00 0. -1.
         11    1    3    3    0    0 -0.14721118268E+02 -0.11360523647E+02 -0.58486850497E+01  0.19493074095E+02  0.51100000000E-03 0. -1.
        -11    1    3    3    0    0 -0.15977193560E+02 -0.35745405321E+01 -0.10535184040E+02  0.19468902308E+02  0.51100000000E-03 0.  1.
         12    1    3    3    0    0  0.30606239633E+00 -0.62355444269E+01 -0.62377982083E+01  0.88252940448E+01  0.00000000000E+00 0. -1.
</event>
<event>
 7    1  0.2492468E-009  0.4778727E+02  0.7816164E-02  0.1312668E+00
        -11   -1    0    0    0    0  0.00000000000E+00  0.00000000000E+00  0.45593999997E+02  0.45594000000E+02  0.51100000000E-03 0. -1.
         11   -1    0    0    0    0 -0.00000000000E+00 -0.00000000000E+00 -0.45593999997E+02  0.45594000000E+02  0.51100000000E-03 0.  1.
    9900012    2    1    2    0    0 -0.18939609093E+02  0.43392675704E+01 -0.38808314780E+02  0.47787270378E+02  0.19999996963E+02 0.  0.
         12    1    1    2    0    0  0.18939609093E+02 -0.43392675704E+01  0.38808314780E+02  0.43400729622E+02  0.00000000000E+00 0. -1.
         11    1    3    3    0    0  0.27061209434E+01  0.40591771121E+01 -0.75993625987E+01  0.90305216657E+01  0.51100000000E-03 0. -1.
        -11    1    3    3    0    0 -0.73782417368E+01  0.35685570909E+01 -0.13324202728E+02  0.15643127227E+02  0.51100000000E-03 0.  1.
         12    1    3    3    0    0 -0.14267488300E+02 -0.32884666327E+01 -0.17884749453E+02  0.23113621486E+02  0.00000000000E+00 0. -1.
</event>
<event>
 7    1  0.2492468E-009  0.4778727E+02  0.7816164E-02  0.1312668E+00
        -11   -1    0    0    0    0  0.00000000000E+00  0.00000000000E+00  0.45593999997E+02  0.45594000000E+02  0.51100000000E-03 0.  1.
         11   -1    0    0    0    0 -0.00000000000E+00 -0.00000000000E+00 -0.45593999997E+02  0.45594000000E+02  0.51100000000E-03 0. -1.
    9900012    2    1    2    0    0 -0.15401606246E+02  0.25391677057E+02  0.31649272494E+02  0.47787272032E+02  0.20000004502E+02 0.  0.
         12    1    1    2    0    0  0.15401606246E+02 -0.25391677057E+02 -0.31649272494E+02  0.43400727968E+02  0.00000000000E+00 0. -1.
         11    1    3    3    0    0  0.17429711916E+01  0.49628508978E+01  0.88127588779E+01  0.10263165053E+02  0.51100000000E-03 0. -1.
        -11    1    3    3    0    0  0.71632191799E+00  0.67735329847E+01  0.83610282690E+01  0.10784278379E+02  0.51100000000E-03 0.  1.
        -12    1    3    3    0    0 -0.17860899356E+02  0.13655293175E+02  0.14475485347E+02  0.26739828599E+02  0.00000000000E+00 0.  1.
</event>
<event>
 7    1  0.2492468E-009  0.4778727E+02  0.7816164E-02  0.1312668E+00
        -11   -1    0    0    0    0  0.00000000000E+00  0.00000000000E+00  0.45593999997E+02  0.45594000000E+02  0.51100000000E-03 0.  1.
         11   -1    0    0    0    0 -0.00000000000E+00 -0.00000000000E+00 -0.45593999997E+02  0.45594000000E+02  0.51100000000E-03 0. -1.
    9900012    2    1    2    0    0  0.18272653716E+02 -0.26764960939E+00  0.39365743333E+02  0.47787271224E+02  0.20000000820E+02 0.  0.
         12    1    1    2    0    0 -0.18272653716E+02  0.26764960939E+00 -0.39365743333E+02  0.43400728776E+02  0.00000000000E+00 0. -1.
         11    1    3    3    0    0  0.33783983724E+01 -0.34165721534E+01 -0.21822483906E+00  0.48097986635E+01  0.51100000000E-03 0. -1.
        -11    1    3    3    0    0  0.37134394053E+01 -0.20127184154E+01  0.13236928828E+02  0.13894493610E+02  0.51100000000E-03 0.  1.
         12    1    3    3    0    0  0.11180815938E+02  0.51616409594E+01  0.26347039344E+02  0.29082978950E+02  0.00000000000E+00 0. -1.
</event>
<event>
 7    1  0.2492468E-009  0.4778727E+02  0.7816164E-02  0.1312668E+00
        -11   -1    0    0    0    0  0.00000000000E+00  0.00000000000E+00  0.45593999997E+02  0.45594000000E+02  0.51100000000E-03 0.  1.
         11   -1    0    0    0    0 -0.00000000000E+00 -0.00000000000E+00 -0.45593999997E+02  0.45594000000E+02  0.51100000000E-03 0. -1.
    9900012    2    1    2    0    0  0.77698117850E+01  0.42281184998E+02 -0.59627491999E+01  0.47787274683E+02  0.20000016589E+02 0.  0.
         12    1    1    2    0    0 -0.77698117850E+01 -0.42281184998E+02  0.59627491999E+01  0.43400725317E+02  0.00000000000E+00 0. -1.
         11    1    3    3    0    0 -0.92937796940E+00 -0.70469797047E+00  0.13458197146E+01  0.17808912389E+01  0.51100000000E-03 0. -1.
        -11    1    3    3    0    0 -0.12975864086E+01  0.13094641142E+02 -0.59959809612E+01  0.14460468356E+02  0.51100000000E-03 0.  1.
         12    1    3    3    0    0  0.99967761630E+01  0.29891241827E+02 -0.13125879534E+01  0.31545915088E+02  0.00000000000E+00 0. -1.
</event>
<event>
 7    1  0.2492468E-009  0.4778725E+02  0.7816164E-02  0.1312668E+00
        -11   -1    0    0    0    0  0.00000000000E+00  0.00000000000E+00  0.45593999997E+02  0.45594000000E+02  0.51100000000E-03 0.  1.
         11   -1    0    0    0    0 -0.00000000000E+00 -0.00000000000E+00 -0.45593999997E+02  0.45594000000E+02  0.51100000000E-03 0. -1.
    9900012    2    1    2    0    0 -0.20285201697E+02  0.31434807115E+02  0.21999736374E+02  0.47787252233E+02  0.19999914231E+02 0.  0.
         12    1    1    2    0    0  0.20285201697E+02 -0.31434807115E+02 -0.21999736374E+02  0.43400747767E+02  0.00000000000E+00 0. -1.
         11    1    3    3    0    0  0.19922705437E+01  0.45189721930E+01  0.46535555380E+01  0.67857078486E+01  0.51100000000E-03 0. -1.
        -11    1    3    3    0    0  0.10224515789E+01  0.52018260573E+01  0.23830584403E+01  0.58123462863E+01  0.51100000000E-03 0.  1.
        -12    1    3    3    0    0 -0.23299923819E+02  0.21714008864E+02  0.14963122396E+02  0.35189198098E+02  0.00000000000E+00 0.  1.
</event>
<event>
 7    1  0.2492468E-009  0.4778727E+02  0.7816164E-02  0.1312668E+00
        -11   -1    0    0    0    0  0.00000000000E+00  0.00000000000E+00  0.45593999997E+02  0.45594000000E+02  0.51100000000E-03 0.  1.
         11   -1    0    0    0    0 -0.00000000000E+00 -0.00000000000E+00 -0.45593999997E+02  0.45594000000E+02  0.51100000000E-03 0. -1.
    9900012    2    1    2    0    0  0.14859731092E+02 -0.16384065411E+02  0.37341316400E+02  0.47787272840E+02  0.20000008187E+02 0.  0.
         12    1    1    2    0    0 -0.14859731092E+02  0.16384065411E+02 -0.37341316400E+02  0.43400727160E+02  0.00000000000E+00 0. -1.
         11    1    3    3    0    0  0.15614319257E+02 -0.10089721036E+02  0.24628464363E+02  0.30857263222E+02  0.51100000000E-03 0. -1.
        -11    1    3    3    0    0  0.10556992095E+01 -0.23741233503E+01  0.12323551942E+02  0.12594478760E+02  0.51100000000E-03 0.  1.
         12    1    3    3    0    0 -0.18102873745E+01 -0.39202210243E+01  0.38930009569E+00  0.43355308581E+01  0.00000000000E+00 0. -1.
</event>
<event>
 7    1  0.2492468E-009  0.4778727E+02  0.7816164E-02  0.1312668E+00
        -11   -1    0    0    0    0  0.00000000000E+00  0.00000000000E+00  0.45593999997E+02  0.45594000000E+02  0.51100000000E-03 0.  1.
         11   -1    0    0    0    0 -0.00000000000E+00 -0.00000000000E+00 -0.45593999997E+02  0.45594000000E+02  0.51100000000E-03 0. -1.
    9900012    2    1    2    0    0 -0.21249364813E+01  0.96810733491E+01  0.42253812932E+02  0.47787271394E+02  0.20000001593E+02 0.  0.
         12    1    1    2    0    0  0.21249364813E+01 -0.96810733491E+01 -0.42253812932E+02  0.43400728606E+02  0.00000000000E+00 0. -1.
         11    1    3    3    0    0 -0.66320446900E+00  0.21369098666E+01  0.68178161302E+00  0.23390276558E+01  0.51100000000E-03 0. -1.
        -11    1    3    3    0    0 -0.31434377491E+01  0.12625897666E+02  0.29157052826E+02  0.31928486067E+02  0.51100000000E-03 0.  1.
         12    1    3    3    0    0  0.16817057368E+01 -0.50817341838E+01  0.12414978493E+02  0.13519757671E+02  0.00000000000E+00 0. -1.
</event>
<event>
 7    1  0.2492468E-009  0.4778728E+02  0.7816164E-02  0.1312668E+00
        -11   -1    0    0    0    0  0.00000000000E+00  0.00000000000E+00  0.45593999997E+02  0.45594000000E+02  0.51100000000E-03 0. -1.
         11   -1    0    0    0    0 -0.00000000000E+00 -0.00000000000E+00 -0.45593999997E+02  0.45594000000E+02  0.51100000000E-03 0.  1.
    9900012    2    1    2    0    0 -0.42555549908E+00  0.21738315653E+02 -0.37561778248E+02  0.47787278231E+02  0.20000032767E+02 0.  0.
         12    1    1    2    0    0  0.42555549908E+00 -0.21738315653E+02  0.37561778248E+02  0.43400721769E+02  0.00000000000E+00 0. -1.
         11    1    3    3    0    0  0.40807803683E+00 -0.17450394826E+01 -0.13470309631E+01  0.22419150646E+01  0.51100000000E-03 0. -1.
        -11    1    3    3    0    0 -0.56506933846E+01  0.95686085279E+01 -0.23871540179E+02  0.26331331825E+02  0.51100000000E-03 0.  1.
        -12    1    3    3    0    0  0.48170598486E+01  0.13914746608E+02 -0.12343207105E+02  0.19214031341E+02  0.00000000000E+00 0.  1.
</event>
<event>
 7    1  0.2492468E-009  0.4778730E+02  0.7816164E-02  0.1312668E+00
        -11   -1    0    0    0    0  0.00000000000E+00  0.00000000000E+00  0.45593999997E+02  0.45594000000E+02  0.51100000000E-03 0.  1.
         11   -1    0    0    0    0 -0.00000000000E+00 -0.00000000000E+00 -0.45593999997E+02  0.45594000000E+02  0.51100000000E-03 0. -1.
    9900012    2    1    2    0    0  0.10349260255E+02  0.12902639026E+02  0.40125247187E+02  0.47787300196E+02  0.20000132915E+02 0.  0.
         12    1    1    2    0    0 -0.10349260255E+02 -0.12902639026E+02 -0.40125247187E+02  0.43400699804E+02  0.00000000000E+00 0. -1.
         11    1    3    3    0    0 -0.48005584064E-01  0.24374227967E+01 -0.15585648335E+00  0.24428724752E+01  0.51100000000E-03 0. -1.
        -11    1    3    3    0    0  0.41861773155E+01  0.15899341511E+01  0.98828941834E+00  0.45857046740E+01  0.51100000000E-03 0.  1.
        -12    1    3    3    0    0  0.62110885236E+01  0.88752820781E+01  0.39292814252E+02  0.40758723047E+02  0.00000000000E+00 0.  1.
</event>
<event>
 7    1  0.2492468E-009  0.4778722E+02  0.7816164E-02  0.1312668E+00
        -11   -1    0    0    0    0  0.00000000000E+00  0.00000000000E+00  0.45593999997E+02  0.45594000000E+02  0.51100000000E-03 0.  1.
         11   -1    0    0    0    0 -0.00000000000E+00 -0.00000000000E+00 -0.45593999997E+02  0.45594000000E+02  0.51100000000E-03 0. -1.
    9900012    2    1    2    0    0  0.72285868051E+01 -0.71338724625E+01  0.42195775538E+02  0.47787215712E+02  0.19999747716E+02 0.  0.
         12    1    1    2    0    0 -0.72285868051E+01  0.71338724625E+01 -0.42195775538E+02  0.43400784288E+02  0.00000000000E+00 0. -1.
         11    1    3    3    0    0  0.46773203453E+01 -0.87796444900E+01  0.20132676706E+02  0.22456272054E+02  0.51100000000E-03 0. -1.
        -11    1    3    3    0    0  0.15417118268E+01 -0.34781949739E+01  0.18781637000E+02  0.19163105289E+02  0.51100000000E-03 0.  1.
         12    1    3    3    0    0  0.10095546330E+01  0.51239670013E+01  0.32814618322E+01  0.61678383688E+01  0.00000000000E+00 0. -1.
</event>
<event>
 7    1  0.2492468E-009  0.4778727E+02  0.7816164E-02  0.1312668E+00
        -11   -1    0    0    0    0  0.00000000000E+00  0.00000000000E+00  0.45593999997E+02  0.45594000000E+02  0.51100000000E-03 0.  1.
         11   -1    0    0    0    0 -0.00000000000E+00 -0.00000000000E+00 -0.45593999997E+02  0.45594000000E+02  0.51100000000E-03 0. -1.
    9900012    2    1    2    0    0  0.25377838565E+02  0.30404544990E+02  0.17752529801E+02  0.47787270045E+02  0.19999995443E+02 0.  0.
         12    1    1    2    0    0 -0.25377838565E+02 -0.30404544990E+02 -0.17752529801E+02  0.43400729955E+02  0.00000000000E+00 0. -1.
         11    1    3    3    0    0  0.15545251031E+02  0.15333600379E+02  0.95897759706E+01  0.23848227054E+02  0.51100000000E-03 0. -1.
        -11    1    3    3    0    0  0.99986134761E+01  0.17450554291E+02  0.74785084443E+01  0.21457451044E+02  0.51100000000E-03 0.  1.
         12    1    3    3    0    0 -0.16602594240E+00 -0.23796096796E+01  0.68424538583E+00  0.24815919464E+01  0.00000000000E+00 0. -1.
</event>
<event>
 7    1  0.2492468E-009  0.4778728E+02  0.7816164E-02  0.1312668E+00
        -11   -1    0    0    0    0  0.00000000000E+00  0.00000000000E+00  0.45593999997E+02  0.45594000000E+02  0.51100000000E-03 0.  1.
         11   -1    0    0    0    0 -0.00000000000E+00 -0.00000000000E+00 -0.45593999997E+02  0.45594000000E+02  0.51100000000E-03 0. -1.
    9900012    2    1    2    0    0  0.32204362455E+02 -0.10827571728E+02  0.27004918448E+02  0.47787275455E+02  0.20000020110E+02 0.  0.
         12    1    1    2    0    0 -0.32204362455E+02  0.10827571728E+02 -0.27004918448E+02  0.43400724545E+02  0.00000000000E+00 0. -1.
         11    1    3    3    0    0  0.11618756544E+02 -0.59511364792E+01  0.37783451418E+00  0.13059643495E+02  0.51100000000E-03 0. -1.
        -11    1    3    3    0    0  0.48144520145E+01 -0.43665738585E+01  0.72046977082E+01  0.97032770128E+01  0.51100000000E-03 0.  1.
        -12    1    3    3    0    0  0.15771153896E+02 -0.50986139041E+00  0.19422386225E+02  0.25024354948E+02  0.00000000000E+00 0.  1.
</event>
<event>
 7    1  0.2492468E-009  0.4778727E+02  0.7816164E-02  0.1312668E+00
        -11   -1    0    0    0    0  0.00000000000E+00  0.00000000000E+00  0.45593999997E+02  0.45594000000E+02  0.51100000000E-03 0.  1.
         11   -1    0    0    0    0 -0.00000000000E+00 -0.00000000000E+00 -0.45593999997E+02  0.45594000000E+02  0.51100000000E-03 0. -1.
    9900012    2    1    2    0    0  0.12230524441E+02 -0.39988168641E+01  0.41449329204E+02  0.47787272404E+02  0.20000006199E+02 0.  0.
         12    1    1    2    0    0 -0.12230524441E+02  0.39988168641E+01 -0.41449329204E+02  0.43400727596E+02  0.00000000000E+00 0. -1.
         11    1    3    3    0    0  0.36079080913E+01  0.71779981513E+00  0.54700104277E+00  0.37190654434E+01  0.51100000000E-03 0. -1.
        -11    1    3    3    0    0 -0.34725749936E+01 -0.23357601186E+00  0.96501951057E+01  0.10258635420E+02  0.51100000000E-03 0.  1.
        -12    1    3    3    0    0  0.12095191343E+02 -0.44830406674E+01  0.31252133055E+02  0.33809571541E+02  0.00000000000E+00 0.  1.
</event>
<event>
 7    1  0.2492468E-009  0.4778727E+02  0.7816164E-02  0.1312668E+00
        -11   -1    0    0    0    0  0.00000000000E+00  0.00000000000E+00  0.45593999997E+02  0.45594000000E+02  0.51100000000E-03 0.  1.
         11   -1    0    0    0    0 -0.00000000000E+00 -0.00000000000E+00 -0.45593999997E+02  0.45594000000E+02  0.51100000000E-03 0. -1.
    9900012    2    1    2    0    0  0.23212950481E+02  0.10170284122E+02  0.35232764124E+02  0.47787269396E+02  0.19999992484E+02 0.  0.
         12    1    1    2    0    0 -0.23212950481E+02 -0.10170284122E+02 -0.35232764124E+02  0.43400730604E+02  0.00000000000E+00 0. -1.
         11    1    3    3    0    0 -0.22167169893E+01  0.19123922684E+01  0.41526492298E+01  0.50809029007E+01  0.51100000000E-03 0. -1.
        -11    1    3    3    0    0  0.31675561598E+01  0.11538630233E+01 -0.51316070656E+00  0.34100067557E+01  0.51100000000E-03 0.  1.
        -12    1    3    3    0    0  0.22262111310E+02  0.71040288303E+01  0.31593275601E+02  0.39296359740E+02  0.00000000000E+00 0.  1.
</event>
<event>
 7    1  0.2492468E-009  0.4778727E+02  0.7816164E-02  0.1312668E+00
        -11   -1    0    0    0    0  0.00000000000E+00  0.00000000000E+00  0.45593999997E+02  0.45594000000E+02  0.51100000000E-03 0.  1.
         11   -1    0    0    0    0 -0.00000000000E+00 -0.00000000000E+00 -0.45593999997E+02  0.45594000000E+02  0.51100000000E-03 0. -1.
    9900012    2    1    2    0    0  0.25973861111E+02 -0.14484129538E+02  0.31609993477E+02  0.47787272390E+02  0.20000006134E+02 0.  0.
         12    1    1    2    0    0 -0.25973861111E+02  0.14484129538E+02 -0.31609993477E+02  0.43400727610E+02  0.00000000000E+00 0. -1.
         11    1    3    3    0    0  0.46405832336E+00 -0.46282932237E+01  0.51970980125E+01  0.69746882586E+01  0.51100000000E-03 0. -1.
        -11    1    3    3    0    0  0.14318377907E+02 -0.51435425746E+01  0.24024698959E+02  0.28436915030E+02  0.51100000000E-03 0.  1.
        -12    1    3    3    0    0  0.11191424881E+02 -0.47122937399E+01  0.23881965055E+01  0.12375669101E+02  0.00000000000E+00 0.  1.
</event>
<event>
 7    1  0.2492468E-009  0.4778727E+02  0.7816164E-02  0.1312668E+00
        -11   -1    0    0    0    0  0.00000000000E+00  0.00000000000E+00  0.45593999997E+02  0.45594000000E+02  0.51100000000E-03 0.  1.
         11   -1    0    0    0    0 -0.00000000000E+00 -0.00000000000E+00 -0.45593999997E+02  0.45594000000E+02  0.51100000000E-03 0. -1.
    9900012    2    1    2    0    0  0.17817459780E+02 -0.13677486456E+02  0.37136072407E+02  0.47787269792E+02  0.19999994289E+02 0.  0.
         12    1    1    2    0    0 -0.17817459780E+02  0.13677486456E+02 -0.37136072407E+02  0.43400730208E+02  0.00000000000E+00 0. -1.
         11    1    3    3    0    0  0.13458570916E+02 -0.96901753496E+01  0.17911450195E+02  0.24410093768E+02  0.51100000000E-03 0. -1.
        -11    1    3    3    0    0  0.27412530001E+01 -0.46902336632E+01  0.15982612949E+01  0.56627907655E+01  0.51100000000E-03 0.  1.
        -12    1    3    3    0    0  0.16176358638E+01  0.70292255630E+00  0.17626360917E+02  0.17714385259E+02  0.00000000000E+00 0.  1.
</event>
<event>
 7    1  0.2492468E-009  0.4778731E+02  0.7816164E-02  0.1312668E+00
        -11   -1    0    0    0    0  0.00000000000E+00  0.00000000000E+00  0.45593999997E+02  0.45594000000E+02  0.51100000000E-03 0. -1.
         11   -1    0    0    0    0 -0.00000000000E+00 -0.00000000000E+00 -0.45593999997E+02  0.45594000000E+02  0.51100000000E-03 0.  1.
    9900012    2    1    2    0    0  0.93517250583E+00  0.20115544946E+02 -0.38446199070E+02  0.47787309694E+02  0.20000176220E+02 0.  0.
         12    1    1    2    0    0 -0.93517250583E+00 -0.20115544946E+02  0.38446199070E+02  0.43400690306E+02  0.00000000000E+00 0. -1.
         11    1    3    3    0    0  0.63352978189E-01 -0.51533421208E+00 -0.27707638891E+01  0.28189919724E+01  0.51100000000E-03 0. -1.
        -11    1    3    3    0    0  0.14959036740E+01  0.11396993375E+02 -0.33560974349E+02  0.35474895142E+02  0.51100000000E-03 0.  1.
         12    1    3    3    0    0 -0.62408414640E+00  0.92338857834E+01 -0.21144608316E+01  0.94934225804E+01  0.00000000000E+00 0. -1.
</event>
<event>
 7    1  0.2492468E-009  0.4778727E+02  0.7816164E-02  0.1312668E+00
        -11   -1    0    0    0    0  0.00000000000E+00  0.00000000000E+00  0.45593999997E+02  0.45594000000E+02  0.51100000000E-03 0.  1.
         11   -1    0    0    0    0 -0.00000000000E+00 -0.00000000000E+00 -0.45593999997E+02  0.45594000000E+02  0.51100000000E-03 0. -1.
    9900012    2    1    2    0    0 -0.87431790672E+00 -0.12788274035E+02  0.41464671402E+02  0.47787270063E+02  0.19999995523E+02 0.  0.
         12    1    1    2    0    0  0.87431790672E+00  0.12788274035E+02 -0.41464671402E+02  0.43400729937E+02  0.00000000000E+00 0. -1.
         11    1    3    3    0    0  0.76210387681E+00  0.29138243604E+01  0.23711476298E+01  0.38332122385E+01  0.51100000000E-03 0. -1.
        -11    1    3    3    0    0  0.11106236924E+00 -0.68838978763E+01  0.45320179668E+01  0.82425464472E+01  0.51100000000E-03 0.  1.
        -12    1    3    3    0    0 -0.17474841528E+01 -0.88182005187E+01  0.34561505806E+02  0.35711511377E+02  0.00000000000E+00 0.  1.
</event>
<event>
 7    1  0.2492468E-009  0.4778727E+02  0.7816164E-02  0.1312668E+00
        -11   -1    0    0    0    0  0.00000000000E+00  0.00000000000E+00  0.45593999997E+02  0.45594000000E+02  0.51100000000E-03 0. -1.
         11   -1    0    0    0    0 -0.00000000000E+00 -0.00000000000E+00 -0.45593999997E+02  0.45594000000E+02  0.51100000000E-03 0.  1.
    9900012    2    1    2    0    0 -0.27319236440E+02 -0.33016097325E+02 -0.68716752643E+01  0.47787270938E+02  0.19999999513E+02 0.  0.
         12    1    1    2    0    0  0.27319236440E+02  0.33016097325E+02  0.68716752643E+01  0.43400729062E+02  0.00000000000E+00 0. -1.
         11    1    3    3    0    0 -0.13739180132E+02 -0.10036170873E+02 -0.66666520762E+01  0.18273862390E+02  0.51100000000E-03 0. -1.
        -11    1    3    3    0    0 -0.12326070135E+02 -0.11874051232E+02 -0.42373579607E+01  0.17631797991E+02  0.51100000000E-03 0.  1.
         12    1    3    3    0    0 -0.12539861738E+01 -0.11105875220E+02  0.40323347725E+01  0.11881610557E+02  0.00000000000E+00 0. -1.
</event>
<event>
 7    1  0.2492468E-009  0.4778725E+02  0.7816164E-02  0.1312668E+00
        -11   -1    0    0    0    0  0.00000000000E+00  0.00000000000E+00  0.45593999997E+02  0.45594000000E+02  0.51100000000E-03 0.  1.
         11   -1    0    0    0    0 -0.00000000000E+00 -0.00000000000E+00 -0.45593999997E+02  0.45594000000E+02  0.51100000000E-03 0. -1.
    9900012    2    1    2    0    0  0.36798135964E+01 -0.11143884841E+02  0.41783939458E+02  0.47787253531E+02  0.19999920149E+02 0.  0.
         12    1    1    2    0    0 -0.36798135964E+01  0.11143884841E+02 -0.41783939458E+02  0.43400746469E+02  0.00000000000E+00 0. -1.
         11    1    3    3    0    0  0.17788095917E+01 -0.39904769568E+01  0.28205547126E+01  0.52003460514E+01  0.51100000000E-03 0.  1.
        -11    1    3    3    0    0  0.40836024730E+01 -0.10929950290E+02  0.20241389185E+02  0.23363506990E+02  0.51100000000E-03 0. -1.
        -12    1    3    3    0    0 -0.21825984683E+01  0.37765424056E+01  0.18721995560E+02  0.19223400489E+02  0.00000000000E+00 0.  1.
</event>
<event>
 7    1  0.2492468E-009  0.4778727E+02  0.7816164E-02  0.1312668E+00
        -11   -1    0    0    0    0  0.00000000000E+00  0.00000000000E+00  0.45593999997E+02  0.45594000000E+02  0.51100000000E-03 0. -1.
         11   -1    0    0    0    0 -0.00000000000E+00 -0.00000000000E+00 -0.45593999997E+02  0.45594000000E+02  0.51100000000E-03 0.  1.
    9900012    2    1    2    0    0 -0.38218311077E+02  0.14776003169E+01 -0.20513426586E+02  0.47787271037E+02  0.19999999965E+02 0.  0.
         12    1    1    2    0    0  0.38218311077E+02 -0.14776003169E+01  0.20513426586E+02  0.43400728963E+02  0.00000000000E+00 0. -1.
         11    1    3    3    0    0 -0.15430149009E+02 -0.72800204514E+01 -0.90087952306E+01  0.19293692958E+02  0.51100000000E-03 0. -1.
        -11    1    3    3    0    0 -0.83042349473E+01  0.22387595266E+01 -0.89383292627E+01  0.12404277188E+02  0.51100000000E-03 0.  1.
         12    1    3    3    0    0 -0.14483927120E+02  0.65188612417E+01 -0.25663020929E+01  0.16089300891E+02  0.00000000000E+00 0. -1.
</event>
<event>
 7    1  0.2492468E-009  0.4778727E+02  0.7816164E-02  0.1312668E+00
        -11   -1    0    0    0    0  0.00000000000E+00  0.00000000000E+00  0.45593999997E+02  0.45594000000E+02  0.51100000000E-03 0. -1.
         11   -1    0    0    0    0 -0.00000000000E+00 -0.00000000000E+00 -0.45593999997E+02  0.45594000000E+02  0.51100000000E-03 0.  1.
    9900012    2    1    2    0    0 -0.12496828034E+02  0.41254851917E+02 -0.50487791451E+01  0.47787266269E+02  0.19999978225E+02 0.  0.
         12    1    1    2    0    0  0.12496828034E+02 -0.41254851917E+02  0.50487791451E+01  0.43400733731E+02  0.00000000000E+00 0. -1.
         11    1    3    3    0    0  0.17910531875E+01  0.35925202846E+00 -0.24142207002E+00  0.18426118466E+01  0.51100000000E-03 0. -1.
        -11    1    3    3    0    0 -0.70368547924E+01  0.20865137949E+02  0.48622872911E+01  0.22550236029E+02  0.51100000000E-03 0.  1.
        -12    1    3    3    0    0 -0.72510264290E+01  0.20030461939E+02 -0.96696443662E+01  0.23394418392E+02  0.00000000000E+00 0.  1.
</event>
<event>
 7    1  0.2492468E-009  0.4778727E+02  0.7816164E-02  0.1312668E+00
        -11   -1    0    0    0    0  0.00000000000E+00  0.00000000000E+00  0.45593999997E+02  0.45594000000E+02  0.51100000000E-03 0.  1.
         11   -1    0    0    0    0 -0.00000000000E+00 -0.00000000000E+00 -0.45593999997E+02  0.45594000000E+02  0.51100000000E-03 0. -1.
    9900012    2    1    2    0    0  0.12064149285E+02 -0.37181050827E+02  0.18858655429E+02  0.47787272780E+02  0.20000007914E+02 0.  0.
         12    1    1    2    0    0 -0.12064149285E+02  0.37181050827E+02 -0.18858655429E+02  0.43400727220E+02  0.00000000000E+00 0. -1.
         11    1    3    3    0    0 -0.26259574496E+01 -0.18146013771E+01  0.13573642122E+01  0.34685542450E+01  0.51100000000E-03 0. -1.
        -11    1    3    3    0    0  0.45376649318E+01 -0.15451359097E+02  0.14674586074E+02  0.21787114946E+02  0.51100000000E-03 0.  1.
        -12    1    3    3    0    0  0.10152441803E+02 -0.19915090353E+02  0.28267051436E+01  0.22531603589E+02  0.00000000000E+00 0.  1.
</event>
<event>
 7    1  0.2492468E-009  0.4778728E+02  0.7816164E-02  0.1312668E+00
        -11   -1    0    0    0    0  0.00000000000E+00  0.00000000000E+00  0.45593999997E+02  0.45594000000E+02  0.51100000000E-03 0.  1.
         11   -1    0    0    0    0 -0.00000000000E+00 -0.00000000000E+00 -0.45593999997E+02  0.45594000000E+02  0.51100000000E-03 0. -1.
    9900012    2    1    2    0    0 -0.10635341797E+02 -0.36622340691E+02  0.20719954191E+02  0.47787276106E+02  0.20000023079E+02 0.  0.
         12    1    1    2    0    0  0.10635341797E+02  0.36622340691E+02 -0.20719954191E+02  0.43400723894E+02  0.00000000000E+00 0. -1.
         11    1    3    3    0    0 -0.34849217292E+01 -0.37352863658E+01  0.11141367503E+02  0.12256717088E+02  0.51100000000E-03 0. -1.
        -11    1    3    3    0    0 -0.95303650116E+00 -0.23176164823E+01  0.25131597744E+01  0.35490276195E+01  0.51100000000E-03 0.  1.
        -12    1    3    3    0    0 -0.61973835666E+01 -0.30569437843E+02  0.70654269140E+01  0.31981531398E+02  0.00000000000E+00 0.  1.
</event>
<event>
 7    1  0.2492468E-009  0.4778727E+02  0.7816164E-02  0.1312668E+00
        -11   -1    0    0    0    0  0.00000000000E+00  0.00000000000E+00  0.45593999997E+02  0.45594000000E+02  0.51100000000E-03 0.  1.
         11   -1    0    0    0    0 -0.00000000000E+00 -0.00000000000E+00 -0.45593999997E+02  0.45594000000E+02  0.51100000000E-03 0. -1.
    9900012    2    1    2    0    0 -0.12971427657E+00 -0.43029328536E+02  0.56642237372E+01  0.47787269930E+02  0.19999994917E+02 0.  0.
         12    1    1    2    0    0  0.12971427657E+00  0.43029328536E+02 -0.56642237372E+01  0.43400730070E+02  0.00000000000E+00 0. -1.
         11    1    3    3    0    0  0.22518175828E+01 -0.18133809573E+02  0.91120393535E+01  0.20418986104E+02  0.51100000000E-03 0. -1.
        -11    1    3    3    0    0  0.34312955569E+01 -0.62328613253E+01  0.13482026015E+01  0.72415467972E+01  0.51100000000E-03 0.  1.
         12    1    3    3    0    0 -0.58128274163E+01 -0.18662657638E+02 -0.47960182178E+01  0.20126737029E+02  0.00000000000E+00 0. -1.
</event>
<event>
 7    1  0.2492468E-009  0.4778725E+02  0.7816164E-02  0.1312668E+00
        -11   -1    0    0    0    0  0.00000000000E+00  0.00000000000E+00  0.45593999997E+02  0.45594000000E+02  0.51100000000E-03 0.  1.
         11   -1    0    0    0    0 -0.00000000000E+00 -0.00000000000E+00 -0.45593999997E+02  0.45594000000E+02  0.51100000000E-03 0. -1.
    9900012    2    1    2    0    0 -0.38193966934E+02  0.61783995102E+01  0.19664004485E+02  0.47787253427E+02  0.19999919676E+02 0.  0.
         12    1    1    2    0    0  0.38193966934E+02 -0.61783995102E+01 -0.19664004485E+02  0.43400746573E+02  0.00000000000E+00 0. -1.
         11    1    3    3    0    0  0.75726033773E+00  0.87575986688E-01  0.13374220900E+01  0.15394190074E+01  0.51100000000E-03 0. -1.
        -11    1    3    3    0    0 -0.10923951535E+02  0.81855975713E+01  0.21480146266E+01  0.13818490939E+02  0.51100000000E-03 0.  1.
         12    1    3    3    0    0 -0.28027275737E+02 -0.20947740477E+01  0.16178567768E+02  0.32429343481E+02  0.00000000000E+00 0. -1.
</event>
<event>
 7    1  0.2492468E-009  0.4778728E+02  0.7816164E-02  0.1312668E+00
        -11   -1    0    0    0    0  0.00000000000E+00  0.00000000000E+00  0.45593999997E+02  0.45594000000E+02  0.51100000000E-03 0. -1.
         11   -1    0    0    0    0 -0.00000000000E+00 -0.00000000000E+00 -0.45593999997E+02  0.45594000000E+02  0.51100000000E-03 0.  1.
    9900012    2    1    2    0    0 -0.11856759387E+00 -0.14855121571E+02 -0.40779081862E+02  0.47787283270E+02  0.20000055742E+02 0.  0.
         12    1    1    2    0    0  0.11856759387E+00  0.14855121571E+02  0.40779081862E+02  0.43400716730E+02  0.00000000000E+00 0. -1.
         11    1    3    3    0    0  0.55076879011E+01 -0.51031737167E+01 -0.56119525909E+01  0.93739543493E+01  0.51100000000E-03 0. -1.
        -11    1    3    3    0    0 -0.23701377017E+01  0.14072376495E+01 -0.24336333838E+01  0.36770153977E+01  0.51100000000E-03 0.  1.
        -12    1    3    3    0    0 -0.32561177933E+01 -0.11159185504E+02 -0.32733495887E+02  0.34736313523E+02  0.00000000000E+00 0.  1.
</event>
<event>
 7    1  0.2492468E-009  0.4778727E+02  0.7816164E-02  0.1312668E+00
        -11   -1    0    0    0    0  0.00000000000E+00  0.00000000000E+00  0.45593999997E+02  0.45594000000E+02  0.51100000000E-03 0.  1.
         11   -1    0    0    0    0 -0.00000000000E+00 -0.00000000000E+00 -0.45593999997E+02  0.45594000000E+02  0.51100000000E-03 0. -1.
    9900012    2    1    2    0    0  0.64467325149E+01  0.40298096866E+02 -0.14769098219E+02  0.47787271511E+02  0.20000002127E+02 0.  0.
         12    1    1    2    0    0 -0.64467325149E+01 -0.40298096866E+02  0.14769098219E+02  0.43400728489E+02  0.00000000000E+00 0. -1.
         11    1    3    3    0    0 -0.18975694121E+01  0.59852760957E+01  0.13145788629E+01  0.64150150011E+01  0.51100000000E-03 0.  1.
        -11    1    3    3    0    0 -0.10020506899E+01  0.10595076413E+02 -0.11136253078E+02  0.15403761965E+02  0.51100000000E-03 0. -1.
        -12    1    3    3    0    0  0.93463526169E+01  0.23717744358E+02 -0.49474240038E+01  0.25968494545E+02  0.00000000000E+00 0.  1.
</event>
<event>
 7    1  0.2492468E-009  0.4778727E+02  0.7816164E-02  0.1312668E+00
        -11   -1    0    0    0    0  0.00000000000E+00  0.00000000000E+00  0.45593999997E+02  0.45594000000E+02  0.51100000000E-03 0.  1.
         11   -1    0    0    0    0 -0.00000000000E+00 -0.00000000000E+00 -0.45593999997E+02  0.45594000000E+02  0.51100000000E-03 0. -1.
    9900012    2    1    2    0    0  0.19275856067E+02  0.22344629154E+02  0.31824233957E+02  0.47787274821E+02  0.20000017217E+02 0.  0.
         12    1    1    2    0    0 -0.19275856067E+02 -0.22344629154E+02 -0.31824233957E+02  0.43400725179E+02  0.00000000000E+00 0. -1.
         11    1    3    3    0    0 -0.15919234603E+00 -0.85101930643E+00  0.20215956217E-02  0.86578312003E+00  0.51100000000E-03 0. -1.
        -11    1    3    3    0    0  0.67917289879E+01  0.20396641690E+02  0.18837212889E+02  0.28583057299E+02  0.51100000000E-03 0.  1.
        -12    1    3    3    0    0  0.12643319425E+02  0.27990067698E+01  0.12984999473E+02  0.18338434401E+02  0.00000000000E+00 0.  1.
</event>
<event>
 7    1  0.2492468E-009  0.4778727E+02  0.7816164E-02  0.1312668E+00
        -11   -1    0    0    0    0  0.00000000000E+00  0.00000000000E+00  0.45593999997E+02  0.45594000000E+02  0.51100000000E-03 0.  1.
         11   -1    0    0    0    0 -0.00000000000E+00 -0.00000000000E+00 -0.45593999997E+02  0.45594000000E+02  0.51100000000E-03 0. -1.
    9900012    2    1    2    0    0 -0.36864429350E+02 -0.59231176166E+01  0.22125861481E+02  0.47787271666E+02  0.20000002834E+02 0.  0.
         12    1    1    2    0    0  0.36864429350E+02  0.59231176166E+01 -0.22125861481E+02  0.43400728334E+02  0.00000000000E+00 0. -1.
         11    1    3    3    0    0 -0.21509891890E+01 -0.10110002999E+01 -0.17893783656E+01  0.29750212258E+01  0.51100000000E-03 0. -1.
        -11    1    3    3    0    0 -0.18215301141E+01  0.34535448766E+01  0.32210726667E+01  0.50616453408E+01  0.51100000000E-03 0.  1.
        -12    1    3    3    0    0 -0.32891910047E+02 -0.83656621932E+01  0.20694167180E+02  0.39750605099E+02  0.00000000000E+00 0.  1.
</event>
<event>
 7    1  0.2492468E-009  0.4778727E+02  0.7816164E-02  0.1312668E+00
        -11   -1    0    0    0    0  0.00000000000E+00  0.00000000000E+00  0.45593999997E+02  0.45594000000E+02  0.51100000000E-03 0. -1.
         11   -1    0    0    0    0 -0.00000000000E+00 -0.00000000000E+00 -0.45593999997E+02  0.45594000000E+02  0.51100000000E-03 0.  1.
    9900012    2    1    2    0    0  0.18212782177E+02 -0.38801270756E+02 -0.68102385423E+01  0.47787269638E+02  0.19999993589E+02 0.  0.
         12    1    1    2    0    0 -0.18212782177E+02  0.38801270756E+02  0.68102385423E+01  0.43400730362E+02  0.00000000000E+00 0. -1.
         11    1    3    3    0    0 -0.29435913570E+00 -0.12966428320E+01 -0.41199530800E+01  0.43291966434E+01  0.51100000000E-03 0. -1.
        -11    1    3    3    0    0 -0.80029989935E+00  0.17200922517E+00  0.56938542506E+00  0.99712944287E+00  0.51100000000E-03 0.  1.
        -12    1    3    3    0    0  0.19307441212E+02 -0.37676637149E+02 -0.32596708873E+01  0.42460943552E+02  0.00000000000E+00 0.  1.
</event>
<event>
 7    1  0.2492468E-009  0.4778725E+02  0.7816164E-02  0.1312668E+00
        -11   -1    0    0    0    0  0.00000000000E+00  0.00000000000E+00  0.45593999997E+02  0.45594000000E+02  0.51100000000E-03 0. -1.
         11   -1    0    0    0    0 -0.00000000000E+00 -0.00000000000E+00 -0.45593999997E+02  0.45594000000E+02  0.51100000000E-03 0.  1.
    9900012    2    1    2    0    0 -0.20809408248E+02 -0.36980954958E+02 -0.91105773234E+01  0.47787249771E+02  0.19999903007E+02 0.  0.
         12    1    1    2    0    0  0.20809408248E+02  0.36980954958E+02  0.91105773234E+01  0.43400750229E+02  0.00000000000E+00 0. -1.
         11    1    3    3    0    0 -0.75525448651E+01 -0.79570714545E+01 -0.76867159562E+01  0.13395578469E+02  0.51100000000E-03 0. -1.
        -11    1    3    3    0    0 -0.11575830328E+01 -0.57350816412E+01 -0.52611767741E+01  0.78683633125E+01  0.51100000000E-03 0.  1.
        -12    1    3    3    0    0 -0.12099280350E+02 -0.23288801862E+02  0.38373154070E+01  0.26523307990E+02  0.00000000000E+00 0.  1.
</event>
<event>
 7    1  0.3217923E-009  0.4778728E+02  0.7816164E-02  0.1312668E+00
        -11   -1    0    0    0    0  0.00000000000E+00  0.00000000000E+00  0.45593999997E+02  0.45594000000E+02  0.51100000000E-03 0.  1.
         11   -1    0    0    0    0 -0.00000000000E+00 -0.00000000000E+00 -0.45593999997E+02  0.45594000000E+02  0.51100000000E-03 0. -1.
    9900012    2    1    2    0    0 -0.64189819415E+00  0.40522240649E+02  0.15529290623E+02  0.47787275493E+02  0.20000020281E+02 0.  0.
         12    1    1    2    0    0  0.64189819415E+00 -0.40522240649E+02 -0.15529290623E+02  0.43400724507E+02  0.00000000000E+00 0. -1.
         11    1    3    3    0    0  0.14581922444E+01  0.10435670297E+02  0.79578250197E+01  0.13204412841E+02  0.51100000000E-03 0.  1.
        -11    1    3    3    0    0  0.12430165508E+01  0.25392795227E+02  0.11191546573E+02  0.27777506269E+02  0.51100000000E-03 0. -1.
         12    1    3    3    0    0 -0.33431069894E+01  0.46937751255E+01 -0.36200809694E+01  0.68053563828E+01  0.00000000000E+00 0. -1.
</event>
<event>
 7    1  0.2492468E-009  0.4778727E+02  0.7816164E-02  0.1312668E+00
        -11   -1    0    0    0    0  0.00000000000E+00  0.00000000000E+00  0.45593999997E+02  0.45594000000E+02  0.51100000000E-03 0.  1.
         11   -1    0    0    0    0 -0.00000000000E+00 -0.00000000000E+00 -0.45593999997E+02  0.45594000000E+02  0.51100000000E-03 0. -1.
    9900012    2    1    2    0    0  0.15824094484E+02  0.31718433124E+02  0.25043212955E+02  0.47787268656E+02  0.19999989109E+02 0.  0.
         12    1    1    2    0    0 -0.15824094484E+02 -0.31718433124E+02 -0.25043212955E+02  0.43400731344E+02  0.00000000000E+00 0. -1.
         11    1    3    3    0    0 -0.23024453822E+01  0.68753434520E+01  0.19824609571E+01  0.75167648645E+01  0.51100000000E-03 0. -1.
        -11    1    3    3    0    0  0.44615288586E+01  0.14362144082E+00  0.52604880331E+01  0.68991739710E+01  0.51100000000E-03 0.  1.
        -12    1    3    3    0    0  0.13665011008E+02  0.24699468231E+02  0.17800263965E+02  0.33371329820E+02  0.00000000000E+00 0.  1.
</event>
<event>
 7    1  0.2492468E-009  0.4778726E+02  0.7816164E-02  0.1312668E+00
        -11   -1    0    0    0    0  0.00000000000E+00  0.00000000000E+00  0.45593999997E+02  0.45594000000E+02  0.51100000000E-03 0.  1.
         11   -1    0    0    0    0 -0.00000000000E+00 -0.00000000000E+00 -0.45593999997E+02  0.45594000000E+02  0.51100000000E-03 0. -1.
    9900012    2    1    2    0    0  0.12057549009E+02  0.85937331128E+01  0.40796906408E+02  0.47787259114E+02  0.19999945607E+02 0.  0.
         12    1    1    2    0    0 -0.12057549009E+02 -0.85937331128E+01 -0.40796906408E+02  0.43400740886E+02  0.00000000000E+00 0. -1.
         11    1    3    3    0    0  0.21770304171E+01  0.38576424930E+01  0.10817176492E+02  0.11688976625E+02  0.51100000000E-03 0. -1.
        -11    1    3    3    0    0  0.11253150736E+02  0.26982116743E+01  0.31256074573E+02  0.33329505632E+02  0.51100000000E-03 0.  1.
         12    1    3    3    0    0 -0.13726321449E+01  0.20378789456E+01 -0.12763446558E+01  0.27687768568E+01  0.00000000000E+00 0. -1.
</event>
<event>
 7    1  0.2492468E-009  0.4778727E+02  0.7816164E-02  0.1312668E+00
        -11   -1    0    0    0    0  0.00000000000E+00  0.00000000000E+00  0.45593999997E+02  0.45594000000E+02  0.51100000000E-03 0. -1.
         11   -1    0    0    0    0 -0.00000000000E+00 -0.00000000000E+00 -0.45593999997E+02  0.45594000000E+02  0.51100000000E-03 0.  1.
    9900012    2    1    2    0    0 -0.33397914149E+02  0.14977417141E+02 -0.23321231824E+02  0.47787267892E+02  0.19999985629E+02 0.  0.
         12    1    1    2    0    0  0.33397914149E+02 -0.14977417141E+02  0.23321231824E+02  0.43400732108E+02  0.00000000000E+00 0. -1.
         11    1    3    3    0    0 -0.51629849678E+01  0.44448737039E+01 -0.74734447074E+00  0.68536005166E+01  0.51100000000E-03 0. -1.
        -11    1    3    3    0    0  0.13290836443E+01  0.28252351808E+01 -0.32549766976E+00  0.31391664745E+01  0.51100000000E-03 0.  1.
        -12    1    3    3    0    0 -0.29564012825E+02  0.77073082559E+01 -0.22248389684E+02  0.37794500901E+02  0.00000000000E+00 0.  1.
</event>
<event>
 7    1  0.2492468E-009  0.4778727E+02  0.7816164E-02  0.1312668E+00
        -11   -1    0    0    0    0  0.00000000000E+00  0.00000000000E+00  0.45593999997E+02  0.45594000000E+02  0.51100000000E-03 0. -1.
         11   -1    0    0    0    0 -0.00000000000E+00 -0.00000000000E+00 -0.45593999997E+02  0.45594000000E+02  0.51100000000E-03 0.  1.
    9900012    2    1    2    0    0 -0.20557163616E+02 -0.16019553275E+02 -0.34704473146E+02  0.47787268216E+02  0.19999987102E+02 0.  0.
         12    1    1    2    0    0  0.20557163616E+02  0.16019553275E+02  0.34704473146E+02  0.43400731784E+02  0.00000000000E+00 0. -1.
         11    1    3    3    0    0 -0.80083851934E+01  0.35460803700E+01 -0.13106946627E+02  0.15763913522E+02  0.51100000000E-03 0. -1.
        -11    1    3    3    0    0 -0.11705254218E+00 -0.26435168338E+01 -0.23751140059E+01  0.35557065894E+01  0.51100000000E-03 0.  1.
        -12    1    3    3    0    0 -0.12431725880E+02 -0.16922116811E+02 -0.19222412514E+02  0.28467648104E+02  0.00000000000E+00 0.  1.
</event>
<event>
 7    1  0.2492468E-009  0.4778727E+02  0.7816164E-02  0.1312668E+00
        -11   -1    0    0    0    0  0.00000000000E+00  0.00000000000E+00  0.45593999997E+02  0.45594000000E+02  0.51100000000E-03 0.  1.
         11   -1    0    0    0    0 -0.00000000000E+00 -0.00000000000E+00 -0.45593999997E+02  0.45594000000E+02  0.51100000000E-03 0. -1.
    9900012    2    1    2    0    0 -0.10025557114E+02  0.33847384578E+02  0.25248092585E+02  0.47787269391E+02  0.19999992463E+02 0.  0.
         12    1    1    2    0    0  0.10025557114E+02 -0.33847384578E+02 -0.25248092585E+02  0.43400730609E+02  0.00000000000E+00 0. -1.
         11    1    3    3    0    0  0.14160099539E+01 -0.41737796539E+00 -0.20415138074E+00  0.14902907780E+01  0.51100000000E-03 0. -1.
        -11    1    3    3    0    0 -0.55671611311E+01  0.30897720050E+02  0.23603053307E+02  0.39278066564E+02  0.51100000000E-03 0.  1.
         12    1    3    3    0    0 -0.58744059371E+01  0.33670424934E+01  0.18491906587E+01  0.70189120494E+01  0.00000000000E+00 0. -1.
</event>
<event>
 7    1  0.2492468E-009  0.4778727E+02  0.7816164E-02  0.1312668E+00
        -11   -1    0    0    0    0  0.00000000000E+00  0.00000000000E+00  0.45593999997E+02  0.45594000000E+02  0.51100000000E-03 0. -1.
         11   -1    0    0    0    0 -0.00000000000E+00 -0.00000000000E+00 -0.45593999997E+02  0.45594000000E+02  0.51100000000E-03 0.  1.
    9900012    2    1    2    0    0 -0.17013856280E+02  0.35301730827E+02 -0.18653139620E+02  0.47787272788E+02  0.20000007947E+02 0.  0.
         12    1    1    2    0    0  0.17013856280E+02 -0.35301730827E+02  0.18653139620E+02  0.43400727212E+02  0.00000000000E+00 0. -1.
         11    1    3    3    0    0  0.21636879263E+01 -0.19429546073E+00 -0.16853748860E+01  0.27495063077E+01  0.51100000000E-03 0.  1.
        -11    1    3    3    0    0 -0.39611216082E+01  0.14020272716E+01 -0.30514128693E+01  0.51930035264E+01  0.51100000000E-03 0. -1.
        -12    1    3    3    0    0 -0.15216422598E+02  0.34093999016E+02 -0.13916351864E+02  0.39844762953E+02  0.00000000000E+00 0.  1.
</event>
<event>
 7    1  0.2492468E-009  0.4778727E+02  0.7816164E-02  0.1312668E+00
        -11   -1    0    0    0    0  0.00000000000E+00  0.00000000000E+00  0.45593999997E+02  0.45594000000E+02  0.51100000000E-03 0. -1.
         11   -1    0    0    0    0 -0.00000000000E+00 -0.00000000000E+00 -0.45593999997E+02  0.45594000000E+02  0.51100000000E-03 0.  1.
    9900012    2    1    2    0    0  0.16145551393E+02 -0.38221536729E+02  0.12730220200E+02  0.47787271826E+02  0.20000003562E+02 0.  0.
         12    1    1    2    0    0 -0.16145551393E+02  0.38221536729E+02 -0.12730220200E+02  0.43400728174E+02  0.00000000000E+00 0. -1.
         11    1    3    3    0    0  0.14556938326E+02 -0.17435930354E+02  0.10896724556E+02  0.25192354535E+02  0.51100000000E-03 0.  1.
        -11    1    3    3    0    0  0.11008562870E+01 -0.18727686190E+02  0.44001790605E+01  0.19269138294E+02  0.51100000000E-03 0. -1.
        -12    1    3    3    0    0  0.48775678050E+00 -0.20579201858E+01 -0.25666834167E+01  0.33257789959E+01  0.00000000000E+00 0.  1.
</event>
<event>
 7    1  0.2492468E-009  0.4778727E+02  0.7816164E-02  0.1312668E+00
        -11   -1    0    0    0    0  0.00000000000E+00  0.00000000000E+00  0.45593999997E+02  0.45594000000E+02  0.51100000000E-03 0.  1.
         11   -1    0    0    0    0 -0.00000000000E+00 -0.00000000000E+00 -0.45593999997E+02  0.45594000000E+02  0.51100000000E-03 0. -1.
    9900012    2    1    2    0    0  0.32170686989E+02  0.27924352824E+02 -0.83006343219E+01  0.47787272908E+02  0.20000008495E+02 0.  0.
         12    1    1    2    0    0 -0.32170686989E+02 -0.27924352824E+02  0.83006343219E+01  0.43400727092E+02  0.00000000000E+00 0. -1.
         11    1    3    3    0    0  0.63410947420E+00  0.95364648848E+00 -0.19611900519E+01  0.22710797280E+01  0.51100000000E-03 0. -1.
        -11    1    3    3    0    0  0.28888023557E+02  0.27718526459E+02 -0.96789521612E+01  0.41188793734E+02  0.51100000000E-03 0.  1.
        -12    1    3    3    0    0  0.26485539577E+01 -0.74782012332E+00  0.33395078912E+01  0.43273994453E+01  0.00000000000E+00 0.  1.
</event>
<event>
 7    1  0.2492468E-009  0.4778727E+02  0.7816164E-02  0.1312668E+00
        -11   -1    0    0    0    0  0.00000000000E+00  0.00000000000E+00  0.45593999997E+02  0.45594000000E+02  0.51100000000E-03 0.  1.
         11   -1    0    0    0    0 -0.00000000000E+00 -0.00000000000E+00 -0.45593999997E+02  0.45594000000E+02  0.51100000000E-03 0. -1.
    9900012    2    1    2    0    0  0.17565165930E+02  0.99660486364E+01  0.38415705669E+02  0.47787267038E+02  0.19999981733E+02 0.  0.
         12    1    1    2    0    0 -0.17565165930E+02 -0.99660486364E+01 -0.38415705669E+02  0.43400732962E+02  0.00000000000E+00 0. -1.
         11    1    3    3    0    0  0.10362503741E+02  0.22794548698E+01  0.24857758149E+02  0.27027495976E+02  0.51100000000E-03 0.  1.
        -11    1    3    3    0    0  0.73338778569E+01  0.79031630335E+01  0.15455950928E+02  0.18844950774E+02  0.51100000000E-03 0. -1.
         12    1    3    3    0    0 -0.13121566828E+00 -0.21656926694E+00 -0.18980034073E+01  0.19148202874E+01  0.00000000000E+00 0. -1.
</event>
<event>
 7    1  0.2492468E-009  0.4778727E+02  0.7816164E-02  0.1312668E+00
        -11   -1    0    0    0    0  0.00000000000E+00  0.00000000000E+00  0.45593999997E+02  0.45594000000E+02  0.51100000000E-03 0.  1.
         11   -1    0    0    0    0 -0.00000000000E+00 -0.00000000000E+00 -0.45593999997E+02  0.45594000000E+02  0.51100000000E-03 0. -1.
    9900012    2    1    2    0    0  0.27216074308E+02  0.27682245701E+02  0.19406240302E+02  0.47787267397E+02  0.19999983370E+02 0.  0.
         12    1    1    2    0    0 -0.27216074308E+02 -0.27682245701E+02 -0.19406240302E+02  0.43400732603E+02  0.00000000000E+00 0. -1.
         11    1    3    3    0    0  0.23702143748E+02  0.20932970264E+02  0.10348853865E+02  0.33272806297E+02  0.51100000000E-03 0. -1.
        -11    1    3    3    0    0  0.49664953750E+01  0.75982904856E+01  0.55904227972E+01  0.10660812442E+02  0.51100000000E-03 0.  1.
        -12    1    3    3    0    0 -0.14525648146E+01 -0.84901504894E+00  0.34669636401E+01  0.38536486576E+01  0.00000000000E+00 0.  1.
</event>
<event>
 7    1  0.2492468E-009  0.4778727E+02  0.7816164E-02  0.1312668E+00
        -11   -1    0    0    0    0  0.00000000000E+00  0.00000000000E+00  0.45593999997E+02  0.45594000000E+02  0.51100000000E-03 0.  1.
         11   -1    0    0    0    0 -0.00000000000E+00 -0.00000000000E+00 -0.45593999997E+02  0.45594000000E+02  0.51100000000E-03 0. -1.
    9900012    2    1    2    0    0  0.35071768466E+02  0.72698193352E+01  0.24510074652E+02  0.47787274477E+02  0.20000015650E+02 0.  0.
         12    1    1    2    0    0 -0.35071768466E+02 -0.72698193352E+01 -0.24510074652E+02  0.43400725523E+02  0.00000000000E+00 0. -1.
         11    1    3    3    0    0  0.15380371082E+02 -0.25871040285E+01  0.81902534362E+01  0.17616162280E+02  0.51100000000E-03 0. -1.
        -11    1    3    3    0    0  0.16629637190E+02  0.80250533388E+01  0.62595439950E+01  0.19496876813E+02  0.51100000000E-03 0.  1.
        -12    1    3    3    0    0  0.30617601937E+01  0.18318700249E+01  0.10060277220E+02  0.10674235384E+02  0.00000000000E+00 0.  1.
</event>
<event>
 7    1  0.2492468E-009  0.4778728E+02  0.7816164E-02  0.1312668E+00
        -11   -1    0    0    0    0  0.00000000000E+00  0.00000000000E+00  0.45593999997E+02  0.45594000000E+02  0.51100000000E-03 0.  1.
         11   -1    0    0    0    0 -0.00000000000E+00 -0.00000000000E+00 -0.45593999997E+02  0.45594000000E+02  0.51100000000E-03 0. -1.
    9900012    2    1    2    0    0  0.11782891095E+02  0.41226429061E+02  0.67207057897E+01  0.47787275790E+02  0.20000021635E+02 0.  0.
         12    1    1    2    0    0 -0.11782891095E+02 -0.41226429061E+02 -0.67207057897E+01  0.43400724210E+02  0.00000000000E+00 0. -1.
         11    1    3    3    0    0  0.71866903597E+00  0.77019387964E+01  0.74784829253E-01  0.77357571988E+01  0.51100000000E-03 0. -1.
        -11    1    3    3    0    0  0.13897501969E+02  0.33367261407E+02  0.78176367894E+01  0.36981483746E+02  0.51100000000E-03 0.  1.
         12    1    3    3    0    0 -0.28332799105E+01  0.15722885728E+00 -0.11717158289E+01  0.30700348448E+01  0.00000000000E+00 0. -1.
</event>
<event>
 7    1  0.2492468E-009  0.4778728E+02  0.7816164E-02  0.1312668E+00
        -11   -1    0    0    0    0  0.00000000000E+00  0.00000000000E+00  0.45593999997E+02  0.45594000000E+02  0.51100000000E-03 0. -1.
         11   -1    0    0    0    0 -0.00000000000E+00 -0.00000000000E+00 -0.45593999997E+02  0.45594000000E+02  0.51100000000E-03 0.  1.
    9900012    2    1    2    0    0  0.85957597275E+01 -0.42461025160E+02  0.26070572042E+01  0.47787280073E+02  0.20000041165E+02 0.  0.
         12    1    1    2    0    0 -0.85957597275E+01  0.42461025160E+02 -0.26070572042E+01  0.43400719927E+02  0.00000000000E+00 0. -1.
         11    1    3    3    0    0 -0.77858136472E+00 -0.56300989798E+01 -0.40256758154E+00  0.56979175479E+01  0.51100000000E-03 0. -1.
        -11    1    3    3    0    0  0.19719107810E+01 -0.64111746945E+01  0.79422350920E+01  0.10395705441E+02  0.51100000000E-03 0.  1.
        -12    1    3    3    0    0  0.74024303112E+01 -0.30419751486E+02 -0.49326103062E+01  0.31693657084E+02  0.00000000000E+00 0.  1.
</event>
<event>
 7    1  0.2492468E-009  0.4778727E+02  0.7816164E-02  0.1312668E+00
        -11   -1    0    0    0    0  0.00000000000E+00  0.00000000000E+00  0.45593999997E+02  0.45594000000E+02  0.51100000000E-03 0.  1.
         11   -1    0    0    0    0 -0.00000000000E+00 -0.00000000000E+00 -0.45593999997E+02  0.45594000000E+02  0.51100000000E-03 0. -1.
    9900012    2    1    2    0    0 -0.24263400274E+02  0.24077604878E+02  0.26742841881E+02  0.47787271419E+02  0.20000001706E+02 0.  0.
         12    1    1    2    0    0  0.24263400274E+02 -0.24077604878E+02 -0.26742841881E+02  0.43400728581E+02  0.00000000000E+00 0. -1.
         11    1    3    3    0    0  0.74436160862E+00  0.73798051394E+00 -0.91670681652E+00  0.13924945572E+01  0.51100000000E-03 0. -1.
        -11    1    3    3    0    0 -0.66159874761E+01 -0.61307162123E+00  0.78208373701E+01  0.10262194918E+02  0.51100000000E-03 0.  1.
        -12    1    3    3    0    0 -0.18391774407E+02  0.23952695986E+02  0.19838711327E+02  0.36132581944E+02  0.00000000000E+00 0.  1.
</event>
<event>
 7    1  0.2492468E-009  0.4778730E+02  0.7816164E-02  0.1312668E+00
        -11   -1    0    0    0    0  0.00000000000E+00  0.00000000000E+00  0.45593999997E+02  0.45594000000E+02  0.51100000000E-03 0.  1.
         11   -1    0    0    0    0 -0.00000000000E+00 -0.00000000000E+00 -0.45593999997E+02  0.45594000000E+02  0.51100000000E-03 0. -1.
    9900012    2    1    2    0    0 -0.17702387045E+02 -0.42609643262E+01  0.39396581827E+02  0.47787297428E+02  0.20000120294E+02 0.  0.
         12    1    1    2    0    0  0.17702387045E+02  0.42609643262E+01 -0.39396581827E+02  0.43400702572E+02  0.00000000000E+00 0. -1.
         11    1    3    3    0    0 -0.59448090925E+01  0.69042654135E+00  0.19507027600E+02  0.20404449760E+02  0.51100000000E-03 0.  1.
        -11    1    3    3    0    0 -0.10813673088E+02 -0.68049244362E+01  0.21322206594E+02  0.24857172336E+02  0.51100000000E-03 0. -1.
         12    1    3    3    0    0 -0.94390486468E+00  0.18535335687E+01 -0.14326523667E+01  0.25256753329E+01  0.00000000000E+00 0. -1.
</event>
<event>
 7    1  0.2492468E-009  0.4778726E+02  0.7816164E-02  0.1312668E+00
        -11   -1    0    0    0    0  0.00000000000E+00  0.00000000000E+00  0.45593999997E+02  0.45594000000E+02  0.51100000000E-03 0.  1.
         11   -1    0    0    0    0 -0.00000000000E+00 -0.00000000000E+00 -0.45593999997E+02  0.45594000000E+02  0.51100000000E-03 0. -1.
    9900012    2    1    2    0    0 -0.38675350320E+02 -0.11157683731E+02  0.16227985854E+02  0.47787260910E+02  0.19999953795E+02 0.  0.
         12    1    1    2    0    0  0.38675350320E+02  0.11157683731E+02 -0.16227985854E+02  0.43400739090E+02  0.00000000000E+00 0. -1.
         11    1    3    3    0    0 -0.24820857077E+02 -0.91106318510E+01  0.15628289109E+01  0.26486241584E+02  0.51100000000E-03 0. -1.
        -11    1    3    3    0    0 -0.10076575646E+02 -0.32094412169E+01  0.70162475805E+01  0.12691163069E+02  0.51100000000E-03 0.  1.
        -12    1    3    3    0    0 -0.37779175972E+01  0.11623893365E+01  0.76489093626E+01  0.86098562577E+01  0.00000000000E+00 0.  1.
</event>
<event>
 7    1  0.2492468E-009  0.4778727E+02  0.7816164E-02  0.1312668E+00
        -11   -1    0    0    0    0  0.00000000000E+00  0.00000000000E+00  0.45593999997E+02  0.45594000000E+02  0.51100000000E-03 0. -1.
         11   -1    0    0    0    0 -0.00000000000E+00 -0.00000000000E+00 -0.45593999997E+02  0.45594000000E+02  0.51100000000E-03 0.  1.
    9900012    2    1    2    0    0  0.32597442576E+01 -0.42324161648E+02 -0.90367601857E+01  0.47787266982E+02  0.19999981478E+02 0.  0.
         12    1    1    2    0    0 -0.32597442576E+01  0.42324161648E+02  0.90367601857E+01  0.43400733018E+02  0.00000000000E+00 0. -1.
         11    1    3    3    0    0  0.30024240305E-01  0.45656781858E+00  0.11309967509E+01  0.12200448925E+01  0.51100000000E-03 0.  1.
        -11    1    3    3    0    0 -0.29250603242E+01 -0.43685207882E+01 -0.51206624485E+01  0.73390146443E+01  0.51100000000E-03 0. -1.
        -12    1    3    3    0    0  0.61547803415E+01 -0.38412208678E+02 -0.50470944881E+01  0.39228207445E+02  0.00000000000E+00 0.  1.
</event>
<event>
 7    1  0.2492468E-009  0.4778727E+02  0.7816164E-02  0.1312668E+00
        -11   -1    0    0    0    0  0.00000000000E+00  0.00000000000E+00  0.45593999997E+02  0.45594000000E+02  0.51100000000E-03 0.  1.
         11   -1    0    0    0    0 -0.00000000000E+00 -0.00000000000E+00 -0.45593999997E+02  0.45594000000E+02  0.51100000000E-03 0. -1.
    9900012    2    1    2    0    0  0.24619811551E+02 -0.44989534785E+01  0.35457686061E+02  0.47787271850E+02  0.20000003672E+02 0.  0.
         12    1    1    2    0    0 -0.24619811551E+02  0.44989534785E+01 -0.35457686061E+02  0.43400728150E+02  0.00000000000E+00 0. -1.
         11    1    3    3    0    0  0.19379417902E+02  0.66145873218E+00  0.17760146792E+02  0.26294907876E+02  0.51100000000E-03 0.  1.
        -11    1    3    3    0    0  0.38433776663E+01 -0.44358178609E+01  0.27840567726E+01  0.64960760737E+01  0.51100000000E-03 0. -1.
        -12    1    3    3    0    0  0.13970159825E+01 -0.72459434980E+00  0.14913482496E+02  0.14996287900E+02  0.00000000000E+00 0.  1.
</event>
<event>
 7    1  0.2492468E-009  0.4778727E+02  0.7816164E-02  0.1312668E+00
        -11   -1    0    0    0    0  0.00000000000E+00  0.00000000000E+00  0.45593999997E+02  0.45594000000E+02  0.51100000000E-03 0.  1.
         11   -1    0    0    0    0 -0.00000000000E+00 -0.00000000000E+00 -0.45593999997E+02  0.45594000000E+02  0.51100000000E-03 0. -1.
    9900012    2    1    2    0    0  0.40041172365E+02 -0.16140696786E+01  0.16665023843E+02  0.47787265848E+02  0.19999976306E+02 0.  0.
         12    1    1    2    0    0 -0.40041172365E+02  0.16140696786E+01 -0.16665023843E+02  0.43400734152E+02  0.00000000000E+00 0. -1.
         11    1    3    3    0    0  0.54265502511E+01 -0.41646507092E+01  0.73302943789E+01  0.10026214595E+02  0.51100000000E-03 0. -1.
        -11    1    3    3    0    0  0.13274212133E+02 -0.37140412449E+01  0.68184682414E+01  0.15378241757E+02  0.51100000000E-03 0.  1.
        -12    1    3    3    0    0  0.21340409980E+02  0.62646222755E+01  0.25162612227E+01  0.22382809496E+02  0.00000000000E+00 0.  1.
</event>
<event>
 7    1  0.2492468E-009  0.4778727E+02  0.7816164E-02  0.1312668E+00
        -11   -1    0    0    0    0  0.00000000000E+00  0.00000000000E+00  0.45593999997E+02  0.45594000000E+02  0.51100000000E-03 0.  1.
         11   -1    0    0    0    0 -0.00000000000E+00 -0.00000000000E+00 -0.45593999997E+02  0.45594000000E+02  0.51100000000E-03 0. -1.
    9900012    2    1    2    0    0 -0.26489788144E+02 -0.33902812761E-01  0.34378966468E+02  0.47787270044E+02  0.19999995441E+02 0.  0.
         12    1    1    2    0    0  0.26489788144E+02  0.33902812761E-01 -0.34378966468E+02  0.43400729956E+02  0.00000000000E+00 0. -1.
         11    1    3    3    0    0 -0.86164621097E+01 -0.18914740643E+01  0.26151858660E+01  0.92011026947E+01  0.51100000000E-03 0. -1.
        -11    1    3    3    0    0 -0.48608140320E+01 -0.51107336723E+01  0.11988055738E+02  0.13909011193E+02  0.51100000000E-03 0.  1.
        -12    1    3    3    0    0 -0.13012512002E+02  0.69683049238E+01  0.19775724863E+02  0.24677156157E+02  0.00000000000E+00 0.  1.
</event>
<event>
 7    1  0.2492468E-009  0.4778727E+02  0.7816164E-02  0.1312668E+00
        -11   -1    0    0    0    0  0.00000000000E+00  0.00000000000E+00  0.45593999997E+02  0.45594000000E+02  0.51100000000E-03 0.  1.
         11   -1    0    0    0    0 -0.00000000000E+00 -0.00000000000E+00 -0.45593999997E+02  0.45594000000E+02  0.51100000000E-03 0. -1.
    9900012    2    1    2    0    0  0.99107684613E+01  0.41430252591E+02  0.83026524628E+01  0.47787271905E+02  0.20000003923E+02 0.  0.
         12    1    1    2    0    0 -0.99107684613E+01 -0.41430252591E+02 -0.83026524628E+01  0.43400728095E+02  0.00000000000E+00 0. -1.
         11    1    3    3    0    0  0.52451749515E+01  0.44315794523E+01  0.24833875549E+01  0.73019155516E+01  0.51100000000E-03 0. -1.
        -11    1    3    3    0    0  0.40549092814E+01  0.13780594360E+01  0.17553998676E+01  0.46284734034E+01  0.51100000000E-03 0.  1.
        -12    1    3    3    0    0  0.61068422843E+00  0.35620613703E+02  0.40638650403E+01  0.35856882950E+02  0.00000000000E+00 0.  1.
</event>
<event>
 7    1  0.2492468E-009  0.4778727E+02  0.7816164E-02  0.1312668E+00
        -11   -1    0    0    0    0  0.00000000000E+00  0.00000000000E+00  0.45593999997E+02  0.45594000000E+02  0.51100000000E-03 0.  1.
         11   -1    0    0    0    0 -0.00000000000E+00 -0.00000000000E+00 -0.45593999997E+02  0.45594000000E+02  0.51100000000E-03 0. -1.
    9900012    2    1    2    0    0  0.35476033639E+02  0.17897282570E+02 -0.17457423081E+02  0.47787270666E+02  0.19999998274E+02 0.  0.
         12    1    1    2    0    0 -0.35476033639E+02 -0.17897282570E+02  0.17457423081E+02  0.43400729334E+02  0.00000000000E+00 0. -1.
         11    1    3    3    0    0  0.89144938081E+00 -0.92087838768E+00  0.50362044964E+00  0.13770740074E+01  0.51100000000E-03 0. -1.
        -11    1    3    3    0    0  0.34201892447E+02  0.17115147796E+02 -0.11826310157E+02  0.40031979007E+02  0.51100000000E-03 0.  1.
        -12    1    3    3    0    0  0.38269181114E+00  0.17030131614E+01 -0.61347333730E+01  0.63782176513E+01  0.00000000000E+00 0.  1.
</event>
<event>
 7    1  0.2492468E-009  0.4778727E+02  0.7816164E-02  0.1312668E+00
        -11   -1    0    0    0    0  0.00000000000E+00  0.00000000000E+00  0.45593999997E+02  0.45594000000E+02  0.51100000000E-03 0.  1.
         11   -1    0    0    0    0 -0.00000000000E+00 -0.00000000000E+00 -0.45593999997E+02  0.45594000000E+02  0.51100000000E-03 0. -1.
    9900012    2    1    2    0    0 -0.22682629826E+02 -0.34830831648E+02  0.12487377460E+02  0.47787272761E+02  0.20000007824E+02 0.  0.
         12    1    1    2    0    0  0.22682629826E+02  0.34830831648E+02 -0.12487377460E+02  0.43400727239E+02  0.00000000000E+00 0. -1.
         11    1    3    3    0    0 -0.31937645337E+01  0.40619900374E+00  0.51001491572E+01  0.60313059294E+01  0.51100000000E-03 0. -1.
        -11    1    3    3    0    0 -0.56555161096E+01 -0.69204657502E+01 -0.13822473063E+01  0.90436893214E+01  0.51100000000E-03 0.  1.
        -12    1    3    3    0    0 -0.13833349182E+02 -0.28316564901E+02  0.87694756091E+01  0.32712277510E+02  0.00000000000E+00 0.  1.
</event>
<event>
 7    1  0.2492468E-009  0.4778727E+02  0.7816164E-02  0.1312668E+00
        -11   -1    0    0    0    0  0.00000000000E+00  0.00000000000E+00  0.45593999997E+02  0.45594000000E+02  0.51100000000E-03 0. -1.
         11   -1    0    0    0    0 -0.00000000000E+00 -0.00000000000E+00 -0.45593999997E+02  0.45594000000E+02  0.51100000000E-03 0.  1.
    9900012    2    1    2    0    0 -0.32437858521E+02  0.23943555959E+02 -0.16065961490E+02  0.47787266642E+02  0.19999979928E+02 0.  0.
         12    1    1    2    0    0  0.32437858521E+02 -0.23943555959E+02  0.16065961490E+02  0.43400733358E+02  0.00000000000E+00 0. -1.
         11    1    3    3    0    0 -0.86890922642E+01  0.74828942649E+01 -0.53326318073E+01  0.12646382614E+02  0.51100000000E-03 0. -1.
        -11    1    3    3    0    0 -0.15400812852E+02  0.11435816537E+02 -0.15149516943E+02  0.24443215833E+02  0.51100000000E-03 0.  1.
         12    1    3    3    0    0 -0.83479534049E+01  0.50248451573E+01  0.44161872608E+01  0.10697668196E+02  0.00000000000E+00 0. -1.
</event>
<event>
 7    1  0.2492468E-009  0.4778727E+02  0.7816164E-02  0.1312668E+00
        -11   -1    0    0    0    0  0.00000000000E+00  0.00000000000E+00  0.45593999997E+02  0.45594000000E+02  0.51100000000E-03 0. -1.
         11   -1    0    0    0    0 -0.00000000000E+00 -0.00000000000E+00 -0.45593999997E+02  0.45594000000E+02  0.51100000000E-03 0.  1.
    9900012    2    1    2    0    0 -0.30735436924E+02  0.30051477806E+02 -0.59887250399E+01  0.47787271563E+02  0.20000002365E+02 0.  0.
         12    1    1    2    0    0  0.30735436924E+02 -0.30051477806E+02  0.59887250399E+01  0.43400728437E+02  0.00000000000E+00 0. -1.
         11    1    3    3    0    0 -0.93849676018E+01 -0.75045812688E-02  0.72792304891E+00  0.94131581008E+01  0.51100000000E-03 0. -1.
        -11    1    3    3    0    0 -0.92285983137E+01  0.74895792841E+01 -0.43098334963E+01  0.12642606128E+02  0.51100000000E-03 0.  1.
         12    1    3    3    0    0 -0.12121871008E+02  0.22569403104E+02 -0.24068145925E+01  0.25731507334E+02  0.00000000000E+00 0. -1.
</event>
<event>
 7    1  0.2492468E-009  0.4778727E+02  0.7816164E-02  0.1312668E+00
        -11   -1    0    0    0    0  0.00000000000E+00  0.00000000000E+00  0.45593999997E+02  0.45594000000E+02  0.51100000000E-03 0.  1.
         11   -1    0    0    0    0 -0.00000000000E+00 -0.00000000000E+00 -0.45593999997E+02  0.45594000000E+02  0.51100000000E-03 0. -1.
    9900012    2    1    2    0    0 -0.21351893944E+02  0.29928212890E+01  0.37666471839E+02  0.47787268957E+02  0.19999990482E+02 0.  0.
         12    1    1    2    0    0  0.21351893944E+02 -0.29928212890E+01 -0.37666471839E+02  0.43400731043E+02  0.00000000000E+00 0. -1.
         11    1    3    3    0    0 -0.41101102586E+00 -0.26049052822E+01  0.40885332787E+00  0.26686368988E+01  0.51100000000E-03 0. -1.
        -11    1    3    3    0    0 -0.10500975887E+01  0.49672546770E+01  0.44714993089E+01  0.67653994932E+01  0.51100000000E-03 0.  1.
         12    1    3    3    0    0 -0.19890785329E+02  0.63047189415E+00  0.32786119202E+02  0.38353232565E+02  0.00000000000E+00 0. -1.
</event>
<event>
 7    1  0.2492468E-009  0.4778728E+02  0.7816164E-02  0.1312668E+00
        -11   -1    0    0    0    0  0.00000000000E+00  0.00000000000E+00  0.45593999997E+02  0.45594000000E+02  0.51100000000E-03 0.  1.
         11   -1    0    0    0    0 -0.00000000000E+00 -0.00000000000E+00 -0.45593999997E+02  0.45594000000E+02  0.51100000000E-03 0. -1.
    9900012    2    1    2    0    0 -0.85844960236E+01 -0.77580816990E+01  0.41829911220E+02  0.47787275625E+02  0.20000020883E+02 0.  0.
         12    1    1    2    0    0  0.85844960236E+01  0.77580816990E+01 -0.41829911220E+02  0.43400724375E+02  0.00000000000E+00 0. -1.
         11    1    3    3    0    0  0.22692249346E+01 -0.90094095203E+01  0.24169190070E+02  0.25893408247E+02  0.51100000000E-03 0. -1.
        -11    1    3    3    0    0 -0.29356632921E+01 -0.15737959108E+01  0.14499411737E+01  0.36328063810E+01  0.51100000000E-03 0.  1.
        -12    1    3    3    0    0 -0.79180576660E+01  0.28251237320E+01  0.16210779976E+02  0.18261060997E+02  0.00000000000E+00 0.  1.
</event>
<event>
 7    1  0.2492468E-009  0.4778727E+02  0.7816164E-02  0.1312668E+00
        -11   -1    0    0    0    0  0.00000000000E+00  0.00000000000E+00  0.45593999997E+02  0.45594000000E+02  0.51100000000E-03 0.  1.
         11   -1    0    0    0    0 -0.00000000000E+00 -0.00000000000E+00 -0.45593999997E+02  0.45594000000E+02  0.51100000000E-03 0. -1.
    9900012    2    1    2    0    0  0.17876743223E+02  0.29324571345E+02  0.26535162637E+02  0.47787270870E+02  0.19999999206E+02 0.  0.
         12    1    1    2    0    0 -0.17876743223E+02 -0.29324571345E+02 -0.26535162637E+02  0.43400729130E+02  0.00000000000E+00 0. -1.
         11    1    3    3    0    0  0.10254955603E+02  0.12285960044E+02  0.22516443055E+02  0.27624249071E+02  0.51100000000E-03 0. -1.
        -11    1    3    3    0    0  0.41497746335E+01  0.26491121221E+01  0.15089897587E+01  0.51493179060E+01  0.51100000000E-03 0.  1.
        -12    1    3    3    0    0  0.34720129863E+01  0.14389499179E+02  0.25097298227E+01  0.15013703893E+02  0.00000000000E+00 0.  1.
</event>
<event>
 7    1  0.2492468E-009  0.4778726E+02  0.7816164E-02  0.1312668E+00
        -11   -1    0    0    0    0  0.00000000000E+00  0.00000000000E+00  0.45593999997E+02  0.45594000000E+02  0.51100000000E-03 0.  1.
         11   -1    0    0    0    0 -0.00000000000E+00 -0.00000000000E+00 -0.45593999997E+02  0.45594000000E+02  0.51100000000E-03 0. -1.
    9900012    2    1    2    0    0  0.24486181339E+02  0.14851430591E+02  0.32611138947E+02  0.47787257488E+02  0.19999938192E+02 0.  0.
         12    1    1    2    0    0 -0.24486181339E+02 -0.14851430591E+02 -0.32611138947E+02  0.43400742512E+02  0.00000000000E+00 0. -1.
         11    1    3    3    0    0 -0.51984444099E+00  0.31606004090E+01  0.72775792202E+01  0.79512761715E+01  0.51100000000E-03 0. -1.
        -11    1    3    3    0    0  0.14028077290E+01  0.11117105862E+01  0.91528615684E+01  0.93262342402E+01  0.51100000000E-03 0.  1.
         12    1    3    3    0    0  0.23603218051E+02  0.10579119596E+02  0.16180698158E+02  0.30509747077E+02  0.00000000000E+00 0. -1.
</event>
<event>
 7    1  0.2492468E-009  0.4778726E+02  0.7816164E-02  0.1312668E+00
        -11   -1    0    0    0    0  0.00000000000E+00  0.00000000000E+00  0.45593999997E+02  0.45594000000E+02  0.51100000000E-03 0.  1.
         11   -1    0    0    0    0 -0.00000000000E+00 -0.00000000000E+00 -0.45593999997E+02  0.45594000000E+02  0.51100000000E-03 0. -1.
    9900012    2    1    2    0    0 -0.20843685310E+02  0.17207806543E+02  0.33956681522E+02  0.47787262180E+02  0.19999959582E+02 0.  0.
         12    1    1    2    0    0  0.20843685310E+02 -0.17207806543E+02 -0.33956681522E+02  0.43400737820E+02  0.00000000000E+00 0. -1.
         11    1    3    3    0    0 -0.11383151740E+01 -0.16228702924E+01  0.36231389866E+01  0.41299643822E+01  0.51100000000E-03 0.  1.
        -11    1    3    3    0    0 -0.11801184280E+02  0.84130009354E+01  0.53325674184E+01  0.15442888677E+02  0.51100000000E-03 0. -1.
        -12    1    3    3    0    0 -0.79041858566E+01  0.10417675900E+02  0.25000975117E+02  0.28214409121E+02  0.00000000000E+00 0.  1.
</event>
<event>
 7    1  0.2492468E-009  0.4778728E+02  0.7816164E-02  0.1312668E+00
        -11   -1    0    0    0    0  0.00000000000E+00  0.00000000000E+00  0.45593999997E+02  0.45594000000E+02  0.51100000000E-03 0. -1.
         11   -1    0    0    0    0 -0.00000000000E+00 -0.00000000000E+00 -0.45593999997E+02  0.45594000000E+02  0.51100000000E-03 0.  1.
    9900012    2    1    2    0    0 -0.78096104304E+01 -0.41491594632E+02 -0.10053870526E+02  0.47787277048E+02  0.20000027373E+02 0.  0.
         12    1    1    2    0    0  0.78096104304E+01  0.41491594632E+02  0.10053870526E+02  0.43400722952E+02  0.00000000000E+00 0. -1.
         11    1    3    3    0    0  0.14073130278E+01 -0.36094246991E+01  0.27071124703E+01  0.47261966532E+01  0.51100000000E-03 0. -1.
        -11    1    3    3    0    0 -0.85856202295E+00 -0.59907166683E+01 -0.75612896010E+01  0.96849840288E+01  0.51100000000E-03 0.  1.
        -12    1    3    3    0    0 -0.83583614353E+01 -0.31891453265E+02 -0.51996933956E+01  0.33376096366E+02  0.00000000000E+00 0.  1.
</event>
<event>
 7    1  0.2492468E-009  0.4778727E+02  0.7816164E-02  0.1312668E+00
        -11   -1    0    0    0    0  0.00000000000E+00  0.00000000000E+00  0.45593999997E+02  0.45594000000E+02  0.51100000000E-03 0.  1.
         11   -1    0    0    0    0 -0.00000000000E+00 -0.00000000000E+00 -0.45593999997E+02  0.45594000000E+02  0.51100000000E-03 0. -1.
    9900012    2    1    2    0    0 -0.78270322363E+01  0.39797295938E+02  0.15444608925E+02  0.47787272559E+02  0.20000006904E+02 0.  0.
         12    1    1    2    0    0  0.78270322363E+01 -0.39797295938E+02 -0.15444608925E+02  0.43400727441E+02  0.00000000000E+00 0. -1.
         11    1    3    3    0    0 -0.76441041882E+00  0.92290989366E+00 -0.25331272583E+01  0.28022883378E+01  0.51100000000E-03 0. -1.
        -11    1    3    3    0    0  0.31525228791E+01  0.11493849842E+02  0.66039551612E+01  0.13625681954E+02  0.51100000000E-03 0.  1.
         12    1    3    3    0    0 -0.10215144697E+02  0.27380536202E+02  0.11373781022E+02  0.31359302267E+02  0.00000000000E+00 0. -1.
</event>
<event>
 7    1  0.2492468E-009  0.4778729E+02  0.7816164E-02  0.1312668E+00
        -11   -1    0    0    0    0  0.00000000000E+00  0.00000000000E+00  0.45593999997E+02  0.45594000000E+02  0.51100000000E-03 0.  1.
         11   -1    0    0    0    0 -0.00000000000E+00 -0.00000000000E+00 -0.45593999997E+02  0.45594000000E+02  0.51100000000E-03 0. -1.
    9900012    2    1    2    0    0  0.13879564797E+02 -0.31013680762E+02  0.27002426135E+02  0.47787288824E+02  0.20000081066E+02 0.  0.
         12    1    1    2    0    0 -0.13879564797E+02  0.31013680762E+02 -0.27002426135E+02  0.43400711176E+02  0.00000000000E+00 0. -1.
         11    1    3    3    0    0 -0.52496495071E+00 -0.93522452680E+01  0.23233207953E+01  0.96507978702E+01  0.51100000000E-03 0. -1.
        -11    1    3    3    0    0  0.65563553673E+00 -0.10577544787E+02  0.13779238538E+02  0.17383375006E+02  0.51100000000E-03 0.  1.
         12    1    3    3    0    0  0.13748894211E+02 -0.11083890707E+02  0.10899866802E+02  0.20753115948E+02  0.00000000000E+00 0. -1.
</event>
<event>
 7    1  0.2492468E-009  0.4778731E+02  0.7816164E-02  0.1312668E+00
        -11   -1    0    0    0    0  0.00000000000E+00  0.00000000000E+00  0.45593999997E+02  0.45594000000E+02  0.51100000000E-03 0. -1.
         11   -1    0    0    0    0 -0.00000000000E+00 -0.00000000000E+00 -0.45593999997E+02  0.45594000000E+02  0.51100000000E-03 0.  1.
    9900012    2    1    2    0    0  0.23793107345E+01  0.13813371046E+02 -0.41074927782E+02  0.47787308398E+02  0.20000170309E+02 0.  0.
         12    1    1    2    0    0 -0.23793107345E+01 -0.13813371046E+02  0.41074927782E+02  0.43400691602E+02  0.00000000000E+00 0. -1.
         11    1    3    3    0    0 -0.77405097573E+00 -0.36747944226E+01 -0.58043746644E+01  0.69133229685E+01  0.51100000000E-03 0. -1.
        -11    1    3    3    0    0  0.37254170129E+01  0.17710410411E+01 -0.34447254130E+01  0.53741466040E+01  0.51100000000E-03 0.  1.
        -12    1    3    3    0    0 -0.57205530270E+00  0.15717124428E+02 -0.31825827705E+02  0.35499838825E+02  0.00000000000E+00 0.  1.
</event>
<event>
 7    1  0.3019151E-009  0.4778727E+02  0.7816164E-02  0.1312668E+00
        -11   -1    0    0    0    0  0.00000000000E+00  0.00000000000E+00  0.45593999997E+02  0.45594000000E+02  0.51100000000E-03 0.  1.
         11   -1    0    0    0    0 -0.00000000000E+00 -0.00000000000E+00 -0.45593999997E+02  0.45594000000E+02  0.51100000000E-03 0. -1.
    9900012    2    1    2    0    0 -0.34140062318E+02  0.26278820694E+02 -0.52443478221E+01  0.47787268943E+02  0.19999990419E+02 0.  0.
         12    1    1    2    0    0  0.34140062318E+02 -0.26278820694E+02  0.52443478221E+01  0.43400731057E+02  0.00000000000E+00 0. -1.
         11    1    3    3    0    0 -0.16653006545E+01  0.79438275540E+01  0.37582575288E+01  0.89443905544E+01  0.51100000000E-03 0. -1.
        -11    1    3    3    0    0 -0.98743411529E+01  0.35897057078E+01 -0.37975753479E+00  0.10513458818E+02  0.51100000000E-03 0.  1.
         12    1    3    3    0    0 -0.22600420511E+02  0.14745287433E+02 -0.86228478160E+01  0.28329419571E+02  0.00000000000E+00 0. -1.
</event>
<event>
 7    1  0.2492468E-009  0.4778727E+02  0.7816164E-02  0.1312668E+00
        -11   -1    0    0    0    0  0.00000000000E+00  0.00000000000E+00  0.45593999997E+02  0.45594000000E+02  0.51100000000E-03 0.  1.
         11   -1    0    0    0    0 -0.00000000000E+00 -0.00000000000E+00 -0.45593999997E+02  0.45594000000E+02  0.51100000000E-03 0. -1.
    9900012    2    1    2    0    0  0.96822739816E+01  0.35251347268E+02  0.23392723674E+02  0.47787269193E+02  0.19999991559E+02 0.  0.
         12    1    1    2    0    0 -0.96822739816E+01 -0.35251347268E+02 -0.23392723674E+02  0.43400730807E+02  0.00000000000E+00 0. -1.
         11    1    3    3    0    0  0.70954320865E+01  0.53749461669E+01  0.48990100615E+01  0.10160487323E+02  0.51100000000E-03 0. -1.
        -11    1    3    3    0    0  0.79467935738E+01  0.18205639593E+02  0.12345769301E+02  0.23388348830E+02  0.51100000000E-03 0.  1.
         12    1    3    3    0    0 -0.53599516787E+01  0.11670761509E+02  0.61479443111E+01  0.14238433040E+02  0.00000000000E+00 0. -1.
</event>
<event>
 7    1  0.2600168E-009  0.4778727E+02  0.7816164E-02  0.1312668E+00
        -11   -1    0    0    0    0  0.00000000000E+00  0.00000000000E+00  0.45593999997E+02  0.45594000000E+02  0.51100000000E-03 0.  1.
         11   -1    0    0    0    0 -0.00000000000E+00 -0.00000000000E+00 -0.45593999997E+02  0.45594000000E+02  0.51100000000E-03 0. -1.
    9900012    2    1    2    0    0  0.33502297343E+02  0.68138970302E+00  0.27581792605E+02  0.47787268411E+02  0.19999987991E+02 0.  0.
         12    1    1    2    0    0 -0.33502297343E+02 -0.68138970302E+00 -0.27581792605E+02  0.43400731589E+02  0.00000000000E+00 0. -1.
         11    1    3    3    0    0  0.34181590276E+01 -0.38610890623E+00  0.73176689783E+01  0.80858624007E+01  0.51100000000E-03 0. -1.
        -11    1    3    3    0    0  0.17093786115E+02 -0.47322767784E+01  0.18046165817E+02  0.25303281768E+02  0.51100000000E-03 0.  1.
         12    1    3    3    0    0  0.12990352201E+02  0.57997753877E+01  0.22179578092E+01  0.14398124242E+02  0.00000000000E+00 0. -1.
</event>
<event>
 7    1  0.2492468E-009  0.4778727E+02  0.7816164E-02  0.1312668E+00
        -11   -1    0    0    0    0  0.00000000000E+00  0.00000000000E+00  0.45593999997E+02  0.45594000000E+02  0.51100000000E-03 0. -1.
         11   -1    0    0    0    0 -0.00000000000E+00 -0.00000000000E+00 -0.45593999997E+02  0.45594000000E+02  0.51100000000E-03 0.  1.
    9900012    2    1    2    0    0  0.33784706940E+02 -0.50427402463E+01 -0.26772886351E+02  0.47787273096E+02  0.20000009355E+02 0.  0.
         12    1    1    2    0    0 -0.33784706940E+02  0.50427402463E+01  0.26772886351E+02  0.43400726904E+02  0.00000000000E+00 0. -1.
         11    1    3    3    0    0  0.66942713530E+00 -0.22589666715E+01 -0.23194978118E+01  0.33062264702E+01  0.51100000000E-03 0. -1.
        -11    1    3    3    0    0  0.14962686455E+02  0.70155247131E+01 -0.10650341625E+02  0.19660349691E+02  0.51100000000E-03 0.  1.
        -12    1    3    3    0    0  0.18152593349E+02 -0.97992982879E+01 -0.13803046914E+02  0.24820696935E+02  0.00000000000E+00 0.  1.
</event>
<event>
 7    1  0.2492468E-009  0.4778727E+02  0.7816164E-02  0.1312668E+00
        -11   -1    0    0    0    0  0.00000000000E+00  0.00000000000E+00  0.45593999997E+02  0.45594000000E+02  0.51100000000E-03 0. -1.
         11   -1    0    0    0    0 -0.00000000000E+00 -0.00000000000E+00 -0.45593999997E+02  0.45594000000E+02  0.51100000000E-03 0.  1.
    9900012    2    1    2    0    0  0.10103708646E+02 -0.14720835361E+02 -0.39558000772E+02  0.47787270200E+02  0.19999996151E+02 0.  0.
         12    1    1    2    0    0 -0.10103708646E+02  0.14720835361E+02  0.39558000772E+02  0.43400729800E+02  0.00000000000E+00 0. -1.
         11    1    3    3    0    0 -0.10507739058E+01  0.26089426850E+01 -0.58970215632E+01  0.65334195727E+01  0.51100000000E-03 0. -1.
        -11    1    3    3    0    0 -0.25973882174E+01 -0.29616835168E+01 -0.62448824169E+01  0.73835324518E+01  0.51100000000E-03 0.  1.
        -12    1    3    3    0    0  0.13751870769E+02 -0.14368094529E+02 -0.27416096791E+02  0.33870318176E+02  0.00000000000E+00 0.  1.
</event>
<event>
 7    1  0.3134276E-009  0.4778727E+02  0.7816164E-02  0.1312668E+00
        -11   -1    0    0    0    0  0.00000000000E+00  0.00000000000E+00  0.45593999997E+02  0.45594000000E+02  0.51100000000E-03 0. -1.
         11   -1    0    0    0    0 -0.00000000000E+00 -0.00000000000E+00 -0.45593999997E+02  0.45594000000E+02  0.51100000000E-03 0.  1.
    9900012    2    1    2    0    0 -0.89806230498E+01 -0.36619446057E+02 -0.21493901266E+02  0.47787271763E+02  0.20000003276E+02 0.  0.
         12    1    1    2    0    0  0.89806230498E+01  0.36619446057E+02  0.21493901266E+02  0.43400728237E+02  0.00000000000E+00 0. -1.
         11    1    3    3    0    0  0.11469281109E+01 -0.13833741683E+02 -0.36334201925E+01  0.14348853460E+02  0.51100000000E-03 0. -1.
        -11    1    3    3    0    0 -0.20113771575E+01 -0.19257649354E+02 -0.13226806367E+02  0.23448904103E+02  0.51100000000E-03 0.  1.
         12    1    3    3    0    0 -0.81161740031E+01 -0.35280550201E+01 -0.46336747070E+01  0.99895142006E+01  0.00000000000E+00 0. -1.
</event>
<event>
 7    1  0.2492468E-009  0.4778727E+02  0.7816164E-02  0.1312668E+00
        -11   -1    0    0    0    0  0.00000000000E+00  0.00000000000E+00  0.45593999997E+02  0.45594000000E+02  0.51100000000E-03 0.  1.
         11   -1    0    0    0    0 -0.00000000000E+00 -0.00000000000E+00 -0.45593999997E+02  0.45594000000E+02  0.51100000000E-03 0. -1.
    9900012    2    1    2    0    0 -0.34900123122E+02  0.25463267569E+02  0.41505116335E+01  0.47787270328E+02  0.19999996734E+02 0.  0.
         12    1    1    2    0    0  0.34900123122E+02 -0.25463267569E+02 -0.41505116335E+01  0.43400729672E+02  0.00000000000E+00 0. -1.
         11    1    3    3    0    0 -0.51158235069E+01  0.10961412743E+02  0.40013303608E+01  0.12741069986E+02  0.51100000000E-03 0. -1.
        -11    1    3    3    0    0 -0.12154623920E+02  0.11450900981E+02 -0.27411274004E+01  0.16922523323E+02  0.51100000000E-03 0.  1.
         12    1    3    3    0    0 -0.17629675695E+02  0.30509538448E+01  0.28903086731E+01  0.18123677019E+02  0.00000000000E+00 0. -1.
</event>
<event>
 7    1  0.2492468E-009  0.4778728E+02  0.7816164E-02  0.1312668E+00
        -11   -1    0    0    0    0  0.00000000000E+00  0.00000000000E+00  0.45593999997E+02  0.45594000000E+02  0.51100000000E-03 0.  1.
         11   -1    0    0    0    0 -0.00000000000E+00 -0.00000000000E+00 -0.45593999997E+02  0.45594000000E+02  0.51100000000E-03 0. -1.
    9900012    2    1    2    0    0  0.98490702160E+01 -0.28431069070E+02  0.31277674021E+02  0.47787276910E+02  0.20000026744E+02 0.  0.
         12    1    1    2    0    0 -0.98490702160E+01  0.28431069070E+02 -0.31277674021E+02  0.43400723090E+02  0.00000000000E+00 0. -1.
         11    1    3    3    0    0 -0.63695808918E+00 -0.77201237646E+01  0.14148655347E+02  0.16130420792E+02  0.51100000000E-03 0. -1.
        -11    1    3    3    0    0  0.99223749211E+01 -0.15336556997E+02  0.18586430775E+02  0.26059910089E+02  0.51100000000E-03 0.  1.
         12    1    3    3    0    0  0.56365338403E+00 -0.53743883078E+01 -0.14574121010E+01  0.55969460291E+01  0.00000000000E+00 0. -1.
</event>
<event>
 7    1  0.2492468E-009  0.4778727E+02  0.7816164E-02  0.1312668E+00
        -11   -1    0    0    0    0  0.00000000000E+00  0.00000000000E+00  0.45593999997E+02  0.45594000000E+02  0.51100000000E-03 0. -1.
         11   -1    0    0    0    0 -0.00000000000E+00 -0.00000000000E+00 -0.45593999997E+02  0.45594000000E+02  0.51100000000E-03 0.  1.
    9900012    2    1    2    0    0  0.28776437998E+02  0.26633023755E+02 -0.18607039100E+02  0.47787271408E+02  0.20000001658E+02 0.  0.
         12    1    1    2    0    0 -0.28776437998E+02 -0.26633023755E+02  0.18607039100E+02  0.43400728592E+02  0.00000000000E+00 0. -1.
         11    1    3    3    0    0  0.48957726657E+00  0.14457704218E+01 -0.14405718015E-01  0.15264815093E+01  0.51100000000E-03 0.  1.
        -11    1    3    3    0    0  0.29773979057E+02  0.22199173542E+02 -0.20495430220E+02  0.42418814163E+02  0.51100000000E-03 0. -1.
         12    1    3    3    0    0 -0.14871183247E+01  0.29880797912E+01  0.19027968377E+01  0.38419757360E+01  0.00000000000E+00 0. -1.
</event>
<event>
 7    1  0.2492468E-009  0.4778724E+02  0.7816164E-02  0.1312668E+00
        -11   -1    0    0    0    0  0.00000000000E+00  0.00000000000E+00  0.45593999997E+02  0.45594000000E+02  0.51100000000E-03 0.  1.
         11   -1    0    0    0    0 -0.00000000000E+00 -0.00000000000E+00 -0.45593999997E+02  0.45594000000E+02  0.51100000000E-03 0. -1.
    9900012    2    1    2    0    0  0.19316828042E+02  0.38235392587E+02  0.69671098675E+01  0.47787242959E+02  0.19999871946E+02 0.  0.
         12    1    1    2    0    0 -0.19316828042E+02 -0.38235392587E+02 -0.69671098675E+01  0.43400757041E+02  0.00000000000E+00 0. -1.
         11    1    3    3    0    0  0.16403242917E+01  0.83456849686E+01 -0.31229509745E+01  0.90605708665E+01  0.51100000000E-03 0. -1.
        -11    1    3    3    0    0  0.15347284798E+02  0.14246274728E+02  0.22104552439E+01  0.21056628575E+02  0.51100000000E-03 0.  1.
         12    1    3    3    0    0  0.23292189518E+01  0.15643432890E+02  0.78796055981E+01  0.17670043517E+02  0.00000000000E+00 0. -1.
</event>
<event>
 7    1  0.2492468E-009  0.4778727E+02  0.7816164E-02  0.1312668E+00
        -11   -1    0    0    0    0  0.00000000000E+00  0.00000000000E+00  0.45593999997E+02  0.45594000000E+02  0.51100000000E-03 0.  1.
         11   -1    0    0    0    0 -0.00000000000E+00 -0.00000000000E+00 -0.45593999997E+02  0.45594000000E+02  0.51100000000E-03 0. -1.
    9900012    2    1    2    0    0 -0.18748009010E+02 -0.18574027949E+01  0.39098407061E+02  0.47787271646E+02  0.20000002742E+02 0.  0.
         12    1    1    2    0    0  0.18748009010E+02  0.18574027949E+01 -0.39098407061E+02  0.43400728354E+02  0.00000000000E+00 0. -1.
         11    1    3    3    0    0 -0.71510750631E+01  0.82465348911E+01  0.10263504732E+02  0.14982748143E+02  0.51100000000E-03 0. -1.
        -11    1    3    3    0    0 -0.36646762975E+01 -0.15568833123E+01  0.73353368990E+01  0.83463109034E+01  0.51100000000E-03 0.  1.
        -12    1    3    3    0    0 -0.79322576498E+01 -0.85470543737E+01  0.21499565430E+02  0.24458212600E+02  0.00000000000E+00 0.  1.
</event>
<event>
 7    1  0.2492468E-009  0.4778729E+02  0.7816164E-02  0.1312668E+00
        -11   -1    0    0    0    0  0.00000000000E+00  0.00000000000E+00  0.45593999997E+02  0.45594000000E+02  0.51100000000E-03 0.  1.
         11   -1    0    0    0    0 -0.00000000000E+00 -0.00000000000E+00 -0.45593999997E+02  0.45594000000E+02  0.51100000000E-03 0. -1.
    9900012    2    1    2    0    0 -0.34574509874E+02 -0.12312866724E+02  0.23165026125E+02  0.47787287387E+02  0.20000074510E+02 0.  0.
         12    1    1    2    0    0  0.34574509874E+02  0.12312866724E+02 -0.23165026125E+02  0.43400712613E+02  0.00000000000E+00 0. -1.
         11    1    3    3    0    0  0.66964297045E+00 -0.33770345850E+00  0.73534395684E+00  0.10503315333E+01  0.51100000000E-03 0. -1.
        -11    1    3    3    0    0 -0.34374825885E+01  0.70827978530E+00  0.95125023520E+01  0.10139312011E+02  0.51100000000E-03 0.  1.
        -12    1    3    3    0    0 -0.31806670256E+02 -0.12683443051E+02  0.12917179816E+02  0.36597643842E+02  0.00000000000E+00 0.  1.
</event>
<event>
 7    1  0.2492468E-009  0.4778727E+02  0.7816164E-02  0.1312668E+00
        -11   -1    0    0    0    0  0.00000000000E+00  0.00000000000E+00  0.45593999997E+02  0.45594000000E+02  0.51100000000E-03 0.  1.
         11   -1    0    0    0    0 -0.00000000000E+00 -0.00000000000E+00 -0.45593999997E+02  0.45594000000E+02  0.51100000000E-03 0. -1.
    9900012    2    1    2    0    0 -0.69081203303E+01  0.32299344336E+02  0.28154100934E+02  0.47787272236E+02  0.20000005435E+02 0.  0.
         12    1    1    2    0    0  0.69081203303E+01 -0.32299344336E+02 -0.28154100934E+02  0.43400727764E+02  0.00000000000E+00 0. -1.
         11    1    3    3    0    0 -0.83488967050E+01  0.14498556454E+02  0.80347042894E+01  0.18559867692E+02  0.51100000000E-03 0. -1.
        -11    1    3    3    0    0  0.39851569301E+01  0.91958748830E+01  0.40244240612E+01  0.10800073144E+02  0.51100000000E-03 0.  1.
        -12    1    3    3    0    0 -0.25443805555E+01  0.86049129984E+01  0.16094972583E+02  0.18427331401E+02  0.00000000000E+00 0.  1.
</event>
<event>
 7    1  0.2492468E-009  0.4778727E+02  0.7816164E-02  0.1312668E+00
        -11   -1    0    0    0    0  0.00000000000E+00  0.00000000000E+00  0.45593999997E+02  0.45594000000E+02  0.51100000000E-03 0. -1.
         11   -1    0    0    0    0 -0.00000000000E+00 -0.00000000000E+00 -0.45593999997E+02  0.45594000000E+02  0.51100000000E-03 0.  1.
    9900012    2    1    2    0    0  0.14875350680E+02  0.32735271750E+02 -0.24305336317E+02  0.47787269040E+02  0.19999990859E+02 0.  0.
         12    1    1    2    0    0 -0.14875350680E+02 -0.32735271750E+02  0.24305336317E+02  0.43400730960E+02  0.00000000000E+00 0. -1.
         11    1    3    3    0    0  0.17994670400E+01 -0.52664173611E+00 -0.73816559152E+00  0.20150240316E+01  0.51100000000E-03 0. -1.
        -11    1    3    3    0    0  0.10104510457E+02  0.24090221629E+02 -0.77508282724E+01  0.27249132993E+02  0.51100000000E-03 0.  1.
        -12    1    3    3    0    0  0.29713731823E+01  0.91716918574E+01 -0.15816342453E+02  0.18523112015E+02  0.00000000000E+00 0.  1.
</event>
<event>
 7    1  0.2492468E-009  0.4778726E+02  0.7816164E-02  0.1312668E+00
        -11   -1    0    0    0    0  0.00000000000E+00  0.00000000000E+00  0.45593999997E+02  0.45594000000E+02  0.51100000000E-03 0.  1.
         11   -1    0    0    0    0 -0.00000000000E+00 -0.00000000000E+00 -0.45593999997E+02  0.45594000000E+02  0.51100000000E-03 0. -1.
    9900012    2    1    2    0    0 -0.26706250148E+02  0.30001519687E+02  0.16441072372E+02  0.47787264508E+02  0.19999970199E+02 0.  0.
         12    1    1    2    0    0  0.26706250148E+02 -0.30001519687E+02 -0.16441072372E+02  0.43400735492E+02  0.00000000000E+00 0. -1.
         11    1    3    3    0    0 -0.92235796830E+01  0.16316693264E+02  0.37079394851E+01  0.19106483631E+02  0.51100000000E-03 0. -1.
        -11    1    3    3    0    0 -0.11018834511E+02  0.14275265003E+02  0.52648291839E+01  0.18786067483E+02  0.51100000000E-03 0.  1.
         12    1    3    3    0    0 -0.64638359537E+01 -0.59043858025E+00  0.74683037028E+01  0.98947133940E+01  0.00000000000E+00 0. -1.
</event>
<event>
 7    1  0.2492468E-009  0.4778727E+02  0.7816164E-02  0.1312668E+00
        -11   -1    0    0    0    0  0.00000000000E+00  0.00000000000E+00  0.45593999997E+02  0.45594000000E+02  0.51100000000E-03 0.  1.
         11   -1    0    0    0    0 -0.00000000000E+00 -0.00000000000E+00 -0.45593999997E+02  0.45594000000E+02  0.51100000000E-03 0. -1.
    9900012    2    1    2    0    0 -0.21169420796E+02  0.33035472313E+02  0.18550914976E+02  0.47787271271E+02  0.20000001034E+02 0.  0.
         12    1    1    2    0    0  0.21169420796E+02 -0.33035472313E+02 -0.18550914976E+02  0.43400728729E+02  0.00000000000E+00 0. -1.
         11    1    3    3    0    0  0.44100469054E+00  0.15718602487E+02  0.45937772538E+01  0.16382055396E+02  0.51100000000E-03 0. -1.
        -11    1    3    3    0    0  0.10881223855E+00  0.47228434990E+00  0.79365708064E+00  0.92993786523E+00  0.51100000000E-03 0.  1.
        -12    1    3    3    0    0 -0.21719237725E+02  0.16844585476E+02  0.13163480641E+02  0.30475278010E+02  0.00000000000E+00 0.  1.
</event>
<event>
 7    1  0.2492468E-009  0.4778727E+02  0.7816164E-02  0.1312668E+00
        -11   -1    0    0    0    0  0.00000000000E+00  0.00000000000E+00  0.45593999997E+02  0.45594000000E+02  0.51100000000E-03 0.  1.
         11   -1    0    0    0    0 -0.00000000000E+00 -0.00000000000E+00 -0.45593999997E+02  0.45594000000E+02  0.51100000000E-03 0. -1.
    9900012    2    1    2    0    0  0.19339309193E+01  0.38571249847E+02  0.19802574255E+02  0.47787270160E+02  0.19999995968E+02 0.  0.
         12    1    1    2    0    0 -0.19339309193E+01 -0.38571249847E+02 -0.19802574255E+02  0.43400729840E+02  0.00000000000E+00 0. -1.
         11    1    3    3    0    0  0.39236646765E+00  0.78057089393E+00 -0.27063933814E+00  0.91459733099E+00  0.51100000000E-03 0. -1.
        -11    1    3    3    0    0  0.62806059770E+01  0.31854332700E+02  0.21768538263E+02  0.39089816852E+02  0.51100000000E-03 0.  1.
        -12    1    3    3    0    0 -0.47390415253E+01  0.59363462531E+01 -0.16953246707E+01  0.77828559767E+01  0.00000000000E+00 0.  1.
</event>
<event>
 7    1  0.2492468E-009  0.4778727E+02  0.7816164E-02  0.1312668E+00
        -11   -1    0    0    0    0  0.00000000000E+00  0.00000000000E+00  0.45593999997E+02  0.45594000000E+02  0.51100000000E-03 0.  1.
         11   -1    0    0    0    0 -0.00000000000E+00 -0.00000000000E+00 -0.45593999997E+02  0.45594000000E+02  0.51100000000E-03 0. -1.
    9900012    2    1    2    0    0  0.28410045026E+02  0.93858033661E+01  0.31438820734E+02  0.47787269449E+02  0.19999992726E+02 0.  0.
         12    1    1    2    0    0 -0.28410045026E+02 -0.93858033661E+01 -0.31438820734E+02  0.43400730551E+02  0.00000000000E+00 0. -1.
         11    1    3    3    0    0 -0.12651348555E+00 -0.22515713395E+01  0.41203179551E+01  0.46970841457E+01  0.51100000000E-03 0. -1.
        -11    1    3    3    0    0  0.16381268155E+01  0.28377005511E+01 -0.60547976668E+00  0.33320579062E+01  0.51100000000E-03 0.  1.
        -12    1    3    3    0    0  0.26898431696E+02  0.87996741546E+01  0.27923982546E+02  0.39758127397E+02  0.00000000000E+00 0.  1.
</event>
<event>
 7    1  0.2492468E-009  0.4778727E+02  0.7816164E-02  0.1312668E+00
        -11   -1    0    0    0    0  0.00000000000E+00  0.00000000000E+00  0.45593999997E+02  0.45594000000E+02  0.51100000000E-03 0. -1.
         11   -1    0    0    0    0 -0.00000000000E+00 -0.00000000000E+00 -0.45593999997E+02  0.45594000000E+02  0.51100000000E-03 0.  1.
    9900012    2    1    2    0    0 -0.29434248377E+01 -0.14382376889E+02 -0.40842459012E+02  0.47787274512E+02  0.20000015809E+02 0.  0.
         12    1    1    2    0    0  0.29434248377E+01  0.14382376889E+02  0.40842459012E+02  0.43400725488E+02  0.00000000000E+00 0. -1.
         11    1    3    3    0    0  0.35416536945E+01  0.74077012123E+00 -0.37109426846E+01  0.51829670203E+01  0.51100000000E-03 0. -1.
        -11    1    3    3    0    0 -0.26557178407E+00 -0.24642570632E+01 -0.21126789504E+02  0.21271678972E+02  0.51100000000E-03 0.  1.
         12    1    3    3    0    0 -0.62195067481E+01 -0.12658889947E+02 -0.16004726823E+02  0.21332628520E+02  0.00000000000E+00 0. -1.
</event>
<event>
 7    1  0.2492468E-009  0.4778727E+02  0.7816164E-02  0.1312668E+00
        -11   -1    0    0    0    0  0.00000000000E+00  0.00000000000E+00  0.45593999997E+02  0.45594000000E+02  0.51100000000E-03 0.  1.
         11   -1    0    0    0    0 -0.00000000000E+00 -0.00000000000E+00 -0.45593999997E+02  0.45594000000E+02  0.51100000000E-03 0. -1.
    9900012    2    1    2    0    0 -0.66767155622E+01  0.73237451693E+01  0.42254080092E+02  0.47787273527E+02  0.20000011317E+02 0.  0.
         12    1    1    2    0    0  0.66767155622E+01 -0.73237451693E+01 -0.42254080092E+02  0.43400726473E+02  0.00000000000E+00 0. -1.
         11    1    3    3    0    0  0.20897010790E+01 -0.90168057020E+00  0.30363847474E+01  0.37946687662E+01  0.51100000000E-03 0. -1.
        -11    1    3    3    0    0 -0.32923398784E+01 -0.31431231642E+01  0.25560043913E+01  0.52203336875E+01  0.51100000000E-03 0.  1.
        -12    1    3    3    0    0 -0.54740767628E+01  0.11368548904E+02  0.36661690953E+02  0.38772271073E+02  0.00000000000E+00 0.  1.
</event>
<event>
 7    1  0.2492468E-009  0.4778728E+02  0.7816164E-02  0.1312668E+00
        -11   -1    0    0    0    0  0.00000000000E+00  0.00000000000E+00  0.45593999997E+02  0.45594000000E+02  0.51100000000E-03 0.  1.
         11   -1    0    0    0    0 -0.00000000000E+00 -0.00000000000E+00 -0.45593999997E+02  0.45594000000E+02  0.51100000000E-03 0. -1.
    9900012    2    1    2    0    0 -0.45219655512E+01 -0.37133192623E+02 -0.22006831369E+02  0.47787276576E+02  0.20000025221E+02 0.  0.
         12    1    1    2    0    0  0.45219655512E+01  0.37133192623E+02  0.22006831369E+02  0.43400723424E+02  0.00000000000E+00 0. -1.
         11    1    3    3    0    0  0.18123070060E+01  0.66402881104E-01 -0.25691965850E+01  0.31447793850E+01  0.51100000000E-03 0. -1.
        -11    1    3    3    0    0  0.22670170486E+01 -0.22664041801E+01  0.88135544898E+00  0.33245664220E+01  0.51100000000E-03 0.  1.
         12    1    3    3    0    0 -0.86012896058E+01 -0.34933191324E+02 -0.20318990233E+02  0.41317930769E+02  0.00000000000E+00 0. -1.
</event>
<event>
 7    1  0.2492468E-009  0.4778729E+02  0.7816164E-02  0.1312668E+00
        -11   -1    0    0    0    0  0.00000000000E+00  0.00000000000E+00  0.45593999997E+02  0.45594000000E+02  0.51100000000E-03 0. -1.
         11   -1    0    0    0    0 -0.00000000000E+00 -0.00000000000E+00 -0.45593999997E+02  0.45594000000E+02  0.51100000000E-03 0.  1.
    9900012    2    1    2    0    0 -0.36532043400E+02 -0.12357847336E+02  0.19907672678E+02  0.47787285521E+02  0.20000066006E+02 0.  0.
         12    1    1    2    0    0  0.36532043400E+02  0.12357847336E+02 -0.19907672678E+02  0.43400714479E+02  0.00000000000E+00 0. -1.
         11    1    3    3    0    0 -0.21206842529E+01  0.12903816241E+01  0.44336972805E+00  0.25216985175E+01  0.51100000000E-03 0. -1.
        -11    1    3    3    0    0 -0.30628344154E+02 -0.46892707835E+01  0.13083703132E+02  0.33634327911E+02  0.51100000000E-03 0.  1.
         12    1    3    3    0    0 -0.37830149936E+01 -0.89589581770E+01  0.63805998180E+01  0.11631259093E+02  0.00000000000E+00 0. -1.
</event>
<event>
 7    1  0.2492468E-009  0.4778727E+02  0.7816164E-02  0.1312668E+00
        -11   -1    0    0    0    0  0.00000000000E+00  0.00000000000E+00  0.45593999997E+02  0.45594000000E+02  0.51100000000E-03 0.  1.
         11   -1    0    0    0    0 -0.00000000000E+00 -0.00000000000E+00 -0.45593999997E+02  0.45594000000E+02  0.51100000000E-03 0. -1.
    9900012    2    1    2    0    0 -0.16991401425E+02 -0.20557268579E+02  0.34239074571E+02  0.47787271420E+02  0.20000001711E+02 0.  0.
         12    1    1    2    0    0  0.16991401425E+02  0.20557268579E+02 -0.34239074571E+02  0.43400728580E+02  0.00000000000E+00 0. -1.
         11    1    3    3    0    0 -0.52031765605E+01 -0.13980134508E+02  0.20875172143E+02  0.25657163121E+02  0.51100000000E-03 0. -1.
        -11    1    3    3    0    0 -0.11819259421E+02 -0.59716790743E+01  0.15221855983E+02  0.20175746431E+02  0.51100000000E-03 0.  1.
         12    1    3    3    0    0  0.31034556814E-01 -0.60545499678E+00 -0.18579535546E+01  0.19543618672E+01  0.00000000000E+00 0. -1.
</event>
<event>
 7    1  0.2492468E-009  0.4778729E+02  0.7816164E-02  0.1312668E+00
        -11   -1    0    0    0    0  0.00000000000E+00  0.00000000000E+00  0.45593999997E+02  0.45594000000E+02  0.51100000000E-03 0.  1.
         11   -1    0    0    0    0 -0.00000000000E+00 -0.00000000000E+00 -0.45593999997E+02  0.45594000000E+02  0.51100000000E-03 0. -1.
    9900012    2    1    2    0    0  0.11666148949E+02 -0.24976938984E+02  0.33521267702E+02  0.47787286865E+02  0.20000072131E+02 0.  0.
         12    1    1    2    0    0 -0.11666148949E+02  0.24976938984E+02 -0.33521267702E+02  0.43400713135E+02  0.00000000000E+00 0. -1.
         11    1    3    3    0    0  0.85458049633E+01 -0.38533642226E+01  0.40129409114E+01  0.10197200269E+02  0.51100000000E-03 0. -1.
        -11    1    3    3    0    0  0.13605127829E+01 -0.63548835873E+00 -0.14039371405E+00  0.15081615108E+01  0.51100000000E-03 0.  1.
        -12    1    3    3    0    0  0.17598312032E+01 -0.20488086403E+02  0.29648720504E+02  0.36081925085E+02  0.00000000000E+00 0.  1.
</event>
<event>
 7    1  0.2492468E-009  0.4778727E+02  0.7816164E-02  0.1312668E+00
        -11   -1    0    0    0    0  0.00000000000E+00  0.00000000000E+00  0.45593999997E+02  0.45594000000E+02  0.51100000000E-03 0.  1.
         11   -1    0    0    0    0 -0.00000000000E+00 -0.00000000000E+00 -0.45593999997E+02  0.45594000000E+02  0.51100000000E-03 0. -1.
    9900012    2    1    2    0    0  0.25127133333E+02 -0.29064251262E+02  0.20187128109E+02  0.47787266455E+02  0.19999979075E+02 0.  0.
         12    1    1    2    0    0 -0.25127133333E+02  0.29064251262E+02 -0.20187128109E+02  0.43400733545E+02  0.00000000000E+00 0. -1.
         11    1    3    3    0    0 -0.65755479171E+00 -0.79248258240E+01  0.26535414769E+01  0.83831095231E+01  0.51100000000E-03 0. -1.
        -11    1    3    3    0    0  0.10642448872E+02 -0.15394165718E+02  0.12254488487E+02  0.22369947351E+02  0.51100000000E-03 0.  1.
        -12    1    3    3    0    0  0.15142239252E+02 -0.57452597200E+01  0.52790981458E+01  0.17034209581E+02  0.00000000000E+00 0.  1.
</event>
<event>
 7    1  0.2492468E-009  0.4778727E+02  0.7816164E-02  0.1312668E+00
        -11   -1    0    0    0    0  0.00000000000E+00  0.00000000000E+00  0.45593999997E+02  0.45594000000E+02  0.51100000000E-03 0.  1.
         11   -1    0    0    0    0 -0.00000000000E+00 -0.00000000000E+00 -0.45593999997E+02  0.45594000000E+02  0.51100000000E-03 0. -1.
    9900012    2    1    2    0    0  0.40810757905E+02 -0.69940562748E+01  0.13007241157E+02  0.47787272973E+02  0.20000008791E+02 0.  0.
         12    1    1    2    0    0 -0.40810757905E+02  0.69940562748E+01 -0.13007241157E+02  0.43400727027E+02  0.00000000000E+00 0. -1.
         11    1    3    3    0    0  0.62125206870E+01 -0.32178093720E+01  0.27349451783E+01  0.75119661761E+01  0.51100000000E-03 0. -1.
        -11    1    3    3    0    0  0.17952314785E+02 -0.36444973879E+01  0.14192901899E+02  0.23173399231E+02  0.51100000000E-03 0.  1.
         12    1    3    3    0    0  0.16645922434E+02 -0.13174951482E+00 -0.39206059201E+01  0.17101907566E+02  0.00000000000E+00 0. -1.
</event>
<event>
 7    1  0.2492468E-009  0.4778728E+02  0.7816164E-02  0.1312668E+00
        -11   -1    0    0    0    0  0.00000000000E+00  0.00000000000E+00  0.45593999997E+02  0.45594000000E+02  0.51100000000E-03 0.  1.
         11   -1    0    0    0    0 -0.00000000000E+00 -0.00000000000E+00 -0.45593999997E+02  0.45594000000E+02  0.51100000000E-03 0. -1.
    9900012    2    1    2    0    0  0.10839094699E+01  0.11330132741E+02  0.41881689918E+02  0.47787277447E+02  0.20000029194E+02 0.  0.
         12    1    1    2    0    0 -0.10839094699E+01 -0.11330132741E+02 -0.41881689918E+02  0.43400722553E+02  0.00000000000E+00 0. -1.
         11    1    3    3    0    0  0.57574055520E+00 -0.60515156777E+00 -0.12673314352E+01  0.15178322815E+01  0.51100000000E-03 0. -1.
        -11    1    3    3    0    0 -0.41275499664E+01  0.96506022435E+00  0.17253426791E+02  0.17766506304E+02  0.51100000000E-03 0.  1.
         12    1    3    3    0    0  0.46357188811E+01  0.10970224084E+02  0.25895594563E+02  0.28502938862E+02  0.00000000000E+00 0. -1.
</event>
<event>
 7    1  0.2492468E-009  0.4778727E+02  0.7816164E-02  0.1312668E+00
        -11   -1    0    0    0    0  0.00000000000E+00  0.00000000000E+00  0.45593999997E+02  0.45594000000E+02  0.51100000000E-03 0.  1.
         11   -1    0    0    0    0 -0.00000000000E+00 -0.00000000000E+00 -0.45593999997E+02  0.45594000000E+02  0.51100000000E-03 0. -1.
    9900012    2    1    2    0    0 -0.42675693741E+02 -0.70922496745E+01 -0.34796754032E+01  0.47787274399E+02  0.20000015297E+02 0.  0.
         12    1    1    2    0    0  0.42675693741E+02  0.70922496745E+01  0.34796754032E+01  0.43400725601E+02  0.00000000000E+00 0. -1.
         11    1    3    3    0    0 -0.41481283389E+01 -0.28596528114E+01  0.11193985080E+01  0.51611661665E+01  0.51100000000E-03 0. -1.
        -11    1    3    3    0    0 -0.23958415046E+02 -0.59164206185E+01 -0.10497840573E+02  0.26818171850E+02  0.51100000000E-03 0.  1.
         12    1    3    3    0    0 -0.14569150356E+02  0.16838237554E+01  0.58987666616E+01  0.15807936383E+02  0.00000000000E+00 0. -1.
</event>
<event>
 7    1  0.2492468E-009  0.4778727E+02  0.7816164E-02  0.1312668E+00
        -11   -1    0    0    0    0  0.00000000000E+00  0.00000000000E+00  0.45593999997E+02  0.45594000000E+02  0.51100000000E-03 0.  1.
         11   -1    0    0    0    0 -0.00000000000E+00 -0.00000000000E+00 -0.45593999997E+02  0.45594000000E+02  0.51100000000E-03 0. -1.
    9900012    2    1    2    0    0  0.14633218696E+02  0.39225273695E+02  0.11439851719E+02  0.47787269669E+02  0.19999993730E+02 0.  0.
         12    1    1    2    0    0 -0.14633218696E+02 -0.39225273695E+02 -0.11439851719E+02  0.43400730331E+02  0.00000000000E+00 0. -1.
         11    1    3    3    0    0  0.10892705866E-01  0.72994414513E+01 -0.28553219219E+01  0.78380372346E+01  0.51100000000E-03 0. -1.
        -11    1    3    3    0    0  0.39423057713E+01  0.34938966570E+00  0.12014059893E+01  0.41360880727E+01  0.51100000000E-03 0.  1.
        -12    1    3    3    0    0  0.10680020219E+02  0.31576442578E+02  0.13093767652E+02  0.35813144362E+02  0.00000000000E+00 0.  1.
</event>
<event>
 7    1  0.2492468E-009  0.4778727E+02  0.7816164E-02  0.1312668E+00
        -11   -1    0    0    0    0  0.00000000000E+00  0.00000000000E+00  0.45593999997E+02  0.45594000000E+02  0.51100000000E-03 0. -1.
         11   -1    0    0    0    0 -0.00000000000E+00 -0.00000000000E+00 -0.45593999997E+02  0.45594000000E+02  0.51100000000E-03 0.  1.
    9900012    2    1    2    0    0 -0.56574817721E+01  0.43020523606E+02  0.92236970038E+00  0.47787270545E+02  0.19999997724E+02 0.  0.
         12    1    1    2    0    0  0.56574817721E+01 -0.43020523606E+02 -0.92236970038E+00  0.43400729455E+02  0.00000000000E+00 0. -1.
         11    1    3    3    0    0 -0.20231339996E+01  0.18725326307E+02  0.26157587853E+01  0.19015075881E+02  0.51100000000E-03 0. -1.
        -11    1    3    3    0    0 -0.64494974253E+01  0.22328183229E+02  0.24737369164E+01  0.23372273273E+02  0.51100000000E-03 0.  1.
         12    1    3    3    0    0  0.28151496528E+01  0.19670140701E+01 -0.41671260013E+01  0.53999213911E+01  0.00000000000E+00 0. -1.
</event>
<event>
 7    1  0.2492468E-009  0.4778727E+02  0.7816164E-02  0.1312668E+00
        -11   -1    0    0    0    0  0.00000000000E+00  0.00000000000E+00  0.45593999997E+02  0.45594000000E+02  0.51100000000E-03 0. -1.
         11   -1    0    0    0    0 -0.00000000000E+00 -0.00000000000E+00 -0.45593999997E+02  0.45594000000E+02  0.51100000000E-03 0.  1.
    9900012    2    1    2    0    0  0.48462264140E+01 -0.35468069666E+02  0.24538813901E+02  0.47787271159E+02  0.20000000521E+02 0.  0.
         12    1    1    2    0    0 -0.48462264140E+01  0.35468069666E+02 -0.24538813901E+02  0.43400728841E+02  0.00000000000E+00 0. -1.
         11    1    3    3    0    0 -0.10780376362E+01 -0.40461144125E+01  0.10523821007E+02  0.11326253389E+02  0.51100000000E-03 0. -1.
        -11    1    3    3    0    0 -0.30601074330E+01 -0.72564306941E+01  0.34847664593E+01  0.86118314810E+01  0.51100000000E-03 0.  1.
         12    1    3    3    0    0  0.89843714832E+01 -0.24165524559E+02  0.10530226435E+02  0.27849186289E+02  0.00000000000E+00 0. -1.
</event>
<event>
 7    1  0.2492468E-009  0.4778727E+02  0.7816164E-02  0.1312668E+00
        -11   -1    0    0    0    0  0.00000000000E+00  0.00000000000E+00  0.45593999997E+02  0.45594000000E+02  0.51100000000E-03 0.  1.
         11   -1    0    0    0    0 -0.00000000000E+00 -0.00000000000E+00 -0.45593999997E+02  0.45594000000E+02  0.51100000000E-03 0. -1.
    9900012    2    1    2    0    0  0.28393010508E+02  0.24150046760E+02  0.22231403949E+02  0.47787272750E+02  0.20000007778E+02 0.  0.
         12    1    1    2    0    0 -0.28393010508E+02 -0.24150046760E+02 -0.22231403949E+02  0.43400727250E+02  0.00000000000E+00 0. -1.
         11    1    3    3    0    0  0.15736057766E+02  0.24918026780E+02  0.13862482209E+02  0.32568389366E+02  0.51100000000E-03 0. -1.
        -11    1    3    3    0    0  0.29334502842E+01  0.13890133012E+00  0.21767203825E+01  0.36554802740E+01  0.51100000000E-03 0.  1.
         12    1    3    3    0    0  0.97235024586E+01 -0.90688135032E+00  0.61922013579E+01  0.11563403111E+02  0.00000000000E+00 0. -1.
</event>
<event>
 7    1  0.2492468E-009  0.4778726E+02  0.7816164E-02  0.1312668E+00
        -11   -1    0    0    0    0  0.00000000000E+00  0.00000000000E+00  0.45593999997E+02  0.45594000000E+02  0.51100000000E-03 0.  1.
         11   -1    0    0    0    0 -0.00000000000E+00 -0.00000000000E+00 -0.45593999997E+02  0.45594000000E+02  0.51100000000E-03 0. -1.
    9900012    2    1    2    0    0 -0.22587027932E+02  0.48977197335E+01  0.36735030860E+02  0.47787262890E+02  0.19999962823E+02 0.  0.
         12    1    1    2    0    0  0.22587027932E+02 -0.48977197335E+01 -0.36735030860E+02  0.43400737110E+02  0.00000000000E+00 0. -1.
         11    1    3    3    0    0 -0.21328737844E+01  0.60350142841E+01  0.11299105202E+02  0.12986159040E+02  0.51100000000E-03 0. -1.
        -11    1    3    3    0    0  0.95644040602E+00  0.12480332381E+01  0.44759159131E+01  0.47440687954E+01  0.51100000000E-03 0.  1.
        -12    1    3    3    0    0 -0.21410594554E+02 -0.23853277887E+01  0.20960009745E+02  0.30057035055E+02  0.00000000000E+00 0.  1.
</event>
<event>
 7    1  0.2492468E-009  0.4778727E+02  0.7816164E-02  0.1312668E+00
        -11   -1    0    0    0    0  0.00000000000E+00  0.00000000000E+00  0.45593999997E+02  0.45594000000E+02  0.51100000000E-03 0.  1.
         11   -1    0    0    0    0 -0.00000000000E+00 -0.00000000000E+00 -0.45593999997E+02  0.45594000000E+02  0.51100000000E-03 0. -1.
    9900012    2    1    2    0    0  0.19341066186E+02 -0.83840537165E+01  0.37937500677E+02  0.47787272407E+02  0.20000006215E+02 0.  0.
         12    1    1    2    0    0 -0.19341066186E+02  0.83840537165E+01 -0.37937500677E+02  0.43400727593E+02  0.00000000000E+00 0. -1.
         11    1    3    3    0    0  0.31078920998E+01 -0.68155127533E+01  0.74657120592E+01  0.10575777239E+02  0.51100000000E-03 0. -1.
        -11    1    3    3    0    0 -0.13423945605E+01 -0.26370726852E+01  0.88234816721E+01  0.93064496228E+01  0.51100000000E-03 0.  1.
         12    1    3    3    0    0  0.17575568646E+02  0.10685317219E+01  0.21648306946E+02  0.27905045546E+02  0.00000000000E+00 0. -1.
</event>
<event>
 7    1  0.2492468E-009  0.4778727E+02  0.7816164E-02  0.1312668E+00
        -11   -1    0    0    0    0  0.00000000000E+00  0.00000000000E+00  0.45593999997E+02  0.45594000000E+02  0.51100000000E-03 0.  1.
         11   -1    0    0    0    0 -0.00000000000E+00 -0.00000000000E+00 -0.45593999997E+02  0.45594000000E+02  0.51100000000E-03 0. -1.
    9900012    2    1    2    0    0 -0.17845199236E+02  0.14102697595E+02  0.36963305331E+02  0.47787272400E+02  0.20000006179E+02 0.  0.
         12    1    1    2    0    0  0.17845199236E+02 -0.14102697595E+02 -0.36963305331E+02  0.43400727600E+02  0.00000000000E+00 0. -1.
         11    1    3    3    0    0 -0.37565985104E+01  0.10540051788E+02  0.12031917429E+02  0.16430817427E+02  0.51100000000E-03 0.  1.
        -11    1    3    3    0    0  0.18062272283E+01 -0.10327492766E+01  0.52313095971E+01  0.56298870530E+01  0.51100000000E-03 0. -1.
         12    1    3    3    0    0 -0.15894827954E+02  0.45953950837E+01  0.19700078305E+02  0.25726567919E+02  0.00000000000E+00 0. -1.
</event>
<event>
 7    1  0.2492468E-009  0.4778727E+02  0.7816164E-02  0.1312668E+00
        -11   -1    0    0    0    0  0.00000000000E+00  0.00000000000E+00  0.45593999997E+02  0.45594000000E+02  0.51100000000E-03 0.  1.
         11   -1    0    0    0    0 -0.00000000000E+00 -0.00000000000E+00 -0.45593999997E+02  0.45594000000E+02  0.51100000000E-03 0. -1.
    9900012    2    1    2    0    0 -0.42399975152E+02 -0.56131861230E+01  0.73727454368E+01  0.47787272741E+02  0.20000007737E+02 0.  0.
         12    1    1    2    0    0  0.42399975152E+02  0.56131861230E+01 -0.73727454368E+01  0.43400727259E+02  0.00000000000E+00 0. -1.
         11    1    3    3    0    0 -0.25436987499E+02 -0.19238503178E+01  0.86165665477E+01  0.26925578033E+02  0.51100000000E-03 0. -1.
        -11    1    3    3    0    0 -0.89121535415E+01 -0.63597378180E+01  0.30348658444E+01  0.11361476877E+02  0.51100000000E-03 0.  1.
         12    1    3    3    0    0 -0.80508341106E+01  0.26704020127E+01 -0.42786869553E+01  0.95002178316E+01  0.00000000000E+00 0. -1.
</event>
<event>
 7    1  0.2492468E-009  0.4778726E+02  0.7816164E-02  0.1312668E+00
        -11   -1    0    0    0    0  0.00000000000E+00  0.00000000000E+00  0.45593999997E+02  0.45594000000E+02  0.51100000000E-03 0.  1.
         11   -1    0    0    0    0 -0.00000000000E+00 -0.00000000000E+00 -0.45593999997E+02  0.45594000000E+02  0.51100000000E-03 0. -1.
    9900012    2    1    2    0    0 -0.25446907066E+01 -0.17381389072E+02  0.39686725536E+02  0.47787258985E+02  0.19999945018E+02 0.  0.
         12    1    1    2    0    0  0.25446907066E+01  0.17381389072E+02 -0.39686725536E+02  0.43400741015E+02  0.00000000000E+00 0. -1.
         11    1    3    3    0    0 -0.28919700164E+00 -0.90436869354E+01  0.75730658785E+01  0.11799289612E+02  0.51100000000E-03 0. -1.
        -11    1    3    3    0    0 -0.67425533184E+01 -0.93237842234E+01  0.24984878656E+02  0.27507074349E+02  0.51100000000E-03 0.  1.
        -12    1    3    3    0    0  0.44870596134E+01  0.98608208639E+00  0.71287810009E+01  0.84808950244E+01  0.00000000000E+00 0.  1.
</event>
<event>
 7    1  0.2492468E-009  0.4778728E+02  0.7816164E-02  0.1312668E+00
        -11   -1    0    0    0    0  0.00000000000E+00  0.00000000000E+00  0.45593999997E+02  0.45594000000E+02  0.51100000000E-03 0.  1.
         11   -1    0    0    0    0 -0.00000000000E+00 -0.00000000000E+00 -0.45593999997E+02  0.45594000000E+02  0.51100000000E-03 0. -1.
    9900012    2    1    2    0    0 -0.22648366246E+02  0.35728327500E+02  0.97036484486E+01  0.47787277970E+02  0.20000031576E+02 0.  0.
         12    1    1    2    0    0  0.22648366246E+02 -0.35728327500E+02 -0.97036484486E+01  0.43400722030E+02  0.00000000000E+00 0. -1.
         11    1    3    3    0    0 -0.28602133778E+01  0.22984600119E+02  0.48401978208E+01  0.23662209922E+02  0.51100000000E-03 0. -1.
        -11    1    3    3    0    0 -0.77751079158E+01  0.38152391355E+01  0.19073355735E+01  0.88682739028E+01  0.51100000000E-03 0.  1.
         12    1    3    3    0    0 -0.12013044952E+02  0.89284882455E+01  0.29561150542E+01  0.15256794145E+02  0.00000000000E+00 0. -1.
</event>
<event>
 7    1  0.2492468E-009  0.4778727E+02  0.7816164E-02  0.1312668E+00
        -11   -1    0    0    0    0  0.00000000000E+00  0.00000000000E+00  0.45593999997E+02  0.45594000000E+02  0.51100000000E-03 0.  1.
         11   -1    0    0    0    0 -0.00000000000E+00 -0.00000000000E+00 -0.45593999997E+02  0.45594000000E+02  0.51100000000E-03 0. -1.
    9900012    2    1    2    0    0 -0.77602581954E+01  0.63782193796E+01  0.42222274215E+02  0.47787265794E+02  0.19999976063E+02 0.  0.
         12    1    1    2    0    0  0.77602581954E+01 -0.63782193796E+01 -0.42222274215E+02  0.43400734206E+02  0.00000000000E+00 0. -1.
         11    1    3    3    0    0 -0.39843752359E+01 -0.49594137858E+00  0.15231799582E+01  0.42943313004E+01  0.51100000000E-03 0. -1.
        -11    1    3    3    0    0  0.10605763773E+01 -0.20475056985E+00 -0.65249938937E+00  0.12619432484E+01  0.51100000000E-03 0.  1.
        -12    1    3    3    0    0 -0.48364593368E+01  0.70789113280E+01  0.41351593646E+02  0.42230991245E+02  0.00000000000E+00 0.  1.
</event>
<event>
 7    1  0.2492468E-009  0.4778727E+02  0.7816164E-02  0.1312668E+00
        -11   -1    0    0    0    0  0.00000000000E+00  0.00000000000E+00  0.45593999997E+02  0.45594000000E+02  0.51100000000E-03 0. -1.
         11   -1    0    0    0    0 -0.00000000000E+00 -0.00000000000E+00 -0.45593999997E+02  0.45594000000E+02  0.51100000000E-03 0.  1.
    9900012    2    1    2    0    0  0.36804289196E+02  0.19221433804E+02 -0.12633446097E+02  0.47787272114E+02  0.20000004878E+02 0.  0.
         12    1    1    2    0    0 -0.36804289196E+02 -0.19221433804E+02  0.12633446097E+02  0.43400727886E+02  0.00000000000E+00 0. -1.
         11    1    3    3    0    0  0.13998039371E+02  0.33180724245E+01 -0.25015020415E+01  0.14601788369E+02  0.51100000000E-03 0. -1.
        -11    1    3    3    0    0  0.16418760895E+02  0.29079410982E+01 -0.26406202713E+01  0.16882082408E+02  0.51100000000E-03 0.  1.
         12    1    3    3    0    0  0.63874889307E+01  0.12995420282E+02 -0.74913237841E+01  0.16303401338E+02  0.00000000000E+00 0. -1.
</event>
<event>
 7    1  0.2492468E-009  0.4778727E+02  0.7816164E-02  0.1312668E+00
        -11   -1    0    0    0    0  0.00000000000E+00  0.00000000000E+00  0.45593999997E+02  0.45594000000E+02  0.51100000000E-03 0.  1.
         11   -1    0    0    0    0 -0.00000000000E+00 -0.00000000000E+00 -0.45593999997E+02  0.45594000000E+02  0.51100000000E-03 0. -1.
    9900012    2    1    2    0    0 -0.50187174383E+01  0.12102435173E+02  0.41375921911E+02  0.47787269870E+02  0.19999994644E+02 0.  0.
         12    1    1    2    0    0  0.50187174383E+01 -0.12102435173E+02 -0.41375921911E+02  0.43400730130E+02  0.00000000000E+00 0. -1.
         11    1    3    3    0    0  0.50803502512E+01  0.14898582047E+01  0.21094817698E+02  0.21749045269E+02  0.51100000000E-03 0. -1.
        -11    1    3    3    0    0 -0.33224984632E+01  0.65613347085E+01  0.14480701951E+02  0.16241331178E+02  0.51100000000E-03 0.  1.
         12    1    3    3    0    0 -0.67765692263E+01  0.40512422600E+01  0.58004022628E+01  0.97968934228E+01  0.00000000000E+00 0. -1.
</event>
<event>
 7    1  0.2492468E-009  0.4778728E+02  0.7816164E-02  0.1312668E+00
        -11   -1    0    0    0    0  0.00000000000E+00  0.00000000000E+00  0.45593999997E+02  0.45594000000E+02  0.51100000000E-03 0. -1.
         11   -1    0    0    0    0 -0.00000000000E+00 -0.00000000000E+00 -0.45593999997E+02  0.45594000000E+02  0.51100000000E-03 0.  1.
    9900012    2    1    2    0    0 -0.14313205166E+00  0.43018505264E+02 -0.57454429447E+01  0.47787281151E+02  0.20000046082E+02 0.  0.
         12    1    1    2    0    0  0.14313205166E+00 -0.43018505264E+02  0.57454429447E+01  0.43400718849E+02  0.00000000000E+00 0. -1.
         11    1    3    3    0    0 -0.24656810680E+01  0.15790757056E+02 -0.71783186690E+01  0.17520155556E+02  0.51100000000E-03 0.  1.
        -11    1    3    3    0    0  0.26698671700E+01  0.13662272329E+01 -0.27477877605E+01  0.40675675035E+01  0.51100000000E-03 0. -1.
        -12    1    3    3    0    0 -0.34731815367E+00  0.25861520975E+02  0.41806634848E+01  0.26199558092E+02  0.00000000000E+00 0.  1.
</event>
<event>
 7    1  0.2492468E-009  0.4778727E+02  0.7816164E-02  0.1312668E+00
        -11   -1    0    0    0    0  0.00000000000E+00  0.00000000000E+00  0.45593999997E+02  0.45594000000E+02  0.51100000000E-03 0. -1.
         11   -1    0    0    0    0 -0.00000000000E+00 -0.00000000000E+00 -0.45593999997E+02  0.45594000000E+02  0.51100000000E-03 0.  1.
    9900012    2    1    2    0    0  0.37417196394E+02 -0.18187823239E+02 -0.12360420728E+02  0.47787268431E+02  0.19999988086E+02 0.  0.
         12    1    1    2    0    0 -0.37417196394E+02  0.18187823239E+02  0.12360420728E+02  0.43400731569E+02  0.00000000000E+00 0. -1.
         11    1    3    3    0    0  0.15553162856E+02 -0.25939699377E+01 -0.76976380829E+01  0.17546600445E+02  0.51100000000E-03 0. -1.
        -11    1    3    3    0    0  0.16865171531E+02 -0.69870173943E+01 -0.77317787918E+01  0.19825055521E+02  0.51100000000E-03 0.  1.
         12    1    3    3    0    0  0.49988620063E+01 -0.86068359069E+01  0.30689961466E+01  0.10415612466E+02  0.00000000000E+00 0. -1.
</event>
<event>
 7    1  0.2492468E-009  0.4778727E+02  0.7816164E-02  0.1312668E+00
        -11   -1    0    0    0    0  0.00000000000E+00  0.00000000000E+00  0.45593999997E+02  0.45594000000E+02  0.51100000000E-03 0. -1.
         11   -1    0    0    0    0 -0.00000000000E+00 -0.00000000000E+00 -0.45593999997E+02  0.45594000000E+02  0.51100000000E-03 0.  1.
    9900012    2    1    2    0    0 -0.67051837988E+01  0.24919437739E+02 -0.34895344832E+02  0.47787274684E+02  0.20000016595E+02 0.  0.
         12    1    1    2    0    0  0.67051837988E+01 -0.24919437739E+02  0.34895344832E+02  0.43400725316E+02  0.00000000000E+00 0. -1.
         11    1    3    3    0    0 -0.27477581978E+01  0.77297418262E+01 -0.10541273345E+02  0.13357302415E+02  0.51100000000E-03 0. -1.
        -11    1    3    3    0    0 -0.96190574215E+01  0.15276296891E+02 -0.20515235573E+02  0.27327026975E+02  0.51100000000E-03 0.  1.
         12    1    3    3    0    0  0.56616318205E+01  0.19133990222E+01 -0.38388359137E+01  0.71029452948E+01  0.00000000000E+00 0. -1.
</event>
<event>
 7    1  0.2492468E-009  0.4778727E+02  0.7816164E-02  0.1312668E+00
        -11   -1    0    0    0    0  0.00000000000E+00  0.00000000000E+00  0.45593999997E+02  0.45594000000E+02  0.51100000000E-03 0.  1.
         11   -1    0    0    0    0 -0.00000000000E+00 -0.00000000000E+00 -0.45593999997E+02  0.45594000000E+02  0.51100000000E-03 0. -1.
    9900012    2    1    2    0    0  0.31310121052E+01  0.38000153066E+02  0.20731814534E+02  0.47787274157E+02  0.20000014191E+02 0.  0.
         12    1    1    2    0    0 -0.31310121052E+01 -0.38000153066E+02 -0.20731814534E+02  0.43400725843E+02  0.00000000000E+00 0. -1.
         11    1    3    3    0    0 -0.21124315558E+01  0.10476987672E+02  0.54785571873E+00  0.10701858899E+02  0.51100000000E-03 0. -1.
        -11    1    3    3    0    0 -0.13487947246E+01  0.45631993798E+01 -0.13268815480E+01  0.49399039153E+01  0.51100000000E-03 0.  1.
        -12    1    3    3    0    0  0.65922383856E+01  0.22959966014E+02  0.21510840364E+02  0.32145511342E+02  0.00000000000E+00 0.  1.
</event>
<event>
 7    1  0.2492468E-009  0.4778727E+02  0.7816164E-02  0.1312668E+00
        -11   -1    0    0    0    0  0.00000000000E+00  0.00000000000E+00  0.45593999997E+02  0.45594000000E+02  0.51100000000E-03 0. -1.
         11   -1    0    0    0    0 -0.00000000000E+00 -0.00000000000E+00 -0.45593999997E+02  0.45594000000E+02  0.51100000000E-03 0.  1.
    9900012    2    1    2    0    0 -0.39546037355E+02  0.41930706085E+01 -0.17382531042E+02  0.47787270778E+02  0.19999998785E+02 0.  0.
         12    1    1    2    0    0  0.39546037355E+02 -0.41930706085E+01  0.17382531042E+02  0.43400729222E+02  0.00000000000E+00 0. -1.
         11    1    3    3    0    0 -0.77225808967E+01 -0.18652773599E+01 -0.26400223431E+01  0.83718118450E+01  0.51100000000E-03 0. -1.
        -11    1    3    3    0    0 -0.24324720830E+02  0.10055989764E+02 -0.16033387403E+02  0.30820196064E+02  0.51100000000E-03 0.  1.
        -12    1    3    3    0    0 -0.74987356283E+01 -0.39976417958E+01  0.12908787042E+01  0.85952628685E+01  0.00000000000E+00 0.  1.
</event>
<event>
 7    1  0.2492468E-009  0.4778727E+02  0.7816164E-02  0.1312668E+00
        -11   -1    0    0    0    0  0.00000000000E+00  0.00000000000E+00  0.45593999997E+02  0.45594000000E+02  0.51100000000E-03 0.  1.
         11   -1    0    0    0    0 -0.00000000000E+00 -0.00000000000E+00 -0.45593999997E+02  0.45594000000E+02  0.51100000000E-03 0. -1.
    9900012    2    1    2    0    0 -0.11035971572E+02 -0.89610154208E+01  0.41006472644E+02  0.47787271152E+02  0.20000000488E+02 0.  0.
         12    1    1    2    0    0  0.11035971572E+02  0.89610154208E+01 -0.41006472644E+02  0.43400728848E+02  0.00000000000E+00 0. -1.
         11    1    3    3    0    0  0.93243353819E+00  0.28801993451E+01  0.97612551765E+01  0.10219935589E+02  0.51100000000E-03 0. -1.
        -11    1    3    3    0    0 -0.26712361513E+01  0.21657209064E+01  0.24451885624E+01  0.42195730811E+01  0.51100000000E-03 0.  1.
        -12    1    3    3    0    0 -0.92971689586E+01 -0.14006935672E+02  0.28800028905E+02  0.33347762481E+02  0.00000000000E+00 0.  1.
</event>
<event>
 7    1  0.2492468E-009  0.4778727E+02  0.7816164E-02  0.1312668E+00
        -11   -1    0    0    0    0  0.00000000000E+00  0.00000000000E+00  0.45593999997E+02  0.45594000000E+02  0.51100000000E-03 0. -1.
         11   -1    0    0    0    0 -0.00000000000E+00 -0.00000000000E+00 -0.45593999997E+02  0.45594000000E+02  0.51100000000E-03 0.  1.
    9900012    2    1    2    0    0 -0.20386712577E+02 -0.14661353072E+01 -0.38286491590E+02  0.47787273731E+02  0.20000012247E+02 0.  0.
         12    1    1    2    0    0  0.20386712577E+02  0.14661353072E+01  0.38286491590E+02  0.43400726269E+02  0.00000000000E+00 0. -1.
         11    1    3    3    0    0 -0.76560287717E+01 -0.14920507133E+01 -0.61191342638E+01  0.99138688857E+01  0.51100000000E-03 0. -1.
        -11    1    3    3    0    0 -0.33564481049E+01 -0.72433248447E+01 -0.10746512615E+02  0.13387271280E+02  0.51100000000E-03 0.  1.
        -12    1    3    3    0    0 -0.93742357007E+01  0.72692402508E+01 -0.21420844711E+02  0.24486133565E+02  0.00000000000E+00 0.  1.
</event>
<event>
 7    1  0.2492468E-009  0.4778727E+02  0.7816164E-02  0.1312668E+00
        -11   -1    0    0    0    0  0.00000000000E+00  0.00000000000E+00  0.45593999997E+02  0.45594000000E+02  0.51100000000E-03 0.  1.
         11   -1    0    0    0    0 -0.00000000000E+00 -0.00000000000E+00 -0.45593999997E+02  0.45594000000E+02  0.51100000000E-03 0. -1.
    9900012    2    1    2    0    0  0.34202618720E+02 -0.20767529846E+01  0.26636279578E+02  0.47787269361E+02  0.19999992322E+02 0.  0.
         12    1    1    2    0    0 -0.34202618720E+02  0.20767529846E+01 -0.26636279578E+02  0.43400730639E+02  0.00000000000E+00 0. -1.
         11    1    3    3    0    0  0.69141274718E+01 -0.30042178640E+01 -0.10684264631E+01  0.76139358442E+01  0.51100000000E-03 0. -1.
        -11    1    3    3    0    0  0.98761675169E+01 -0.27554439974E+01  0.52452929921E+01  0.11517128778E+02  0.51100000000E-03 0.  1.
        -12    1    3    3    0    0  0.17412323732E+02  0.36829088768E+01  0.22459413049E+02  0.28656204739E+02  0.00000000000E+00 0.  1.
</event>
<event>
 7    1  0.2492468E-009  0.4778727E+02  0.7816164E-02  0.1312668E+00
        -11   -1    0    0    0    0  0.00000000000E+00  0.00000000000E+00  0.45593999997E+02  0.45594000000E+02  0.51100000000E-03 0. -1.
         11   -1    0    0    0    0 -0.00000000000E+00 -0.00000000000E+00 -0.45593999997E+02  0.45594000000E+02  0.51100000000E-03 0.  1.
    9900012    2    1    2    0    0  0.11072330125E+02 -0.16059020320E+02 -0.38770277984E+02  0.47787273244E+02  0.20000010027E+02 0.  0.
         12    1    1    2    0    0 -0.11072330125E+02  0.16059020320E+02  0.38770277984E+02  0.43400726756E+02  0.00000000000E+00 0. -1.
         11    1    3    3    0    0  0.43507022888E+01 -0.59743180622E+00 -0.83303691496E+01  0.94170369862E+01  0.51100000000E-03 0. -1.
        -11    1    3    3    0    0  0.23216718827E+01 -0.11907878943E+02 -0.30381318006E+02  0.32714098265E+02  0.51100000000E-03 0.  1.
         12    1    3    3    0    0  0.43999559532E+01 -0.35537095711E+01 -0.58590828231E-01  0.56561379926E+01  0.00000000000E+00 0. -1.
</event>
<event>
 7    1  0.2492468E-009  0.4778727E+02  0.7816164E-02  0.1312668E+00
        -11   -1    0    0    0    0  0.00000000000E+00  0.00000000000E+00  0.45593999997E+02  0.45594000000E+02  0.51100000000E-03 0.  1.
         11   -1    0    0    0    0 -0.00000000000E+00 -0.00000000000E+00 -0.45593999997E+02  0.45594000000E+02  0.51100000000E-03 0. -1.
    9900012    2    1    2    0    0  0.66396748231E+01 -0.31709716362E+01  0.42772454590E+02  0.47787271728E+02  0.20000003116E+02 0.  0.
         12    1    1    2    0    0 -0.66396748231E+01  0.31709716362E+01 -0.42772454590E+02  0.43400728272E+02  0.00000000000E+00 0. -1.
         11    1    3    3    0    0  0.34522391818E+01 -0.80132784651E+00  0.36206804667E+01  0.50664986913E+01  0.51100000000E-03 0. -1.
        -11    1    3    3    0    0  0.80960683211E+01 -0.57608676026E+01  0.31426050849E+02  0.32959529578E+02  0.51100000000E-03 0.  1.
         12    1    3    3    0    0 -0.49086326798E+01  0.33912238130E+01  0.77257232746E+01  0.97612434582E+01  0.00000000000E+00 0. -1.
</event>
<event>
 7    1  0.2492468E-009  0.4778727E+02  0.7816164E-02  0.1312668E+00
        -11   -1    0    0    0    0  0.00000000000E+00  0.00000000000E+00  0.45593999997E+02  0.45594000000E+02  0.51100000000E-03 0.  1.
         11   -1    0    0    0    0 -0.00000000000E+00 -0.00000000000E+00 -0.45593999997E+02  0.45594000000E+02  0.51100000000E-03 0. -1.
    9900012    2    1    2    0    0 -0.22195469107E+02  0.24060513054E+02  0.28496952240E+02  0.47787269311E+02  0.19999992098E+02 0.  0.
         12    1    1    2    0    0  0.22195469107E+02 -0.24060513054E+02 -0.28496952240E+02  0.43400730689E+02  0.00000000000E+00 0. -1.
         11    1    3    3    0    0  0.14368614009E+01 -0.89578543670E+00  0.43854055659E+00  0.17490912826E+01  0.51100000000E-03 0. -1.
        -11    1    3    3    0    0  0.10882293200E+01  0.13535734884E+00 -0.88339182961E-01  0.11001675950E+01  0.51100000000E-03 0.  1.
        -12    1    3    3    0    0 -0.24720559828E+02  0.24820941142E+02  0.28146750866E+02  0.44938010434E+02  0.00000000000E+00 0.  1.
</event>
<event>
 7    1  0.2492468E-009  0.4778726E+02  0.7816164E-02  0.1312668E+00
        -11   -1    0    0    0    0  0.00000000000E+00  0.00000000000E+00  0.45593999997E+02  0.45594000000E+02  0.51100000000E-03 0.  1.
         11   -1    0    0    0    0 -0.00000000000E+00 -0.00000000000E+00 -0.45593999997E+02  0.45594000000E+02  0.51100000000E-03 0. -1.
    9900012    2    1    2    0    0 -0.43245617580E+00 -0.41428696311E+02  0.12926736412E+02  0.47787257948E+02  0.19999940290E+02 0.  0.
         12    1    1    2    0    0  0.43245617580E+00  0.41428696311E+02 -0.12926736412E+02  0.43400742052E+02  0.00000000000E+00 0. -1.
         11    1    3    3    0    0 -0.19950706237E+00 -0.14761616480E+01 -0.15117012490E+01  0.21222858446E+01  0.51100000000E-03 0. -1.
        -11    1    3    3    0    0 -0.89612546655E+00  0.10324332575E+01 -0.11740446479E+01  0.18020378407E+01  0.51100000000E-03 0.  1.
        -12    1    3    3    0    0  0.66317635311E+00 -0.40984967921E+02  0.15612482308E+02  0.43862934263E+02  0.00000000000E+00 0.  1.
</event>
<event>
 7    1  0.2492468E-009  0.4778727E+02  0.7816164E-02  0.1312668E+00
        -11   -1    0    0    0    0  0.00000000000E+00  0.00000000000E+00  0.45593999997E+02  0.45594000000E+02  0.51100000000E-03 0. -1.
         11   -1    0    0    0    0 -0.00000000000E+00 -0.00000000000E+00 -0.45593999997E+02  0.45594000000E+02  0.51100000000E-03 0.  1.
    9900012    2    1    2    0    0 -0.49643451483E+01  0.40443422216E+02 -0.14943495542E+02  0.47787272100E+02  0.20000004811E+02 0.  0.
         12    1    1    2    0    0  0.49643451483E+01 -0.40443422216E+02  0.14943495542E+02  0.43400727900E+02  0.00000000000E+00 0. -1.
         11    1    3    3    0    0 -0.97857243166E+01  0.35250360532E+02 -0.17010764260E+02  0.40344942917E+02  0.51100000000E-03 0. -1.
        -11    1    3    3    0    0  0.49872980669E+00  0.47662202246E+00 -0.78736557061E-01  0.69433398226E+00  0.51100000000E-03 0.  1.
         12    1    3    3    0    0  0.43226493615E+01  0.47164396610E+01  0.21460052745E+01  0.67479951999E+01  0.00000000000E+00 0. -1.
</event>
<event>
 7    1  0.2492468E-009  0.4778727E+02  0.7816164E-02  0.1312668E+00
        -11   -1    0    0    0    0  0.00000000000E+00  0.00000000000E+00  0.45593999997E+02  0.45594000000E+02  0.51100000000E-03 0.  1.
         11   -1    0    0    0    0 -0.00000000000E+00 -0.00000000000E+00 -0.45593999997E+02  0.45594000000E+02  0.51100000000E-03 0. -1.
    9900012    2    1    2    0    0 -0.32014122046E+02  0.27284672394E+02  0.10689538404E+02  0.47787267411E+02  0.19999983432E+02 0.  0.
         12    1    1    2    0    0  0.32014122046E+02 -0.27284672394E+02 -0.10689538404E+02  0.43400732589E+02  0.00000000000E+00 0. -1.
         11    1    3    3    0    0  0.20399662219E+01  0.40004039076E+01  0.74766002964E+00  0.45523279091E+01  0.51100000000E-03 0. -1.
        -11    1    3    3    0    0  0.36472008097E+00  0.65859342438E+00 -0.26762655914E+00  0.79899328682E+00  0.51100000000E-03 0.  1.
        -12    1    3    3    0    0 -0.34418808349E+02  0.22625675061E+02  0.10209504934E+02  0.42435946215E+02  0.00000000000E+00 0.  1.
</event>
<event>
 7    1  0.2492468E-009  0.4778727E+02  0.7816164E-02  0.1312668E+00
        -11   -1    0    0    0    0  0.00000000000E+00  0.00000000000E+00  0.45593999997E+02  0.45594000000E+02  0.51100000000E-03 0.  1.
         11   -1    0    0    0    0 -0.00000000000E+00 -0.00000000000E+00 -0.45593999997E+02  0.45594000000E+02  0.51100000000E-03 0. -1.
    9900012    2    1    2    0    0  0.22964754845E+02  0.15788446014E+02  0.33271135748E+02  0.47787268825E+02  0.19999989879E+02 0.  0.
         12    1    1    2    0    0 -0.22964754845E+02 -0.15788446014E+02 -0.33271135748E+02  0.43400731175E+02  0.00000000000E+00 0. -1.
         11    1    3    3    0    0 -0.12516363159E+01  0.67499140197E+00  0.22471810191E+01  0.26593287976E+01  0.51100000000E-03 0. -1.
        -11    1    3    3    0    0  0.24276155017E+01  0.72990226808E+01  0.18959756768E+01  0.79223590645E+01  0.51100000000E-03 0.  1.
         12    1    3    3    0    0  0.21788775659E+02  0.78144319310E+01  0.29127979052E+02  0.37205580963E+02  0.00000000000E+00 0. -1.
</event>
<event>
 7    1  0.2492468E-009  0.4778728E+02  0.7816164E-02  0.1312668E+00
        -11   -1    0    0    0    0  0.00000000000E+00  0.00000000000E+00  0.45593999997E+02  0.45594000000E+02  0.51100000000E-03 0.  1.
         11   -1    0    0    0    0 -0.00000000000E+00 -0.00000000000E+00 -0.45593999997E+02  0.45594000000E+02  0.51100000000E-03 0. -1.
    9900012    2    1    2    0    0  0.40833353228E+02  0.88406611378E+01  0.11751693798E+02  0.47787281891E+02  0.20000049454E+02 0.  0.
         12    1    1    2    0    0 -0.40833353228E+02 -0.88406611378E+01 -0.11751693798E+02  0.43400718109E+02  0.00000000000E+00 0. -1.
         11    1    3    3    0    0  0.24127300344E+02  0.71827525287E+01  0.81752682775E+00  0.25187038455E+02  0.51100000000E-03 0.  1.
        -11    1    3    3    0    0  0.56058817565E+00  0.34088987697E+01  0.11528314488E+01  0.36419597108E+01  0.51100000000E-03 0. -1.
         12    1    3    3    0    0  0.16145464709E+02 -0.17509901606E+01  0.97813355217E+01  0.18958283725E+02  0.00000000000E+00 0. -1.
</event>
<event>
 7    1  0.2492468E-009  0.4778727E+02  0.7816164E-02  0.1312668E+00
        -11   -1    0    0    0    0  0.00000000000E+00  0.00000000000E+00  0.45593999997E+02  0.45594000000E+02  0.51100000000E-03 0. -1.
         11   -1    0    0    0    0 -0.00000000000E+00 -0.00000000000E+00 -0.45593999997E+02  0.45594000000E+02  0.51100000000E-03 0.  1.
    9900012    2    1    2    0    0 -0.10571811370E+02  0.41342342572E+02  0.79164991912E+01  0.47787269079E+02  0.19999991040E+02 0.  0.
         12    1    1    2    0    0  0.10571811370E+02 -0.41342342572E+02 -0.79164991912E+01  0.43400730921E+02  0.00000000000E+00 0. -1.
         11    1    3    3    0    0 -0.47904988557E+01  0.17297768398E+02  0.10890063811E+02  0.20994169688E+02  0.51100000000E-03 0.  1.
        -11    1    3    3    0    0 -0.30999778026E+01  0.93438203295E+01  0.35807243862E+01  0.10475611109E+02  0.51100000000E-03 0. -1.
        -12    1    3    3    0    0 -0.26813347114E+01  0.14700753845E+02 -0.65542890057E+01  0.16317488282E+02  0.00000000000E+00 0.  1.
</event>
<event>
 7    1  0.2492468E-009  0.4778728E+02  0.7816164E-02  0.1312668E+00
        -11   -1    0    0    0    0  0.00000000000E+00  0.00000000000E+00  0.45593999997E+02  0.45594000000E+02  0.51100000000E-03 0.  1.
         11   -1    0    0    0    0 -0.00000000000E+00 -0.00000000000E+00 -0.45593999997E+02  0.45594000000E+02  0.51100000000E-03 0. -1.
    9900012    2    1    2    0    0  0.29872506771E+02  0.30764209723E+02  0.66947095880E+01  0.47787281146E+02  0.20000046055E+02 0.  0.
         12    1    1    2    0    0 -0.29872506771E+02 -0.30764209723E+02 -0.66947095880E+01  0.43400718854E+02  0.00000000000E+00 0. -1.
         11    1    3    3    0    0  0.67520736277E+01  0.10572706289E+02 -0.11987908972E+01  0.12601972719E+02  0.51100000000E-03 0. -1.
        -11    1    3    3    0    0  0.10860385071E+02  0.18242791007E+02  0.16637933053E+01  0.21295905617E+02  0.51100000000E-03 0.  1.
         12    1    3    3    0    0  0.12260048072E+02  0.19487124266E+01  0.62297071799E+01  0.13889402809E+02  0.00000000000E+00 0. -1.
</event>
<event>
 7    1  0.2492468E-009  0.4778727E+02  0.7816164E-02  0.1312668E+00
        -11   -1    0    0    0    0  0.00000000000E+00  0.00000000000E+00  0.45593999997E+02  0.45594000000E+02  0.51100000000E-03 0.  1.
         11   -1    0    0    0    0 -0.00000000000E+00 -0.00000000000E+00 -0.45593999997E+02  0.45594000000E+02  0.51100000000E-03 0. -1.
    9900012    2    1    2    0    0  0.22452205063E+02 -0.35223434227E+02  0.11782676752E+02  0.47787270716E+02  0.19999998505E+02 0.  0.
         12    1    1    2    0    0 -0.22452205063E+02  0.35223434227E+02 -0.11782676752E+02  0.43400729284E+02  0.00000000000E+00 0. -1.
         11    1    3    3    0    0  0.46152699779E+01 -0.87252974055E+00 -0.20429626177E+00  0.47014638508E+01  0.51100000000E-03 0. -1.
        -11    1    3    3    0    0  0.48437724075E+01 -0.13121331567E+02 -0.26142459243E+01  0.14229046182E+02  0.51100000000E-03 0.  1.
        -12    1    3    3    0    0  0.12993162677E+02 -0.21229572919E+02  0.14601218938E+02  0.28856760684E+02  0.00000000000E+00 0.  1.
</event>
<event>
 7    1  0.2492468E-009  0.4778727E+02  0.7816164E-02  0.1312668E+00
        -11   -1    0    0    0    0  0.00000000000E+00  0.00000000000E+00  0.45593999997E+02  0.45594000000E+02  0.51100000000E-03 0. -1.
         11   -1    0    0    0    0 -0.00000000000E+00 -0.00000000000E+00 -0.45593999997E+02  0.45594000000E+02  0.51100000000E-03 0.  1.
    9900012    2    1    2    0    0 -0.33892806694E+02 -0.18768658662E+02 -0.19561143879E+02  0.47787271395E+02  0.20000001600E+02 0.  0.
         12    1    1    2    0    0  0.33892806694E+02  0.18768658662E+02  0.19561143879E+02  0.43400728605E+02  0.00000000000E+00 0. -1.
         11    1    3    3    0    0 -0.98116461818E+01 -0.37087524658E+01  0.89104858513E-01  0.10489575091E+02  0.51100000000E-03 0.  1.
        -11    1    3    3    0    0 -0.18702510829E+02 -0.16937241265E+02 -0.12509124249E+02  0.28162603621E+02  0.51100000000E-03 0. -1.
         12    1    3    3    0    0 -0.53786496832E+01  0.18773350689E+01 -0.71411244888E+01  0.91350926837E+01  0.00000000000E+00 0. -1.
</event>
<event>
 7    1  0.2492468E-009  0.4778727E+02  0.7816164E-02  0.1312668E+00
        -11   -1    0    0    0    0  0.00000000000E+00  0.00000000000E+00  0.45593999997E+02  0.45594000000E+02  0.51100000000E-03 0.  1.
         11   -1    0    0    0    0 -0.00000000000E+00 -0.00000000000E+00 -0.45593999997E+02  0.45594000000E+02  0.51100000000E-03 0. -1.
    9900012    2    1    2    0    0 -0.93051634660E+01 -0.13305628201E+02  0.40249187904E+02  0.47787274938E+02  0.20000017754E+02 0.  0.
         12    1    1    2    0    0  0.93051634660E+01  0.13305628201E+02 -0.40249187904E+02  0.43400725062E+02  0.00000000000E+00 0. -1.
         11    1    3    3    0    0 -0.82295009678E+00  0.27524799216E+01  0.14817344694E+02  0.15093279850E+02  0.51100000000E-03 0. -1.
        -11    1    3    3    0    0 -0.60940230762E+01 -0.29920319407E+01  0.54772492124E+01  0.87229370961E+01  0.51100000000E-03 0.  1.
         12    1    3    3    0    0 -0.23881902930E+01 -0.13066076182E+02  0.19954593997E+02  0.23971057992E+02  0.00000000000E+00 0. -1.
</event>
<event>
 7    1  0.2492468E-009  0.4778727E+02  0.7816164E-02  0.1312668E+00
        -11   -1    0    0    0    0  0.00000000000E+00  0.00000000000E+00  0.45593999997E+02  0.45594000000E+02  0.51100000000E-03 0. -1.
         11   -1    0    0    0    0 -0.00000000000E+00 -0.00000000000E+00 -0.45593999997E+02  0.45594000000E+02  0.51100000000E-03 0.  1.
    9900012    2    1    2    0    0  0.39981086893E+02  0.77728061790E+01 -0.14990644686E+02  0.47787271283E+02  0.20000001089E+02 0.  0.
         12    1    1    2    0    0 -0.39981086893E+02 -0.77728061790E+01  0.14990644686E+02  0.43400728717E+02  0.00000000000E+00 0. -1.
         11    1    3    3    0    0  0.17468038156E+00  0.14811796730E+01 -0.24913237216E+01  0.29036357564E+01  0.51100000000E-03 0. -1.
        -11    1    3    3    0    0  0.92968874470E+01  0.66675348643E+00 -0.10135949963E+02  0.13770045691E+02  0.51100000000E-03 0.  1.
        -12    1    3    3    0    0  0.30509519064E+02  0.56248730196E+01 -0.23633710022E+01  0.31113589836E+02  0.00000000000E+00 0.  1.
</event>
<event>
 7    1  0.2492468E-009  0.4778727E+02  0.7816164E-02  0.1312668E+00
        -11   -1    0    0    0    0  0.00000000000E+00  0.00000000000E+00  0.45593999997E+02  0.45594000000E+02  0.51100000000E-03 0.  1.
         11   -1    0    0    0    0 -0.00000000000E+00 -0.00000000000E+00 -0.45593999997E+02  0.45594000000E+02  0.51100000000E-03 0. -1.
    9900012    2    1    2    0    0 -0.38915282657E+02  0.13119018479E+02  0.14039783352E+02  0.47787269745E+02  0.19999994073E+02 0.  0.
         12    1    1    2    0    0  0.38915282657E+02 -0.13119018479E+02 -0.14039783352E+02  0.43400730255E+02  0.00000000000E+00 0. -1.
         11    1    3    3    0    0 -0.20816332446E+02  0.33993909713E+01  0.12651468980E+02  0.24595430940E+02  0.51100000000E-03 0. -1.
        -11    1    3    3    0    0 -0.52913328241E+01  0.13140044527E+01  0.50601017117E+01  0.74383761905E+01  0.51100000000E-03 0.  1.
         12    1    3    3    0    0 -0.12807617387E+02  0.84056230547E+01 -0.36717873403E+01  0.15753462614E+02  0.00000000000E+00 0. -1.
</event>
<event>
 7    1  0.2492468E-009  0.4778727E+02  0.7816164E-02  0.1312668E+00
        -11   -1    0    0    0    0  0.00000000000E+00  0.00000000000E+00  0.45593999997E+02  0.45594000000E+02  0.51100000000E-03 0.  1.
         11   -1    0    0    0    0 -0.00000000000E+00 -0.00000000000E+00 -0.45593999997E+02  0.45594000000E+02  0.51100000000E-03 0. -1.
    9900012    2    1    2    0    0 -0.65862576732E+01  0.23465362815E+02  0.35911300599E+02  0.47787267830E+02  0.19999985345E+02 0.  0.
         12    1    1    2    0    0  0.65862576732E+01 -0.23465362815E+02 -0.35911300599E+02  0.43400732170E+02  0.00000000000E+00 0. -1.
         11    1    3    3    0    0  0.22221880863E+01 -0.10856091089E+01  0.14797965132E+01  0.28820938586E+01  0.51100000000E-03 0. -1.
        -11    1    3    3    0    0 -0.54269676426E+01  0.31736057992E+01  0.36284841589E+01  0.72587636079E+01  0.51100000000E-03 0.  1.
         12    1    3    3    0    0 -0.33814781168E+01  0.21377366125E+02  0.30803019926E+02  0.37646410364E+02  0.00000000000E+00 0. -1.
</event>
<event>
 7    1  0.2492468E-009  0.4778727E+02  0.7816164E-02  0.1312668E+00
        -11   -1    0    0    0    0  0.00000000000E+00  0.00000000000E+00  0.45593999997E+02  0.45594000000E+02  0.51100000000E-03 0.  1.
         11   -1    0    0    0    0 -0.00000000000E+00 -0.00000000000E+00 -0.45593999997E+02  0.45594000000E+02  0.51100000000E-03 0. -1.
    9900012    2    1    2    0    0  0.28879952744E+00 -0.40931866049E+02  0.14426446827E+02  0.47787269229E+02  0.19999991722E+02 0.  0.
         12    1    1    2    0    0 -0.28879952744E+00  0.40931866049E+02 -0.14426446827E+02  0.43400730771E+02  0.00000000000E+00 0. -1.
         11    1    3    3    0    0 -0.83271479569E+01 -0.11119777136E+02  0.68300534970E+01  0.15480325180E+02  0.51100000000E-03 0. -1.
        -11    1    3    3    0    0  0.14908734332E+01 -0.69015569632E+01 -0.24552551452E+00  0.70650177034E+01  0.51100000000E-03 0.  1.
         12    1    3    3    0    0  0.71250740512E+01 -0.22910531950E+02  0.78419188443E+01  0.25241926345E+02  0.00000000000E+00 0. -1.
</event>
<event>
 7    1  0.2492468E-009  0.4778727E+02  0.7816164E-02  0.1312668E+00
        -11   -1    0    0    0    0  0.00000000000E+00  0.00000000000E+00  0.45593999997E+02  0.45594000000E+02  0.51100000000E-03 0.  1.
         11   -1    0    0    0    0 -0.00000000000E+00 -0.00000000000E+00 -0.45593999997E+02  0.45594000000E+02  0.51100000000E-03 0. -1.
    9900012    2    1    2    0    0  0.21909228175E+02 -0.27826922404E+02  0.25085281425E+02  0.47787271505E+02  0.20000002102E+02 0.  0.
         12    1    1    2    0    0 -0.21909228175E+02  0.27826922404E+02 -0.25085281425E+02  0.43400728495E+02  0.00000000000E+00 0. -1.
         11    1    3    3    0    0  0.72804968557E+01 -0.14615941939E+02  0.44143352917E+01  0.16915015506E+02  0.51100000000E-03 0. -1.
        -11    1    3    3    0    0  0.33750043676E+01 -0.10838356760E+02  0.11538063053E+02  0.16186028884E+02  0.51100000000E-03 0.  1.
        -12    1    3    3    0    0  0.11253726952E+02 -0.23726237045E+01  0.91328830801E+01  0.14686227116E+02  0.00000000000E+00 0.  1.
</event>
<event>
 7    1  0.2492468E-009  0.4778727E+02  0.7816164E-02  0.1312668E+00
        -11   -1    0    0    0    0  0.00000000000E+00  0.00000000000E+00  0.45593999997E+02  0.45594000000E+02  0.51100000000E-03 0.  1.
         11   -1    0    0    0    0 -0.00000000000E+00 -0.00000000000E+00 -0.45593999997E+02  0.45594000000E+02  0.51100000000E-03 0. -1.
    9900012    2    1    2    0    0  0.13171217142E+02 -0.23981357021E+02  0.33690306432E+02  0.47787271975E+02  0.20000004243E+02 0.  0.
         12    1    1    2    0    0 -0.13171217142E+02  0.23981357021E+02 -0.33690306432E+02  0.43400728025E+02  0.00000000000E+00 0. -1.
         11    1    3    3    0    0 -0.18468502470E+01  0.10774770517E+01  0.19844025061E+01  0.29171332159E+01  0.51100000000E-03 0. -1.
        -11    1    3    3    0    0  0.85029000331E+01 -0.34822288306E+01  0.84184374429E+01  0.12461754124E+02  0.51100000000E-03 0.  1.
        -12    1    3    3    0    0  0.65151673559E+01 -0.21576605242E+02  0.23287466483E+02  0.32408384635E+02  0.00000000000E+00 0.  1.
</event>
<event>
 7    1  0.2492468E-009  0.4778727E+02  0.7816164E-02  0.1312668E+00
        -11   -1    0    0    0    0  0.00000000000E+00  0.00000000000E+00  0.45593999997E+02  0.45594000000E+02  0.51100000000E-03 0. -1.
         11   -1    0    0    0    0 -0.00000000000E+00 -0.00000000000E+00 -0.45593999997E+02  0.45594000000E+02  0.51100000000E-03 0.  1.
    9900012    2    1    2    0    0 -0.77405902626E+00  0.43146884980E+02  0.46228661839E+01  0.47787265645E+02  0.19999975381E+02 0.  0.
         12    1    1    2    0    0  0.77405902626E+00 -0.43146884980E+02 -0.46228661839E+01  0.43400734355E+02  0.00000000000E+00 0. -1.
         11    1    3    3    0    0  0.18958896730E+01  0.36863824204E+02  0.74010234709E+01  0.37647192210E+02  0.51100000000E-03 0. -1.
        -11    1    3    3    0    0 -0.41075638924E+01  0.66195296697E+01 -0.10400548118E+01  0.78595145175E+01  0.51100000000E-03 0.  1.
         12    1    3    3    0    0  0.14376151931E+01 -0.33646889442E+00 -0.17381024753E+01  0.22805589172E+01  0.00000000000E+00 0. -1.
</event>
<event>
 7    1  0.2492468E-009  0.4778727E+02  0.7816164E-02  0.1312668E+00
        -11   -1    0    0    0    0  0.00000000000E+00  0.00000000000E+00  0.45593999997E+02  0.45594000000E+02  0.51100000000E-03 0. -1.
         11   -1    0    0    0    0 -0.00000000000E+00 -0.00000000000E+00 -0.45593999997E+02  0.45594000000E+02  0.51100000000E-03 0.  1.
    9900012    2    1    2    0    0 -0.26707144339E+02 -0.33537696669E+02 -0.67508777516E+01  0.47787274118E+02  0.20000014016E+02 0.  0.
         12    1    1    2    0    0  0.26707144339E+02  0.33537696669E+02  0.67508777516E+01  0.43400725882E+02  0.00000000000E+00 0. -1.
         11    1    3    3    0    0 -0.43415860652E+01 -0.93223601045E+00  0.16393306555E+01  0.47334806221E+01  0.51100000000E-03 0. -1.
        -11    1    3    3    0    0 -0.11669098958E+02 -0.88579076293E+01 -0.86380820282E+01  0.17007259022E+02  0.51100000000E-03 0.  1.
         12    1    3    3    0    0 -0.10696459317E+02 -0.23747553029E+02  0.24787362112E+00  0.26046534474E+02  0.00000000000E+00 0. -1.
</event>
<event>
 7    1  0.2492468E-009  0.4778727E+02  0.7816164E-02  0.1312668E+00
        -11   -1    0    0    0    0  0.00000000000E+00  0.00000000000E+00  0.45593999997E+02  0.45594000000E+02  0.51100000000E-03 0.  1.
         11   -1    0    0    0    0 -0.00000000000E+00 -0.00000000000E+00 -0.45593999997E+02  0.45594000000E+02  0.51100000000E-03 0. -1.
    9900012    2    1    2    0    0  0.92292479651E+00 -0.25673993834E+02  0.34980242365E+02  0.47787272984E+02  0.20000008845E+02 0.  0.
         12    1    1    2    0    0 -0.92292479651E+00  0.25673993834E+02 -0.34980242365E+02  0.43400727016E+02  0.00000000000E+00 0. -1.
         11    1    3    3    0    0 -0.20703374561E+01 -0.16448895849E+01  0.42541572678E+01  0.50089732730E+01  0.51100000000E-03 0. -1.
        -11    1    3    3    0    0 -0.37601541817E+01 -0.22076388990E+02  0.20443917551E+02  0.30322590183E+02  0.51100000000E-03 0.  1.
         12    1    3    3    0    0  0.67534164343E+01 -0.19527152595E+01  0.10282167546E+02  0.12455709529E+02  0.00000000000E+00 0. -1.
</event>
<event>
 7    1  0.2492468E-009  0.4778727E+02  0.7816164E-02  0.1312668E+00
        -11   -1    0    0    0    0  0.00000000000E+00  0.00000000000E+00  0.45593999997E+02  0.45594000000E+02  0.51100000000E-03 0. -1.
         11   -1    0    0    0    0 -0.00000000000E+00 -0.00000000000E+00 -0.45593999997E+02  0.45594000000E+02  0.51100000000E-03 0.  1.
    9900012    2    1    2    0    0 -0.12208234943E+00 -0.36904565426E+02  0.22839912667E+02  0.47787268854E+02  0.19999990011E+02 0.  0.
         12    1    1    2    0    0  0.12208234943E+00  0.36904565426E+02 -0.22839912667E+02  0.43400731146E+02  0.00000000000E+00 0. -1.
         11    1    3    3    0    0  0.15125145270E+01 -0.13639144115E+02  0.12802869158E+02  0.18767722592E+02  0.51100000000E-03 0. -1.
        -11    1    3    3    0    0 -0.55549204978E+01 -0.49889084121E+01  0.67000021842E+01  0.10031768459E+02  0.51100000000E-03 0.  1.
        -12    1    3    3    0    0  0.39203236213E+01 -0.18276512900E+02  0.33370413251E+01  0.18987777802E+02  0.00000000000E+00 0.  1.
</event>
<event>
 7    1  0.2492468E-009  0.4778727E+02  0.7816164E-02  0.1312668E+00
        -11   -1    0    0    0    0  0.00000000000E+00  0.00000000000E+00  0.45593999997E+02  0.45594000000E+02  0.51100000000E-03 0. -1.
         11   -1    0    0    0    0 -0.00000000000E+00 -0.00000000000E+00 -0.45593999997E+02  0.45594000000E+02  0.51100000000E-03 0.  1.
    9900012    2    1    2    0    0 -0.42201317620E+02 -0.76338145662E+01 -0.66631036947E+01  0.47787270921E+02  0.19999999439E+02 0.  0.
         12    1    1    2    0    0  0.42201317620E+02  0.76338145662E+01  0.66631036947E+01  0.43400729079E+02  0.00000000000E+00 0. -1.
         11    1    3    3    0    0 -0.48747876419E+01 -0.31711167538E+01  0.34835806091E+01  0.67790021493E+01  0.51100000000E-03 0. -1.
        -11    1    3    3    0    0 -0.13222252531E+02 -0.71900896302E+01 -0.10031014833E+01  0.15084149420E+02  0.51100000000E-03 0.  1.
        -12    1    3    3    0    0 -0.24104277447E+02  0.27273918178E+01 -0.91435828205E+01  0.25924119352E+02  0.00000000000E+00 0.  1.
</event>
<event>
 7    1  0.2492468E-009  0.4778727E+02  0.7816164E-02  0.1312668E+00
        -11   -1    0    0    0    0  0.00000000000E+00  0.00000000000E+00  0.45593999997E+02  0.45594000000E+02  0.51100000000E-03 0.  1.
         11   -1    0    0    0    0 -0.00000000000E+00 -0.00000000000E+00 -0.45593999997E+02  0.45594000000E+02  0.51100000000E-03 0. -1.
    9900012    2    1    2    0    0  0.25239437690E+02 -0.16272707250E+02  0.31333574720E+02  0.47787272808E+02  0.20000008039E+02 0.  0.
         12    1    1    2    0    0 -0.25239437690E+02  0.16272707250E+02 -0.31333574720E+02  0.43400727192E+02  0.00000000000E+00 0. -1.
         11    1    3    3    0    0  0.59020881822E+01 -0.77757438830E+01  0.14608712923E+02  0.17570183020E+02  0.51100000000E-03 0.  1.
        -11    1    3    3    0    0  0.25320795455E+01 -0.63820101292E+01  0.70264469095E+00  0.69018251164E+01  0.51100000000E-03 0. -1.
         12    1    3    3    0    0  0.16805269962E+02 -0.21149532379E+01  0.16022217106E+02  0.23315264671E+02  0.00000000000E+00 0. -1.
</event>
<event>
 7    1  0.2492468E-009  0.4778728E+02  0.7816164E-02  0.1312668E+00
        -11   -1    0    0    0    0  0.00000000000E+00  0.00000000000E+00  0.45593999997E+02  0.45594000000E+02  0.51100000000E-03 0.  1.
         11   -1    0    0    0    0 -0.00000000000E+00 -0.00000000000E+00 -0.45593999997E+02  0.45594000000E+02  0.51100000000E-03 0. -1.
    9900012    2    1    2    0    0 -0.36027285520E+02  0.20369743912E+02  0.13066400126E+02  0.47787279024E+02  0.20000036382E+02 0.  0.
         12    1    1    2    0    0  0.36027285520E+02 -0.20369743912E+02 -0.13066400126E+02  0.43400720976E+02  0.00000000000E+00 0. -1.
         11    1    3    3    0    0 -0.17230468227E+02  0.12769155788E+02  0.15772720087E+02  0.26621778192E+02  0.51100000000E-03 0. -1.
        -11    1    3    3    0    0 -0.24891860254E+01 -0.43230210367E+00  0.80331076450E+00  0.26510829152E+01  0.51100000000E-03 0.  1.
        -12    1    3    3    0    0 -0.16307631268E+02  0.80328902273E+01 -0.35096307264E+01  0.18514417917E+02  0.00000000000E+00 0.  1.
</event>
<event>
 7    1  0.2492468E-009  0.4778727E+02  0.7816164E-02  0.1312668E+00
        -11   -1    0    0    0    0  0.00000000000E+00  0.00000000000E+00  0.45593999997E+02  0.45594000000E+02  0.51100000000E-03 0. -1.
         11   -1    0    0    0    0 -0.00000000000E+00 -0.00000000000E+00 -0.45593999997E+02  0.45594000000E+02  0.51100000000E-03 0.  1.
    9900012    2    1    2    0    0 -0.22971744964E+02  0.27646541359E+02 -0.24322638951E+02  0.47787273263E+02  0.20000010113E+02 0.  0.
         12    1    1    2    0    0  0.22971744964E+02 -0.27646541359E+02  0.24322638951E+02  0.43400726737E+02  0.00000000000E+00 0. -1.
         11    1    3    3    0    0 -0.28352821678E+01 -0.23544721039E+01 -0.53430117324E+01  0.64907733355E+01  0.51100000000E-03 0. -1.
        -11    1    3    3    0    0 -0.10151263569E+01  0.54926832413E+01 -0.31573908835E+01  0.64163204535E+01  0.51100000000E-03 0.  1.
         12    1    3    3    0    0 -0.19121336439E+02  0.24508330221E+02 -0.15822236335E+02  0.34880179474E+02  0.00000000000E+00 0. -1.
</event>
<event>
 7    1  0.2492468E-009  0.4778727E+02  0.7816164E-02  0.1312668E+00
        -11   -1    0    0    0    0  0.00000000000E+00  0.00000000000E+00  0.45593999997E+02  0.45594000000E+02  0.51100000000E-03 0.  1.
         11   -1    0    0    0    0 -0.00000000000E+00 -0.00000000000E+00 -0.45593999997E+02  0.45594000000E+02  0.51100000000E-03 0. -1.
    9900012    2    1    2    0    0 -0.35986395405E+02  0.58152905561E+01  0.23553876134E+02  0.47787270289E+02  0.19999996557E+02 0.  0.
         12    1    1    2    0    0  0.35986395405E+02 -0.58152905561E+01 -0.23553876134E+02  0.43400729711E+02  0.00000000000E+00 0. -1.
         11    1    3    3    0    0 -0.84635509973E+01  0.60911793247E+01  0.12639554602E+02  0.16385740809E+02  0.51100000000E-03 0. -1.
        -11    1    3    3    0    0 -0.63521101477E+01 -0.71604317304E-01  0.77080314595E+01  0.99884022621E+01  0.51100000000E-03 0.  1.
         12    1    3    3    0    0 -0.21170734260E+02 -0.20428445132E+00  0.32062900720E+01  0.21413127219E+02  0.00000000000E+00 0. -1.
</event>
<event>
 7    1  0.2492468E-009  0.4778727E+02  0.7816164E-02  0.1312668E+00
        -11   -1    0    0    0    0  0.00000000000E+00  0.00000000000E+00  0.45593999997E+02  0.45594000000E+02  0.51100000000E-03 0.  1.
         11   -1    0    0    0    0 -0.00000000000E+00 -0.00000000000E+00 -0.45593999997E+02  0.45594000000E+02  0.51100000000E-03 0. -1.
    9900012    2    1    2    0    0  0.36587958531E+02  0.18304572768E+02  0.14487475396E+02  0.47787273773E+02  0.20000012439E+02 0.  0.
         12    1    1    2    0    0 -0.36587958531E+02 -0.18304572768E+02 -0.14487475396E+02  0.43400726227E+02  0.00000000000E+00 0. -1.
         11    1    3    3    0    0  0.19760743638E-01  0.64231887616E+01  0.33668274884E+01  0.72521218931E+01  0.51100000000E-03 0. -1.
        -11    1    3    3    0    0  0.66429470942E+01  0.35611461796E+01  0.44953678863E+01  0.87760378818E+01  0.51100000000E-03 0.  1.
        -12    1    3    3    0    0  0.29925250693E+02  0.83202378267E+01  0.66252800215E+01  0.31759113998E+02  0.00000000000E+00 0.  1.
</event>
<event>
 7    1  0.2492468E-009  0.4778729E+02  0.7816164E-02  0.1312668E+00
        -11   -1    0    0    0    0  0.00000000000E+00  0.00000000000E+00  0.45593999997E+02  0.45594000000E+02  0.51100000000E-03 0.  1.
         11   -1    0    0    0    0 -0.00000000000E+00 -0.00000000000E+00 -0.45593999997E+02  0.45594000000E+02  0.51100000000E-03 0. -1.
    9900012    2    1    2    0    0 -0.67728157760E+01  0.17348037674E+02  0.39201988351E+02  0.47787293377E+02  0.20000101824E+02 0.  0.
         12    1    1    2    0    0  0.67728157760E+01 -0.17348037674E+02 -0.39201988351E+02  0.43400706623E+02  0.00000000000E+00 0. -1.
         11    1    3    3    0    0  0.63624331416E+00 -0.80527099381E+00  0.17145746008E+01  0.19982575538E+01  0.51100000000E-03 0. -1.
        -11    1    3    3    0    0 -0.82433645991E+01  0.21388397697E+02  0.33419075659E+02  0.40524699062E+02  0.51100000000E-03 0.  1.
        -12    1    3    3    0    0  0.83430550891E+00 -0.32350890291E+01  0.40683380915E+01  0.52643367612E+01  0.00000000000E+00 0.  1.
</event>
<event>
 7    1  0.2492468E-009  0.4778727E+02  0.7816164E-02  0.1312668E+00
        -11   -1    0    0    0    0  0.00000000000E+00  0.00000000000E+00  0.45593999997E+02  0.45594000000E+02  0.51100000000E-03 0.  1.
         11   -1    0    0    0    0 -0.00000000000E+00 -0.00000000000E+00 -0.45593999997E+02  0.45594000000E+02  0.51100000000E-03 0. -1.
    9900012    2    1    2    0    0 -0.12969385310E+02  0.19902233870E+02  0.36322437605E+02  0.47787270261E+02  0.19999996426E+02 0.  0.
         12    1    1    2    0    0  0.12969385310E+02 -0.19902233870E+02 -0.36322437605E+02  0.43400729739E+02  0.00000000000E+00 0. -1.
         11    1    3    3    0    0  0.12306931805E-01 -0.12970671463E+00  0.61235835732E+01  0.61249694963E+01  0.51100000000E-03 0. -1.
        -11    1    3    3    0    0  0.31510885991E+01  0.78098239465E+01  0.98953125408E+01  0.12993841617E+02  0.51100000000E-03 0.  1.
         12    1    3    3    0    0 -0.16132780841E+02  0.12222116638E+02  0.20303541491E+02  0.28668459147E+02  0.00000000000E+00 0. -1.
</event>
<event>
 7    1  0.2492468E-009  0.4778728E+02  0.7816164E-02  0.1312668E+00
        -11   -1    0    0    0    0  0.00000000000E+00  0.00000000000E+00  0.45593999997E+02  0.45594000000E+02  0.51100000000E-03 0.  1.
         11   -1    0    0    0    0 -0.00000000000E+00 -0.00000000000E+00 -0.45593999997E+02  0.45594000000E+02  0.51100000000E-03 0. -1.
    9900012    2    1    2    0    0 -0.18481129182E+02 -0.14522397161E+02  0.36485212417E+02  0.47787275580E+02  0.20000020678E+02 0.  0.
         12    1    1    2    0    0  0.18481129182E+02  0.14522397161E+02 -0.36485212417E+02  0.43400724420E+02  0.00000000000E+00 0. -1.
         11    1    3    3    0    0 -0.86780687666E+00 -0.14624897186E+01  0.12229234683E+02  0.12346908364E+02  0.51100000000E-03 0. -1.
        -11    1    3    3    0    0 -0.66651261338E+00 -0.80714769127E+01  0.89001922249E+01  0.12033553113E+02  0.51100000000E-03 0.  1.
         12    1    3    3    0    0 -0.16946809692E+02 -0.49884305295E+01  0.15355785508E+02  0.23406814103E+02  0.00000000000E+00 0. -1.
</event>
<event>
 7    1  0.2492468E-009  0.4778727E+02  0.7816164E-02  0.1312668E+00
        -11   -1    0    0    0    0  0.00000000000E+00  0.00000000000E+00  0.45593999997E+02  0.45594000000E+02  0.51100000000E-03 0.  1.
         11   -1    0    0    0    0 -0.00000000000E+00 -0.00000000000E+00 -0.45593999997E+02  0.45594000000E+02  0.51100000000E-03 0. -1.
    9900012    2    1    2    0    0  0.12484757794E+02 -0.32461081449E+02  0.25962136781E+02  0.47787268068E+02  0.19999986428E+02 0.  0.
         12    1    1    2    0    0 -0.12484757794E+02  0.32461081449E+02 -0.25962136781E+02  0.43400731932E+02  0.00000000000E+00 0. -1.
         11    1    3    3    0    0  0.37431070097E+01 -0.10240958390E+02  0.27843897588E+01  0.11253484146E+02  0.51100000000E-03 0. -1.
        -11    1    3    3    0    0  0.10540407474E+02 -0.13781075333E+02  0.80683757280E+01  0.19134181827E+02  0.51100000000E-03 0.  1.
        -12    1    3    3    0    0 -0.17987566897E+01 -0.84390477265E+01  0.15109371294E+02  0.17399602095E+02  0.00000000000E+00 0.  1.
</event>
<event>
 7    1  0.2492468E-009  0.4778727E+02  0.7816164E-02  0.1312668E+00
        -11   -1    0    0    0    0  0.00000000000E+00  0.00000000000E+00  0.45593999997E+02  0.45594000000E+02  0.51100000000E-03 0.  1.
         11   -1    0    0    0    0 -0.00000000000E+00 -0.00000000000E+00 -0.45593999997E+02  0.45594000000E+02  0.51100000000E-03 0. -1.
    9900012    2    1    2    0    0  0.65606307345E+01 -0.23225463245E+02  0.36071580847E+02  0.47787274622E+02  0.20000016311E+02 0.  0.
         12    1    1    2    0    0 -0.65606307345E+01  0.23225463245E+02 -0.36071580847E+02  0.43400725378E+02  0.00000000000E+00 0. -1.
         11    1    3    3    0    0  0.98803350476E+00 -0.20371841942E+00 -0.45929107795E+00  0.11084493477E+01  0.51100000000E-03 0. -1.
        -11    1    3    3    0    0  0.27403074867E+01 -0.11481958844E+02  0.47056945951E+01  0.12707801773E+02  0.51100000000E-03 0.  1.
        -12    1    3    3    0    0  0.28322897430E+01 -0.11539785982E+02  0.31825177329E+02  0.33971023502E+02  0.00000000000E+00 0.  1.
</event>
<event>
 7    1  0.2492468E-009  0.4778727E+02  0.7816164E-02  0.1312668E+00
        -11   -1    0    0    0    0  0.00000000000E+00  0.00000000000E+00  0.45593999997E+02  0.45594000000E+02  0.51100000000E-03 0.  1.
         11   -1    0    0    0    0 -0.00000000000E+00 -0.00000000000E+00 -0.45593999997E+02  0.45594000000E+02  0.51100000000E-03 0. -1.
    9900012    2    1    2    0    0  0.33393699729E+02 -0.26833985102E+02  0.69585529263E+01  0.47787269628E+02  0.19999993541E+02 0.  0.
         12    1    1    2    0    0 -0.33393699729E+02  0.26833985102E+02 -0.69585529263E+01  0.43400730372E+02  0.00000000000E+00 0. -1.
         11    1    3    3    0    0  0.10435018210E+01 -0.70147885016E+01 -0.26359622967E+01  0.75660062955E+01  0.51100000000E-03 0. -1.
        -11    1    3    3    0    0  0.73678127051E+01 -0.51211833733E+00  0.69881816321E+00  0.74185764359E+01  0.51100000000E-03 0.  1.
        -12    1    3    3    0    0  0.24982385203E+02 -0.19307078263E+02  0.88956970598E+01  0.32802686897E+02  0.00000000000E+00 0.  1.
</event>
<event>
 7    1  0.2492468E-009  0.4778727E+02  0.7816164E-02  0.1312668E+00
        -11   -1    0    0    0    0  0.00000000000E+00  0.00000000000E+00  0.45593999997E+02  0.45594000000E+02  0.51100000000E-03 0. -1.
         11   -1    0    0    0    0 -0.00000000000E+00 -0.00000000000E+00 -0.45593999997E+02  0.45594000000E+02  0.51100000000E-03 0.  1.
    9900012    2    1    2    0    0  0.17052589024E+02  0.30672094752E+02  0.25535363520E+02  0.47787274441E+02  0.20000015488E+02 0.  0.
         12    1    1    2    0    0 -0.17052589024E+02 -0.30672094752E+02 -0.25535363520E+02  0.43400725559E+02  0.00000000000E+00 0. -1.
         11    1    3    3    0    0 -0.13728194345E+01  0.14347388258E+01 -0.11761397671E+01  0.23079024483E+01  0.51100000000E-03 0. -1.
        -11    1    3    3    0    0  0.47484708946E+00  0.26152533102E+01 -0.12175763565E+01  0.29236145574E+01  0.51100000000E-03 0.  1.
         12    1    3    3    0    0  0.17950561369E+02  0.26622102616E+02  0.27929079644E+02  0.42555757436E+02  0.00000000000E+00 0. -1.
</event>
<event>
 7    1  0.2492468E-009  0.4778727E+02  0.7816164E-02  0.1312668E+00
        -11   -1    0    0    0    0  0.00000000000E+00  0.00000000000E+00  0.45593999997E+02  0.45594000000E+02  0.51100000000E-03 0.  1.
         11   -1    0    0    0    0 -0.00000000000E+00 -0.00000000000E+00 -0.45593999997E+02  0.45594000000E+02  0.51100000000E-03 0. -1.
    9900012    2    1    2    0    0  0.54491950565E+01 -0.39023230921E+02  0.18196612833E+02  0.47787274235E+02  0.20000014548E+02 0.  0.
         12    1    1    2    0    0 -0.54491950565E+01  0.39023230921E+02 -0.18196612833E+02  0.43400725765E+02  0.00000000000E+00 0. -1.
         11    1    3    3    0    0 -0.68870847816E+01 -0.16020670483E+02  0.69129975878E+01  0.18758554194E+02  0.51100000000E-03 0. -1.
        -11    1    3    3    0    0  0.25852308302E+01 -0.61672833683E+01  0.57031040138E+01  0.87888678590E+01  0.51100000000E-03 0.  1.
         12    1    3    3    0    0  0.97510490079E+01 -0.16835277070E+02  0.55805112317E+01  0.20239852183E+02  0.00000000000E+00 0. -1.
</event>
<event>
 7    1  0.2572541E-009  0.4778727E+02  0.7816164E-02  0.1312668E+00
        -11   -1    0    0    0    0  0.00000000000E+00  0.00000000000E+00  0.45593999997E+02  0.45594000000E+02  0.51100000000E-03 0. -1.
         11   -1    0    0    0    0 -0.00000000000E+00 -0.00000000000E+00 -0.45593999997E+02  0.45594000000E+02  0.51100000000E-03 0.  1.
    9900012    2    1    2    0    0 -0.21807047517E+02 -0.23383818379E+02 -0.29347458436E+02  0.47787267287E+02  0.19999982867E+02 0.  0.
         12    1    1    2    0    0  0.21807047517E+02  0.23383818379E+02  0.29347458436E+02  0.43400732713E+02  0.00000000000E+00 0. -1.
         11    1    3    3    0    0 -0.37921526787E+01 -0.12908870167E+02 -0.84846388332E+01  0.15906239258E+02  0.51100000000E-03 0. -1.
        -11    1    3    3    0    0 -0.11994513175E+02 -0.12733645575E+02 -0.16926304576E+02  0.24341607646E+02  0.51100000000E-03 0.  1.
         12    1    3    3    0    0 -0.60203816636E+01  0.22586973632E+01 -0.39365150261E+01  0.75394203825E+01  0.00000000000E+00 0. -1.
</event>
<event>
 7    1  0.2492468E-009  0.4778728E+02  0.7816164E-02  0.1312668E+00
        -11   -1    0    0    0    0  0.00000000000E+00  0.00000000000E+00  0.45593999997E+02  0.45594000000E+02  0.51100000000E-03 0. -1.
         11   -1    0    0    0    0 -0.00000000000E+00 -0.00000000000E+00 -0.45593999997E+02  0.45594000000E+02  0.51100000000E-03 0.  1.
    9900012    2    1    2    0    0  0.22270623859E+02  0.83678005178E+01 -0.36299057581E+02  0.47787281644E+02  0.20000048326E+02 0.  0.
         12    1    1    2    0    0 -0.22270623859E+02 -0.83678005178E+01  0.36299057581E+02  0.43400718356E+02  0.00000000000E+00 0. -1.
         11    1    3    3    0    0  0.12364926788E+02  0.48484044434E+01 -0.76567009082E+01  0.15330476482E+02  0.51100000000E-03 0.  1.
        -11    1    3    3    0    0  0.28483390305E+01 -0.10200288942E+01 -0.47054688181E+00  0.30618472867E+01  0.51100000000E-03 0. -1.
        -12    1    3    3    0    0  0.70573580413E+01  0.45394249686E+01 -0.28171809791E+02  0.29394957875E+02  0.00000000000E+00 0.  1.
</event>
<event>
 7    1  0.2492468E-009  0.4778728E+02  0.7816164E-02  0.1312668E+00
        -11   -1    0    0    0    0  0.00000000000E+00  0.00000000000E+00  0.45593999997E+02  0.45594000000E+02  0.51100000000E-03 0.  1.
         11   -1    0    0    0    0 -0.00000000000E+00 -0.00000000000E+00 -0.45593999997E+02  0.45594000000E+02  0.51100000000E-03 0. -1.
    9900012    2    1    2    0    0  0.65030939026E+01 -0.31992532089E+02  0.28597385095E+02  0.47787276803E+02  0.20000026257E+02 0.  0.
         12    1    1    2    0    0 -0.65030939026E+01  0.31992532089E+02 -0.28597385095E+02  0.43400723197E+02  0.00000000000E+00 0. -1.
         11    1    3    3    0    0 -0.10539735068E+01 -0.16954624624E+01  0.17690322220E+01  0.26673823083E+01  0.51100000000E-03 0. -1.
        -11    1    3    3    0    0  0.57375178517E+01 -0.50337056199E+01  0.15694416014E+02  0.17451991223E+02  0.51100000000E-03 0.  1.
         12    1    3    3    0    0  0.18195495577E+01 -0.25263364006E+02  0.11133936859E+02  0.27667903272E+02  0.00000000000E+00 0. -1.
</event>
<event>
 7    1  0.2492468E-009  0.4778728E+02  0.7816164E-02  0.1312668E+00
        -11   -1    0    0    0    0  0.00000000000E+00  0.00000000000E+00  0.45593999997E+02  0.45594000000E+02  0.51100000000E-03 0.  1.
         11   -1    0    0    0    0 -0.00000000000E+00 -0.00000000000E+00 -0.45593999997E+02  0.45594000000E+02  0.51100000000E-03 0. -1.
    9900012    2    1    2    0    0  0.91088077438E+01  0.28361825334E+02  0.31563567793E+02  0.47787281957E+02  0.20000049754E+02 0.  0.
         12    1    1    2    0    0 -0.91088077438E+01 -0.28361825334E+02 -0.31563567793E+02  0.43400718043E+02  0.00000000000E+00 0. -1.
         11    1    3    3    0    0 -0.10031440220E+01  0.18621498557E+01 -0.12105689668E+01  0.24370838103E+01  0.51100000000E-03 0. -1.
        -11    1    3    3    0    0 -0.28446966640E+01  0.52121412203E+01  0.34506646896E+01  0.68677363281E+01  0.51100000000E-03 0.  1.
        -12    1    3    3    0    0  0.12956648430E+02  0.21287534258E+02  0.29323472071E+02  0.38482461818E+02  0.00000000000E+00 0.  1.
</event>
<event>
 7    1  0.2492468E-009  0.4778727E+02  0.7816164E-02  0.1312668E+00
        -11   -1    0    0    0    0  0.00000000000E+00  0.00000000000E+00  0.45593999997E+02  0.45594000000E+02  0.51100000000E-03 0.  1.
         11   -1    0    0    0    0 -0.00000000000E+00 -0.00000000000E+00 -0.45593999997E+02  0.45594000000E+02  0.51100000000E-03 0. -1.
    9900012    2    1    2    0    0  0.37842803906E+02  0.15047559784E+02  0.15003893714E+02  0.47787266256E+02  0.19999978167E+02 0.  0.
         12    1    1    2    0    0 -0.37842803906E+02 -0.15047559784E+02 -0.15003893714E+02  0.43400733744E+02  0.00000000000E+00 0. -1.
         11    1    3    3    0    0  0.28467640197E+02  0.15936604256E+02  0.12784105152E+02  0.35040194611E+02  0.51100000000E-03 0.  1.
        -11    1    3    3    0    0 -0.13284756297E+01 -0.19279721986E+00 -0.85161062307E+00  0.15897355696E+01  0.51100000000E-03 0. -1.
        -12    1    3    3    0    0  0.10703639339E+02 -0.69624725215E+00  0.30713991853E+01  0.11157336075E+02  0.00000000000E+00 0.  1.
</event>
<event>
 7    1  0.2492468E-009  0.4778727E+02  0.7816164E-02  0.1312668E+00
        -11   -1    0    0    0    0  0.00000000000E+00  0.00000000000E+00  0.45593999997E+02  0.45594000000E+02  0.51100000000E-03 0.  1.
         11   -1    0    0    0    0 -0.00000000000E+00 -0.00000000000E+00 -0.45593999997E+02  0.45594000000E+02  0.51100000000E-03 0. -1.
    9900012    2    1    2    0    0  0.80575227021E+01 -0.78446027611E+01  0.41918512809E+02  0.47787272118E+02  0.20000004893E+02 0.  0.
         12    1    1    2    0    0 -0.80575227021E+01  0.78446027611E+01 -0.41918512809E+02  0.43400727882E+02  0.00000000000E+00 0. -1.
         11    1    3    3    0    0 -0.88665876039E+00 -0.84128363632E+01  0.20221369794E+02  0.21919529558E+02  0.51100000000E-03 0. -1.
        -11    1    3    3    0    0  0.74210269654E+01 -0.44734224040E+01  0.11594091109E+02  0.14474325481E+02  0.51100000000E-03 0.  1.
         12    1    3    3    0    0  0.15231544971E+01  0.50416560060E+01  0.10103051906E+02  0.11393417078E+02  0.00000000000E+00 0. -1.
</event>
<event>
 7    1  0.2492468E-009  0.4778727E+02  0.7816164E-02  0.1312668E+00
        -11   -1    0    0    0    0  0.00000000000E+00  0.00000000000E+00  0.45593999997E+02  0.45594000000E+02  0.51100000000E-03 0. -1.
         11   -1    0    0    0    0 -0.00000000000E+00 -0.00000000000E+00 -0.45593999997E+02  0.45594000000E+02  0.51100000000E-03 0.  1.
    9900012    2    1    2    0    0 -0.13398481701E+02  0.28106081422E+01 -0.41185006016E+02  0.47787267857E+02  0.19999985467E+02 0.  0.
         12    1    1    2    0    0  0.13398481701E+02 -0.28106081422E+01  0.41185006016E+02  0.43400732143E+02  0.00000000000E+00 0. -1.
         11    1    3    3    0    0  0.19648105316E+01  0.19678107841E+01 -0.13878984596E+01  0.31078967329E+01  0.51100000000E-03 0. -1.
        -11    1    3    3    0    0 -0.10453068729E+02 -0.35308539052E+01 -0.34543502675E+02  0.36262751585E+02  0.51100000000E-03 0.  1.
         12    1    3    3    0    0 -0.49102235035E+01  0.43736512633E+01 -0.52536048811E+01  0.84166195395E+01  0.00000000000E+00 0. -1.
</event>
<event>
 7    1  0.2492468E-009  0.4778727E+02  0.7816164E-02  0.1312668E+00
        -11   -1    0    0    0    0  0.00000000000E+00  0.00000000000E+00  0.45593999997E+02  0.45594000000E+02  0.51100000000E-03 0.  1.
         11   -1    0    0    0    0 -0.00000000000E+00 -0.00000000000E+00 -0.45593999997E+02  0.45594000000E+02  0.51100000000E-03 0. -1.
    9900012    2    1    2    0    0  0.30932066486E+02  0.78944074107E+01  0.29402529870E+02  0.47787272262E+02  0.20000005550E+02 0.  0.
         12    1    1    2    0    0 -0.30932066486E+02 -0.78944074107E+01 -0.29402529870E+02  0.43400727738E+02  0.00000000000E+00 0. -1.
         11    1    3    3    0    0  0.14174641648E+02 -0.15991342899E+01  0.13047185111E+02  0.19331495957E+02  0.51100000000E-03 0. -1.
        -11    1    3    3    0    0  0.12648852965E+02  0.11575384135E+02  0.16570838783E+02  0.23844825380E+02  0.51100000000E-03 0.  1.
         12    1    3    3    0    0  0.41085718728E+01 -0.20818424341E+01 -0.21549402414E+00  0.46109509246E+01  0.00000000000E+00 0. -1.
</event>
<event>
 7    1  0.2492468E-009  0.4778727E+02  0.7816164E-02  0.1312668E+00
        -11   -1    0    0    0    0  0.00000000000E+00  0.00000000000E+00  0.45593999997E+02  0.45594000000E+02  0.51100000000E-03 0.  1.
         11   -1    0    0    0    0 -0.00000000000E+00 -0.00000000000E+00 -0.45593999997E+02  0.45594000000E+02  0.51100000000E-03 0. -1.
    9900012    2    1    2    0    0 -0.19073192008E+02  0.23278474516E+01  0.38915520631E+02  0.47787271053E+02  0.20000000040E+02 0.  0.
         12    1    1    2    0    0  0.19073192008E+02 -0.23278474516E+01 -0.38915520631E+02  0.43400728947E+02  0.00000000000E+00 0. -1.
         11    1    3    3    0    0 -0.16105452706E+01 -0.79388367100E+00 -0.72461682803E+00  0.19362792052E+01  0.51100000000E-03 0. -1.
        -11    1    3    3    0    0 -0.55906316810E+01 -0.30274661520E+01  0.33712676754E+01  0.71962601325E+01  0.51100000000E-03 0.  1.
         12    1    3    3    0    0 -0.11872015056E+02  0.61491972746E+01  0.36268869784E+02  0.38654731716E+02  0.00000000000E+00 0. -1.
</event>
<event>
 7    1  0.2492468E-009  0.4778727E+02  0.7816164E-02  0.1312668E+00
        -11   -1    0    0    0    0  0.00000000000E+00  0.00000000000E+00  0.45593999997E+02  0.45594000000E+02  0.51100000000E-03 0.  1.
         11   -1    0    0    0    0 -0.00000000000E+00 -0.00000000000E+00 -0.45593999997E+02  0.45594000000E+02  0.51100000000E-03 0. -1.
    9900012    2    1    2    0    0 -0.97405238418E+01  0.31964812534E+02  0.27694698638E+02  0.47787269848E+02  0.19999994545E+02 0.  0.
         12    1    1    2    0    0  0.97405238418E+01 -0.31964812534E+02 -0.27694698638E+02  0.43400730152E+02  0.00000000000E+00 0. -1.
         11    1    3    3    0    0 -0.18111317022E+01 -0.17614119651E+01  0.15163191802E+01  0.29465224029E+01  0.51100000000E-03 0. -1.
        -11    1    3    3    0    0 -0.51483215871E+01  0.82712587696E+01  0.12377986881E+02  0.15752253689E+02  0.51100000000E-03 0.  1.
         12    1    3    3    0    0 -0.27810705525E+01  0.25454965730E+02  0.13800392577E+02  0.29088493756E+02  0.00000000000E+00 0. -1.
</event>
<event>
 7    1  0.2492468E-009  0.4778727E+02  0.7816164E-02  0.1312668E+00
        -11   -1    0    0    0    0  0.00000000000E+00  0.00000000000E+00  0.45593999997E+02  0.45594000000E+02  0.51100000000E-03 0.  1.
         11   -1    0    0    0    0 -0.00000000000E+00 -0.00000000000E+00 -0.45593999997E+02  0.45594000000E+02  0.51100000000E-03 0. -1.
    9900012    2    1    2    0    0  0.26886080208E+02  0.23007659494E+02  0.25127865176E+02  0.47787270597E+02  0.19999997962E+02 0.  0.
         12    1    1    2    0    0 -0.26886080208E+02 -0.23007659494E+02 -0.25127865176E+02  0.43400729403E+02  0.00000000000E+00 0. -1.
         11    1    3    3    0    0  0.17529327303E+02  0.70817984494E+01  0.16845455726E+02  0.25321898899E+02  0.51100000000E-03 0. -1.
        -11    1    3    3    0    0  0.84256982543E+01  0.11334984130E+02  0.10181373931E+02  0.17410761950E+02  0.51100000000E-03 0.  1.
         12    1    3    3    0    0  0.93105465014E+00  0.45908769148E+01 -0.18989644804E+01  0.50546097481E+01  0.00000000000E+00 0. -1.
</event>
<event>
 7    1  0.2492468E-009  0.4778727E+02  0.7816164E-02  0.1312668E+00
        -11   -1    0    0    0    0  0.00000000000E+00  0.00000000000E+00  0.45593999997E+02  0.45594000000E+02  0.51100000000E-03 0.  1.
         11   -1    0    0    0    0 -0.00000000000E+00 -0.00000000000E+00 -0.45593999997E+02  0.45594000000E+02  0.51100000000E-03 0. -1.
    9900012    2    1    2    0    0  0.21271903064E+02 -0.36585585727E+02  0.96241524501E+01  0.47787271281E+02  0.20000001078E+02 0.  0.
         12    1    1    2    0    0 -0.21271903064E+02  0.36585585727E+02 -0.96241524501E+01  0.43400728719E+02  0.00000000000E+00 0. -1.
         11    1    3    3    0    0  0.11494622266E+02 -0.66873399669E+01  0.49612903440E+01  0.14193704908E+02  0.51100000000E-03 0. -1.
        -11    1    3    3    0    0  0.71514440959E+01 -0.12959499046E+02  0.68565531899E+01  0.16312697205E+02  0.51100000000E-03 0.  1.
        -12    1    3    3    0    0  0.26258367018E+01 -0.16938746714E+02 -0.21936910837E+01  0.17280869168E+02  0.00000000000E+00 0.  1.
</event>
<event>
 7    1  0.2492468E-009  0.4778727E+02  0.7816164E-02  0.1312668E+00
        -11   -1    0    0    0    0  0.00000000000E+00  0.00000000000E+00  0.45593999997E+02  0.45594000000E+02  0.51100000000E-03 0.  1.
         11   -1    0    0    0    0 -0.00000000000E+00 -0.00000000000E+00 -0.45593999997E+02  0.45594000000E+02  0.51100000000E-03 0. -1.
    9900012    2    1    2    0    0 -0.17398844143E+02  0.22254211019E+02  0.32949261893E+02  0.47787267922E+02  0.19999985765E+02 0.  0.
         12    1    1    2    0    0  0.17398844143E+02 -0.22254211019E+02 -0.32949261893E+02  0.43400732078E+02  0.00000000000E+00 0. -1.
         11    1    3    3    0    0 -0.93034949685E+01  0.95936224485E+00  0.14076830977E+02  0.16900667595E+02  0.51100000000E-03 0. -1.
        -11    1    3    3    0    0  0.15131624594E+01  0.12953088180E+01  0.43697443882E+00  0.20392235003E+01  0.51100000000E-03 0.  1.
        -12    1    3    3    0    0 -0.96085116335E+01  0.19999539957E+02  0.18435456477E+02  0.28847376827E+02  0.00000000000E+00 0.  1.
</event>
<event>
 7    1  0.2492468E-009  0.4778728E+02  0.7816164E-02  0.1312668E+00
        -11   -1    0    0    0    0  0.00000000000E+00  0.00000000000E+00  0.45593999997E+02  0.45594000000E+02  0.51100000000E-03 0.  1.
         11   -1    0    0    0    0 -0.00000000000E+00 -0.00000000000E+00 -0.45593999997E+02  0.45594000000E+02  0.51100000000E-03 0. -1.
    9900012    2    1    2    0    0  0.24139675671E+02  0.25143308003E+02  0.25859476142E+02  0.47787281283E+02  0.20000046680E+02 0.  0.
         12    1    1    2    0    0 -0.24139675671E+02 -0.25143308003E+02 -0.25859476142E+02  0.43400718717E+02  0.00000000000E+00 0. -1.
         11    1    3    3    0    0 -0.17933321018E+01  0.28554085766E+00  0.36676487071E+01  0.40925812036E+01  0.51100000000E-03 0. -1.
        -11    1    3    3    0    0  0.10419489953E+02  0.15981256550E+02  0.72875156729E+01  0.20422394981E+02  0.51100000000E-03 0.  1.
        -12    1    3    3    0    0  0.15513517819E+02  0.88765105952E+01  0.14904311762E+02  0.23272305098E+02  0.00000000000E+00 0.  1.
</event>
<event>
 7    1  0.2492468E-009  0.4778727E+02  0.7816164E-02  0.1312668E+00
        -11   -1    0    0    0    0  0.00000000000E+00  0.00000000000E+00  0.45593999997E+02  0.45594000000E+02  0.51100000000E-03 0. -1.
         11   -1    0    0    0    0 -0.00000000000E+00 -0.00000000000E+00 -0.45593999997E+02  0.45594000000E+02  0.51100000000E-03 0.  1.
    9900012    2    1    2    0    0 -0.15800649661E+02 -0.67041603894E+01 -0.39862476436E+02  0.47787270468E+02  0.19999997374E+02 0.  0.
         12    1    1    2    0    0  0.15800649661E+02  0.67041603894E+01  0.39862476436E+02  0.43400729532E+02  0.00000000000E+00 0. -1.
         11    1    3    3    0    0  0.24397743461E+01  0.14650325030E+01 -0.31482435982E+01  0.42438493269E+01  0.51100000000E-03 0. -1.
        -11    1    3    3    0    0 -0.42273403674E-01 -0.48594999974E+01 -0.64762919829E+01  0.80968441614E+01  0.51100000000E-03 0.  1.
         12    1    3    3    0    0 -0.18198150604E+02 -0.33096928949E+01 -0.30237940855E+02  0.35446576980E+02  0.00000000000E+00 0. -1.
</event>
<event>
 7    1  0.2492468E-009  0.4778727E+02  0.7816164E-02  0.1312668E+00
        -11   -1    0    0    0    0  0.00000000000E+00  0.00000000000E+00  0.45593999997E+02  0.45594000000E+02  0.51100000000E-03 0.  1.
         11   -1    0    0    0    0 -0.00000000000E+00 -0.00000000000E+00 -0.45593999997E+02  0.45594000000E+02  0.51100000000E-03 0. -1.
    9900012    2    1    2    0    0  0.35491102891E+01  0.43175425400E+02  0.26285962004E+01  0.47787273505E+02  0.20000011219E+02 0.  0.
         12    1    1    2    0    0 -0.35491102891E+01 -0.43175425400E+02 -0.26285962004E+01  0.43400726495E+02  0.00000000000E+00 0. -1.
         11    1    3    3    0    0  0.83586883907E+00  0.11950904889E+02 -0.61046056026E+01  0.13445780535E+02  0.51100000000E-03 0. -1.
        -11    1    3    3    0    0 -0.35004864833E+01  0.13265050768E+02  0.78284018978E+00  0.13741463405E+02  0.51100000000E-03 0.  1.
        -12    1    3    3    0    0  0.62137279334E+01  0.17959469743E+02  0.79503616132E+01  0.20600029565E+02  0.00000000000E+00 0.  1.
</event>
<event>
 7    1  0.2492468E-009  0.4778729E+02  0.7816164E-02  0.1312668E+00
        -11   -1    0    0    0    0  0.00000000000E+00  0.00000000000E+00  0.45593999997E+02  0.45594000000E+02  0.51100000000E-03 0.  1.
         11   -1    0    0    0    0 -0.00000000000E+00 -0.00000000000E+00 -0.45593999997E+02  0.45594000000E+02  0.51100000000E-03 0. -1.
    9900012    2    1    2    0    0 -0.32429588562E+02  0.28718855529E+02  0.26778696301E+01  0.47787287299E+02  0.20000074110E+02 0.  0.
         12    1    1    2    0    0  0.32429588562E+02 -0.28718855529E+02 -0.26778696301E+01  0.43400712701E+02  0.00000000000E+00 0. -1.
         11    1    3    3    0    0 -0.98015044090E+01  0.17034278363E+02  0.39437463706E+00  0.19656847653E+02  0.51100000000E-03 0. -1.
        -11    1    3    3    0    0 -0.20273340460E+02  0.14068204735E+02  0.17582057191E+01  0.24738916821E+02  0.51100000000E-03 0.  1.
        -12    1    3    3    0    0 -0.23547436935E+01 -0.23836275691E+01  0.52528927393E+00  0.33915228249E+01  0.00000000000E+00 0.  1.
</event>
<event>
 7    1  0.2492468E-009  0.4778727E+02  0.7816164E-02  0.1312668E+00
        -11   -1    0    0    0    0  0.00000000000E+00  0.00000000000E+00  0.45593999997E+02  0.45594000000E+02  0.51100000000E-03 0.  1.
         11   -1    0    0    0    0 -0.00000000000E+00 -0.00000000000E+00 -0.45593999997E+02  0.45594000000E+02  0.51100000000E-03 0. -1.
    9900012    2    1    2    0    0 -0.29418409330E+02 -0.21689529008E+02  0.23403949670E+02  0.47787270326E+02  0.19999996723E+02 0.  0.
         12    1    1    2    0    0  0.29418409330E+02  0.21689529008E+02 -0.23403949670E+02  0.43400729674E+02  0.00000000000E+00 0. -1.
         11    1    3    3    0    0 -0.15277509091E+02 -0.57699246420E+01  0.29376510055E+01  0.16592893301E+02  0.51100000000E-03 0. -1.
        -11    1    3    3    0    0 -0.44476564870E+01 -0.90916882149E+01  0.39540614118E+01  0.10866234156E+02  0.51100000000E-03 0.  1.
        -12    1    3    3    0    0 -0.96932437515E+01 -0.68279161514E+01  0.16512237253E+02  0.20328142869E+02  0.00000000000E+00 0.  1.
</event>
<event>
 7    1  0.2492468E-009  0.4778727E+02  0.7816164E-02  0.1312668E+00
        -11   -1    0    0    0    0  0.00000000000E+00  0.00000000000E+00  0.45593999997E+02  0.45594000000E+02  0.51100000000E-03 0.  1.
         11   -1    0    0    0    0 -0.00000000000E+00 -0.00000000000E+00 -0.45593999997E+02  0.45594000000E+02  0.51100000000E-03 0. -1.
    9900012    2    1    2    0    0  0.17866574252E+02 -0.16278525988E+02  0.36047444924E+02  0.47787272248E+02  0.20000005488E+02 0.  0.
         12    1    1    2    0    0 -0.17866574252E+02  0.16278525988E+02 -0.36047444924E+02  0.43400727752E+02  0.00000000000E+00 0. -1.
         11    1    3    3    0    0  0.20428171517E+01 -0.19234955735E+01  0.74974872885E+01  0.80053265417E+01  0.51100000000E-03 0. -1.
        -11    1    3    3    0    0  0.97162666413E+01 -0.11041873291E+02  0.54923103057E+01  0.15700136177E+02  0.51100000000E-03 0.  1.
        -12    1    3    3    0    0  0.61074904587E+01 -0.33131571236E+01  0.23057647330E+02  0.24081809530E+02  0.00000000000E+00 0.  1.
</event>
<event>
 7    1  0.2492468E-009  0.4778724E+02  0.7816164E-02  0.1312668E+00
        -11   -1    0    0    0    0  0.00000000000E+00  0.00000000000E+00  0.45593999997E+02  0.45594000000E+02  0.51100000000E-03 0.  1.
         11   -1    0    0    0    0 -0.00000000000E+00 -0.00000000000E+00 -0.45593999997E+02  0.45594000000E+02  0.51100000000E-03 0. -1.
    9900012    2    1    2    0    0  0.29060171703E+02  0.27001713022E+02 -0.17607938379E+02  0.47787244482E+02  0.19999878891E+02 0.  0.
         12    1    1    2    0    0 -0.29060171703E+02 -0.27001713022E+02  0.17607938379E+02  0.43400755518E+02  0.00000000000E+00 0. -1.
         11    1    3    3    0    0  0.90808031129E+01  0.60570400844E+01  0.47139807108E+00  0.10925700717E+02  0.51100000000E-03 0. -1.
        -11    1    3    3    0    0  0.21931579898E+02  0.17479894602E+02 -0.14823527558E+02  0.31721883324E+02  0.51100000000E-03 0.  1.
         12    1    3    3    0    0 -0.19522113073E+01  0.34647783362E+01 -0.32558088913E+01  0.51396604405E+01  0.00000000000E+00 0. -1.
</event>
<event>
 7    1  0.2639531E-009  0.4778727E+02  0.7816164E-02  0.1312668E+00
        -11   -1    0    0    0    0  0.00000000000E+00  0.00000000000E+00  0.45593999997E+02  0.45594000000E+02  0.51100000000E-03 0. -1.
         11   -1    0    0    0    0 -0.00000000000E+00 -0.00000000000E+00 -0.45593999997E+02  0.45594000000E+02  0.51100000000E-03 0.  1.
    9900012    2    1    2    0    0  0.28489343951E+02  0.27225486555E+02 -0.18186631249E+02  0.47787269671E+02  0.19999993736E+02 0.  0.
         12    1    1    2    0    0 -0.28489343951E+02 -0.27225486555E+02  0.18186631249E+02  0.43400730329E+02  0.00000000000E+00 0. -1.
         11    1    3    3    0    0  0.18884075095E+00  0.10608798719E+02 -0.48649902702E+01  0.11672634736E+02  0.51100000000E-03 0. -1.
        -11    1    3    3    0    0  0.11756597440E+02  0.10968228281E+02 -0.67693844672E+01  0.17445463058E+02  0.51100000000E-03 0.  1.
         12    1    3    3    0    0  0.16543905760E+02  0.56484595552E+01 -0.65522565118E+01  0.18669171876E+02  0.00000000000E+00 0. -1.
</event>
<event>
 7    1  0.2492468E-009  0.4778727E+02  0.7816164E-02  0.1312668E+00
        -11   -1    0    0    0    0  0.00000000000E+00  0.00000000000E+00  0.45593999997E+02  0.45594000000E+02  0.51100000000E-03 0.  1.
         11   -1    0    0    0    0 -0.00000000000E+00 -0.00000000000E+00 -0.45593999997E+02  0.45594000000E+02  0.51100000000E-03 0. -1.
    9900012    2    1    2    0    0  0.91984141772E+01 -0.39695037224E+02  0.14943771678E+02  0.47787272868E+02  0.20000008316E+02 0.  0.
         12    1    1    2    0    0 -0.91984141772E+01  0.39695037224E+02 -0.14943771678E+02  0.43400727132E+02  0.00000000000E+00 0. -1.
         11    1    3    3    0    0  0.18683731766E+01 -0.48940271846E+01  0.25420534618E+01  0.58227447544E+01  0.51100000000E-03 0. -1.
        -11    1    3    3    0    0  0.13475803758E+02 -0.25994925731E+02  0.10172508047E+02  0.30996989708E+02  0.51100000000E-03 0.  1.
         12    1    3    3    0    0 -0.61457627575E+01 -0.88060843083E+01  0.22292101685E+01  0.10967538406E+02  0.00000000000E+00 0. -1.
</event>
<event>
 7    1  0.2492468E-009  0.4778727E+02  0.7816164E-02  0.1312668E+00
        -11   -1    0    0    0    0  0.00000000000E+00  0.00000000000E+00  0.45593999997E+02  0.45594000000E+02  0.51100000000E-03 0. -1.
         11   -1    0    0    0    0 -0.00000000000E+00 -0.00000000000E+00 -0.45593999997E+02  0.45594000000E+02  0.51100000000E-03 0.  1.
    9900012    2    1    2    0    0 -0.43343176988E+02  0.19281265949E+01 -0.11290315274E+01  0.47787269870E+02  0.19999994647E+02 0.  0.
         12    1    1    2    0    0  0.43343176988E+02 -0.19281265949E+01  0.11290315274E+01  0.43400730130E+02  0.00000000000E+00 0. -1.
         11    1    3    3    0    0  0.54631693930E-01 -0.15745951780E+01 -0.96681789182E-01  0.15785063275E+01  0.51100000000E-03 0. -1.
        -11    1    3    3    0    0 -0.33660831435E+01  0.29360321312E+01  0.38235033381E+01  0.58796240052E+01  0.51100000000E-03 0.  1.
        -12    1    3    3    0    0 -0.40031725539E+02  0.56668964166E+00 -0.48558530763E+01  0.40329139538E+02  0.00000000000E+00 0.  1.
</event>
<event>
 7    1  0.3009635E-009  0.4778727E+02  0.7816164E-02  0.1312668E+00
        -11   -1    0    0    0    0  0.00000000000E+00  0.00000000000E+00  0.45593999997E+02  0.45594000000E+02  0.51100000000E-03 0.  1.
         11   -1    0    0    0    0 -0.00000000000E+00 -0.00000000000E+00 -0.45593999997E+02  0.45594000000E+02  0.51100000000E-03 0. -1.
    9900012    2    1    2    0    0 -0.39163541590E+02  0.95629767575E+01  0.16074513000E+02  0.47787268641E+02  0.19999989040E+02 0.  0.
         12    1    1    2    0    0  0.39163541590E+02 -0.95629767575E+01 -0.16074513000E+02  0.43400731359E+02  0.00000000000E+00 0. -1.
         11    1    3    3    0    0 -0.10754913760E+02  0.27791070954E+01  0.11629347206E+02  0.16082080803E+02  0.51100000000E-03 0. -1.
        -11    1    3    3    0    0 -0.16329387268E+02 -0.95056183488E+00  0.56647317131E+01  0.17310160080E+02  0.51100000000E-03 0.  1.
         12    1    3    3    0    0 -0.12079240561E+02  0.77344314970E+01 -0.12195659188E+01  0.14395027758E+02  0.00000000000E+00 0. -1.
</event>
<event>
 7    1  0.2492468E-009  0.4778727E+02  0.7816164E-02  0.1312668E+00
        -11   -1    0    0    0    0  0.00000000000E+00  0.00000000000E+00  0.45593999997E+02  0.45594000000E+02  0.51100000000E-03 0.  1.
         11   -1    0    0    0    0 -0.00000000000E+00 -0.00000000000E+00 -0.45593999997E+02  0.45594000000E+02  0.51100000000E-03 0. -1.
    9900012    2    1    2    0    0  0.83708888616E+01  0.28313024953E+02  0.31810754666E+02  0.47787271034E+02  0.19999999952E+02 0.  0.
         12    1    1    2    0    0 -0.83708888616E+01 -0.28313024953E+02 -0.31810754666E+02  0.43400728966E+02  0.00000000000E+00 0. -1.
         11    1    3    3    0    0  0.37327957978E+01  0.40111257678E+01  0.77192182759E+00  0.55334219035E+01  0.51100000000E-03 0. -1.
        -11    1    3    3    0    0  0.68409762168E+01  0.49152467072E+01  0.52879316455E+01  0.99458949894E+01  0.51100000000E-03 0.  1.
         12    1    3    3    0    0 -0.22028831529E+01  0.19386652478E+02  0.25750901193E+02  0.32307954141E+02  0.00000000000E+00 0. -1.
</event>
<event>
 7    1  0.2492468E-009  0.4778727E+02  0.7816164E-02  0.1312668E+00
        -11   -1    0    0    0    0  0.00000000000E+00  0.00000000000E+00  0.45593999997E+02  0.45594000000E+02  0.51100000000E-03 0. -1.
         11   -1    0    0    0    0 -0.00000000000E+00 -0.00000000000E+00 -0.45593999997E+02  0.45594000000E+02  0.51100000000E-03 0.  1.
    9900012    2    1    2    0    0  0.79538358877E+01 -0.41952984493E+02 -0.77657343341E+01  0.47787273705E+02  0.20000012131E+02 0.  0.
         12    1    1    2    0    0 -0.79538358877E+01  0.41952984493E+02  0.77657343341E+01  0.43400726295E+02  0.00000000000E+00 0. -1.
         11    1    3    3    0    0  0.63651638557E+01 -0.10447004610E+02 -0.41276361245E+01  0.12910948706E+02  0.51100000000E-03 0. -1.
        -11    1    3    3    0    0  0.36675986546E+01 -0.62352936408E+00 -0.90340529683E-01  0.37213210600E+01  0.51100000000E-03 0.  1.
         12    1    3    3    0    0 -0.20789266226E+01 -0.30882450518E+02 -0.35477576800E+01  0.31155003940E+02  0.00000000000E+00 0. -1.
</event>
<event>
 7    1  0.2492468E-009  0.4778726E+02  0.7816164E-02  0.1312668E+00
        -11   -1    0    0    0    0  0.00000000000E+00  0.00000000000E+00  0.45593999997E+02  0.45594000000E+02  0.51100000000E-03 0.  1.
         11   -1    0    0    0    0 -0.00000000000E+00 -0.00000000000E+00 -0.45593999997E+02  0.45594000000E+02  0.51100000000E-03 0. -1.
    9900012    2    1    2    0    0 -0.31429567014E+02  0.27310920301E+02 -0.12244205002E+02  0.47787255692E+02  0.19999930003E+02 0.  0.
         12    1    1    2    0    0  0.31429567014E+02 -0.27310920301E+02  0.12244205002E+02  0.43400744308E+02  0.00000000000E+00 0. -1.
         11    1    3    3    0    0 -0.95713860093E+01  0.69292191507E+01 -0.32158416869E+00  0.11820698999E+02  0.51100000000E-03 0. -1.
        -11    1    3    3    0    0 -0.21105559068E+02  0.17253913878E+02 -0.41761858905E+01  0.27578663792E+02  0.51100000000E-03 0.  1.
         12    1    3    3    0    0 -0.75262193602E+00  0.31277872716E+01 -0.77464349432E+01  0.83878929013E+01  0.00000000000E+00 0. -1.
</event>
<event>
 7    1  0.2492468E-009  0.4778727E+02  0.7816164E-02  0.1312668E+00
        -11   -1    0    0    0    0  0.00000000000E+00  0.00000000000E+00  0.45593999997E+02  0.45594000000E+02  0.51100000000E-03 0.  1.
         11   -1    0    0    0    0 -0.00000000000E+00 -0.00000000000E+00 -0.45593999997E+02  0.45594000000E+02  0.51100000000E-03 0. -1.
    9900012    2    1    2    0    0  0.36819297502E+01  0.12548903358E+02  0.41383468796E+02  0.47787273373E+02  0.20000010618E+02 0.  0.
         12    1    1    2    0    0 -0.36819297502E+01 -0.12548903358E+02 -0.41383468796E+02  0.43400726627E+02  0.00000000000E+00 0. -1.
         11    1    3    3    0    0 -0.16046490382E+01 -0.17428728106E+01  0.10046789722E+01  0.25733022108E+01  0.51100000000E-03 0. -1.
        -11    1    3    3    0    0  0.27624185387E+00  0.10027988720E+02  0.10125191424E+02  0.14253293267E+02  0.51100000000E-03 0.  1.
        -12    1    3    3    0    0  0.50103369345E+01  0.42637874484E+01  0.30253598400E+02  0.30960677895E+02  0.00000000000E+00 0.  1.
</event>
<event>
 7    1  0.2492468E-009  0.4778726E+02  0.7816164E-02  0.1312668E+00
        -11   -1    0    0    0    0  0.00000000000E+00  0.00000000000E+00  0.45593999997E+02  0.45594000000E+02  0.51100000000E-03 0. -1.
         11   -1    0    0    0    0 -0.00000000000E+00 -0.00000000000E+00 -0.45593999997E+02  0.45594000000E+02  0.51100000000E-03 0.  1.
    9900012    2    1    2    0    0  0.13085668597E+02  0.41152192339E+02  0.43458976711E+01  0.47787257109E+02  0.19999936463E+02 0.  0.
         12    1    1    2    0    0 -0.13085668597E+02 -0.41152192339E+02 -0.43458976711E+01  0.43400742891E+02  0.00000000000E+00 0. -1.
         11    1    3    3    0    0  0.37865988167E+01  0.86380238488E+01  0.29330914774E+00  0.94360911997E+01  0.51100000000E-03 0. -1.
        -11    1    3    3    0    0  0.14521260286E+02  0.25509835412E+02  0.23258094734E+01  0.29445340769E+02  0.51100000000E-03 0.  1.
         12    1    3    3    0    0 -0.52221905056E+01  0.70043330778E+01  0.17267790500E+01  0.89058251403E+01  0.00000000000E+00 0. -1.
</event>
<event>
 7    1  0.2492468E-009  0.4778727E+02  0.7816164E-02  0.1312668E+00
        -11   -1    0    0    0    0  0.00000000000E+00  0.00000000000E+00  0.45593999997E+02  0.45594000000E+02  0.51100000000E-03 0.  1.
         11   -1    0    0    0    0 -0.00000000000E+00 -0.00000000000E+00 -0.45593999997E+02  0.45594000000E+02  0.51100000000E-03 0. -1.
    9900012    2    1    2    0    0  0.42685839680E+02  0.21116196293E+00  0.78420509440E+01  0.47787271187E+02  0.20000000648E+02 0.  0.
         12    1    1    2    0    0 -0.42685839680E+02 -0.21116196293E+00 -0.78420509440E+01  0.43400728813E+02  0.00000000000E+00 0. -1.
         11    1    3    3    0    0  0.10061613048E+02  0.10463618843E+01 -0.42536858338E+01  0.10973822204E+02  0.51100000000E-03 0. -1.
        -11    1    3    3    0    0  0.16646999866E+02  0.54925173315E+01  0.50707256357E+01  0.18248359102E+02  0.51100000000E-03 0.  1.
        -12    1    3    3    0    0  0.15977226765E+02 -0.63277172529E+01  0.70250111421E+01  0.18565089881E+02  0.00000000000E+00 0.  1.
</event>
<event>
 7    1  0.2492468E-009  0.4778728E+02  0.7816164E-02  0.1312668E+00
        -11   -1    0    0    0    0  0.00000000000E+00  0.00000000000E+00  0.45593999997E+02  0.45594000000E+02  0.51100000000E-03 0.  1.
         11   -1    0    0    0    0 -0.00000000000E+00 -0.00000000000E+00 -0.45593999997E+02  0.45594000000E+02  0.51100000000E-03 0. -1.
    9900012    2    1    2    0    0  0.39750687020E+02  0.44508658128E+01  0.16843259672E+02  0.47787277409E+02  0.20000029020E+02 0.  0.
         12    1    1    2    0    0 -0.39750687020E+02 -0.44508658128E+01 -0.16843259672E+02  0.43400722591E+02  0.00000000000E+00 0. -1.
         11    1    3    3    0    0  0.28608848648E+02 -0.42932652870E+00  0.72283312696E+01  0.29511003294E+02  0.51100000000E-03 0. -1.
        -11    1    3    3    0    0  0.87114774280E+01 -0.11946395662E+01  0.40243402917E+01  0.96701767158E+01  0.51100000000E-03 0.  1.
        -12    1    3    3    0    0  0.24303609439E+01  0.60748319077E+01  0.55905881104E+01  0.86060973992E+01  0.00000000000E+00 0.  1.
</event>
<event>
 7    1  0.2492468E-009  0.4778727E+02  0.7816164E-02  0.1312668E+00
        -11   -1    0    0    0    0  0.00000000000E+00  0.00000000000E+00  0.45593999997E+02  0.45594000000E+02  0.51100000000E-03 0.  1.
         11   -1    0    0    0    0 -0.00000000000E+00 -0.00000000000E+00 -0.45593999997E+02  0.45594000000E+02  0.51100000000E-03 0. -1.
    9900012    2    1    2    0    0  0.27764601758E+02 -0.29088837598E+02 -0.16327580886E+02  0.47787268656E+02  0.19999989112E+02 0.  0.
         12    1    1    2    0    0 -0.27764601758E+02  0.29088837598E+02  0.16327580886E+02  0.43400731344E+02  0.00000000000E+00 0. -1.
         11    1    3    3    0    0  0.98278291465E+01 -0.80872146522E+01  0.17184428513E+01  0.12842986906E+02  0.51100000000E-03 0. -1.
        -11    1    3    3    0    0 -0.14143043370E+00  0.57705318099E+00  0.85191971407E+00  0.10386339113E+01  0.51100000000E-03 0.  1.
        -12    1    3    3    0    0  0.18078203045E+02 -0.21578676127E+02 -0.18897943451E+02  0.33905647839E+02  0.00000000000E+00 0.  1.
</event>
<event>
 7    1  0.2492468E-009  0.4778727E+02  0.7816164E-02  0.1312668E+00
        -11   -1    0    0    0    0  0.00000000000E+00  0.00000000000E+00  0.45593999997E+02  0.45594000000E+02  0.51100000000E-03 0.  1.
         11   -1    0    0    0    0 -0.00000000000E+00 -0.00000000000E+00 -0.45593999997E+02  0.45594000000E+02  0.51100000000E-03 0. -1.
    9900012    2    1    2    0    0 -0.20795050808E+02 -0.52907086935E+01  0.37725289697E+02  0.47787271673E+02  0.20000002865E+02 0.  0.
         12    1    1    2    0    0  0.20795050808E+02  0.52907086935E+01 -0.37725289697E+02  0.43400728327E+02  0.00000000000E+00 0. -1.
         11    1    3    3    0    0 -0.91499911948E+00 -0.42900223184E+01  0.32129802454E+01  0.54373483611E+01  0.51100000000E-03 0. -1.
        -11    1    3    3    0    0 -0.50324310479E+01 -0.32256483666E+01  0.22026228594E+02  0.22822903320E+02  0.51100000000E-03 0.  1.
        -12    1    3    3    0    0 -0.14847620641E+02  0.22249619915E+01  0.12486080858E+02  0.19527019991E+02  0.00000000000E+00 0.  1.
</event>
<event>
 7    1  0.2492468E-009  0.4778727E+02  0.7816164E-02  0.1312668E+00
        -11   -1    0    0    0    0  0.00000000000E+00  0.00000000000E+00  0.45593999997E+02  0.45594000000E+02  0.51100000000E-03 0.  1.
         11   -1    0    0    0    0 -0.00000000000E+00 -0.00000000000E+00 -0.45593999997E+02  0.45594000000E+02  0.51100000000E-03 0. -1.
    9900012    2    1    2    0    0  0.17141146736E+02 -0.24097770936E+02  0.31766362962E+02  0.47787270844E+02  0.19999999084E+02 0.  0.
         12    1    1    2    0    0 -0.17141146736E+02  0.24097770936E+02 -0.31766362962E+02  0.43400729156E+02  0.00000000000E+00 0. -1.
         11    1    3    3    0    0  0.50176727781E+01 -0.53518302370E+00  0.13503414498E+00  0.50479397241E+01  0.51100000000E-03 0. -1.
        -11    1    3    3    0    0  0.30652617519E+01 -0.92864808100E+01  0.44857711641E+01  0.10759028703E+02  0.51100000000E-03 0.  1.
        -12    1    3    3    0    0  0.90582122060E+01 -0.14276107102E+02  0.27145557653E+02  0.31980302416E+02  0.00000000000E+00 0.  1.
</event>
<event>
 7    1  0.2492468E-009  0.4778727E+02  0.7816164E-02  0.1312668E+00
        -11   -1    0    0    0    0  0.00000000000E+00  0.00000000000E+00  0.45593999997E+02  0.45594000000E+02  0.51100000000E-03 0. -1.
         11   -1    0    0    0    0 -0.00000000000E+00 -0.00000000000E+00 -0.45593999997E+02  0.45594000000E+02  0.51100000000E-03 0.  1.
    9900012    2    1    2    0    0 -0.41367177960E+02 -0.10727276373E+02  0.75700327792E+01  0.47787271123E+02  0.20000000360E+02 0.  0.
         12    1    1    2    0    0  0.41367177960E+02  0.10727276373E+02 -0.75700327792E+01  0.43400728877E+02  0.00000000000E+00 0. -1.
         11    1    3    3    0    0 -0.23684765869E+02  0.12866160649E+01  0.95417368781E+01  0.25566936815E+02  0.51100000000E-03 0. -1.
        -11    1    3    3    0    0 -0.81262248066E+00 -0.90745713990E-01 -0.13192213413E+01  0.15520745115E+01  0.51100000000E-03 0.  1.
         12    1    3    3    0    0 -0.16869789610E+02 -0.11923146724E+02 -0.65248275761E+00  0.20668259797E+02  0.00000000000E+00 0. -1.
</event>
<event>
 7    1  0.2492468E-009  0.4778728E+02  0.7816164E-02  0.1312668E+00
        -11   -1    0    0    0    0  0.00000000000E+00  0.00000000000E+00  0.45593999997E+02  0.45594000000E+02  0.51100000000E-03 0. -1.
         11   -1    0    0    0    0 -0.00000000000E+00 -0.00000000000E+00 -0.45593999997E+02  0.45594000000E+02  0.51100000000E-03 0.  1.
    9900012    2    1    2    0    0  0.42615200620E+02  0.81668661944E+01 -0.93249849062E+00  0.47787279029E+02  0.20000036407E+02 0.  0.
         12    1    1    2    0    0 -0.42615200620E+02 -0.81668661944E+01  0.93249849062E+00  0.43400720971E+02  0.00000000000E+00 0. -1.
         11    1    3    3    0    0  0.55485032653E+00  0.14052110103E+01 -0.30854006396E+01  0.34354292652E+01  0.51100000000E-03 0. -1.
        -11    1    3    3    0    0  0.50842132946E+01 -0.31886458991E+01  0.55440969015E+00  0.60269443220E+01  0.51100000000E-03 0.  1.
        -12    1    3    3    0    0  0.36976136999E+02  0.99503010832E+01  0.15984924588E+01  0.38324905442E+02  0.00000000000E+00 0.  1.
</event>
<event>
 7    1  0.2492468E-009  0.4778727E+02  0.7816164E-02  0.1312668E+00
        -11   -1    0    0    0    0  0.00000000000E+00  0.00000000000E+00  0.45593999997E+02  0.45594000000E+02  0.51100000000E-03 0. -1.
         11   -1    0    0    0    0 -0.00000000000E+00 -0.00000000000E+00 -0.45593999997E+02  0.45594000000E+02  0.51100000000E-03 0.  1.
    9900012    2    1    2    0    0  0.38989046493E+01 -0.32099804112E+02 -0.28948646538E+02  0.47787273993E+02  0.20000013445E+02 0.  0.
         12    1    1    2    0    0 -0.38989046493E+01  0.32099804112E+02  0.28948646538E+02  0.43400726007E+02  0.00000000000E+00 0. -1.
         11    1    3    3    0    0 -0.60080746398E+00 -0.60279716369E+01 -0.21362870099E+01  0.64234830204E+01  0.51100000000E-03 0. -1.
        -11    1    3    3    0    0 -0.17625496879E+01 -0.21463742908E+01 -0.12467839000E+02  0.12773429985E+02  0.51100000000E-03 0.  1.
        -12    1    3    3    0    0  0.62622618012E+01 -0.23925458184E+02 -0.14344520528E+02  0.28590360987E+02  0.00000000000E+00 0.  1.
</event>
<event>
 7    1  0.2492468E-009  0.4778727E+02  0.7816164E-02  0.1312668E+00
        -11   -1    0    0    0    0  0.00000000000E+00  0.00000000000E+00  0.45593999997E+02  0.45594000000E+02  0.51100000000E-03 0.  1.
         11   -1    0    0    0    0 -0.00000000000E+00 -0.00000000000E+00 -0.45593999997E+02  0.45594000000E+02  0.51100000000E-03 0. -1.
    9900012    2    1    2    0    0  0.13562149223E+02  0.26199238002E+02  0.31832235409E+02  0.47787272189E+02  0.20000005217E+02 0.  0.
         12    1    1    2    0    0 -0.13562149223E+02 -0.26199238002E+02 -0.31832235409E+02  0.43400727811E+02  0.00000000000E+00 0. -1.
         11    1    3    3    0    0  0.12735352320E+02  0.56172030907E+01  0.14867171753E+02  0.20366024783E+02  0.51100000000E-03 0. -1.
        -11    1    3    3    0    0  0.38937660820E+00  0.60236136513E+01  0.89536941543E+01  0.10798341300E+02  0.51100000000E-03 0.  1.
        -12    1    3    3    0    0  0.43742029487E+00  0.14558421260E+02  0.80113695016E+01  0.16622906105E+02  0.00000000000E+00 0.  1.
</event>
<event>
 7    1  0.2492468E-009  0.4778727E+02  0.7816164E-02  0.1312668E+00
        -11   -1    0    0    0    0  0.00000000000E+00  0.00000000000E+00  0.45593999997E+02  0.45594000000E+02  0.51100000000E-03 0.  1.
         11   -1    0    0    0    0 -0.00000000000E+00 -0.00000000000E+00 -0.45593999997E+02  0.45594000000E+02  0.51100000000E-03 0. -1.
    9900012    2    1    2    0    0 -0.29377391923E+02 -0.21418389508E+02  0.23703273182E+02  0.47787265848E+02  0.19999976309E+02 0.  0.
         12    1    1    2    0    0  0.29377391923E+02  0.21418389508E+02 -0.23703273182E+02  0.43400734152E+02  0.00000000000E+00 0. -1.
         11    1    3    3    0    0 -0.11667667433E+01  0.11847180382E+01  0.50449812407E+01  0.53119429066E+01  0.51100000000E-03 0. -1.
        -11    1    3    3    0    0 -0.15898617743E+02 -0.61408595485E+01  0.12084254176E+02  0.20892711681E+02  0.51100000000E-03 0.  1.
         12    1    3    3    0    0 -0.12312007437E+02 -0.16462247998E+02  0.65740377651E+01  0.21582611260E+02  0.00000000000E+00 0. -1.
</event>
<event>
 7    1  0.2492468E-009  0.4778726E+02  0.7816164E-02  0.1312668E+00
        -11   -1    0    0    0    0  0.00000000000E+00  0.00000000000E+00  0.45593999997E+02  0.45594000000E+02  0.51100000000E-03 0. -1.
         11   -1    0    0    0    0 -0.00000000000E+00 -0.00000000000E+00 -0.45593999997E+02  0.45594000000E+02  0.51100000000E-03 0.  1.
    9900012    2    1    2    0    0  0.25553945068E+02 -0.34478960271E+02 -0.64669327630E+01  0.47787262342E+02  0.19999960323E+02 0.  0.
         12    1    1    2    0    0 -0.25553945068E+02  0.34478960271E+02  0.64669327630E+01  0.43400737658E+02  0.00000000000E+00 0. -1.
         11    1    3    3    0    0  0.70895637662E-01 -0.55170644248E+01 -0.42981450198E+01  0.69940744157E+01  0.51100000000E-03 0. -1.
        -11    1    3    3    0    0 -0.14251956800E+01 -0.25761546676E+01  0.60234775291E+00  0.30050921241E+01  0.51100000000E-03 0.  1.
        -12    1    3    3    0    0  0.26908245110E+02 -0.26385741178E+02 -0.27711354961E+01  0.37788095802E+02  0.00000000000E+00 0.  1.
</event>
<event>
 7    1  0.2492468E-009  0.4778727E+02  0.7816164E-02  0.1312668E+00
        -11   -1    0    0    0    0  0.00000000000E+00  0.00000000000E+00  0.45593999997E+02  0.45594000000E+02  0.51100000000E-03 0.  1.
         11   -1    0    0    0    0 -0.00000000000E+00 -0.00000000000E+00 -0.45593999997E+02  0.45594000000E+02  0.51100000000E-03 0. -1.
    9900012    2    1    2    0    0  0.24325578394E+02  0.13806292194E+02  0.33185475650E+02  0.47787271176E+02  0.20000000599E+02 0.  0.
         12    1    1    2    0    0 -0.24325578394E+02 -0.13806292194E+02 -0.33185475650E+02  0.43400728824E+02  0.00000000000E+00 0. -1.
         11    1    3    3    0    0  0.57253927269E+01  0.45314886203E+01  0.82663500762E+01  0.11029372368E+02  0.51100000000E-03 0. -1.
        -11    1    3    3    0    0  0.85703513531E+01 -0.19175915164E+01  0.18375346206E+02  0.20366183442E+02  0.51100000000E-03 0.  1.
         12    1    3    3    0    0  0.10029834314E+02  0.11192395090E+02  0.65437793681E+01  0.16391715366E+02  0.00000000000E+00 0. -1.
</event>
<event>
 7    1  0.2492468E-009  0.4778727E+02  0.7816164E-02  0.1312668E+00
        -11   -1    0    0    0    0  0.00000000000E+00  0.00000000000E+00  0.45593999997E+02  0.45594000000E+02  0.51100000000E-03 0.  1.
         11   -1    0    0    0    0 -0.00000000000E+00 -0.00000000000E+00 -0.45593999997E+02  0.45594000000E+02  0.51100000000E-03 0. -1.
    9900012    2    1    2    0    0 -0.33921030965E+02 -0.26369426283E+01  0.26945003829E+02  0.47787273744E+02  0.20000012308E+02 0.  0.
         12    1    1    2    0    0  0.33921030965E+02  0.26369426283E+01 -0.26945003829E+02  0.43400726256E+02  0.00000000000E+00 0. -1.
         11    1    3    3    0    0 -0.14580886285E+02 -0.53865321984E+01  0.17030914520E+02  0.23057949250E+02  0.51100000000E-03 0. -1.
        -11    1    3    3    0    0 -0.11059179283E+02  0.37262629310E+01  0.11337310159E+02  0.16270374419E+02  0.51100000000E-03 0.  1.
         12    1    3    3    0    0 -0.82809653978E+01 -0.97667336087E+00 -0.14232208499E+01  0.84589500744E+01  0.00000000000E+00 0. -1.
</event>
<event>
 7    1  0.2492468E-009  0.4778727E+02  0.7816164E-02  0.1312668E+00
        -11   -1    0    0    0    0  0.00000000000E+00  0.00000000000E+00  0.45593999997E+02  0.45594000000E+02  0.51100000000E-03 0. -1.
         11   -1    0    0    0    0 -0.00000000000E+00 -0.00000000000E+00 -0.45593999997E+02  0.45594000000E+02  0.51100000000E-03 0.  1.
    9900012    2    1    2    0    0 -0.96922088190E+01  0.17742190989E+02 -0.38404416948E+02  0.47787268508E+02  0.19999988437E+02 0.  0.
         12    1    1    2    0    0  0.96922088190E+01 -0.17742190989E+02  0.38404416948E+02  0.43400731492E+02  0.00000000000E+00 0. -1.
         11    1    3    3    0    0 -0.34282604715E+01  0.72642725629E+00 -0.99766008706E-01  0.35057980456E+01  0.51100000000E-03 0. -1.
        -11    1    3    3    0    0 -0.93657895289E+01  0.11992187771E+02 -0.20544891271E+02  0.25566054421E+02  0.51100000000E-03 0.  1.
        -12    1    3    3    0    0  0.31018411813E+01  0.50235759620E+01 -0.17759759668E+02  0.18715416042E+02  0.00000000000E+00 0.  1.
</event>
<event>
 7    1  0.2492468E-009  0.4778727E+02  0.7816164E-02  0.1312668E+00
        -11   -1    0    0    0    0  0.00000000000E+00  0.00000000000E+00  0.45593999997E+02  0.45594000000E+02  0.51100000000E-03 0.  1.
         11   -1    0    0    0    0 -0.00000000000E+00 -0.00000000000E+00 -0.45593999997E+02  0.45594000000E+02  0.51100000000E-03 0. -1.
    9900012    2    1    2    0    0  0.36424865548E+02  0.32171673073E+01  0.23377385784E+02  0.47787272336E+02  0.20000005888E+02 0.  0.
         12    1    1    2    0    0 -0.36424865548E+02 -0.32171673073E+01 -0.23377385784E+02  0.43400727664E+02  0.00000000000E+00 0. -1.
         11    1    3    3    0    0 -0.25634760386E-01 -0.92864133413E+00  0.32876762142E+01  0.34164084971E+01  0.51100000000E-03 0. -1.
        -11    1    3    3    0    0  0.69903130676E+01 -0.12263832911E+01  0.10972580292E+02  0.13067746986E+02  0.51100000000E-03 0.  1.
        -12    1    3    3    0    0  0.29460187241E+02  0.53721919326E+01  0.91171292778E+01  0.31303116853E+02  0.00000000000E+00 0.  1.
</event>
<event>
 7    1  0.2492468E-009  0.4778727E+02  0.7816164E-02  0.1312668E+00
        -11   -1    0    0    0    0  0.00000000000E+00  0.00000000000E+00  0.45593999997E+02  0.45594000000E+02  0.51100000000E-03 0.  1.
         11   -1    0    0    0    0 -0.00000000000E+00 -0.00000000000E+00 -0.45593999997E+02  0.45594000000E+02  0.51100000000E-03 0. -1.
    9900012    2    1    2    0    0 -0.37309962536E+02  0.44758390392E+00  0.22167312699E+02  0.47787269728E+02  0.19999993998E+02 0.  0.
         12    1    1    2    0    0  0.37309962536E+02 -0.44758390392E+00 -0.22167312699E+02  0.43400730272E+02  0.00000000000E+00 0. -1.
         11    1    3    3    0    0 -0.21712692149E+02 -0.27623037983E+01  0.62660409861E+01  0.22766962743E+02  0.51100000000E-03 0. -1.
        -11    1    3    3    0    0 -0.82227671304E+01 -0.17333917814E+01  0.21873218872E+01  0.86834856853E+01  0.51100000000E-03 0.  1.
         12    1    3    3    0    0 -0.73745032566E+01  0.49432794837E+01  0.13713949826E+02  0.16336821299E+02  0.00000000000E+00 0. -1.
</event>
<event>
 7    1  0.2512749E-009  0.4778726E+02  0.7816164E-02  0.1312668E+00
        -11   -1    0    0    0    0  0.00000000000E+00  0.00000000000E+00  0.45593999997E+02  0.45594000000E+02  0.51100000000E-03 0.  1.
         11   -1    0    0    0    0 -0.00000000000E+00 -0.00000000000E+00 -0.45593999997E+02  0.45594000000E+02  0.51100000000E-03 0. -1.
    9900012    2    1    2    0    0  0.31618427651E+02  0.19648452283E+02  0.22312275355E+02  0.47787259502E+02  0.19999947375E+02 0.  0.
         12    1    1    2    0    0 -0.31618427651E+02 -0.19648452283E+02 -0.22312275355E+02  0.43400740498E+02  0.00000000000E+00 0. -1.
         11    1    3    3    0    0  0.12977836759E+02  0.81772527623E+01  0.29369876353E+01  0.15617861772E+02  0.51100000000E-03 0. -1.
        -11    1    3    3    0    0  0.39368559735E+01  0.10083312699E+02  0.69017782005E+01  0.12837701217E+02  0.51100000000E-03 0.  1.
         12    1    3    3    0    0  0.14703734918E+02  0.13878868217E+01  0.12473509519E+02  0.19331696514E+02  0.00000000000E+00 0. -1.
</event>
<event>
 7    1  0.2492468E-009  0.4778727E+02  0.7816164E-02  0.1312668E+00
        -11   -1    0    0    0    0  0.00000000000E+00  0.00000000000E+00  0.45593999997E+02  0.45594000000E+02  0.51100000000E-03 0.  1.
         11   -1    0    0    0    0 -0.00000000000E+00 -0.00000000000E+00 -0.45593999997E+02  0.45594000000E+02  0.51100000000E-03 0. -1.
    9900012    2    1    2    0    0 -0.24560122222E+02 -0.22677919695E+02  0.27679154126E+02  0.47787271684E+02  0.20000002916E+02 0.  0.
         12    1    1    2    0    0  0.24560122222E+02  0.22677919695E+02 -0.27679154126E+02  0.43400728316E+02  0.00000000000E+00 0. -1.
         11    1    3    3    0    0 -0.21564689181E+02 -0.18519561028E+02  0.12637232007E+02  0.31108031008E+02  0.51100000000E-03 0.  1.
        -11    1    3    3    0    0 -0.80794271361E-01  0.68223457419E+00  0.86997216799E-01  0.69248863193E+00  0.51100000000E-03 0. -1.
        -12    1    3    3    0    0 -0.29146387693E+01 -0.48405932414E+01  0.14954924902E+02  0.15986752044E+02  0.00000000000E+00 0.  1.
</event>
<event>
 7    1  0.2492468E-009  0.4778728E+02  0.7816164E-02  0.1312668E+00
        -11   -1    0    0    0    0  0.00000000000E+00  0.00000000000E+00  0.45593999997E+02  0.45594000000E+02  0.51100000000E-03 0. -1.
         11   -1    0    0    0    0 -0.00000000000E+00 -0.00000000000E+00 -0.45593999997E+02  0.45594000000E+02  0.51100000000E-03 0.  1.
    9900012    2    1    2    0    0  0.41301636822E+02  0.27515821005E+01 -0.13047062184E+02  0.47787282957E+02  0.20000054315E+02 0.  0.
         12    1    1    2    0    0 -0.41301636822E+02 -0.27515821005E+01  0.13047062184E+02  0.43400717043E+02  0.00000000000E+00 0. -1.
         11    1    3    3    0    0 -0.11279761142E+00 -0.63450826946E+00  0.54308324085E+00  0.84277144753E+00  0.51100000000E-03 0. -1.
        -11    1    3    3    0    0  0.16762902579E+02  0.81544525274E+01 -0.11141598100E+02  0.21716933655E+02  0.51100000000E-03 0.  1.
        -12    1    3    3    0    0  0.24651531854E+02 -0.47683621574E+01 -0.24485473247E+01  0.25227577855E+02  0.00000000000E+00 0.  1.
</event>
<event>
 7    1  0.2492468E-009  0.4778727E+02  0.7816164E-02  0.1312668E+00
        -11   -1    0    0    0    0  0.00000000000E+00  0.00000000000E+00  0.45593999997E+02  0.45594000000E+02  0.51100000000E-03 0.  1.
         11   -1    0    0    0    0 -0.00000000000E+00 -0.00000000000E+00 -0.45593999997E+02  0.45594000000E+02  0.51100000000E-03 0. -1.
    9900012    2    1    2    0    0  0.36617287552E+02  0.20266557595E+02  0.11491912219E+02  0.47787272462E+02  0.20000006462E+02 0.  0.
         12    1    1    2    0    0 -0.36617287552E+02 -0.20266557595E+02 -0.11491912219E+02  0.43400727538E+02  0.00000000000E+00 0. -1.
         11    1    3    3    0    0  0.10480084143E+02  0.52312079044E+01  0.31325811391E+01  0.12124799571E+02  0.51100000000E-03 0.  1.
        -11    1    3    3    0    0  0.11946267564E+02  0.16116486988E+02  0.22944937603E+01  0.20192056939E+02  0.51100000000E-03 0. -1.
         12    1    3    3    0    0  0.14190935844E+02 -0.10811372975E+01  0.60648373196E+01  0.15470415951E+02  0.00000000000E+00 0. -1.
</event>
<event>
 7    1  0.2492468E-009  0.4778727E+02  0.7816164E-02  0.1312668E+00
        -11   -1    0    0    0    0  0.00000000000E+00  0.00000000000E+00  0.45593999997E+02  0.45594000000E+02  0.51100000000E-03 0.  1.
         11   -1    0    0    0    0 -0.00000000000E+00 -0.00000000000E+00 -0.45593999997E+02  0.45594000000E+02  0.51100000000E-03 0. -1.
    9900012    2    1    2    0    0 -0.22183677344E+02  0.23221356454E+02  0.29193770603E+02  0.47787272148E+02  0.20000005032E+02 0.  0.
         12    1    1    2    0    0  0.22183677344E+02 -0.23221356454E+02 -0.29193770603E+02  0.43400727852E+02  0.00000000000E+00 0. -1.
         11    1    3    3    0    0 -0.97125989689E+00  0.19267203153E+01  0.41020695614E+01  0.46349295473E+01  0.51100000000E-03 0. -1.
        -11    1    3    3    0    0 -0.58626889214E+01  0.97050740142E+01  0.20424356414E+02  0.23360520504E+02  0.51100000000E-03 0.  1.
         12    1    3    3    0    0 -0.15349728526E+02  0.11589562124E+02  0.46673446274E+01  0.19791822097E+02  0.00000000000E+00 0. -1.
</event>
<event>
 7    1  0.2492468E-009  0.4778727E+02  0.7816164E-02  0.1312668E+00
        -11   -1    0    0    0    0  0.00000000000E+00  0.00000000000E+00  0.45593999997E+02  0.45594000000E+02  0.51100000000E-03 0. -1.
         11   -1    0    0    0    0 -0.00000000000E+00 -0.00000000000E+00 -0.45593999997E+02  0.45594000000E+02  0.51100000000E-03 0.  1.
    9900012    2    1    2    0    0 -0.40908966178E+02  0.13538094446E+02 -0.51768484836E+01  0.47787271029E+02  0.19999999931E+02 0.  0.
         12    1    1    2    0    0  0.40908966178E+02 -0.13538094446E+02  0.51768484836E+01  0.43400728971E+02  0.00000000000E+00 0. -1.
         11    1    3    3    0    0 -0.14690831409E+01 -0.25176355038E+01 -0.10558765745E+01  0.31002531198E+01  0.51100000000E-03 0. -1.
        -11    1    3    3    0    0 -0.10184827594E+02  0.75891294423E+01 -0.62524929007E+01  0.14156951174E+02  0.51100000000E-03 0.  1.
        -12    1    3    3    0    0 -0.29255055443E+02  0.84666005074E+01  0.21315209916E+01  0.30530066736E+02  0.00000000000E+00 0.  1.
</event>
<event>
 7    1  0.2492468E-009  0.4778727E+02  0.7816164E-02  0.1312668E+00
        -11   -1    0    0    0    0  0.00000000000E+00  0.00000000000E+00  0.45593999997E+02  0.45594000000E+02  0.51100000000E-03 0.  1.
         11   -1    0    0    0    0 -0.00000000000E+00 -0.00000000000E+00 -0.45593999997E+02  0.45594000000E+02  0.51100000000E-03 0. -1.
    9900012    2    1    2    0    0 -0.33947321436E+02 -0.26671646497E+02 -0.44526699331E+01  0.47787266953E+02  0.19999981344E+02 0.  0.
         12    1    1    2    0    0  0.33947321436E+02  0.26671646497E+02  0.44526699331E+01  0.43400733047E+02  0.00000000000E+00 0. -1.
         11    1    3    3    0    0 -0.28904131193E+01  0.51510778916E+00 -0.52353840238E+00  0.29822670495E+01  0.51100000000E-03 0. -1.
        -11    1    3    3    0    0 -0.31168441532E+02 -0.19171788588E+02 -0.37847974091E+01  0.36787958857E+02  0.51100000000E-03 0.  1.
         12    1    3    3    0    0  0.11153321555E+00 -0.80149656977E+01 -0.14433412164E+00  0.80170410459E+01  0.00000000000E+00 0. -1.
</event>
<event>
 7    1  0.2492468E-009  0.4778727E+02  0.7816164E-02  0.1312668E+00
        -11   -1    0    0    0    0  0.00000000000E+00  0.00000000000E+00  0.45593999997E+02  0.45594000000E+02  0.51100000000E-03 0.  1.
         11   -1    0    0    0    0 -0.00000000000E+00 -0.00000000000E+00 -0.45593999997E+02  0.45594000000E+02  0.51100000000E-03 0. -1.
    9900012    2    1    2    0    0 -0.78866843665E+01  0.34331310215E+02  0.25353195757E+02  0.47787272051E+02  0.20000004589E+02 0.  0.
         12    1    1    2    0    0  0.78866843665E+01 -0.34331310215E+02 -0.25353195757E+02  0.43400727949E+02  0.00000000000E+00 0. -1.
         11    1    3    3    0    0 -0.10497078036E+02  0.23228784805E+02  0.89520893596E+01  0.27016753968E+02  0.51100000000E-03 0. -1.
        -11    1    3    3    0    0  0.66359114815E+00  0.14111255406E+01 -0.69923067421E-01  0.15609349761E+01  0.51100000000E-03 0.  1.
         12    1    3    3    0    0  0.19468025213E+01  0.96913998696E+01  0.16471029465E+02  0.19209583107E+02  0.00000000000E+00 0. -1.
</event>
<event>
 7    1  0.2492468E-009  0.4778727E+02  0.7816164E-02  0.1312668E+00
        -11   -1    0    0    0    0  0.00000000000E+00  0.00000000000E+00  0.45593999997E+02  0.45594000000E+02  0.51100000000E-03 0. -1.
         11   -1    0    0    0    0 -0.00000000000E+00 -0.00000000000E+00 -0.45593999997E+02  0.45594000000E+02  0.51100000000E-03 0.  1.
    9900012    2    1    2    0    0  0.25103849040E+02  0.81019348633E-01 -0.35403578553E+02  0.47787272182E+02  0.20000005187E+02 0.  0.
         12    1    1    2    0    0 -0.25103849040E+02 -0.81019348633E-01  0.35403578553E+02  0.43400727818E+02  0.00000000000E+00 0. -1.
         11    1    3    3    0    0  0.13108232694E+02  0.58704937204E+01 -0.13562577834E+02  0.19754290132E+02  0.51100000000E-03 0. -1.
        -11    1    3    3    0    0  0.11525314691E+02 -0.12697252570E+01 -0.98647425974E+01  0.15223607580E+02  0.51100000000E-03 0.  1.
         12    1    3    3    0    0  0.47030165495E+00 -0.45197491148E+01 -0.11976258122E+02  0.12809374470E+02  0.00000000000E+00 0. -1.
</event>
<event>
 7    1  0.2492468E-009  0.4778727E+02  0.7816164E-02  0.1312668E+00
        -11   -1    0    0    0    0  0.00000000000E+00  0.00000000000E+00  0.45593999997E+02  0.45594000000E+02  0.51100000000E-03 0.  1.
         11   -1    0    0    0    0 -0.00000000000E+00 -0.00000000000E+00 -0.45593999997E+02  0.45594000000E+02  0.51100000000E-03 0. -1.
    9900012    2    1    2    0    0 -0.34840278628E+02  0.22475054697E+01  0.25782299932E+02  0.47787270910E+02  0.19999999389E+02 0.  0.
         12    1    1    2    0    0  0.34840278628E+02 -0.22475054697E+01 -0.25782299932E+02  0.43400729090E+02  0.00000000000E+00 0. -1.
         11    1    3    3    0    0 -0.13041065911E+02 -0.71261846477E+00  0.17126486467E+02  0.21538193149E+02  0.51100000000E-03 0. -1.
        -11    1    3    3    0    0 -0.80751595624E+01 -0.43593966678E+01  0.40231009512E+01  0.10019874390E+02  0.51100000000E-03 0.  1.
         12    1    3    3    0    0 -0.13724053154E+02  0.73195206023E+01  0.46327125145E+01  0.16229203371E+02  0.00000000000E+00 0. -1.
</event>
<event>
 7    1  0.2492468E-009  0.4778727E+02  0.7816164E-02  0.1312668E+00
        -11   -1    0    0    0    0  0.00000000000E+00  0.00000000000E+00  0.45593999997E+02  0.45594000000E+02  0.51100000000E-03 0.  1.
         11   -1    0    0    0    0 -0.00000000000E+00 -0.00000000000E+00 -0.45593999997E+02  0.45594000000E+02  0.51100000000E-03 0. -1.
    9900012    2    1    2    0    0  0.39413993427E+02 -0.15271323858E+02  0.98461732382E+01  0.47787270310E+02  0.19999996650E+02 0.  0.
         12    1    1    2    0    0 -0.39413993427E+02  0.15271323858E+02 -0.98461732382E+01  0.43400729690E+02  0.00000000000E+00 0. -1.
         11    1    3    3    0    0  0.26344576332E+00  0.13068402806E+01  0.72542006533E+00  0.15177185910E+01  0.51100000000E-03 0. -1.
        -11    1    3    3    0    0  0.36484136050E+02 -0.18621795719E+02  0.54983531626E+01  0.41329110163E+02  0.51100000000E-03 0.  1.
        -12    1    3    3    0    0  0.26664116136E+01  0.20436315806E+01  0.36224000103E+01  0.49404415557E+01  0.00000000000E+00 0.  1.
</event>
<event>
 7    1  0.2492468E-009  0.4778728E+02  0.7816164E-02  0.1312668E+00
        -11   -1    0    0    0    0  0.00000000000E+00  0.00000000000E+00  0.45593999997E+02  0.45594000000E+02  0.51100000000E-03 0.  1.
         11   -1    0    0    0    0 -0.00000000000E+00 -0.00000000000E+00 -0.45593999997E+02  0.45594000000E+02  0.51100000000E-03 0. -1.
    9900012    2    1    2    0    0 -0.11187954314E+02 -0.26450742863E+02  0.32539361939E+02  0.47787283472E+02  0.20000056663E+02 0.  0.
         12    1    1    2    0    0  0.11187954314E+02  0.26450742863E+02 -0.32539361939E+02  0.43400716528E+02  0.00000000000E+00 0. -1.
         11    1    3    3    0    0 -0.46795226185E+01 -0.42597298147E+01  0.82692508349E+01  0.10412672071E+02  0.51100000000E-03 0. -1.
        -11    1    3    3    0    0  0.26203174465E+01 -0.13260909937E+02  0.19532852931E+02  0.23753949983E+02  0.51100000000E-03 0.  1.
         12    1    3    3    0    0 -0.91287491418E+01 -0.89301031116E+01  0.47372581723E+01  0.13620661418E+02  0.00000000000E+00 0. -1.
</event>
<event>
 7    1  0.2492468E-009  0.4778727E+02  0.7816164E-02  0.1312668E+00
        -11   -1    0    0    0    0  0.00000000000E+00  0.00000000000E+00  0.45593999997E+02  0.45594000000E+02  0.51100000000E-03 0.  1.
         11   -1    0    0    0    0 -0.00000000000E+00 -0.00000000000E+00 -0.45593999997E+02  0.45594000000E+02  0.51100000000E-03 0. -1.
    9900012    2    1    2    0    0 -0.10365567122E+02 -0.39578201496E+02 -0.14482545885E+02  0.47787272463E+02  0.20000006469E+02 0.  0.
         12    1    1    2    0    0  0.10365567122E+02  0.39578201496E+02  0.14482545885E+02  0.43400727537E+02  0.00000000000E+00 0. -1.
         11    1    3    3    0    0 -0.29467363946E+01 -0.12430462850E+02  0.44562944160E+00  0.12782732412E+02  0.51100000000E-03 0. -1.
        -11    1    3    3    0    0 -0.65093337140E+01 -0.26083246140E+02 -0.81618762472E+01  0.28094899515E+02  0.51100000000E-03 0.  1.
         12    1    3    3    0    0 -0.90949701298E+00 -0.10644925055E+01 -0.67662990796E+01  0.69096405366E+01  0.00000000000E+00 0. -1.
</event>
<event>
 7    1  0.2492468E-009  0.4778727E+02  0.7816164E-02  0.1312668E+00
        -11   -1    0    0    0    0  0.00000000000E+00  0.00000000000E+00  0.45593999997E+02  0.45594000000E+02  0.51100000000E-03 0.  1.
         11   -1    0    0    0    0 -0.00000000000E+00 -0.00000000000E+00 -0.45593999997E+02  0.45594000000E+02  0.51100000000E-03 0. -1.
    9900012    2    1    2    0    0 -0.25860132975E+02 -0.27181571511E+02  0.21818319112E+02  0.47787270097E+02  0.19999995679E+02 0.  0.
         12    1    1    2    0    0  0.25860132975E+02  0.27181571511E+02 -0.21818319112E+02  0.43400729903E+02  0.00000000000E+00 0. -1.
         11    1    3    3    0    0 -0.41104058472E+01  0.21317008003E+01  0.48818831684E+01  0.67284744230E+01  0.51100000000E-03 0. -1.
        -11    1    3    3    0    0 -0.50068474450E+01 -0.13393581506E+02  0.63383111142E+01  0.15640675655E+02  0.51100000000E-03 0.  1.
        -12    1    3    3    0    0 -0.16742879683E+02 -0.15919690805E+02  0.10598124829E+02  0.25418120019E+02  0.00000000000E+00 0.  1.
</event>
<event>
 7    1  0.2492468E-009  0.4778726E+02  0.7816164E-02  0.1312668E+00
        -11   -1    0    0    0    0  0.00000000000E+00  0.00000000000E+00  0.45593999997E+02  0.45594000000E+02  0.51100000000E-03 0. -1.
         11   -1    0    0    0    0 -0.00000000000E+00 -0.00000000000E+00 -0.45593999997E+02  0.45594000000E+02  0.51100000000E-03 0.  1.
    9900012    2    1    2    0    0 -0.29348275357E+02  0.27100203783E+02 -0.16967079940E+02  0.47787261375E+02  0.19999955912E+02 0.  0.
         12    1    1    2    0    0  0.29348275357E+02 -0.27100203783E+02  0.16967079940E+02  0.43400738625E+02  0.00000000000E+00 0. -1.
         11    1    3    3    0    0 -0.12726854111E+02  0.14099972551E+02 -0.11829558808E+02  0.22376784920E+02  0.51100000000E-03 0. -1.
        -11    1    3    3    0    0 -0.67760908276E+01  0.17030854846E+01 -0.74887598025E+01  0.10241944674E+02  0.51100000000E-03 0.  1.
         12    1    3    3    0    0 -0.98453304182E+01  0.11297145748E+02  0.23512386705E+01  0.15168531780E+02  0.00000000000E+00 0. -1.
</event>
<event>
 7    1  0.2492468E-009  0.4778727E+02  0.7816164E-02  0.1312668E+00
        -11   -1    0    0    0    0  0.00000000000E+00  0.00000000000E+00  0.45593999997E+02  0.45594000000E+02  0.51100000000E-03 0.  1.
         11   -1    0    0    0    0 -0.00000000000E+00 -0.00000000000E+00 -0.45593999997E+02  0.45594000000E+02  0.51100000000E-03 0. -1.
    9900012    2    1    2    0    0 -0.39424220836E+02  0.16143357937E+02  0.82913244358E+01  0.47787271263E+02  0.20000000996E+02 0.  0.
         12    1    1    2    0    0  0.39424220836E+02 -0.16143357937E+02 -0.82913244358E+01  0.43400728737E+02  0.00000000000E+00 0. -1.
         11    1    3    3    0    0  0.18960273576E+01  0.32470829326E+01  0.80192866318E+00  0.38446790703E+01  0.51100000000E-03 0. -1.
        -11    1    3    3    0    0 -0.76846072034E+01  0.22935150976E+01  0.97212220590E+00  0.80782684542E+01  0.51100000000E-03 0.  1.
         12    1    3    3    0    0 -0.33635640990E+02  0.10602759906E+02  0.65172735668E+01  0.35864323738E+02  0.00000000000E+00 0. -1.
</event>
<event>
 7    1  0.2492468E-009  0.4778727E+02  0.7816164E-02  0.1312668E+00
        -11   -1    0    0    0    0  0.00000000000E+00  0.00000000000E+00  0.45593999997E+02  0.45594000000E+02  0.51100000000E-03 0. -1.
         11   -1    0    0    0    0 -0.00000000000E+00 -0.00000000000E+00 -0.45593999997E+02  0.45594000000E+02  0.51100000000E-03 0.  1.
    9900012    2    1    2    0    0  0.33369324303E+02  0.99860130527E+01 -0.25891905426E+02  0.47787273880E+02  0.20000012929E+02 0.  0.
         12    1    1    2    0    0 -0.33369324303E+02 -0.99860130527E+01  0.25891905426E+02  0.43400726120E+02  0.00000000000E+00 0. -1.
         11    1    3    3    0    0  0.94390262706E+01 -0.76039799466E+00 -0.50802819381E+01  0.10746287121E+02  0.51100000000E-03 0. -1.
        -11    1    3    3    0    0  0.24062076989E+02  0.12478977265E+02 -0.15008422297E+02  0.30983240029E+02  0.51100000000E-03 0.  1.
         12    1    3    3    0    0 -0.13177895620E+00 -0.17325662177E+01 -0.58032011904E+01  0.60577467303E+01  0.00000000000E+00 0. -1.
</event>
<event>
 7    1  0.2492468E-009  0.4778727E+02  0.7816164E-02  0.1312668E+00
        -11   -1    0    0    0    0  0.00000000000E+00  0.00000000000E+00  0.45593999997E+02  0.45594000000E+02  0.51100000000E-03 0.  1.
         11   -1    0    0    0    0 -0.00000000000E+00 -0.00000000000E+00 -0.45593999997E+02  0.45594000000E+02  0.51100000000E-03 0. -1.
    9900012    2    1    2    0    0  0.28307208593E+02  0.24970822002E+02  0.21419223141E+02  0.47787272705E+02  0.20000007569E+02 0.  0.
         12    1    1    2    0    0 -0.28307208593E+02 -0.24970822002E+02 -0.21419223141E+02  0.43400727295E+02  0.00000000000E+00 0. -1.
         11    1    3    3    0    0  0.15634320369E+02  0.64944168351E+01  0.37505745838E+01  0.17340018264E+02  0.51100000000E-03 0. -1.
        -11    1    3    3    0    0  0.79866623269E+01  0.77093279325E+01  0.27034127671E+01  0.11424926833E+02  0.51100000000E-03 0.  1.
        -12    1    3    3    0    0  0.46862258972E+01  0.10767077235E+02  0.14965235790E+02  0.19022327607E+02  0.00000000000E+00 0.  1.
</event>
<event>
 7    1  0.2492468E-009  0.4778727E+02  0.7816164E-02  0.1312668E+00
        -11   -1    0    0    0    0  0.00000000000E+00  0.00000000000E+00  0.45593999997E+02  0.45594000000E+02  0.51100000000E-03 0.  1.
         11   -1    0    0    0    0 -0.00000000000E+00 -0.00000000000E+00 -0.45593999997E+02  0.45594000000E+02  0.51100000000E-03 0. -1.
    9900012    2    1    2    0    0  0.28089494151E+01  0.33396558157E+02  0.27575403777E+02  0.47787272045E+02  0.20000004560E+02 0.  0.
         12    1    1    2    0    0 -0.28089494151E+01 -0.33396558157E+02 -0.27575403777E+02  0.43400727955E+02  0.00000000000E+00 0. -1.
         11    1    3    3    0    0 -0.39576123499E+01  0.15346928780E+01  0.15670715864E+01  0.45247863331E+01  0.51100000000E-03 0. -1.
        -11    1    3    3    0    0 -0.20387093190E+01  0.12461816904E+02  0.57917759683E+01  0.13892367882E+02  0.51100000000E-03 0.  1.
         12    1    3    3    0    0  0.88052710840E+01  0.19400048375E+02  0.20216556223E+02  0.29370117830E+02  0.00000000000E+00 0. -1.
</event>
<event>
 7    1  0.2492468E-009  0.4778727E+02  0.7816164E-02  0.1312668E+00
        -11   -1    0    0    0    0  0.00000000000E+00  0.00000000000E+00  0.45593999997E+02  0.45594000000E+02  0.51100000000E-03 0.  1.
         11   -1    0    0    0    0 -0.00000000000E+00 -0.00000000000E+00 -0.45593999997E+02  0.45594000000E+02  0.51100000000E-03 0. -1.
    9900012    2    1    2    0    0  0.32901124753E+02  0.27888379374E+02  0.48350339074E+01  0.47787271123E+02  0.20000000360E+02 0.  0.
         12    1    1    2    0    0 -0.32901124753E+02 -0.27888379374E+02 -0.48350339074E+01  0.43400728877E+02  0.00000000000E+00 0. -1.
         11    1    3    3    0    0 -0.16848466787E+01  0.26424305485E+01  0.13299462734E-01  0.31338992759E+01  0.51100000000E-03 0. -1.
        -11    1    3    3    0    0  0.29961250227E+01  0.70412219826E+00  0.34553320587E+01  0.46272965237E+01  0.51100000000E-03 0.  1.
        -12    1    3    3    0    0  0.31589846409E+02  0.24541826627E+02  0.13664023859E+01  0.40026075324E+02  0.00000000000E+00 0.  1.
</event>
<event>
 7    1  0.2492468E-009  0.4778728E+02  0.7816164E-02  0.1312668E+00
        -11   -1    0    0    0    0  0.00000000000E+00  0.00000000000E+00  0.45593999997E+02  0.45594000000E+02  0.51100000000E-03 0.  1.
         11   -1    0    0    0    0 -0.00000000000E+00 -0.00000000000E+00 -0.45593999997E+02  0.45594000000E+02  0.51100000000E-03 0. -1.
    9900012    2    1    2    0    0 -0.22270702262E+02  0.42351554427E+01  0.37009486761E+02  0.47787276145E+02  0.20000023254E+02 0.  0.
         12    1    1    2    0    0  0.22270702262E+02 -0.42351554427E+01 -0.37009486761E+02  0.43400723855E+02  0.00000000000E+00 0. -1.
         11    1    3    3    0    0 -0.11811652533E+02  0.46839908350E+01  0.12523409455E+02  0.17840703191E+02  0.51100000000E-03 0.  1.
        -11    1    3    3    0    0  0.25602681001E+01  0.10620661576E+01  0.81503664638E+00  0.28891594389E+01  0.51100000000E-03 0. -1.
         12    1    3    3    0    0 -0.13019317829E+02 -0.15109015498E+01  0.23671040659E+02  0.27057413515E+02  0.00000000000E+00 0. -1.
</event>
<event>
 7    1  0.2492468E-009  0.4778727E+02  0.7816164E-02  0.1312668E+00
        -11   -1    0    0    0    0  0.00000000000E+00  0.00000000000E+00  0.45593999997E+02  0.45594000000E+02  0.51100000000E-03 0.  1.
         11   -1    0    0    0    0 -0.00000000000E+00 -0.00000000000E+00 -0.45593999997E+02  0.45594000000E+02  0.51100000000E-03 0. -1.
    9900012    2    1    2    0    0  0.37960950987E+02  0.20390449096E+02  0.51787148116E+01  0.47787270729E+02  0.19999998561E+02 0.  0.
         12    1    1    2    0    0 -0.37960950987E+02 -0.20390449096E+02 -0.51787148116E+01  0.43400729271E+02  0.00000000000E+00 0. -1.
         11    1    3    3    0    0 -0.10543240322E+01  0.10483274319E+01 -0.88865992621E+00  0.17321392250E+01  0.51100000000E-03 0. -1.
        -11    1    3    3    0    0  0.24512067961E+02  0.15790532425E+02 -0.17317478939E+01  0.29209268067E+02  0.51100000000E-03 0.  1.
        -12    1    3    3    0    0  0.14503207058E+02  0.35515892391E+01  0.77991226317E+01  0.16845863437E+02  0.00000000000E+00 0.  1.
</event>
<event>
 7    1  0.2492468E-009  0.4778727E+02  0.7816164E-02  0.1312668E+00
        -11   -1    0    0    0    0  0.00000000000E+00  0.00000000000E+00  0.45593999997E+02  0.45594000000E+02  0.51100000000E-03 0.  1.
         11   -1    0    0    0    0 -0.00000000000E+00 -0.00000000000E+00 -0.45593999997E+02  0.45594000000E+02  0.51100000000E-03 0. -1.
    9900012    2    1    2    0    0 -0.34024235531E+02 -0.14418664721E+02  0.22761304945E+02  0.47787268456E+02  0.19999988199E+02 0.  0.
         12    1    1    2    0    0  0.34024235531E+02  0.14418664721E+02 -0.22761304945E+02  0.43400731544E+02  0.00000000000E+00 0. -1.
         11    1    3    3    0    0 -0.56201107780E+01  0.62106189512E+00  0.28799602650E+01  0.63455129362E+01  0.51100000000E-03 0. -1.
        -11    1    3    3    0    0 -0.29787092220E+02 -0.16723554795E+02  0.19020189891E+02  0.39098795016E+02  0.51100000000E-03 0.  1.
         12    1    3    3    0    0  0.13829674675E+01  0.16838281796E+01  0.86115478877E+00  0.23429605043E+01  0.00000000000E+00 0. -1.
</event>
<event>
 7    1  0.2492468E-009  0.4778727E+02  0.7816164E-02  0.1312668E+00
        -11   -1    0    0    0    0  0.00000000000E+00  0.00000000000E+00  0.45593999997E+02  0.45594000000E+02  0.51100000000E-03 0.  1.
         11   -1    0    0    0    0 -0.00000000000E+00 -0.00000000000E+00 -0.45593999997E+02  0.45594000000E+02  0.51100000000E-03 0. -1.
    9900012    2    1    2    0    0 -0.40670552930E+02  0.12577639447E+02  0.84458346130E+01  0.47787274061E+02  0.20000013755E+02 0.  0.
         12    1    1    2    0    0  0.40670552930E+02 -0.12577639447E+02 -0.84458346130E+01  0.43400725939E+02  0.00000000000E+00 0. -1.
         11    1    3    3    0    0 -0.33038902013E+02  0.99952699243E+01 -0.16846927948E+01  0.34558828932E+02  0.51100000000E-03 0. -1.
        -11    1    3    3    0    0 -0.31938408042E+00  0.91021425919E+00  0.16074439660E+01  0.18746659845E+01  0.51100000000E-03 0.  1.
         12    1    3    3    0    0 -0.73122668370E+01  0.16721552634E+01  0.85230834418E+01  0.11353779145E+02  0.00000000000E+00 0. -1.
</event>
<event>
 7    1  0.2492468E-009  0.4778727E+02  0.7816164E-02  0.1312668E+00
        -11   -1    0    0    0    0  0.00000000000E+00  0.00000000000E+00  0.45593999997E+02  0.45594000000E+02  0.51100000000E-03 0.  1.
         11   -1    0    0    0    0 -0.00000000000E+00 -0.00000000000E+00 -0.45593999997E+02  0.45594000000E+02  0.51100000000E-03 0. -1.
    9900012    2    1    2    0    0  0.16121052236E+02  0.17675044921E+02  0.36212260925E+02  0.47787269828E+02  0.19999994454E+02 0.  0.
         12    1    1    2    0    0 -0.16121052236E+02 -0.17675044921E+02 -0.36212260925E+02  0.43400730172E+02  0.00000000000E+00 0. -1.
         11    1    3    3    0    0  0.28297144285E+01  0.63030770110E+01  0.82739393823E+01  0.10779338417E+02  0.51100000000E-03 0.  1.
        -11    1    3    3    0    0  0.16800931040E+02  0.12066211837E+02  0.23484166248E+02  0.31294900807E+02  0.51100000000E-03 0. -1.
         12    1    3    3    0    0 -0.35095932325E+01 -0.69424392706E+00  0.44541552947E+01  0.57130306036E+01  0.00000000000E+00 0. -1.
</event>
<event>
 7    1  0.2492468E-009  0.4778725E+02  0.7816164E-02  0.1312668E+00
        -11   -1    0    0    0    0  0.00000000000E+00  0.00000000000E+00  0.45593999997E+02  0.45594000000E+02  0.51100000000E-03 0. -1.
         11   -1    0    0    0    0 -0.00000000000E+00 -0.00000000000E+00 -0.45593999997E+02  0.45594000000E+02  0.51100000000E-03 0.  1.
    9900012    2    1    2    0    0 -0.39129857706E+02  0.17792731606E+02  0.59915236645E+01  0.47787246344E+02  0.19999887381E+02 0.  0.
         12    1    1    2    0    0  0.39129857706E+02 -0.17792731606E+02 -0.59915236645E+01  0.43400753656E+02  0.00000000000E+00 0. -1.
         11    1    3    3    0    0 -0.14767765752E+02  0.12140481878E+02  0.53619333064E+01  0.19855189109E+02  0.51100000000E-03 0. -1.
        -11    1    3    3    0    0 -0.15849964745E+02 -0.21300874298E+01 -0.19580091965E+01  0.16111873111E+02  0.51100000000E-03 0.  1.
        -12    1    3    3    0    0 -0.85121272093E+01  0.77823371579E+01  0.25875995546E+01  0.11820184124E+02  0.00000000000E+00 0.  1.
</event>
<event>
 7    1  0.2492468E-009  0.4778730E+02  0.7816164E-02  0.1312668E+00
        -11   -1    0    0    0    0  0.00000000000E+00  0.00000000000E+00  0.45593999997E+02  0.45594000000E+02  0.51100000000E-03 0. -1.
         11   -1    0    0    0    0 -0.00000000000E+00 -0.00000000000E+00 -0.45593999997E+02  0.45594000000E+02  0.51100000000E-03 0.  1.
    9900012    2    1    2    0    0  0.41080343886E+01 -0.38811335409E+02 -0.18984855351E+02  0.47787303745E+02  0.20000149094E+02 0.  0.
         12    1    1    2    0    0 -0.41080343886E+01  0.38811335409E+02  0.18984855351E+02  0.43400696255E+02  0.00000000000E+00 0. -1.
         11    1    3    3    0    0  0.66095504074E+01 -0.14780163494E+02 -0.92709346183E+01  0.18657159978E+02  0.51100000000E-03 0. -1.
        -11    1    3    3    0    0  0.30483146818E+01 -0.33825446520E+00 -0.17207012557E+01  0.35167387669E+01  0.51100000000E-03 0.  1.
        -12    1    3    3    0    0 -0.55498307005E+01 -0.23692917449E+02 -0.79932194767E+01  0.25613405000E+02  0.00000000000E+00 0.  1.
</event>
<event>
 7    1  0.2492468E-009  0.4778727E+02  0.7816164E-02  0.1312668E+00
        -11   -1    0    0    0    0  0.00000000000E+00  0.00000000000E+00  0.45593999997E+02  0.45594000000E+02  0.51100000000E-03 0.  1.
         11   -1    0    0    0    0 -0.00000000000E+00 -0.00000000000E+00 -0.45593999997E+02  0.45594000000E+02  0.51100000000E-03 0. -1.
    9900012    2    1    2    0    0 -0.20200670027E+02  0.38411102948E+02 -0.37856167000E+00  0.47787271802E+02  0.20000003453E+02 0.  0.
         12    1    1    2    0    0  0.20200670027E+02 -0.38411102948E+02  0.37856167000E+00  0.43400728198E+02  0.00000000000E+00 0. -1.
         11    1    3    3    0    0 -0.75380896556E+01  0.18376218397E+02 -0.73405249390E+01  0.21175256902E+02  0.51100000000E-03 0. -1.
        -11    1    3    3    0    0 -0.10073069187E+02  0.17170672696E+02  0.15550176969E+01  0.19967894330E+02  0.51100000000E-03 0.  1.
         12    1    3    3    0    0 -0.25895111836E+01  0.28642118548E+01  0.54069455721E+01  0.66441205693E+01  0.00000000000E+00 0. -1.
</event>
<event>
 7    1  0.2492468E-009  0.4778727E+02  0.7816164E-02  0.1312668E+00
        -11   -1    0    0    0    0  0.00000000000E+00  0.00000000000E+00  0.45593999997E+02  0.45594000000E+02  0.51100000000E-03 0.  1.
         11   -1    0    0    0    0 -0.00000000000E+00 -0.00000000000E+00 -0.45593999997E+02  0.45594000000E+02  0.51100000000E-03 0. -1.
    9900012    2    1    2    0    0 -0.30167877591E+02  0.34637251621E+01  0.31008472258E+02  0.47787267493E+02  0.19999983809E+02 0.  0.
         12    1    1    2    0    0  0.30167877591E+02 -0.34637251621E+01 -0.31008472258E+02  0.43400732507E+02  0.00000000000E+00 0. -1.
         11    1    3    3    0    0 -0.95254137003E+01 -0.18794190941E+01  0.97783172183E+01  0.13779739119E+02  0.51100000000E-03 0. -1.
        -11    1    3    3    0    0 -0.18937193831E+02  0.60360563423E+01  0.23697448896E+02  0.30929280154E+02  0.51100000000E-03 0.  1.
         12    1    3    3    0    0 -0.17052700597E+01 -0.69291208606E+00 -0.24672938568E+01  0.30782482212E+01  0.00000000000E+00 0. -1.
</event>
<event>
 7    1  0.2492468E-009  0.4778727E+02  0.7816164E-02  0.1312668E+00
        -11   -1    0    0    0    0  0.00000000000E+00  0.00000000000E+00  0.45593999997E+02  0.45594000000E+02  0.51100000000E-03 0. -1.
         11   -1    0    0    0    0 -0.00000000000E+00 -0.00000000000E+00 -0.45593999997E+02  0.45594000000E+02  0.51100000000E-03 0.  1.
    9900012    2    1    2    0    0 -0.16812265991E+02 -0.29432222730E+02 -0.27105627343E+02  0.47787273552E+02  0.20000011431E+02 0.  0.
         12    1    1    2    0    0  0.16812265991E+02  0.29432222730E+02  0.27105627343E+02  0.43400726448E+02  0.00000000000E+00 0. -1.
         11    1    3    3    0    0 -0.52497656884E+01 -0.24935922813E+01  0.62442312307E+00  0.58453354691E+01  0.51100000000E-03 0. -1.
        -11    1    3    3    0    0 -0.53486925561E+01 -0.15302238315E+02 -0.76699042648E+01  0.17933054430E+02  0.51100000000E-03 0.  1.
        -12    1    3    3    0    0 -0.62138077467E+01 -0.11636392133E+02 -0.20060146202E+02  0.24008883652E+02  0.00000000000E+00 0.  1.
</event>
<event>
 7    1  0.2492468E-009  0.4778727E+02  0.7816164E-02  0.1312668E+00
        -11   -1    0    0    0    0  0.00000000000E+00  0.00000000000E+00  0.45593999997E+02  0.45594000000E+02  0.51100000000E-03 0.  1.
         11   -1    0    0    0    0 -0.00000000000E+00 -0.00000000000E+00 -0.45593999997E+02  0.45594000000E+02  0.51100000000E-03 0. -1.
    9900012    2    1    2    0    0  0.32667284884E+02 -0.20269739698E+02  0.20139747023E+02  0.47787271213E+02  0.20000000768E+02 0.  0.
         12    1    1    2    0    0 -0.32667284884E+02  0.20269739698E+02 -0.20139747023E+02  0.43400728787E+02  0.00000000000E+00 0. -1.
         11    1    3    3    0    0  0.58582883665E+01  0.22753977641E+01  0.31960486289E+01  0.70506527832E+01  0.51100000000E-03 0. -1.
        -11    1    3    3    0    0  0.15956182731E+02 -0.90230947741E+01  0.14188596731E+02  0.23180428902E+02  0.51100000000E-03 0.  1.
         12    1    3    3    0    0  0.10852813787E+02 -0.13522042688E+02  0.27551016627E+01  0.17556189527E+02  0.00000000000E+00 0. -1.
</event>
<event>
 7    1  0.2492468E-009  0.4778727E+02  0.7816164E-02  0.1312668E+00
        -11   -1    0    0    0    0  0.00000000000E+00  0.00000000000E+00  0.45593999997E+02  0.45594000000E+02  0.51100000000E-03 0. -1.
         11   -1    0    0    0    0 -0.00000000000E+00 -0.00000000000E+00 -0.45593999997E+02  0.45594000000E+02  0.51100000000E-03 0.  1.
    9900012    2    1    2    0    0 -0.33143537672E+02  0.11653725142E+02 -0.25481755589E+02  0.47787271124E+02  0.20000000361E+02 0.  0.
         12    1    1    2    0    0  0.33143537672E+02 -0.11653725142E+02  0.25481755589E+02  0.43400728876E+02  0.00000000000E+00 0. -1.
         11    1    3    3    0    0 -0.71987219630E+01  0.43898394004E+01 -0.12295135350E+02  0.14908475489E+02  0.51100000000E-03 0. -1.
        -11    1    3    3    0    0 -0.16261798129E+02  0.10861564011E+02 -0.10541120289E+02  0.22215644676E+02  0.51100000000E-03 0.  1.
         12    1    3    3    0    0 -0.96830175804E+01 -0.35976782697E+01 -0.26454999497E+01  0.10663150959E+02  0.00000000000E+00 0. -1.
</event>
<event>
 7    1  0.2492468E-009  0.4778727E+02  0.7816164E-02  0.1312668E+00
        -11   -1    0    0    0    0  0.00000000000E+00  0.00000000000E+00  0.45593999997E+02  0.45594000000E+02  0.51100000000E-03 0.  1.
         11   -1    0    0    0    0 -0.00000000000E+00 -0.00000000000E+00 -0.45593999997E+02  0.45594000000E+02  0.51100000000E-03 0. -1.
    9900012    2    1    2    0    0 -0.40494524178E+02 -0.12944603361E+02  0.87323393033E+01  0.47787274266E+02  0.20000014688E+02 0.  0.
         12    1    1    2    0    0  0.40494524178E+02  0.12944603361E+02 -0.87323393033E+01  0.43400725734E+02  0.00000000000E+00 0. -1.
         11    1    3    3    0    0 -0.31716406350E+01  0.22209796719E+01 -0.25301467311E+01  0.46253321786E+01  0.51100000000E-03 0. -1.
        -11    1    3    3    0    0 -0.18561619317E+01 -0.24518892592E+01  0.35631174882E+01  0.47066872163E+01  0.51100000000E-03 0.  1.
         12    1    3    3    0    0 -0.35466721611E+02 -0.12713693773E+02  0.76993685463E+01  0.38455254871E+02  0.00000000000E+00 0. -1.
</event>
<event>
 7    1  0.2492468E-009  0.4778727E+02  0.7816164E-02  0.1312668E+00
        -11   -1    0    0    0    0  0.00000000000E+00  0.00000000000E+00  0.45593999997E+02  0.45594000000E+02  0.51100000000E-03 0.  1.
         11   -1    0    0    0    0 -0.00000000000E+00 -0.00000000000E+00 -0.45593999997E+02  0.45594000000E+02  0.51100000000E-03 0. -1.
    9900012    2    1    2    0    0  0.24690942292E+02 -0.25089267165E+02  0.25387189570E+02  0.47787270140E+02  0.19999995876E+02 0.  0.
         12    1    1    2    0    0 -0.24690942292E+02  0.25089267165E+02 -0.25387189570E+02  0.43400729860E+02  0.00000000000E+00 0. -1.
         11    1    3    3    0    0 -0.13546224139E+01  0.15500878553E+01  0.36017179911E+01  0.41485114188E+01  0.51100000000E-03 0. -1.
        -11    1    3    3    0    0  0.47905932942E+01 -0.61420842345E+01  0.18350044600E+01  0.80026385951E+01  0.51100000000E-03 0.  1.
         12    1    3    3    0    0  0.21254971412E+02 -0.20497270785E+02  0.19950467118E+02  0.35636120126E+02  0.00000000000E+00 0. -1.
</event>
<event>
 7    1  0.2492468E-009  0.4778727E+02  0.7816164E-02  0.1312668E+00
        -11   -1    0    0    0    0  0.00000000000E+00  0.00000000000E+00  0.45593999997E+02  0.45594000000E+02  0.51100000000E-03 0. -1.
         11   -1    0    0    0    0 -0.00000000000E+00 -0.00000000000E+00 -0.45593999997E+02  0.45594000000E+02  0.51100000000E-03 0.  1.
    9900012    2    1    2    0    0 -0.18176551157E+02 -0.13524184118E+02 -0.37018005227E+02  0.47787270985E+02  0.19999999731E+02 0.  0.
         12    1    1    2    0    0  0.18176551157E+02  0.13524184118E+02  0.37018005227E+02  0.43400729015E+02  0.00000000000E+00 0. -1.
         11    1    3    3    0    0 -0.20100477671E+01 -0.62728066708E+01 -0.40989325951E+01  0.77581985174E+01  0.51100000000E-03 0. -1.
        -11    1    3    3    0    0 -0.35687116488E+01 -0.23119592992E+01  0.19534171229E+00  0.42566438986E+01  0.51100000000E-03 0.  1.
        -12    1    3    3    0    0 -0.12597791741E+02 -0.49394181476E+01 -0.33114414344E+02  0.35772428569E+02  0.00000000000E+00 0.  1.
</event>
<event>
 7    1  0.2492468E-009  0.4778727E+02  0.7816164E-02  0.1312668E+00
        -11   -1    0    0    0    0  0.00000000000E+00  0.00000000000E+00  0.45593999997E+02  0.45594000000E+02  0.51100000000E-03 0. -1.
         11   -1    0    0    0    0 -0.00000000000E+00 -0.00000000000E+00 -0.45593999997E+02  0.45594000000E+02  0.51100000000E-03 0.  1.
    9900012    2    1    2    0    0  0.28975790300E+01  0.17449176935E+02 -0.39632732651E+02  0.47787271465E+02  0.20000001920E+02 0.  0.
         12    1    1    2    0    0 -0.28975790300E+01 -0.17449176935E+02  0.39632732651E+02  0.43400728535E+02  0.00000000000E+00 0. -1.
         11    1    3    3    0    0 -0.20346083484E+01  0.50148218172E+01 -0.90378834040E+00  0.54867934730E+01  0.51100000000E-03 0. -1.
        -11    1    3    3    0    0 -0.81793180129E-02 -0.18171407700E+01 -0.28515246270E+01  0.33813104617E+01  0.51100000000E-03 0.  1.
        -12    1    3    3    0    0  0.49403666965E+01  0.14251495887E+02 -0.35877419684E+02  0.38919167531E+02  0.00000000000E+00 0.  1.
</event>
<event>
 7    1  0.2492468E-009  0.4778728E+02  0.7816164E-02  0.1312668E+00
        -11   -1    0    0    0    0  0.00000000000E+00  0.00000000000E+00  0.45593999997E+02  0.45594000000E+02  0.51100000000E-03 0. -1.
         11   -1    0    0    0    0 -0.00000000000E+00 -0.00000000000E+00 -0.45593999997E+02  0.45594000000E+02  0.51100000000E-03 0.  1.
    9900012    2    1    2    0    0 -0.56674750804E+01  0.42130872737E+02 -0.87459707091E+01  0.47787277483E+02  0.20000029356E+02 0.  0.
         12    1    1    2    0    0  0.56674750804E+01 -0.42130872737E+02  0.87459707091E+01  0.43400722517E+02  0.00000000000E+00 0. -1.
         11    1    3    3    0    0  0.26555635008E+01  0.11934499675E+02 -0.48693605813E+01  0.13160356102E+02  0.51100000000E-03 0. -1.
        -11    1    3    3    0    0 -0.59557464897E+00  0.15931087960E+02 -0.80722090588E+01  0.17869382533E+02  0.51100000000E-03 0.  1.
         12    1    3    3    0    0 -0.77274639322E+01  0.14265285102E+02  0.41955989309E+01  0.16757538848E+02  0.00000000000E+00 0. -1.
</event>
<event>
 7    1  0.2492468E-009  0.4778727E+02  0.7816164E-02  0.1312668E+00
        -11   -1    0    0    0    0  0.00000000000E+00  0.00000000000E+00  0.45593999997E+02  0.45594000000E+02  0.51100000000E-03 0.  1.
         11   -1    0    0    0    0 -0.00000000000E+00 -0.00000000000E+00 -0.45593999997E+02  0.45594000000E+02  0.51100000000E-03 0. -1.
    9900012    2    1    2    0    0  0.40787175550E+02  0.23463306318E+01  0.14646650712E+02  0.47787270354E+02  0.19999996850E+02 0.  0.
         12    1    1    2    0    0 -0.40787175550E+02 -0.23463306318E+01 -0.14646650712E+02  0.43400729646E+02  0.00000000000E+00 0. -1.
         11    1    3    3    0    0  0.14324894281E+02 -0.22730271651E+01  0.57535041833E+01  0.15603591231E+02  0.51100000000E-03 0.  1.
        -11    1    3    3    0    0  0.12059680586E+02  0.65286431460E+01 -0.22201235380E+01  0.13892013027E+02  0.51100000000E-03 0. -1.
         12    1    3    3    0    0  0.14402600683E+02 -0.19092853491E+01  0.11113270067E+02  0.18291666096E+02  0.00000000000E+00 0. -1.
</event>
<event>
 7    1  0.2492468E-009  0.4778728E+02  0.7816164E-02  0.1312668E+00
        -11   -1    0    0    0    0  0.00000000000E+00  0.00000000000E+00  0.45593999997E+02  0.45594000000E+02  0.51100000000E-03 0.  1.
         11   -1    0    0    0    0 -0.00000000000E+00 -0.00000000000E+00 -0.45593999997E+02  0.45594000000E+02  0.51100000000E-03 0. -1.
    9900012    2    1    2    0    0 -0.23842945074E+02 -0.66329073833E+01  0.35653069734E+02  0.47787275679E+02  0.20000021132E+02 0.  0.
         12    1    1    2    0    0  0.23842945074E+02  0.66329073833E+01 -0.35653069734E+02  0.43400724321E+02  0.00000000000E+00 0. -1.
         11    1    3    3    0    0 -0.75641880001E+01 -0.32408017650E+01  0.61034942374E+01  0.10245602879E+02  0.51100000000E-03 0. -1.
        -11    1    3    3    0    0 -0.14305658710E+02 -0.69706281541E+01  0.29425947688E+02  0.33453369420E+02  0.51100000000E-03 0.  1.
         12    1    3    3    0    0 -0.19730983638E+01  0.35785225358E+01  0.12362780826E+00  0.40883033800E+01  0.00000000000E+00 0. -1.
</event>
<event>
 7    1  0.2492468E-009  0.4778727E+02  0.7816164E-02  0.1312668E+00
        -11   -1    0    0    0    0  0.00000000000E+00  0.00000000000E+00  0.45593999997E+02  0.45594000000E+02  0.51100000000E-03 0.  1.
         11   -1    0    0    0    0 -0.00000000000E+00 -0.00000000000E+00 -0.45593999997E+02  0.45594000000E+02  0.51100000000E-03 0. -1.
    9900012    2    1    2    0    0  0.30690358722E+02  0.19863951341E+02  0.23391212100E+02  0.47787268613E+02  0.19999988916E+02 0.  0.
         12    1    1    2    0    0 -0.30690358722E+02 -0.19863951341E+02 -0.23391212100E+02  0.43400731387E+02  0.00000000000E+00 0. -1.
         11    1    3    3    0    0 -0.13576879287E+01  0.66469540213E+00 -0.69683292275E+00  0.16645458458E+01  0.51100000000E-03 0. -1.
        -11    1    3    3    0    0  0.58310022133E+01 -0.13529728328E+01  0.29906521048E+01  0.66914215658E+01  0.51100000000E-03 0.  1.
         12    1    3    3    0    0  0.26217044438E+02  0.20552228772E+02  0.21097392918E+02  0.39431301202E+02  0.00000000000E+00 0. -1.
</event>
<event>
 7    1  0.2492468E-009  0.4778727E+02  0.7816164E-02  0.1312668E+00
        -11   -1    0    0    0    0  0.00000000000E+00  0.00000000000E+00  0.45593999997E+02  0.45594000000E+02  0.51100000000E-03 0.  1.
         11   -1    0    0    0    0 -0.00000000000E+00 -0.00000000000E+00 -0.45593999997E+02  0.45594000000E+02  0.51100000000E-03 0. -1.
    9900012    2    1    2    0    0 -0.28325393376E+02  0.23204720713E+02  0.23298850554E+02  0.47787269471E+02  0.19999992826E+02 0.  0.
         12    1    1    2    0    0  0.28325393376E+02 -0.23204720713E+02 -0.23298850554E+02  0.43400730529E+02  0.00000000000E+00 0. -1.
         11    1    3    3    0    0 -0.46195567554E+01  0.10542975999E+02  0.36484539327E+01  0.12075009892E+02  0.51100000000E-03 0. -1.
        -11    1    3    3    0    0 -0.11733666025E+02  0.41292462531E+01  0.17706338388E+01  0.12564423483E+02  0.51100000000E-03 0.  1.
        -12    1    3    3    0    0 -0.11972170596E+02  0.85324984611E+01  0.17879762783E+02  0.23147836096E+02  0.00000000000E+00 0.  1.
</event>
<event>
 7    1  0.2492468E-009  0.4778725E+02  0.7816164E-02  0.1312668E+00
        -11   -1    0    0    0    0  0.00000000000E+00  0.00000000000E+00  0.45593999997E+02  0.45594000000E+02  0.51100000000E-03 0. -1.
         11   -1    0    0    0    0 -0.00000000000E+00 -0.00000000000E+00 -0.45593999997E+02  0.45594000000E+02  0.51100000000E-03 0.  1.
    9900012    2    1    2    0    0  0.31810995225E+02 -0.23070417939E+02 -0.18423940311E+02  0.47787249111E+02  0.19999899998E+02 0.  0.
         12    1    1    2    0    0 -0.31810995225E+02  0.23070417939E+02  0.18423940311E+02  0.43400750889E+02  0.00000000000E+00 0. -1.
         11    1    3    3    0    0  0.12173444599E+02 -0.12592637449E+02 -0.80040706175E+01  0.19257009582E+02  0.51100000000E-03 0. -1.
        -11    1    3    3    0    0  0.14192988175E+02 -0.90944606122E+01 -0.18810800530E+00  0.16857802705E+02  0.51100000000E-03 0.  1.
         12    1    3    3    0    0  0.54445624509E+01 -0.13833198779E+01 -0.10231761688E+02  0.11672436824E+02  0.00000000000E+00 0. -1.
</event>
<event>
 7    1  0.2492468E-009  0.4778727E+02  0.7816164E-02  0.1312668E+00
        -11   -1    0    0    0    0  0.00000000000E+00  0.00000000000E+00  0.45593999997E+02  0.45594000000E+02  0.51100000000E-03 0. -1.
         11   -1    0    0    0    0 -0.00000000000E+00 -0.00000000000E+00 -0.45593999997E+02  0.45594000000E+02  0.51100000000E-03 0.  1.
    9900012    2    1    2    0    0 -0.14771399214E+02  0.34345924094E+02 -0.22040565125E+02  0.47787271346E+02  0.20000001376E+02 0.  0.
         12    1    1    2    0    0  0.14771399214E+02 -0.34345924094E+02  0.22040565125E+02  0.43400728654E+02  0.00000000000E+00 0. -1.
         11    1    3    3    0    0 -0.36919731009E+01  0.81273499954E+01 -0.10710417220E+02  0.13942651133E+02  0.51100000000E-03 0.  1.
        -11    1    3    3    0    0 -0.49592787545E+00 -0.10647287230E+01 -0.32940118995E+01  0.34971568976E+01  0.51100000000E-03 0. -1.
         12    1    3    3    0    0 -0.10583498238E+02  0.27283302822E+02 -0.80361360059E+01  0.30347463316E+02  0.00000000000E+00 0. -1.
</event>
<event>
 7    1  0.2492468E-009  0.4778727E+02  0.7816164E-02  0.1312668E+00
        -11   -1    0    0    0    0  0.00000000000E+00  0.00000000000E+00  0.45593999997E+02  0.45594000000E+02  0.51100000000E-03 0.  1.
         11   -1    0    0    0    0 -0.00000000000E+00 -0.00000000000E+00 -0.45593999997E+02  0.45594000000E+02  0.51100000000E-03 0. -1.
    9900012    2    1    2    0    0 -0.31778603612E+02  0.54465774313E+00  0.29554140156E+02  0.47787268440E+02  0.19999988125E+02 0.  0.
         12    1    1    2    0    0  0.31778603612E+02 -0.54465774313E+00 -0.29554140156E+02  0.43400731560E+02  0.00000000000E+00 0. -1.
         11    1    3    3    0    0 -0.22549287267E+02  0.19294585695E+01  0.19472126782E+02  0.29855600618E+02  0.51100000000E-03 0. -1.
        -11    1    3    3    0    0 -0.86599210507E+01  0.21221225253E+01  0.20497366266E+01  0.91487188784E+01  0.51100000000E-03 0.  1.
         12    1    3    3    0    0 -0.56939529519E+00 -0.35069233517E+01  0.80322767473E+01  0.87829489434E+01  0.00000000000E+00 0. -1.
</event>
<event>
 7    1  0.2492468E-009  0.4778727E+02  0.7816164E-02  0.1312668E+00
        -11   -1    0    0    0    0  0.00000000000E+00  0.00000000000E+00  0.45593999997E+02  0.45594000000E+02  0.51100000000E-03 0.  1.
         11   -1    0    0    0    0 -0.00000000000E+00 -0.00000000000E+00 -0.45593999997E+02  0.45594000000E+02  0.51100000000E-03 0. -1.
    9900012    2    1    2    0    0 -0.84820960548E+01  0.63063474544E+01  0.42094031067E+02  0.47787269324E+02  0.19999992157E+02 0.  0.
         12    1    1    2    0    0  0.84820960548E+01 -0.63063474544E+01 -0.42094031067E+02  0.43400730676E+02  0.00000000000E+00 0. -1.
         11    1    3    3    0    0  0.12790122105E+01 -0.12093109340E+01  0.84149428402E+01  0.85970674323E+01  0.51100000000E-03 0. -1.
        -11    1    3    3    0    0  0.33610325001E+01 -0.17305716096E+01  0.88534375738E+01  0.96267738467E+01  0.51100000000E-03 0.  1.
        -12    1    3    3    0    0 -0.13122140765E+02  0.92462299980E+01  0.24825650653E+02  0.29563428045E+02  0.00000000000E+00 0.  1.
</event>
<event>
 7    1  0.2492468E-009  0.4778727E+02  0.7816164E-02  0.1312668E+00
        -11   -1    0    0    0    0  0.00000000000E+00  0.00000000000E+00  0.45593999997E+02  0.45594000000E+02  0.51100000000E-03 0.  1.
         11   -1    0    0    0    0 -0.00000000000E+00 -0.00000000000E+00 -0.45593999997E+02  0.45594000000E+02  0.51100000000E-03 0. -1.
    9900012    2    1    2    0    0  0.18094226557E+02 -0.22823012026E+01  0.39382908401E+02  0.47787269504E+02  0.19999992977E+02 0.  0.
         12    1    1    2    0    0 -0.18094226557E+02  0.22823012026E+01 -0.39382908401E+02  0.43400730496E+02  0.00000000000E+00 0. -1.
         11    1    3    3    0    0  0.40562296945E+01 -0.53475840412E+01  0.90294980124E+01  0.11250843925E+02  0.51100000000E-03 0. -1.
        -11    1    3    3    0    0 -0.30061530080E+01  0.82742301552E+00  0.39938199041E+01  0.50667723890E+01  0.51100000000E-03 0.  1.
        -12    1    3    3    0    0  0.17044149870E+02  0.22378598230E+01  0.26359590484E+02  0.31469653190E+02  0.00000000000E+00 0.  1.
</event>
<event>
 7    1  0.2492468E-009  0.4778726E+02  0.7816164E-02  0.1312668E+00
        -11   -1    0    0    0    0  0.00000000000E+00  0.00000000000E+00  0.45593999997E+02  0.45594000000E+02  0.51100000000E-03 0. -1.
         11   -1    0    0    0    0 -0.00000000000E+00 -0.00000000000E+00 -0.45593999997E+02  0.45594000000E+02  0.51100000000E-03 0.  1.
    9900012    2    1    2    0    0 -0.12487398589E+02  0.19950079305E+02 -0.36464825607E+02  0.47787259288E+02  0.19999946399E+02 0.  0.
         12    1    1    2    0    0  0.12487398589E+02 -0.19950079305E+02  0.36464825607E+02  0.43400740712E+02  0.00000000000E+00 0. -1.
         11    1    3    3    0    0 -0.10642869567E+02  0.15510778132E+01 -0.17977099408E+02  0.20948809474E+02  0.51100000000E-03 0. -1.
        -11    1    3    3    0    0 -0.24751711572E+01  0.72135423396E+01 -0.10917204520E+02  0.13317170125E+02  0.51100000000E-03 0.  1.
         12    1    3    3    0    0  0.63064213519E+00  0.11185459152E+02 -0.75705216786E+01  0.13521279689E+02  0.00000000000E+00 0. -1.
</event>
<event>
 7    1  0.2492468E-009  0.4778728E+02  0.7816164E-02  0.1312668E+00
        -11   -1    0    0    0    0  0.00000000000E+00  0.00000000000E+00  0.45593999997E+02  0.45594000000E+02  0.51100000000E-03 0.  1.
         11   -1    0    0    0    0 -0.00000000000E+00 -0.00000000000E+00 -0.45593999997E+02  0.45594000000E+02  0.51100000000E-03 0. -1.
    9900012    2    1    2    0    0  0.33711846965E+02  0.15731908241E+01  0.27288445424E+02  0.47787276402E+02  0.20000024427E+02 0.  0.
         12    1    1    2    0    0 -0.33711846965E+02 -0.15731908241E+01 -0.27288445424E+02  0.43400723598E+02  0.00000000000E+00 0. -1.
         11    1    3    3    0    0  0.52812922548E+00 -0.25165166005E+01  0.54905761540E+01  0.60628543643E+01  0.51100000000E-03 0. -1.
        -11    1    3    3    0    0  0.55664434430E+01  0.42908227825E+01  0.86243767911E+01  0.11125481026E+02  0.51100000000E-03 0.  1.
         12    1    3    3    0    0  0.27617274297E+02 -0.20111535787E+00  0.13173492478E+02  0.30598941012E+02  0.00000000000E+00 0. -1.
</event>
<event>
 7    1  0.2492468E-009  0.4778727E+02  0.7816164E-02  0.1312668E+00
        -11   -1    0    0    0    0  0.00000000000E+00  0.00000000000E+00  0.45593999997E+02  0.45594000000E+02  0.51100000000E-03 0.  1.
         11   -1    0    0    0    0 -0.00000000000E+00 -0.00000000000E+00 -0.45593999997E+02  0.45594000000E+02  0.51100000000E-03 0. -1.
    9900012    2    1    2    0    0 -0.23389405147E+02 -0.32011524309E+02  0.17658471745E+02  0.47787267447E+02  0.19999983600E+02 0.  0.
         12    1    1    2    0    0  0.23389405147E+02  0.32011524309E+02 -0.17658471745E+02  0.43400732553E+02  0.00000000000E+00 0. -1.
         11    1    3    3    0    0  0.43186682675E+00 -0.68160734882E+01  0.70390452385E+00  0.68659193552E+01  0.51100000000E-03 0. -1.
        -11    1    3    3    0    0 -0.11538994226E+02 -0.20940245337E+02  0.13561072709E+02  0.27487178025E+02  0.51100000000E-03 0.  1.
        -12    1    3    3    0    0 -0.12282277748E+02 -0.42552054843E+01  0.33934945121E+01  0.13434170067E+02  0.00000000000E+00 0.  1.
</event>
<event>
 7    1  0.2492468E-009  0.4778727E+02  0.7816164E-02  0.1312668E+00
        -11   -1    0    0    0    0  0.00000000000E+00  0.00000000000E+00  0.45593999997E+02  0.45594000000E+02  0.51100000000E-03 0.  1.
         11   -1    0    0    0    0 -0.00000000000E+00 -0.00000000000E+00 -0.45593999997E+02  0.45594000000E+02  0.51100000000E-03 0. -1.
    9900012    2    1    2    0    0  0.28375913494E+02  0.32583878299E+02  0.40892183439E+01  0.47787270763E+02  0.19999998718E+02 0.  0.
         12    1    1    2    0    0 -0.28375913494E+02 -0.32583878299E+02 -0.40892183439E+01  0.43400729237E+02  0.00000000000E+00 0. -1.
         11    1    3    3    0    0  0.12103309633E+01  0.24031154412E+01  0.20992062107E+01  0.34127015458E+01  0.51100000000E-03 0. -1.
        -11    1    3    3    0    0  0.85413488243E+01  0.41491308877E+01 -0.61934603213E+01  0.11337057726E+02  0.51100000000E-03 0.  1.
        -12    1    3    3    0    0  0.18624233706E+02  0.26031631970E+02  0.81834724546E+01  0.33037511492E+02  0.00000000000E+00 0.  1.
</event>
<event>
 7    1  0.2492468E-009  0.4778727E+02  0.7816164E-02  0.1312668E+00
        -11   -1    0    0    0    0  0.00000000000E+00  0.00000000000E+00  0.45593999997E+02  0.45594000000E+02  0.51100000000E-03 0. -1.
         11   -1    0    0    0    0 -0.00000000000E+00 -0.00000000000E+00 -0.45593999997E+02  0.45594000000E+02  0.51100000000E-03 0.  1.
    9900012    2    1    2    0    0 -0.26681200111E+02  0.33066370933E+02 -0.88516634340E+01  0.47787271071E+02  0.20000000122E+02 0.  0.
         12    1    1    2    0    0  0.26681200111E+02 -0.33066370933E+02  0.88516634340E+01  0.43400728929E+02  0.00000000000E+00 0. -1.
         11    1    3    3    0    0 -0.46157289090E+01  0.38074838605E+01  0.15453748804E+01  0.61798115255E+01  0.51100000000E-03 0. -1.
        -11    1    3    3    0    0 -0.32784326709E+01  0.40795984286E+01 -0.86912955798E+01  0.10145435586E+02  0.51100000000E-03 0.  1.
        -12    1    3    3    0    0 -0.18787038531E+02  0.25179288644E+02 -0.17057427347E+01  0.31462023960E+02  0.00000000000E+00 0.  1.
</event>
<event>
 7    1  0.2492468E-009  0.4778727E+02  0.7816164E-02  0.1312668E+00
        -11   -1    0    0    0    0  0.00000000000E+00  0.00000000000E+00  0.45593999997E+02  0.45594000000E+02  0.51100000000E-03 0. -1.
         11   -1    0    0    0    0 -0.00000000000E+00 -0.00000000000E+00 -0.45593999997E+02  0.45594000000E+02  0.51100000000E-03 0.  1.
    9900012    2    1    2    0    0 -0.37021675788E+02 -0.11380269878E+02 -0.19583365297E+02  0.47787271699E+02  0.20000002986E+02 0.  0.
         12    1    1    2    0    0  0.37021675788E+02  0.11380269878E+02  0.19583365297E+02  0.43400728301E+02  0.00000000000E+00 0. -1.
         11    1    3    3    0    0 -0.90312168904E+00 -0.52394671249E+01 -0.32254128719E+01  0.62185957413E+01  0.51100000000E-03 0. -1.
        -11    1    3    3    0    0 -0.54678196959E+01  0.27537517801E+01 -0.12078131597E+01  0.62401132989E+01  0.51100000000E-03 0.  1.
        -12    1    3    3    0    0 -0.30650734403E+02 -0.88945545336E+01 -0.15150139265E+02  0.35328562659E+02  0.00000000000E+00 0.  1.
</event>
<event>
 7    1  0.2492468E-009  0.4778728E+02  0.7816164E-02  0.1312668E+00
        -11   -1    0    0    0    0  0.00000000000E+00  0.00000000000E+00  0.45593999997E+02  0.45594000000E+02  0.51100000000E-03 0.  1.
         11   -1    0    0    0    0 -0.00000000000E+00 -0.00000000000E+00 -0.45593999997E+02  0.45594000000E+02  0.51100000000E-03 0. -1.
    9900012    2    1    2    0    0  0.16929533121E+02 -0.29380504028E+02  0.27088732105E+02  0.47787279779E+02  0.20000039823E+02 0.  0.
         12    1    1    2    0    0 -0.16929533121E+02  0.29380504028E+02 -0.27088732105E+02  0.43400720221E+02  0.00000000000E+00 0. -1.
         11    1    3    3    0    0  0.34047139981E+01 -0.24283983099E+01  0.88083264559E+01  0.97506825902E+01  0.51100000000E-03 0. -1.
        -11    1    3    3    0    0  0.14124913693E+02 -0.12485405855E+02  0.11062196926E+02  0.21857967593E+02  0.51100000000E-03 0.  1.
         12    1    3    3    0    0 -0.60009456986E+00 -0.14466699863E+02  0.72182087237E+01  0.16178629596E+02  0.00000000000E+00 0. -1.
</event>
<event>
 7    1  0.2492468E-009  0.4778727E+02  0.7816164E-02  0.1312668E+00
        -11   -1    0    0    0    0  0.00000000000E+00  0.00000000000E+00  0.45593999997E+02  0.45594000000E+02  0.51100000000E-03 0.  1.
         11   -1    0    0    0    0 -0.00000000000E+00 -0.00000000000E+00 -0.45593999997E+02  0.45594000000E+02  0.51100000000E-03 0. -1.
    9900012    2    1    2    0    0 -0.28458067015E+00 -0.77391121993E+01  0.42704195194E+02  0.47787272691E+02  0.20000007509E+02 0.  0.
         12    1    1    2    0    0  0.28458067015E+00  0.77391121993E+01 -0.42704195194E+02  0.43400727309E+02  0.00000000000E+00 0. -1.
         11    1    3    3    0    0 -0.37653389160E+01  0.42787715715E+01  0.16645563343E+02  0.17594329842E+02  0.51100000000E-03 0.  1.
        -11    1    3    3    0    0 -0.28909357893E+01 -0.49499951791E+01  0.95822657351E+01  0.11166009981E+02  0.51100000000E-03 0. -1.
        -12    1    3    3    0    0  0.63716940352E+01 -0.70678885917E+01  0.16476366115E+02  0.19026932869E+02  0.00000000000E+00 0.  1.
</event>
<event>
 7    1  0.2492468E-009  0.4778727E+02  0.7816164E-02  0.1312668E+00
        -11   -1    0    0    0    0  0.00000000000E+00  0.00000000000E+00  0.45593999997E+02  0.45594000000E+02  0.51100000000E-03 0. -1.
         11   -1    0    0    0    0 -0.00000000000E+00 -0.00000000000E+00 -0.45593999997E+02  0.45594000000E+02  0.51100000000E-03 0.  1.
    9900012    2    1    2    0    0 -0.22280936497E+02 -0.16576701805E+02 -0.33352605957E+02  0.47787268462E+02  0.19999988226E+02 0.  0.
         12    1    1    2    0    0  0.22280936497E+02  0.16576701805E+02  0.33352605957E+02  0.43400731538E+02  0.00000000000E+00 0. -1.
         11    1    3    3    0    0 -0.73489348461E+01 -0.21114044990E+01 -0.35039779792E+01  0.84108700067E+01  0.51100000000E-03 0. -1.
        -11    1    3    3    0    0 -0.12659698730E+02 -0.31109449121E+01 -0.10131134047E+02  0.16510173455E+02  0.51100000000E-03 0.  1.
        -12    1    3    3    0    0 -0.22723029211E+01 -0.11354352394E+02 -0.19717493931E+02  0.22866225000E+02  0.00000000000E+00 0.  1.
</event>
<event>
 7    1  0.2492468E-009  0.4778727E+02  0.7816164E-02  0.1312668E+00
        -11   -1    0    0    0    0  0.00000000000E+00  0.00000000000E+00  0.45593999997E+02  0.45594000000E+02  0.51100000000E-03 0.  1.
         11   -1    0    0    0    0 -0.00000000000E+00 -0.00000000000E+00 -0.45593999997E+02  0.45594000000E+02  0.51100000000E-03 0. -1.
    9900012    2    1    2    0    0  0.26071120522E+02 -0.34649498856E+02 -0.18255136706E+01  0.47787267329E+02  0.19999983061E+02 0.  0.
         12    1    1    2    0    0 -0.26071120522E+02  0.34649498856E+02  0.18255136706E+01  0.43400732671E+02  0.00000000000E+00 0. -1.
         11    1    3    3    0    0  0.18990149290E+01 -0.56735860228E+01 -0.62243217910E+01  0.86335402980E+01  0.51100000000E-03 0. -1.
        -11    1    3    3    0    0  0.11436116596E+02 -0.70909702417E+01  0.30460363030E+01  0.13796556063E+02  0.51100000000E-03 0.  1.
        -12    1    3    3    0    0  0.12735988996E+02 -0.21884942591E+02  0.13527718174E+01  0.25357170968E+02  0.00000000000E+00 0.  1.
</event>
<event>
 7    1  0.2492468E-009  0.4778727E+02  0.7816164E-02  0.1312668E+00
        -11   -1    0    0    0    0  0.00000000000E+00  0.00000000000E+00  0.45593999997E+02  0.45594000000E+02  0.51100000000E-03 0. -1.
         11   -1    0    0    0    0 -0.00000000000E+00 -0.00000000000E+00 -0.45593999997E+02  0.45594000000E+02  0.51100000000E-03 0.  1.
    9900012    2    1    2    0    0  0.84223989136E+01 -0.18526725338E+02 -0.38333363334E+02  0.47787273051E+02  0.20000009149E+02 0.  0.
         12    1    1    2    0    0 -0.84223989136E+01  0.18526725338E+02  0.38333363334E+02  0.43400726949E+02  0.00000000000E+00 0. -1.
         11    1    3    3    0    0  0.20751670274E+01 -0.12457951511E+02 -0.21680229728E+02  0.25090620466E+02  0.51100000000E-03 0. -1.
        -11    1    3    3    0    0  0.77098571477E+01 -0.83345632525E+01 -0.86654211797E+01  0.14282729653E+02  0.51100000000E-03 0.  1.
        -12    1    3    3    0    0 -0.13626252615E+01  0.22657894248E+01 -0.79877124261E+01  0.84139229330E+01  0.00000000000E+00 0.  1.
</event>
<event>
 7    1  0.2492468E-009  0.4778727E+02  0.7816164E-02  0.1312668E+00
        -11   -1    0    0    0    0  0.00000000000E+00  0.00000000000E+00  0.45593999997E+02  0.45594000000E+02  0.51100000000E-03 0. -1.
         11   -1    0    0    0    0 -0.00000000000E+00 -0.00000000000E+00 -0.45593999997E+02  0.45594000000E+02  0.51100000000E-03 0.  1.
    9900012    2    1    2    0    0 -0.35956072885E+02  0.20354956187E+02 -0.13283820259E+02  0.47787270751E+02  0.19999998661E+02 0.  0.
         12    1    1    2    0    0  0.35956072885E+02 -0.20354956187E+02  0.13283820259E+02  0.43400729249E+02  0.00000000000E+00 0. -1.
         11    1    3    3    0    0 -0.55032898952E+01  0.24946531695E+01  0.34939342861E+01  0.69797615406E+01  0.51100000000E-03 0. -1.
        -11    1    3    3    0    0 -0.23479120238E+02  0.11535819317E+02 -0.66748638712E+01  0.26998111460E+02  0.51100000000E-03 0.  1.
        -12    1    3    3    0    0 -0.69736627526E+01  0.63244836998E+01 -0.10102890674E+02  0.13809397750E+02  0.00000000000E+00 0.  1.
</event>
<event>
 7    1  0.2492468E-009  0.4778727E+02  0.7816164E-02  0.1312668E+00
        -11   -1    0    0    0    0  0.00000000000E+00  0.00000000000E+00  0.45593999997E+02  0.45594000000E+02  0.51100000000E-03 0.  1.
         11   -1    0    0    0    0 -0.00000000000E+00 -0.00000000000E+00 -0.45593999997E+02  0.45594000000E+02  0.51100000000E-03 0. -1.
    9900012    2    1    2    0    0  0.72689317505E+01  0.35684153340E+02  0.23609893800E+02  0.47787271278E+02  0.20000001065E+02 0.  0.
         12    1    1    2    0    0 -0.72689317505E+01 -0.35684153340E+02 -0.23609893800E+02  0.43400728722E+02  0.00000000000E+00 0. -1.
         11    1    3    3    0    0 -0.15886910397E+01  0.64533943201E+01  0.83809170489E+01  0.10696261418E+02  0.51100000000E-03 0. -1.
        -11    1    3    3    0    0  0.50414183698E+01  0.55070704832E+01  0.10034319176E+02  0.12507249341E+02  0.51100000000E-03 0.  1.
        -12    1    3    3    0    0  0.38162044203E+01  0.23723688536E+02  0.51946575743E+01  0.24583760519E+02  0.00000000000E+00 0.  1.
</event>
<event>
 7    1  0.2492468E-009  0.4778727E+02  0.7816164E-02  0.1312668E+00
        -11   -1    0    0    0    0  0.00000000000E+00  0.00000000000E+00  0.45593999997E+02  0.45594000000E+02  0.51100000000E-03 0. -1.
         11   -1    0    0    0    0 -0.00000000000E+00 -0.00000000000E+00 -0.45593999997E+02  0.45594000000E+02  0.51100000000E-03 0.  1.
    9900012    2    1    2    0    0 -0.37508258027E+02  0.18439427501E+02 -0.11693663959E+02  0.47787266324E+02  0.19999978478E+02 0.  0.
         12    1    1    2    0    0  0.37508258027E+02 -0.18439427501E+02  0.11693663959E+02  0.43400733676E+02  0.00000000000E+00 0. -1.
         11    1    3    3    0    0 -0.19862437125E+02  0.91411365230E+01 -0.33860705174E+01  0.22125601897E+02  0.51100000000E-03 0. -1.
        -11    1    3    3    0    0 -0.15455404749E+02  0.56574716587E+01 -0.11726010297E+02  0.20208311143E+02  0.51100000000E-03 0.  1.
         12    1    3    3    0    0 -0.21904161539E+01  0.36408193194E+01  0.34184168554E+01  0.54533532841E+01  0.00000000000E+00 0. -1.
</event>
<event>
 7    1  0.2492468E-009  0.4778727E+02  0.7816164E-02  0.1312668E+00
        -11   -1    0    0    0    0  0.00000000000E+00  0.00000000000E+00  0.45593999997E+02  0.45594000000E+02  0.51100000000E-03 0.  1.
         11   -1    0    0    0    0 -0.00000000000E+00 -0.00000000000E+00 -0.45593999997E+02  0.45594000000E+02  0.51100000000E-03 0. -1.
    9900012    2    1    2    0    0  0.32365533723E+02 -0.21681719603E+02  0.19131090181E+02  0.47787270172E+02  0.19999996021E+02 0.  0.
         12    1    1    2    0    0 -0.32365533723E+02  0.21681719603E+02 -0.19131090181E+02  0.43400729828E+02  0.00000000000E+00 0. -1.
         11    1    3    3    0    0  0.50721249111E+01 -0.65143838155E+01  0.48071124408E+01  0.95536368933E+01  0.51100000000E-03 0. -1.
        -11    1    3    3    0    0  0.15540710252E+02 -0.13182180911E+02  0.16371096598E+02  0.26139938270E+02  0.51100000000E-03 0.  1.
         12    1    3    3    0    0  0.11752698561E+02 -0.19851548764E+01 -0.20471188576E+01  0.12093695008E+02  0.00000000000E+00 0. -1.
</event>
<event>
 7    1  0.2492468E-009  0.4778727E+02  0.7816164E-02  0.1312668E+00
        -11   -1    0    0    0    0  0.00000000000E+00  0.00000000000E+00  0.45593999997E+02  0.45594000000E+02  0.51100000000E-03 0. -1.
         11   -1    0    0    0    0 -0.00000000000E+00 -0.00000000000E+00 -0.45593999997E+02  0.45594000000E+02  0.51100000000E-03 0.  1.
    9900012    2    1    2    0    0  0.28044405746E+02 -0.26977186147E+02 -0.19218894094E+02  0.47787272399E+02  0.20000006178E+02 0.  0.
         12    1    1    2    0    0 -0.28044405746E+02  0.26977186147E+02  0.19218894094E+02  0.43400727601E+02  0.00000000000E+00 0. -1.
         11    1    3    3    0    0  0.15737170703E+02 -0.10775914742E+02 -0.18346629635E+02  0.26464649998E+02  0.51100000000E-03 0. -1.
        -11    1    3    3    0    0  0.59488779042E+00 -0.16507917664E+01 -0.19369271920E+01  0.26135592871E+01  0.51100000000E-03 0.  1.
        -12    1    3    3    0    0  0.11712347252E+02 -0.14550479639E+02  0.10646627336E+01  0.18709063115E+02  0.00000000000E+00 0.  1.
</event>
<event>
 7    1  0.2492468E-009  0.4778727E+02  0.7816164E-02  0.1312668E+00
        -11   -1    0    0    0    0  0.00000000000E+00  0.00000000000E+00  0.45593999997E+02  0.45594000000E+02  0.51100000000E-03 0.  1.
         11   -1    0    0    0    0 -0.00000000000E+00 -0.00000000000E+00 -0.45593999997E+02  0.45594000000E+02  0.51100000000E-03 0. -1.
    9900012    2    1    2    0    0  0.19972103958E+02  0.14219990633E+02  0.35812434439E+02  0.47787268087E+02  0.19999986517E+02 0.  0.
         12    1    1    2    0    0 -0.19972103958E+02 -0.14219990633E+02 -0.35812434439E+02  0.43400731913E+02  0.00000000000E+00 0. -1.
         11    1    3    3    0    0  0.62554402552E+00  0.13161500595E+01 -0.27978482768E+00  0.14838585235E+01  0.51100000000E-03 0. -1.
        -11    1    3    3    0    0  0.97828989562E+01  0.15717225732E+02  0.19078927057E+02  0.26584614998E+02  0.51100000000E-03 0.  1.
         12    1    3    3    0    0  0.95636609766E+01 -0.28133851580E+01  0.17013292209E+02  0.19718794566E+02  0.00000000000E+00 0. -1.
</event>
<event>
 7    1  0.2492468E-009  0.4778727E+02  0.7816164E-02  0.1312668E+00
        -11   -1    0    0    0    0  0.00000000000E+00  0.00000000000E+00  0.45593999997E+02  0.45594000000E+02  0.51100000000E-03 0. -1.
         11   -1    0    0    0    0 -0.00000000000E+00 -0.00000000000E+00 -0.45593999997E+02  0.45594000000E+02  0.51100000000E-03 0.  1.
    9900012    2    1    2    0    0 -0.10223009298E+02  0.30318634065E+02 -0.29323940919E+02  0.47787274180E+02  0.20000014295E+02 0.  0.
         12    1    1    2    0    0  0.10223009298E+02 -0.30318634065E+02  0.29323940919E+02  0.43400725820E+02  0.00000000000E+00 0. -1.
         11    1    3    3    0    0 -0.11723094612E+01 -0.23826212838E+01 -0.10095664546E+01  0.28408481730E+01  0.51100000000E-03 0. -1.
        -11    1    3    3    0    0 -0.49475279668E+01  0.69438697092E+01 -0.96321141290E+01  0.12863630218E+02  0.51100000000E-03 0.  1.
        -12    1    3    3    0    0 -0.41031718699E+01  0.25757385640E+02 -0.18682260336E+02  0.32082795789E+02  0.00000000000E+00 0.  1.
</event>
<event>
 7    1  0.2492468E-009  0.4778727E+02  0.7816164E-02  0.1312668E+00
        -11   -1    0    0    0    0  0.00000000000E+00  0.00000000000E+00  0.45593999997E+02  0.45594000000E+02  0.51100000000E-03 0. -1.
         11   -1    0    0    0    0 -0.00000000000E+00 -0.00000000000E+00 -0.45593999997E+02  0.45594000000E+02  0.51100000000E-03 0.  1.
    9900012    2    1    2    0    0 -0.16097830565E+02  0.29975085246E+02 -0.26943966294E+02  0.47787271849E+02  0.20000003667E+02 0.  0.
         12    1    1    2    0    0  0.16097830565E+02 -0.29975085246E+02  0.26943966294E+02  0.43400728151E+02  0.00000000000E+00 0. -1.
         11    1    3    3    0    0 -0.64020025990E+01  0.66086728156E+01 -0.11635733813E+02  0.14834099072E+02  0.51100000000E-03 0. -1.
        -11    1    3    3    0    0 -0.71033751743E+01  0.10548826891E+02 -0.15274806659E+02  0.19876000764E+02  0.51100000000E-03 0.  1.
         12    1    3    3    0    0 -0.25924527915E+01  0.12817585540E+02 -0.33425821853E-01  0.13077172012E+02  0.00000000000E+00 0. -1.
</event>
<event>
 7    1  0.2492468E-009  0.4778726E+02  0.7816164E-02  0.1312668E+00
        -11   -1    0    0    0    0  0.00000000000E+00  0.00000000000E+00  0.45593999997E+02  0.45594000000E+02  0.51100000000E-03 0.  1.
         11   -1    0    0    0    0 -0.00000000000E+00 -0.00000000000E+00 -0.45593999997E+02  0.45594000000E+02  0.51100000000E-03 0. -1.
    9900012    2    1    2    0    0  0.11581160763E+01 -0.39169267639E+02 -0.18656140383E+02  0.47787258829E+02  0.19999944303E+02 0.  0.
         12    1    1    2    0    0 -0.11581160763E+01  0.39169267639E+02  0.18656140383E+02  0.43400741171E+02  0.00000000000E+00 0. -1.
         11    1    3    3    0    0 -0.17444140818E+01 -0.10316997534E+02 -0.13243497172E+02  0.16878200029E+02  0.51100000000E-03 0. -1.
        -11    1    3    3    0    0  0.50136686684E+00  0.65470891865E+00 -0.20888966763E+00  0.85067482489E+00  0.51100000000E-03 0.  1.
        -12    1    3    3    0    0  0.24011632913E+01 -0.29506979024E+02 -0.52037535439E+01  0.30058383975E+02  0.00000000000E+00 0.  1.
</event>
<event>
 7    1  0.2492468E-009  0.4778727E+02  0.7816164E-02  0.1312668E+00
        -11   -1    0    0    0    0  0.00000000000E+00  0.00000000000E+00  0.45593999997E+02  0.45594000000E+02  0.51100000000E-03 0. -1.
         11   -1    0    0    0    0 -0.00000000000E+00 -0.00000000000E+00 -0.45593999997E+02  0.45594000000E+02  0.51100000000E-03 0.  1.
    9900012    2    1    2    0    0  0.43373552803E+02 -0.14921864493E+00 -0.15283562815E+01  0.47787271644E+02  0.20000002733E+02 0.  0.
         12    1    1    2    0    0 -0.43373552803E+02  0.14921864493E+00  0.15283562815E+01  0.43400728356E+02  0.00000000000E+00 0. -1.
         11    1    3    3    0    0  0.37678708161E+01 -0.53487195333E+00  0.21277397506E+01  0.43600705500E+01  0.51100000000E-03 0. -1.
        -11    1    3    3    0    0  0.21192102795E+02  0.58538931972E+01  0.46958435090E+01  0.22481642132E+02  0.51100000000E-03 0.  1.
         12    1    3    3    0    0  0.18413579191E+02 -0.54682398888E+01 -0.83519395410E+01  0.20945558962E+02  0.00000000000E+00 0. -1.
</event>
<event>
 7    1  0.2492468E-009  0.4778727E+02  0.7816164E-02  0.1312668E+00
        -11   -1    0    0    0    0  0.00000000000E+00  0.00000000000E+00  0.45593999997E+02  0.45594000000E+02  0.51100000000E-03 0.  1.
         11   -1    0    0    0    0 -0.00000000000E+00 -0.00000000000E+00 -0.45593999997E+02  0.45594000000E+02  0.51100000000E-03 0. -1.
    9900012    2    1    2    0    0  0.42254447263E+02  0.37307633437E+01  0.91796823432E+01  0.47787268710E+02  0.19999989356E+02 0.  0.
         12    1    1    2    0    0 -0.42254447263E+02 -0.37307633437E+01 -0.91796823432E+01  0.43400731290E+02  0.00000000000E+00 0. -1.
         11    1    3    3    0    0  0.19923906743E+02 -0.13797678962E+01  0.41736435663E+01  0.20403066442E+02  0.51100000000E-03 0.  1.
        -11    1    3    3    0    0  0.21911949699E+02  0.76494736494E+01  0.18074958649E+01  0.23279068459E+02  0.51100000000E-03 0. -1.
         12    1    3    3    0    0  0.41859082037E+00 -0.25389424095E+01  0.31985429120E+01  0.41051338094E+01  0.00000000000E+00 0. -1.
</event>
<event>
 7    1  0.2492468E-009  0.4778727E+02  0.7816164E-02  0.1312668E+00
        -11   -1    0    0    0    0  0.00000000000E+00  0.00000000000E+00  0.45593999997E+02  0.45594000000E+02  0.51100000000E-03 0.  1.
         11   -1    0    0    0    0 -0.00000000000E+00 -0.00000000000E+00 -0.45593999997E+02  0.45594000000E+02  0.51100000000E-03 0. -1.
    9900012    2    1    2    0    0  0.48159864180E+01  0.32137710130E+02  0.28767990852E+02  0.47787269186E+02  0.19999991525E+02 0.  0.
         12    1    1    2    0    0 -0.48159864180E+01 -0.32137710130E+02 -0.28767990852E+02  0.43400730814E+02  0.00000000000E+00 0. -1.
         11    1    3    3    0    0 -0.15375250679E+01  0.11929799424E+02  0.13454187970E+02  0.18047140267E+02  0.51100000000E-03 0. -1.
        -11    1    3    3    0    0  0.16221020519E+01  0.20251771244E+02  0.10063877959E+02  0.22672606674E+02  0.51100000000E-03 0.  1.
         12    1    3    3    0    0  0.47314094340E+01 -0.43860537545E-01  0.52499249230E+01  0.70675222445E+01  0.00000000000E+00 0. -1.
</event>
<event>
 7    1  0.2492468E-009  0.4778727E+02  0.7816164E-02  0.1312668E+00
        -11   -1    0    0    0    0  0.00000000000E+00  0.00000000000E+00  0.45593999997E+02  0.45594000000E+02  0.51100000000E-03 0. -1.
         11   -1    0    0    0    0 -0.00000000000E+00 -0.00000000000E+00 -0.45593999997E+02  0.45594000000E+02  0.51100000000E-03 0.  1.
    9900012    2    1    2    0    0 -0.86892589409E+01 -0.40396737164E+02 -0.13274928501E+02  0.47787270500E+02  0.19999997517E+02 0.  0.
         12    1    1    2    0    0  0.86892589409E+01  0.40396737164E+02  0.13274928501E+02  0.43400729500E+02  0.00000000000E+00 0. -1.
         11    1    3    3    0    0  0.77185912965E-01 -0.76637619715E+01 -0.10416641102E+01  0.77346150260E+01  0.51100000000E-03 0. -1.
        -11    1    3    3    0    0 -0.10724040920E+02 -0.19131325691E+02 -0.14262779573E+02  0.26161795767E+02  0.51100000000E-03 0.  1.
        -12    1    3    3    0    0  0.19575960661E+01 -0.13601649502E+02  0.20295151821E+01  0.13890859707E+02  0.00000000000E+00 0.  1.
</event>
<event>
 7    1  0.2492468E-009  0.4778727E+02  0.7816164E-02  0.1312668E+00
        -11   -1    0    0    0    0  0.00000000000E+00  0.00000000000E+00  0.45593999997E+02  0.45594000000E+02  0.51100000000E-03 0.  1.
         11   -1    0    0    0    0 -0.00000000000E+00 -0.00000000000E+00 -0.45593999997E+02  0.45594000000E+02  0.51100000000E-03 0. -1.
    9900012    2    1    2    0    0 -0.29101184868E+02  0.17853261494E+01  0.32148979271E+02  0.47787271684E+02  0.20000002916E+02 0.  0.
         12    1    1    2    0    0  0.29101184868E+02 -0.17853261494E+01 -0.32148979271E+02  0.43400728316E+02  0.00000000000E+00 0. -1.
         11    1    3    3    0    0 -0.15893231466E+02 -0.50858589815E+01  0.16830820343E+02  0.23700997483E+02  0.51100000000E-03 0. -1.
        -11    1    3    3    0    0 -0.60667233636E+01 -0.12576255508E+01  0.10609310323E+02  0.12285935869E+02  0.51100000000E-03 0.  1.
         12    1    3    3    0    0 -0.71412300380E+01  0.81288106817E+01  0.47088486060E+01  0.11800338332E+02  0.00000000000E+00 0. -1.
</event>
<event>
 7    1  0.2492468E-009  0.4778727E+02  0.7816164E-02  0.1312668E+00
        -11   -1    0    0    0    0  0.00000000000E+00  0.00000000000E+00  0.45593999997E+02  0.45594000000E+02  0.51100000000E-03 0. -1.
         11   -1    0    0    0    0 -0.00000000000E+00 -0.00000000000E+00 -0.45593999997E+02  0.45594000000E+02  0.51100000000E-03 0.  1.
    9900012    2    1    2    0    0 -0.50941580908E+00  0.23069554377E+02 -0.36758119414E+02  0.47787272051E+02  0.20000004589E+02 0.  0.
         12    1    1    2    0    0  0.50941580908E+00 -0.23069554377E+02  0.36758119414E+02  0.43400727949E+02  0.00000000000E+00 0. -1.
         11    1    3    3    0    0 -0.38240299923E+01  0.44780726910E+01 -0.14285340951E+02  0.15451449989E+02  0.51100000000E-03 0. -1.
        -11    1    3    3    0    0  0.80173793582E+01  0.14716845871E+02 -0.18949541102E+02  0.25297213926E+02  0.51100000000E-03 0.  1.
        -12    1    3    3    0    0 -0.47027651749E+01  0.38746358154E+01 -0.35232373606E+01  0.70386081359E+01  0.00000000000E+00 0.  1.
</event>
