<event>
 7    1  0.6462830E-013  0.5052892E+02  0.7816164E-02  0.1300439E+00
        -11   -1    0    0    0    0  0.00000000000E+00  0.00000000000E+00  0.45593999997E+02  0.45594000000E+02  0.51100000000E-03 0. -1.
         11   -1    0    0    0    0 -0.00000000000E+00 -0.00000000000E+00 -0.45593999997E+02  0.45594000000E+02  0.51100000000E-03 0.  1.
    9900012    2    1    2    0    0  0.48130681480E+01 -0.90218658662E+01 -0.39352271295E+02  0.50528918053E+02  0.30000176914E+02 0.  0.
         12    1    1    2    0    0 -0.48130681480E+01  0.90218658662E+01  0.39352271295E+02  0.40659081947E+02  0.00000000000E+00 0. -1.
         11    1    3    3    0    0 -0.58793508504E+01 -0.14100852949E+02 -0.23237587783E+02  0.27809823921E+02  0.51100000000E-03 0. -1.
        -11    1    3    3    0    0  0.78430269767E+00  0.59002320118E+00 -0.10372674182E+02  0.10419003218E+02  0.51100000000E-03 0.  1.
         12    1    3    3    0    0  0.99081163008E+01  0.44889638815E+01 -0.57420093294E+01  0.12300090914E+02  0.00000000000E+00 0. -1.
</event>
<event>
 7    1  0.6462830E-013  0.5052886E+02  0.7816164E-02  0.1300439E+00
        -11   -1    0    0    0    0  0.00000000000E+00  0.00000000000E+00  0.45593999997E+02  0.45594000000E+02  0.51100000000E-03 0.  1.
         11   -1    0    0    0    0 -0.00000000000E+00 -0.00000000000E+00 -0.45593999997E+02  0.45594000000E+02  0.51100000000E-03 0. -1.
    9900012    2    1    2    0    0 -0.55926936439E+01 -0.38023064772E+02  0.13271548469E+02  0.50528859876E+02  0.30000000079E+02 0.  0.
         12    1    1    2    0    0  0.55926936439E+01  0.38023064772E+02 -0.13271548469E+02  0.40659140124E+02  0.00000000000E+00 0. -1.
         11    1    3    3    0    0  0.86725594607E+01 -0.23019812726E+02  0.27068715657E+01  0.24747772010E+02  0.51100000000E-03 0. -1.
        -11    1    3    3    0    0 -0.23472722654E+00  0.96975776067E+00 -0.11375367882E+01  0.15131150620E+01  0.51100000000E-03 0.  1.
        -12    1    3    3    0    0 -0.14030525878E+02 -0.15973009807E+02  0.11702213692E+02  0.24267972804E+02  0.00000000000E+00 0.  1.
</event>
<event>
 7    1  0.6462830E-013  0.5052886E+02  0.7816164E-02  0.1300439E+00
        -11   -1    0    0    0    0  0.00000000000E+00  0.00000000000E+00  0.45593999997E+02  0.45594000000E+02  0.51100000000E-03 0.  1.
         11   -1    0    0    0    0 -0.00000000000E+00 -0.00000000000E+00 -0.45593999997E+02  0.45594000000E+02  0.51100000000E-03 0. -1.
    9900012    2    1    2    0    0 -0.35826147342E+02 -0.18564335191E+02 -0.50018077676E+01  0.50528862584E+02  0.30000008310E+02 0.  0.
         12    1    1    2    0    0  0.35826147342E+02  0.18564335191E+02  0.50018077676E+01  0.40659137416E+02  0.00000000000E+00 0. -1.
         11    1    3    3    0    0 -0.82456810609E+00  0.35825426746E+01  0.27213662561E+01  0.45738779102E+01  0.51100000000E-03 0. -1.
        -11    1    3    3    0    0 -0.12749975109E+02 -0.12982125712E+01 -0.86268882004E+01  0.15448961824E+02  0.51100000000E-03 0.  1.
         12    1    3    3    0    0 -0.22251604127E+02 -0.20848665295E+02  0.90371417669E+00  0.30506022850E+02  0.00000000000E+00 0. -1.
</event>
<event>
 7    1  0.6462830E-013  0.5052886E+02  0.7816164E-02  0.1300439E+00
        -11   -1    0    0    0    0  0.00000000000E+00  0.00000000000E+00  0.45593999997E+02  0.45594000000E+02  0.51100000000E-03 0.  1.
         11   -1    0    0    0    0 -0.00000000000E+00 -0.00000000000E+00 -0.45593999997E+02  0.45594000000E+02  0.51100000000E-03 0. -1.
    9900012    2    1    2    0    0  0.21749349862E+01 -0.40085509828E+02 -0.64487895495E+01  0.50528864163E+02  0.30000013109E+02 0.  0.
         12    1    1    2    0    0 -0.21749349862E+01  0.40085509828E+02  0.64487895495E+01  0.40659135837E+02  0.00000000000E+00 0. -1.
         11    1    3    3    0    0 -0.21504697144E+01  0.36137730618E+01 -0.53010048187E+00  0.42385000314E+01  0.51100000000E-03 0. -1.
        -11    1    3    3    0    0 -0.88186528003E+00 -0.19468281486E+02  0.34561746986E+01  0.19792342312E+02  0.51100000000E-03 0.  1.
        -12    1    3    3    0    0  0.52072699806E+01 -0.24231001404E+02 -0.93748637662E+01  0.26498021819E+02  0.00000000000E+00 0.  1.
</event>
<event>
 7    1  0.6462830E-013  0.5052885E+02  0.7816164E-02  0.1300439E+00
        -11   -1    0    0    0    0  0.00000000000E+00  0.00000000000E+00  0.45593999997E+02  0.45594000000E+02  0.51100000000E-03 0.  1.
         11   -1    0    0    0    0 -0.00000000000E+00 -0.00000000000E+00 -0.45593999997E+02  0.45594000000E+02  0.51100000000E-03 0. -1.
    9900012    2    1    2    0    0 -0.36933905088E+02 -0.15696638134E+02 -0.65320991022E+01  0.50528854504E+02  0.29999983751E+02 0.  0.
         12    1    1    2    0    0  0.36933905088E+02  0.15696638134E+02  0.65320991022E+01  0.40659145496E+02  0.00000000000E+00 0. -1.
         11    1    3    3    0    0 -0.41807475691E+00 -0.79606475583E+01 -0.51111657828E+00  0.79879870097E+01  0.51100000000E-03 0. -1.
        -11    1    3    3    0    0 -0.24091165014E+02 -0.14136600398E+02 -0.20320785461E+01  0.28006375095E+02  0.51100000000E-03 0.  1.
        -12    1    3    3    0    0 -0.12424665318E+02  0.64006098219E+01 -0.39889039779E+01  0.14534492399E+02  0.00000000000E+00 0.  1.
</event>
<event>
 7    1  0.6462830E-013  0.5052884E+02  0.7816164E-02  0.1300439E+00
        -11   -1    0    0    0    0  0.00000000000E+00  0.00000000000E+00  0.45593999997E+02  0.45594000000E+02  0.51100000000E-03 0. -1.
         11   -1    0    0    0    0 -0.00000000000E+00 -0.00000000000E+00 -0.45593999997E+02  0.45594000000E+02  0.51100000000E-03 0.  1.
    9900012    2    1    2    0    0  0.14270835585E+02 -0.26695535526E+02 -0.27145150284E+02  0.50528836835E+02  0.29999930043E+02 0.  0.
         12    1    1    2    0    0 -0.14270835585E+02  0.26695535526E+02  0.27145150284E+02  0.40659163165E+02  0.00000000000E+00 0. -1.
         11    1    3    3    0    0  0.66282327764E+01 -0.74152025206E+01  0.24621199732E+01  0.10246010598E+02  0.51100000000E-03 0.  1.
        -11    1    3    3    0    0 -0.44663255547E+01  0.37562340563E-01 -0.39888406237E+01  0.59883490774E+01  0.51100000000E-03 0. -1.
        -12    1    3    3    0    0  0.12108928363E+02 -0.19317895346E+02 -0.25618429634E+02  0.34294477159E+02  0.00000000000E+00 0.  1.
</event>
<event>
 7    1  0.6462830E-013  0.5052886E+02  0.7816164E-02  0.1300439E+00
        -11   -1    0    0    0    0  0.00000000000E+00  0.00000000000E+00  0.45593999997E+02  0.45594000000E+02  0.51100000000E-03 0.  1.
         11   -1    0    0    0    0 -0.00000000000E+00 -0.00000000000E+00 -0.45593999997E+02  0.45594000000E+02  0.51100000000E-03 0. -1.
    9900012    2    1    2    0    0 -0.25743040353E+02  0.28910929615E+02  0.12434615685E+02  0.50528860252E+02  0.30000001221E+02 0.  0.
         12    1    1    2    0    0  0.25743040353E+02 -0.28910929615E+02 -0.12434615685E+02  0.40659139748E+02  0.00000000000E+00 0. -1.
         11    1    3    3    0    0 -0.70201486821E+01  0.18035047167E+01 -0.21594732764E+01  0.75629651509E+01  0.51100000000E-03 0. -1.
        -11    1    3    3    0    0 -0.23734406263E+02  0.17302277346E+02  0.98957151542E+01  0.30993806166E+02  0.51100000000E-03 0.  1.
        -12    1    3    3    0    0  0.50115145914E+01  0.98051475529E+01  0.46983738069E+01  0.11972088935E+02  0.00000000000E+00 0.  1.
</event>
<event>
 7    1  0.6462830E-013  0.5052886E+02  0.7816164E-02  0.1300439E+00
        -11   -1    0    0    0    0  0.00000000000E+00  0.00000000000E+00  0.45593999997E+02  0.45594000000E+02  0.51100000000E-03 0. -1.
         11   -1    0    0    0    0 -0.00000000000E+00 -0.00000000000E+00 -0.45593999997E+02  0.45594000000E+02  0.51100000000E-03 0.  1.
    9900012    2    1    2    0    0 -0.29433320235E+02 -0.77560530177E+00 -0.28040036910E+02  0.50528861131E+02  0.30000003895E+02 0.  0.
         12    1    1    2    0    0  0.29433320235E+02  0.77560530177E+00  0.28040036910E+02  0.40659138869E+02  0.00000000000E+00 0. -1.
         11    1    3    3    0    0 -0.49301406082E+01 -0.70956250156E+01 -0.15038251516E+01  0.87701579876E+01  0.51100000000E-03 0. -1.
        -11    1    3    3    0    0 -0.26642306162E+02  0.22003168286E+01 -0.18608405171E+02  0.32571868461E+02  0.51100000000E-03 0.  1.
         12    1    3    3    0    0  0.21391265358E+01  0.41197028853E+01 -0.79278065871E+01  0.91868346824E+01  0.00000000000E+00 0. -1.
</event>
<event>
 7    1  0.6462830E-013  0.5052886E+02  0.7816164E-02  0.1300439E+00
        -11   -1    0    0    0    0  0.00000000000E+00  0.00000000000E+00  0.45593999997E+02  0.45594000000E+02  0.51100000000E-03 0.  1.
         11   -1    0    0    0    0 -0.00000000000E+00 -0.00000000000E+00 -0.45593999997E+02  0.45594000000E+02  0.51100000000E-03 0. -1.
    9900012    2    1    2    0    0  0.27637441162E+02  0.27902574807E+02  0.10525371430E+02  0.50528864758E+02  0.30000014919E+02 0.  0.
         12    1    1    2    0    0 -0.27637441162E+02 -0.27902574807E+02 -0.10525371430E+02  0.40659135242E+02  0.00000000000E+00 0. -1.
         11    1    3    3    0    0  0.11929176226E+01 -0.44441341181E+01  0.61767092896E+01  0.77022800795E+01  0.51100000000E-03 0. -1.
        -11    1    3    3    0    0  0.11195281494E+02  0.84221774377E+01 -0.62171030451E+00  0.14023334998E+02  0.51100000000E-03 0.  1.
        -12    1    3    3    0    0  0.15249242046E+02  0.23924531488E+02  0.49703724448E+01  0.28803249680E+02  0.00000000000E+00 0.  1.
</event>
<event>
 7    1  0.6462830E-013  0.5052887E+02  0.7816164E-02  0.1300439E+00
        -11   -1    0    0    0    0  0.00000000000E+00  0.00000000000E+00  0.45593999997E+02  0.45594000000E+02  0.51100000000E-03 0.  1.
         11   -1    0    0    0    0 -0.00000000000E+00 -0.00000000000E+00 -0.45593999997E+02  0.45594000000E+02  0.51100000000E-03 0. -1.
    9900012    2    1    2    0    0  0.35996593132E+02  0.18896603110E+02  0.57318594050E+00  0.50528869803E+02  0.30000030254E+02 0.  0.
         12    1    1    2    0    0 -0.35996593132E+02 -0.18896603110E+02 -0.57318594050E+00  0.40659130197E+02  0.00000000000E+00 0. -1.
         11    1    3    3    0    0 -0.15293489188E+01  0.54700427068E+01 -0.15549408511E+01  0.58888128380E+01  0.51100000000E-03 0. -1.
        -11    1    3    3    0    0  0.31725233425E+02  0.17501469951E+02  0.57394832670E+01  0.36684241232E+02  0.51100000000E-03 0.  1.
         12    1    3    3    0    0  0.58007086260E+01 -0.40749095483E+01 -0.36113564754E+01  0.79558157333E+01  0.00000000000E+00 0. -1.
</event>
<event>
 7    1  0.6462830E-013  0.5052886E+02  0.7816164E-02  0.1300439E+00
        -11   -1    0    0    0    0  0.00000000000E+00  0.00000000000E+00  0.45593999997E+02  0.45594000000E+02  0.51100000000E-03 0.  1.
         11   -1    0    0    0    0 -0.00000000000E+00 -0.00000000000E+00 -0.45593999997E+02  0.45594000000E+02  0.51100000000E-03 0. -1.
    9900012    2    1    2    0    0  0.30101729496E+02  0.26903687482E+02  0.48211193124E+01  0.50528859451E+02  0.29999998786E+02 0.  0.
         12    1    1    2    0    0 -0.30101729496E+02 -0.26903687482E+02 -0.48211193124E+01  0.40659140549E+02  0.00000000000E+00 0. -1.
         11    1    3    3    0    0  0.21136978835E+02  0.10737560209E+02 -0.66908452700E+01  0.24634010721E+02  0.51100000000E-03 0.  1.
        -11    1    3    3    0    0  0.16747100354E+01 -0.10466581100E+01  0.61334451063E+01  0.64435468521E+01  0.51100000000E-03 0. -1.
        -12    1    3    3    0    0  0.72900406254E+01  0.17212785384E+02  0.53785194761E+01  0.19451301878E+02  0.00000000000E+00 0.  1.
</event>
<event>
 7    1  0.6462830E-013  0.5052884E+02  0.7816164E-02  0.1300439E+00
        -11   -1    0    0    0    0  0.00000000000E+00  0.00000000000E+00  0.45593999997E+02  0.45594000000E+02  0.51100000000E-03 0. -1.
         11   -1    0    0    0    0 -0.00000000000E+00 -0.00000000000E+00 -0.45593999997E+02  0.45594000000E+02  0.51100000000E-03 0.  1.
    9900012    2    1    2    0    0  0.12229855426E+02 -0.26381185669E+02 -0.28418850911E+02  0.50528838571E+02  0.29999935320E+02 0.  0.
         12    1    1    2    0    0 -0.12229855426E+02  0.26381185669E+02  0.28418850911E+02  0.40659161429E+02  0.00000000000E+00 0. -1.
         11    1    3    3    0    0  0.34214824062E+01 -0.69593307289E+01 -0.21494833749E+00  0.77579010756E+01  0.51100000000E-03 0. -1.
        -11    1    3    3    0    0 -0.51739785300E+01 -0.16836105228E+02 -0.12575343930E+02  0.21641713617E+02  0.51100000000E-03 0.  1.
        -12    1    3    3    0    0  0.13982351550E+02 -0.25857497122E+01 -0.15628558643E+02  0.21129223878E+02  0.00000000000E+00 0.  1.
</event>
<event>
 7    1  0.6462830E-013  0.5052886E+02  0.7816164E-02  0.1300439E+00
        -11   -1    0    0    0    0  0.00000000000E+00  0.00000000000E+00  0.45593999997E+02  0.45594000000E+02  0.51100000000E-03 0.  1.
         11   -1    0    0    0    0 -0.00000000000E+00 -0.00000000000E+00 -0.45593999997E+02  0.45594000000E+02  0.51100000000E-03 0. -1.
    9900012    2    1    2    0    0  0.32087034969E+02 -0.24688745465E+02  0.37488141716E+01  0.50528861133E+02  0.30000003900E+02 0.  0.
         12    1    1    2    0    0 -0.32087034969E+02  0.24688745465E+02 -0.37488141716E+01  0.40659138867E+02  0.00000000000E+00 0. -1.
         11    1    3    3    0    0  0.10080014242E+02 -0.17183828396E+02  0.43682772052E+01  0.20395403685E+02  0.51100000000E-03 0. -1.
        -11    1    3    3    0    0  0.11855214505E+02 -0.11524400783E+02 -0.64601872224E+01  0.17750829377E+02  0.51100000000E-03 0.  1.
        -12    1    3    3    0    0  0.10151806222E+02  0.40194837143E+01  0.58407241888E+01  0.12382628071E+02  0.00000000000E+00 0.  1.
</event>
<event>
 7    1  0.6462830E-013  0.5052886E+02  0.7816164E-02  0.1300439E+00
        -11   -1    0    0    0    0  0.00000000000E+00  0.00000000000E+00  0.45593999997E+02  0.45594000000E+02  0.51100000000E-03 0.  1.
         11   -1    0    0    0    0 -0.00000000000E+00 -0.00000000000E+00 -0.45593999997E+02  0.45594000000E+02  0.51100000000E-03 0. -1.
    9900012    2    1    2    0    0 -0.86937206368E+01 -0.35323318408E+02 -0.18161723145E+02  0.50528858476E+02  0.29999995824E+02 0.  0.
         12    1    1    2    0    0  0.86937206368E+01  0.35323318408E+02  0.18161723145E+02  0.40659141524E+02  0.00000000000E+00 0. -1.
         11    1    3    3    0    0  0.61602698206E+01 -0.27945729528E+01 -0.55001070658E+01  0.87183565107E+01  0.51100000000E-03 0. -1.
        -11    1    3    3    0    0 -0.65428249368E+01 -0.12563934368E+02 -0.14293006646E+02  0.20123395444E+02  0.51100000000E-03 0.  1.
        -12    1    3    3    0    0 -0.83111655207E+01 -0.19964811088E+02  0.16313905671E+01  0.21687106522E+02  0.00000000000E+00 0.  1.
</event>
<event>
 7    1  0.6462830E-013  0.5052874E+02  0.7816164E-02  0.1300439E+00
        -11   -1    0    0    0    0  0.00000000000E+00  0.00000000000E+00  0.45593999997E+02  0.45594000000E+02  0.51100000000E-03 0.  1.
         11   -1    0    0    0    0 -0.00000000000E+00 -0.00000000000E+00 -0.45593999997E+02  0.45594000000E+02  0.51100000000E-03 0. -1.
    9900012    2    1    2    0    0 -0.28815532427E+02 -0.17386205290E+02  0.22815794858E+02  0.50528738589E+02  0.29999631414E+02 0.  0.
         12    1    1    2    0    0  0.28815532427E+02  0.17386205290E+02 -0.22815794858E+02  0.40659261411E+02  0.00000000000E+00 0. -1.
         11    1    3    3    0    0 -0.12335438465E+02 -0.15086838178E+02  0.32730235178E+01  0.19760779628E+02  0.51100000000E-03 0. -1.
        -11    1    3    3    0    0  0.13247214230E+01 -0.54654549987E+01  0.55635728499E+01  0.79107160427E+01  0.51100000000E-03 0.  1.
        -12    1    3    3    0    0 -0.17804815385E+02  0.31660878858E+01  0.13979198490E+02  0.22857242918E+02  0.00000000000E+00 0.  1.
</event>
<event>
 7    1  0.6462830E-013  0.5052889E+02  0.7816164E-02  0.1300439E+00
        -11   -1    0    0    0    0  0.00000000000E+00  0.00000000000E+00  0.45593999997E+02  0.45594000000E+02  0.51100000000E-03 0. -1.
         11   -1    0    0    0    0 -0.00000000000E+00 -0.00000000000E+00 -0.45593999997E+02  0.45594000000E+02  0.51100000000E-03 0.  1.
    9900012    2    1    2    0    0 -0.26211396744E+02 -0.28788522393E+02 -0.11719498068E+02  0.50528893077E+02  0.30000100996E+02 0.  0.
         12    1    1    2    0    0  0.26211396744E+02  0.28788522393E+02  0.11719498068E+02  0.40659106923E+02  0.00000000000E+00 0. -1.
         11    1    3    3    0    0 -0.85773773815E+01 -0.99819083073E+01 -0.97406110765E+01  0.16373435822E+02  0.51100000000E-03 0. -1.
        -11    1    3    3    0    0 -0.21914904245E+02 -0.15384710279E+02  0.27500176438E+01  0.26916815111E+02  0.51100000000E-03 0.  1.
         12    1    3    3    0    0  0.42808848826E+01 -0.34219038066E+01 -0.47289046351E+01  0.72386421439E+01  0.00000000000E+00 0. -1.
</event>
<event>
 7    1  0.6462830E-013  0.5052885E+02  0.7816164E-02  0.1300439E+00
        -11   -1    0    0    0    0  0.00000000000E+00  0.00000000000E+00  0.45593999997E+02  0.45594000000E+02  0.51100000000E-03 0.  1.
         11   -1    0    0    0    0 -0.00000000000E+00 -0.00000000000E+00 -0.45593999997E+02  0.45594000000E+02  0.51100000000E-03 0. -1.
    9900012    2    1    2    0    0  0.75429179393E+01 -0.39264947632E+02  0.73847603995E+01  0.50528850848E+02  0.29999972639E+02 0.  0.
         12    1    1    2    0    0 -0.75429179393E+01  0.39264947632E+02 -0.73847603995E+01  0.40659149152E+02  0.00000000000E+00 0. -1.
         11    1    3    3    0    0  0.43948249357E+01 -0.36541326778E+02  0.13063123262E+02  0.39054170565E+02  0.51100000000E-03 0. -1.
        -11    1    3    3    0    0  0.66391494076E-01 -0.56635407530E+01 -0.26797610014E+01  0.62658775105E+01  0.51100000000E-03 0.  1.
        -12    1    3    3    0    0  0.30817015095E+01  0.29399198990E+01 -0.29986018611E+01  0.52088027730E+01  0.00000000000E+00 0.  1.
</event>
<event>
 7    1  0.6462830E-013  0.5052886E+02  0.7816164E-02  0.1300439E+00
        -11   -1    0    0    0    0  0.00000000000E+00  0.00000000000E+00  0.45593999997E+02  0.45594000000E+02  0.51100000000E-03 0.  1.
         11   -1    0    0    0    0 -0.00000000000E+00 -0.00000000000E+00 -0.45593999997E+02  0.45594000000E+02  0.51100000000E-03 0. -1.
    9900012    2    1    2    0    0  0.17741923808E+02  0.27512082789E+02  0.24113789517E+02  0.50528863208E+02  0.30000010207E+02 0.  0.
         12    1    1    2    0    0 -0.17741923808E+02 -0.27512082789E+02 -0.24113789517E+02  0.40659136792E+02  0.00000000000E+00 0. -1.
         11    1    3    3    0    0  0.85717030116E+01  0.63713741542E+01 -0.21731657443E+01  0.10899135321E+02  0.51100000000E-03 0. -1.
        -11    1    3    3    0    0 -0.40779711723E+01  0.97226573094E+00  0.35493276253E+00  0.42072707377E+01  0.51100000000E-03 0.  1.
        -12    1    3    3    0    0  0.13248191969E+02  0.20168442903E+02  0.25932022499E+02  0.35422457149E+02  0.00000000000E+00 0.  1.
</event>
<event>
 7    1  0.6462830E-013  0.5052888E+02  0.7816164E-02  0.1300439E+00
        -11   -1    0    0    0    0  0.00000000000E+00  0.00000000000E+00  0.45593999997E+02  0.45594000000E+02  0.51100000000E-03 0.  1.
         11   -1    0    0    0    0 -0.00000000000E+00 -0.00000000000E+00 -0.45593999997E+02  0.45594000000E+02  0.51100000000E-03 0. -1.
    9900012    2    1    2    0    0 -0.55004509168E+01 -0.14842418464E+02  0.37451456282E+02  0.50528881419E+02  0.30000065560E+02 0.  0.
         12    1    1    2    0    0  0.55004509168E+01  0.14842418464E+02 -0.37451456282E+02  0.40659118581E+02  0.00000000000E+00 0. -1.
         11    1    3    3    0    0 -0.15086178721E+01  0.12346880503E+01 -0.18403669398E+01  0.26809202151E+01  0.51100000000E-03 0. -1.
        -11    1    3    3    0    0  0.81067120373E+01 -0.97099737692E+01  0.25298257949E+02  0.28284345956E+02  0.51100000000E-03 0.  1.
         12    1    3    3    0    0 -0.12098545082E+02 -0.63671327448E+01  0.13993565273E+02  0.19563615247E+02  0.00000000000E+00 0. -1.
</event>
<event>
 7    1  0.6462830E-013  0.5052886E+02  0.7816164E-02  0.1300439E+00
        -11   -1    0    0    0    0  0.00000000000E+00  0.00000000000E+00  0.45593999997E+02  0.45594000000E+02  0.51100000000E-03 0. -1.
         11   -1    0    0    0    0 -0.00000000000E+00 -0.00000000000E+00 -0.45593999997E+02  0.45594000000E+02  0.51100000000E-03 0.  1.
    9900012    2    1    2    0    0 -0.19550636494E+02 -0.22454069664E+02 -0.27690307953E+02  0.50528858515E+02  0.29999995942E+02 0.  0.
         12    1    1    2    0    0  0.19550636494E+02  0.22454069664E+02  0.27690307953E+02  0.40659141485E+02  0.00000000000E+00 0. -1.
         11    1    3    3    0    0  0.30496621623E+00  0.36380094000E+00  0.24676758850E+01  0.25129226115E+01  0.51100000000E-03 0. -1.
        -11    1    3    3    0    0 -0.56930473693E+01  0.38254913378E+01 -0.32619020265E+01  0.75950758664E+01  0.51100000000E-03 0.  1.
        -12    1    3    3    0    0 -0.14162555341E+02 -0.26643361942E+02 -0.26896081811E+02  0.40420860037E+02  0.00000000000E+00 0.  1.
</event>
<event>
 7    1  0.6462830E-013  0.5052895E+02  0.7816164E-02  0.1300438E+00
        -11   -1    0    0    0    0  0.00000000000E+00  0.00000000000E+00  0.45593999997E+02  0.45594000000E+02  0.51100000000E-03 0.  1.
         11   -1    0    0    0    0 -0.00000000000E+00 -0.00000000000E+00 -0.45593999997E+02  0.45594000000E+02  0.51100000000E-03 0. -1.
    9900012    2    1    2    0    0 -0.33422892247E+02  0.20226400565E+02  0.11267699949E+02  0.50528953428E+02  0.30000284440E+02 0.  0.
         12    1    1    2    0    0  0.33422892247E+02 -0.20226400565E+02 -0.11267699949E+02  0.40659046572E+02  0.00000000000E+00 0. -1.
         11    1    3    3    0    0 -0.67392321508E+01  0.79906649716E+01  0.11251576474E+01  0.10513513051E+02  0.51100000000E-03 0. -1.
        -11    1    3    3    0    0 -0.24947350343E+02  0.19171222566E+02  0.71505238489E+01  0.32265090352E+02  0.51100000000E-03 0.  1.
         12    1    3    3    0    0 -0.17363097531E+01 -0.69354869729E+01  0.29920184528E+01  0.77503500264E+01  0.00000000000E+00 0. -1.
</event>
<event>
 7    1  0.6462830E-013  0.5052886E+02  0.7816164E-02  0.1300439E+00
        -11   -1    0    0    0    0  0.00000000000E+00  0.00000000000E+00  0.45593999997E+02  0.45594000000E+02  0.51100000000E-03 0. -1.
         11   -1    0    0    0    0 -0.00000000000E+00 -0.00000000000E+00 -0.45593999997E+02  0.45594000000E+02  0.51100000000E-03 0.  1.
    9900012    2    1    2    0    0 -0.27145075995E+02 -0.26432420952E+02 -0.14752533552E+02  0.50528864810E+02  0.30000015077E+02 0.  0.
         12    1    1    2    0    0  0.27145075995E+02  0.26432420952E+02  0.14752533552E+02  0.40659135190E+02  0.00000000000E+00 0. -1.
         11    1    3    3    0    0 -0.21421499989E+02 -0.95065714910E+01 -0.25140263822E+01  0.23570657441E+02  0.51100000000E-03 0. -1.
        -11    1    3    3    0    0 -0.98360143842E+01 -0.15048842210E+02 -0.13240821532E+02  0.22327879118E+02  0.51100000000E-03 0.  1.
        -12    1    3    3    0    0  0.41124383777E+01 -0.18770072517E+01  0.10023143621E+01  0.46303282512E+01  0.00000000000E+00 0.  1.
</event>
<event>
 7    1  0.6462830E-013  0.5052885E+02  0.7816164E-02  0.1300439E+00
        -11   -1    0    0    0    0  0.00000000000E+00  0.00000000000E+00  0.45593999997E+02  0.45594000000E+02  0.51100000000E-03 0.  1.
         11   -1    0    0    0    0 -0.00000000000E+00 -0.00000000000E+00 -0.45593999997E+02  0.45594000000E+02  0.51100000000E-03 0. -1.
    9900012    2    1    2    0    0 -0.13115157753E+01  0.25935790071E+02  0.31285473788E+02  0.50528854038E+02  0.29999982333E+02 0.  0.
         12    1    1    2    0    0  0.13115157753E+01 -0.25935790071E+02 -0.31285473788E+02  0.40659145962E+02  0.00000000000E+00 0. -1.
         11    1    3    3    0    0 -0.14959350165E+01  0.71966757438E+01  0.10257571678E+02  0.12619339932E+02  0.51100000000E-03 0. -1.
        -11    1    3    3    0    0 -0.55044996848E+01  0.19838039056E+02  0.54613620959E+01  0.21299619400E+02  0.51100000000E-03 0.  1.
         12    1    3    3    0    0  0.56889189260E+01 -0.10989247296E+01  0.15566540015E+02  0.16609894706E+02  0.00000000000E+00 0. -1.
</event>
<event>
 7    1  0.6462830E-013  0.5052886E+02  0.7816164E-02  0.1300439E+00
        -11   -1    0    0    0    0  0.00000000000E+00  0.00000000000E+00  0.45593999997E+02  0.45594000000E+02  0.51100000000E-03 0. -1.
         11   -1    0    0    0    0 -0.00000000000E+00 -0.00000000000E+00 -0.45593999997E+02  0.45594000000E+02  0.51100000000E-03 0.  1.
    9900012    2    1    2    0    0  0.15241141632E+02  0.35480931056E+02  0.12727012028E+02  0.50528859551E+02  0.29999999092E+02 0.  0.
         12    1    1    2    0    0 -0.15241141632E+02 -0.35480931056E+02 -0.12727012028E+02  0.40659140449E+02  0.00000000000E+00 0. -1.
         11    1    3    3    0    0  0.66420761765E+01  0.11740457243E+01  0.54534614368E+01  0.86738573427E+01  0.51100000000E-03 0. -1.
        -11    1    3    3    0    0 -0.39171696920E+01 -0.74962351847E+00  0.49253927852E+00  0.40185506115E+01  0.51100000000E-03 0.  1.
        -12    1    3    3    0    0  0.12516235148E+02  0.35056508850E+02  0.67810113129E+01  0.37836451597E+02  0.00000000000E+00 0.  1.
</event>
<event>
 7    1  0.6462830E-013  0.5052886E+02  0.7816164E-02  0.1300439E+00
        -11   -1    0    0    0    0  0.00000000000E+00  0.00000000000E+00  0.45593999997E+02  0.45594000000E+02  0.51100000000E-03 0.  1.
         11   -1    0    0    0    0 -0.00000000000E+00 -0.00000000000E+00 -0.45593999997E+02  0.45594000000E+02  0.51100000000E-03 0. -1.
    9900012    2    1    2    0    0  0.15384156543E+02 -0.37158174401E+02  0.59802832158E+01  0.50528856076E+02  0.29999988527E+02 0.  0.
         12    1    1    2    0    0 -0.15384156543E+02  0.37158174401E+02 -0.59802832158E+01  0.40659143924E+02  0.00000000000E+00 0. -1.
         11    1    3    3    0    0  0.14104639877E+02 -0.16249669405E+02 -0.24484831588E+01  0.21656123658E+02  0.51100000000E-03 0. -1.
        -11    1    3    3    0    0 -0.62312711822E+01 -0.16388173044E+02  0.13128144885E+01  0.17581935002E+02  0.51100000000E-03 0.  1.
         12    1    3    3    0    0  0.75107878477E+01 -0.45203319518E+01  0.71159518861E+01  0.11290797416E+02  0.00000000000E+00 0. -1.
</event>
<event>
 7    1  0.6462830E-013  0.5052886E+02  0.7816164E-02  0.1300439E+00
        -11   -1    0    0    0    0  0.00000000000E+00  0.00000000000E+00  0.45593999997E+02  0.45594000000E+02  0.51100000000E-03 0.  1.
         11   -1    0    0    0    0 -0.00000000000E+00 -0.00000000000E+00 -0.45593999997E+02  0.45594000000E+02  0.51100000000E-03 0. -1.
    9900012    2    1    2    0    0  0.10825022897E+02 -0.29788062233E+02  0.25468725745E+02  0.50528858797E+02  0.29999996798E+02 0.  0.
         12    1    1    2    0    0 -0.10825022897E+02  0.29788062233E+02 -0.25468725745E+02  0.40659141203E+02  0.00000000000E+00 0. -1.
         11    1    3    3    0    0 -0.11437547012E+01  0.37223327656E+01  0.21319558417E+01  0.44395013241E+01  0.51100000000E-03 0. -1.
        -11    1    3    3    0    0  0.68809614120E+01 -0.14618935998E+02  0.70422387328E+00  0.16172719351E+02  0.51100000000E-03 0.  1.
        -12    1    3    3    0    0  0.50878161864E+01 -0.18891459000E+02  0.22632546030E+02  0.29916638122E+02  0.00000000000E+00 0.  1.
</event>
<event>
 7    1  0.6462830E-013  0.5052885E+02  0.7816164E-02  0.1300439E+00
        -11   -1    0    0    0    0  0.00000000000E+00  0.00000000000E+00  0.45593999997E+02  0.45594000000E+02  0.51100000000E-03 0.  1.
         11   -1    0    0    0    0 -0.00000000000E+00 -0.00000000000E+00 -0.45593999997E+02  0.45594000000E+02  0.51100000000E-03 0. -1.
    9900012    2    1    2    0    0 -0.39476271801E+02  0.20039265426E+01 -0.95275706342E+01  0.50528851471E+02  0.29999974532E+02 0.  0.
         12    1    1    2    0    0  0.39476271801E+02 -0.20039265426E+01  0.95275706342E+01  0.40659148529E+02  0.00000000000E+00 0. -1.
         11    1    3    3    0    0 -0.31518284286E+02  0.24127467626E+01 -0.14061832352E+02  0.34597091216E+02  0.51100000000E-03 0. -1.
        -11    1    3    3    0    0  0.25900737140E+00  0.88848573673E+00 -0.39456593477E+01  0.40527422410E+01  0.51100000000E-03 0.  1.
        -12    1    3    3    0    0 -0.82169948864E+01 -0.12973059568E+01  0.84799210650E+01  0.11879018014E+02  0.00000000000E+00 0.  1.
</event>
<event>
 7    1  0.6462830E-013  0.5052885E+02  0.7816164E-02  0.1300439E+00
        -11   -1    0    0    0    0  0.00000000000E+00  0.00000000000E+00  0.45593999997E+02  0.45594000000E+02  0.51100000000E-03 0.  1.
         11   -1    0    0    0    0 -0.00000000000E+00 -0.00000000000E+00 -0.45593999997E+02  0.45594000000E+02  0.51100000000E-03 0. -1.
    9900012    2    1    2    0    0  0.11059044309E+02 -0.97254055186E+01  0.37898292336E+02  0.50528849302E+02  0.29999967937E+02 0.  0.
         12    1    1    2    0    0 -0.11059044309E+02  0.97254055186E+01 -0.37898292336E+02  0.40659150698E+02  0.00000000000E+00 0. -1.
         11    1    3    3    0    0 -0.10386620572E+01 -0.47159625915E+01  0.68028203680E+00  0.48766695545E+01  0.51100000000E-03 0. -1.
        -11    1    3    3    0    0  0.15270145197E+02 -0.62080421270E+01  0.12460621652E+02  0.20663596338E+02  0.51100000000E-03 0.  1.
        -12    1    3    3    0    0 -0.31724388313E+01  0.11985991998E+01  0.24757388647E+02  0.24988583409E+02  0.00000000000E+00 0.  1.
</event>
<event>
 7    1  0.6462830E-013  0.5052886E+02  0.7816164E-02  0.1300439E+00
        -11   -1    0    0    0    0  0.00000000000E+00  0.00000000000E+00  0.45593999997E+02  0.45594000000E+02  0.51100000000E-03 0.  1.
         11   -1    0    0    0    0 -0.00000000000E+00 -0.00000000000E+00 -0.45593999997E+02  0.45594000000E+02  0.51100000000E-03 0. -1.
    9900012    2    1    2    0    0  0.17046717986E+02  0.10351533282E+02  0.35431918088E+02  0.50528860132E+02  0.30000000859E+02 0.  0.
         12    1    1    2    0    0 -0.17046717986E+02 -0.10351533282E+02 -0.35431918088E+02  0.40659139868E+02  0.00000000000E+00 0. -1.
         11    1    3    3    0    0  0.41914654753E+01  0.42534543395E+00 -0.33012565775E+01  0.53523449833E+01  0.51100000000E-03 0. -1.
        -11    1    3    3    0    0  0.31666411310E+01  0.11107343641E+02  0.11722796594E+02  0.16456751170E+02  0.51100000000E-03 0.  1.
        -12    1    3    3    0    0  0.96886113800E+01 -0.11811557934E+01  0.27010378071E+02  0.28719763980E+02  0.00000000000E+00 0.  1.
</event>
<event>
 7    1  0.6462830E-013  0.5052889E+02  0.7816164E-02  0.1300439E+00
        -11   -1    0    0    0    0  0.00000000000E+00  0.00000000000E+00  0.45593999997E+02  0.45594000000E+02  0.51100000000E-03 0.  1.
         11   -1    0    0    0    0 -0.00000000000E+00 -0.00000000000E+00 -0.45593999997E+02  0.45594000000E+02  0.51100000000E-03 0. -1.
    9900012    2    1    2    0    0  0.20902248154E+02  0.34541137972E+02  0.48133818332E+01  0.50528894808E+02  0.30000106259E+02 0.  0.
         12    1    1    2    0    0 -0.20902248154E+02 -0.34541137972E+02 -0.48133818332E+01  0.40659105192E+02  0.00000000000E+00 0. -1.
         11    1    3    3    0    0  0.79664618563E+01  0.71838196404E+01 -0.31158338171E+01  0.11170505797E+02  0.51100000000E-03 0. -1.
        -11    1    3    3    0    0  0.13480265547E+02  0.35173520141E+01  0.67561381420E+01  0.15483369377E+02  0.51100000000E-03 0.  1.
         12    1    3    3    0    0 -0.54447924850E+00  0.23839966318E+02  0.11730775083E+01  0.23875019634E+02  0.00000000000E+00 0. -1.
</event>
<event>
 7    1  0.6462830E-013  0.5052886E+02  0.7816164E-02  0.1300439E+00
        -11   -1    0    0    0    0  0.00000000000E+00  0.00000000000E+00  0.45593999997E+02  0.45594000000E+02  0.51100000000E-03 0. -1.
         11   -1    0    0    0    0 -0.00000000000E+00 -0.00000000000E+00 -0.45593999997E+02  0.45594000000E+02  0.51100000000E-03 0.  1.
    9900012    2    1    2    0    0  0.31838651261E+02  0.20322526399E+02 -0.15048626111E+02  0.50528856610E+02  0.29999990153E+02 0.  0.
         12    1    1    2    0    0 -0.31838651261E+02 -0.20322526399E+02  0.15048626111E+02  0.40659143390E+02  0.00000000000E+00 0. -1.
         11    1    3    3    0    0  0.17522453995E+02  0.14988013936E+02  0.32801765350E+01  0.23290266510E+02  0.51100000000E-03 0. -1.
        -11    1    3    3    0    0  0.12249732673E+02  0.62767091589E+01 -0.65506883878E+01  0.15243508357E+02  0.51100000000E-03 0.  1.
         12    1    3    3    0    0  0.20664645927E+01 -0.94219669580E+00 -0.11778114259E+02  0.11995081743E+02  0.00000000000E+00 0. -1.
</event>
<event>
 7    1  0.6462830E-013  0.5052885E+02  0.7816164E-02  0.1300439E+00
        -11   -1    0    0    0    0  0.00000000000E+00  0.00000000000E+00  0.45593999997E+02  0.45594000000E+02  0.51100000000E-03 0.  1.
         11   -1    0    0    0    0 -0.00000000000E+00 -0.00000000000E+00 -0.45593999997E+02  0.45594000000E+02  0.51100000000E-03 0. -1.
    9900012    2    1    2    0    0 -0.24975023627E+01  0.60703096206E+01  0.40125802504E+02  0.50528853384E+02  0.29999980345E+02 0.  0.
         12    1    1    2    0    0  0.24975023627E+01 -0.60703096206E+01 -0.40125802504E+02  0.40659146616E+02  0.00000000000E+00 0. -1.
         11    1    3    3    0    0 -0.15502272036E+01  0.10082646985E+02  0.15379259510E+02  0.18454934244E+02  0.51100000000E-03 0. -1.
        -11    1    3    3    0    0 -0.88181976252E+01  0.15537981145E+01  0.18594199975E+02  0.20637809257E+02  0.51100000000E-03 0.  1.
         12    1    3    3    0    0  0.78709224661E+01 -0.55661354788E+01  0.61523430191E+01  0.11436109883E+02  0.00000000000E+00 0. -1.
</event>
<event>
 7    1  0.6462830E-013  0.5052887E+02  0.7816164E-02  0.1300439E+00
        -11   -1    0    0    0    0  0.00000000000E+00  0.00000000000E+00  0.45593999997E+02  0.45594000000E+02  0.51100000000E-03 0.  1.
         11   -1    0    0    0    0 -0.00000000000E+00 -0.00000000000E+00 -0.45593999997E+02  0.45594000000E+02  0.51100000000E-03 0. -1.
    9900012    2    1    2    0    0 -0.93640734169E+01  0.18750751718E+02  0.34840896751E+02  0.50528872521E+02  0.30000038516E+02 0.  0.
         12    1    1    2    0    0  0.93640734169E+01 -0.18750751718E+02 -0.34840896751E+02  0.40659127479E+02  0.00000000000E+00 0. -1.
         11    1    3    3    0    0 -0.14601296834E+02  0.83279342901E+01  0.12009700951E+02  0.20658782054E+02  0.51100000000E-03 0. -1.
        -11    1    3    3    0    0  0.22377673780E+00 -0.21099976223E+01 -0.11033662292E+01  0.23915650297E+01  0.51100000000E-03 0.  1.
        -12    1    3    3    0    0  0.50134466797E+01  0.12532815050E+02  0.23934562029E+02  0.27478525437E+02  0.00000000000E+00 0.  1.
</event>
<event>
 7    1  0.6462830E-013  0.5052885E+02  0.7816164E-02  0.1300439E+00
        -11   -1    0    0    0    0  0.00000000000E+00  0.00000000000E+00  0.45593999997E+02  0.45594000000E+02  0.51100000000E-03 0.  1.
         11   -1    0    0    0    0 -0.00000000000E+00 -0.00000000000E+00 -0.45593999997E+02  0.45594000000E+02  0.51100000000E-03 0. -1.
    9900012    2    1    2    0    0 -0.18901652980E+01 -0.36999280682E+02  0.16752514352E+02  0.50528853022E+02  0.29999979247E+02 0.  0.
         12    1    1    2    0    0  0.18901652980E+01  0.36999280682E+02 -0.16752514352E+02  0.40659146978E+02  0.00000000000E+00 0. -1.
         11    1    3    3    0    0 -0.86877499555E+01 -0.88292183086E+01 -0.32298802293E+01  0.12800946129E+02  0.51100000000E-03 0. -1.
        -11    1    3    3    0    0 -0.40246201892E+01 -0.49310056278E+01  0.38441396948E+01  0.74357107544E+01  0.51100000000E-03 0.  1.
        -12    1    3    3    0    0  0.10822204847E+02 -0.23239056745E+02  0.16138254887E+02  0.30292196139E+02  0.00000000000E+00 0.  1.
</event>
<event>
 7    1  0.6462830E-013  0.5052887E+02  0.7816164E-02  0.1300439E+00
        -11   -1    0    0    0    0  0.00000000000E+00  0.00000000000E+00  0.45593999997E+02  0.45594000000E+02  0.51100000000E-03 0.  1.
         11   -1    0    0    0    0 -0.00000000000E+00 -0.00000000000E+00 -0.45593999997E+02  0.45594000000E+02  0.51100000000E-03 0. -1.
    9900012    2    1    2    0    0 -0.11489010795E+02 -0.13561111697E+02  0.36568618491E+02  0.50528868456E+02  0.30000026160E+02 0.  0.
         12    1    1    2    0    0  0.11489010795E+02  0.13561111697E+02 -0.36568618491E+02  0.40659131544E+02  0.00000000000E+00 0. -1.
         11    1    3    3    0    0  0.82929559945E+01 -0.10583764542E+01  0.15352163943E+02  0.17480910097E+02  0.51100000000E-03 0. -1.
        -11    1    3    3    0    0 -0.39171327592E+01  0.11688999759E+01  0.17207892301E+01  0.44352420500E+01  0.51100000000E-03 0.  1.
        -12    1    3    3    0    0 -0.15864834031E+02 -0.13671635219E+02  0.19495665319E+02  0.28612716309E+02  0.00000000000E+00 0.  1.
</event>
<event>
 7    1  0.6462830E-013  0.5052886E+02  0.7816164E-02  0.1300439E+00
        -11   -1    0    0    0    0  0.00000000000E+00  0.00000000000E+00  0.45593999997E+02  0.45594000000E+02  0.51100000000E-03 0.  1.
         11   -1    0    0    0    0 -0.00000000000E+00 -0.00000000000E+00 -0.45593999997E+02  0.45594000000E+02  0.51100000000E-03 0. -1.
    9900012    2    1    2    0    0 -0.46580078748E+01 -0.21716421514E+02  0.34056800241E+02  0.50528860273E+02  0.30000001286E+02 0.  0.
         12    1    1    2    0    0  0.46580078748E+01  0.21716421514E+02 -0.34056800241E+02  0.40659139727E+02  0.00000000000E+00 0. -1.
         11    1    3    3    0    0 -0.32024879787E+01 -0.13527830436E+02  0.12155272031E+01  0.13954770947E+02  0.51100000000E-03 0. -1.
        -11    1    3    3    0    0 -0.65017108759E+01 -0.68063306358E+01  0.12970158889E+02  0.16025710684E+02  0.51100000000E-03 0.  1.
        -12    1    3    3    0    0  0.50461909798E+01 -0.13822604421E+01  0.19871114148E+02  0.20548378642E+02  0.00000000000E+00 0.  1.
</event>
<event>
 7    1  0.6462830E-013  0.5052886E+02  0.7816164E-02  0.1300439E+00
        -11   -1    0    0    0    0  0.00000000000E+00  0.00000000000E+00  0.45593999997E+02  0.45594000000E+02  0.51100000000E-03 0.  1.
         11   -1    0    0    0    0 -0.00000000000E+00 -0.00000000000E+00 -0.45593999997E+02  0.45594000000E+02  0.51100000000E-03 0. -1.
    9900012    2    1    2    0    0 -0.23288717699E+02 -0.48096448174E+01  0.32979824997E+02  0.50528856968E+02  0.29999991239E+02 0.  0.
         12    1    1    2    0    0  0.23288717699E+02  0.48096448174E+01 -0.32979824997E+02  0.40659143032E+02  0.00000000000E+00 0. -1.
         11    1    3    3    0    0 -0.50587102416E+01 -0.22525127506E+01  0.35666090964E+00  0.55490152519E+01  0.51100000000E-03 0. -1.
        -11    1    3    3    0    0 -0.24290249554E+02 -0.55989392920E+00  0.28160140147E+02  0.37193053088E+02  0.51100000000E-03 0.  1.
         12    1    3    3    0    0  0.60602420968E+01 -0.19972381376E+01  0.44630239397E+01  0.77867886279E+01  0.00000000000E+00 0. -1.
</event>
<event>
 7    1  0.6462830E-013  0.5052885E+02  0.7816164E-02  0.1300439E+00
        -11   -1    0    0    0    0  0.00000000000E+00  0.00000000000E+00  0.45593999997E+02  0.45594000000E+02  0.51100000000E-03 0.  1.
         11   -1    0    0    0    0 -0.00000000000E+00 -0.00000000000E+00 -0.45593999997E+02  0.45594000000E+02  0.51100000000E-03 0. -1.
    9900012    2    1    2    0    0  0.16945966384E+02 -0.36894787880E+02 -0.21851754814E+01  0.50528854149E+02  0.29999982672E+02 0.  0.
         12    1    1    2    0    0 -0.16945966384E+02  0.36894787880E+02  0.21851754814E+01  0.40659145851E+02  0.00000000000E+00 0. -1.
         11    1    3    3    0    0  0.62352570245E+01 -0.26402010817E+02  0.91755325864E+01  0.28637999299E+02  0.51100000000E-03 0. -1.
        -11    1    3    3    0    0  0.70150526532E+01 -0.96804149190E+01 -0.24408572382E+01  0.12201605675E+02  0.51100000000E-03 0.  1.
         12    1    3    3    0    0  0.36956567065E+01 -0.81236214409E+00 -0.89198508297E+01  0.96892491747E+01  0.00000000000E+00 0. -1.
</event>
<event>
 7    1  0.6462830E-013  0.5052884E+02  0.7816164E-02  0.1300439E+00
        -11   -1    0    0    0    0  0.00000000000E+00  0.00000000000E+00  0.45593999997E+02  0.45594000000E+02  0.51100000000E-03 0.  1.
         11   -1    0    0    0    0 -0.00000000000E+00 -0.00000000000E+00 -0.45593999997E+02  0.45594000000E+02  0.51100000000E-03 0. -1.
    9900012    2    1    2    0    0  0.32495890909E+02 -0.80484243185E+01  0.23073944120E+02  0.50528844116E+02  0.29999952174E+02 0.  0.
         12    1    1    2    0    0 -0.32495890909E+02  0.80484243185E+01 -0.23073944120E+02  0.40659155884E+02  0.00000000000E+00 0. -1.
         11    1    3    3    0    0  0.37359136701E+01  0.69017336731E+01 -0.99450621144E+00  0.79107535362E+01  0.51100000000E-03 0. -1.
        -11    1    3    3    0    0  0.15977616611E+02 -0.32956742219E+01  0.54403180899E+01  0.17197173091E+02  0.51100000000E-03 0.  1.
         12    1    3    3    0    0  0.12782360628E+02 -0.11654483770E+02  0.18628132241E+02  0.25420917489E+02  0.00000000000E+00 0. -1.
</event>
<event>
 7    1  0.6462830E-013  0.5052886E+02  0.7816164E-02  0.1300439E+00
        -11   -1    0    0    0    0  0.00000000000E+00  0.00000000000E+00  0.45593999997E+02  0.45594000000E+02  0.51100000000E-03 0.  1.
         11   -1    0    0    0    0 -0.00000000000E+00 -0.00000000000E+00 -0.45593999997E+02  0.45594000000E+02  0.51100000000E-03 0. -1.
    9900012    2    1    2    0    0  0.35855367009E+02  0.36073477150E+01  0.18829378232E+02  0.50528858525E+02  0.29999995973E+02 0.  0.
         12    1    1    2    0    0 -0.35855367009E+02 -0.36073477150E+01 -0.18829378232E+02  0.40659141475E+02  0.00000000000E+00 0. -1.
         11    1    3    3    0    0  0.60228669823E+01  0.87908904782E+01 -0.24148935805E+01  0.10926408072E+02  0.51100000000E-03 0. -1.
        -11    1    3    3    0    0  0.11234671210E+02 -0.70846032572E+01  0.32920640156E+01  0.13683827179E+02  0.51100000000E-03 0.  1.
        -12    1    3    3    0    0  0.18597828816E+02  0.19010604940E+01  0.17952207797E+02  0.25918623274E+02  0.00000000000E+00 0.  1.
</event>
<event>
 7    1  0.6462830E-013  0.5052885E+02  0.7816164E-02  0.1300439E+00
        -11   -1    0    0    0    0  0.00000000000E+00  0.00000000000E+00  0.45593999997E+02  0.45594000000E+02  0.51100000000E-03 0.  1.
         11   -1    0    0    0    0 -0.00000000000E+00 -0.00000000000E+00 -0.45593999997E+02  0.45594000000E+02  0.51100000000E-03 0. -1.
    9900012    2    1    2    0    0 -0.51037594921E+01  0.10604756296E+01  0.40323607375E+02  0.50528852429E+02  0.29999977443E+02 0.  0.
         12    1    1    2    0    0  0.51037594921E+01 -0.10604756296E+01 -0.40323607375E+02  0.40659147571E+02  0.00000000000E+00 0. -1.
         11    1    3    3    0    0  0.23809291173E+01 -0.79347658985E+00  0.17384783309E+02  0.17564996997E+02  0.51100000000E-03 0. -1.
        -11    1    3    3    0    0 -0.47686601520E+01  0.11693143470E+02  0.16924529097E+02  0.21116567176E+02  0.51100000000E-03 0.  1.
         12    1    3    3    0    0 -0.27160284575E+01 -0.98391912507E+01  0.60142949686E+01  0.11847288256E+02  0.00000000000E+00 0. -1.
</event>
<event>
 7    1  0.6462830E-013  0.5052886E+02  0.7816164E-02  0.1300439E+00
        -11   -1    0    0    0    0  0.00000000000E+00  0.00000000000E+00  0.45593999997E+02  0.45594000000E+02  0.51100000000E-03 0.  1.
         11   -1    0    0    0    0 -0.00000000000E+00 -0.00000000000E+00 -0.45593999997E+02  0.45594000000E+02  0.51100000000E-03 0. -1.
    9900012    2    1    2    0    0  0.18466718820E+02 -0.32487993172E+02  0.16021129114E+02  0.50528856104E+02  0.29999988612E+02 0.  0.
         12    1    1    2    0    0 -0.18466718820E+02  0.32487993172E+02 -0.16021129114E+02  0.40659143896E+02  0.00000000000E+00 0. -1.
         11    1    3    3    0    0  0.69679563053E+01 -0.29792633285E+02  0.11370261778E+02  0.32641021220E+02  0.51100000000E-03 0. -1.
        -11    1    3    3    0    0  0.18607547303E+01 -0.23669233733E+01  0.72919969008E+01  0.78891034652E+01  0.51100000000E-03 0.  1.
         12    1    3    3    0    0  0.96380077845E+01 -0.32843651339E+00 -0.26411295649E+01  0.99987314183E+01  0.00000000000E+00 0. -1.
</event>
<event>
 7    1  0.6462830E-013  0.5052887E+02  0.7816164E-02  0.1300439E+00
        -11   -1    0    0    0    0  0.00000000000E+00  0.00000000000E+00  0.45593999997E+02  0.45594000000E+02  0.51100000000E-03 0. -1.
         11   -1    0    0    0    0 -0.00000000000E+00 -0.00000000000E+00 -0.45593999997E+02  0.45594000000E+02  0.51100000000E-03 0.  1.
    9900012    2    1    2    0    0  0.18098375028E+02  0.35378187145E+02 -0.86022046692E+01  0.50528865362E+02  0.30000016755E+02 0.  0.
         12    1    1    2    0    0 -0.18098375028E+02 -0.35378187145E+02  0.86022046692E+01  0.40659134638E+02  0.00000000000E+00 0. -1.
         11    1    3    3    0    0 -0.26018458802E+00  0.26204193161E+01 -0.74448509457E+01  0.78968410948E+01  0.51100000000E-03 0. -1.
        -11    1    3    3    0    0  0.47322690292E+01  0.23554622077E+02 -0.72518175667E+01  0.25095885114E+02  0.51100000000E-03 0.  1.
        -12    1    3    3    0    0  0.13626290586E+02  0.92031457523E+01  0.60944638432E+01  0.17536139154E+02  0.00000000000E+00 0.  1.
</event>
<event>
 7    1  0.6462830E-013  0.5052893E+02  0.7816164E-02  0.1300439E+00
        -11   -1    0    0    0    0  0.00000000000E+00  0.00000000000E+00  0.45593999997E+02  0.45594000000E+02  0.51100000000E-03 0. -1.
         11   -1    0    0    0    0 -0.00000000000E+00 -0.00000000000E+00 -0.45593999997E+02  0.45594000000E+02  0.51100000000E-03 0.  1.
    9900012    2    1    2    0    0 -0.26784503746E+02  0.28321730511E+02  0.11559841618E+02  0.50528929692E+02  0.30000212291E+02 0.  0.
         12    1    1    2    0    0  0.26784503746E+02 -0.28321730511E+02 -0.11559841618E+02  0.40659070308E+02  0.00000000000E+00 0. -1.
         11    1    3    3    0    0  0.87838428123E+00  0.26075631479E+01 -0.39156344395E+01  0.47857222904E+01  0.51100000000E-03 0. -1.
        -11    1    3    3    0    0 -0.16144845754E+02  0.60767946247E+01 -0.15426968366E+01  0.17319451237E+02  0.51100000000E-03 0.  1.
         12    1    3    3    0    0 -0.11518042273E+02  0.19637372739E+02  0.17018172894E+02  0.28423756165E+02  0.00000000000E+00 0. -1.
</event>
<event>
 7    1  0.6462830E-013  0.5052886E+02  0.7816164E-02  0.1300439E+00
        -11   -1    0    0    0    0  0.00000000000E+00  0.00000000000E+00  0.45593999997E+02  0.45594000000E+02  0.51100000000E-03 0.  1.
         11   -1    0    0    0    0 -0.00000000000E+00 -0.00000000000E+00 -0.45593999997E+02  0.45594000000E+02  0.51100000000E-03 0. -1.
    9900012    2    1    2    0    0  0.22306975627E+02  0.21868963036E+02  0.26025235784E+02  0.50528860763E+02  0.30000002774E+02 0.  0.
         12    1    1    2    0    0 -0.22306975627E+02 -0.21868963036E+02 -0.26025235784E+02  0.40659139237E+02  0.00000000000E+00 0. -1.
         11    1    3    3    0    0  0.20695191514E+01  0.18145812341E+02  0.13369620466E+02  0.22634048835E+02  0.51100000000E-03 0. -1.
        -11    1    3    3    0    0  0.12298542752E+02  0.29451375833E+01  0.14962566079E+02  0.19590976830E+02  0.51100000000E-03 0.  1.
        -12    1    3    3    0    0  0.79389137240E+01  0.77801311201E+00 -0.23069507610E+01  0.83038350979E+01  0.00000000000E+00 0.  1.
</event>
<event>
 7    1  0.6462830E-013  0.5052886E+02  0.7816164E-02  0.1300439E+00
        -11   -1    0    0    0    0  0.00000000000E+00  0.00000000000E+00  0.45593999997E+02  0.45594000000E+02  0.51100000000E-03 0.  1.
         11   -1    0    0    0    0 -0.00000000000E+00 -0.00000000000E+00 -0.45593999997E+02  0.45594000000E+02  0.51100000000E-03 0. -1.
    9900012    2    1    2    0    0 -0.30215839180E+02  0.79782188208E+01  0.26009931338E+02  0.50528862760E+02  0.30000008845E+02 0.  0.
         12    1    1    2    0    0  0.30215839180E+02 -0.79782188208E+01 -0.26009931338E+02  0.40659137240E+02  0.00000000000E+00 0. -1.
         11    1    3    3    0    0 -0.92112268838E+01 -0.29039983768E+01  0.10169736965E+02  0.14025100979E+02  0.51100000000E-03 0. -1.
        -11    1    3    3    0    0 -0.58971051333E+00 -0.50939026052E+01 -0.14676382142E+01  0.53338133104E+01  0.51100000000E-03 0.  1.
        -12    1    3    3    0    0 -0.20414901783E+02  0.15976119803E+02  0.17307832587E+02  0.31169948470E+02  0.00000000000E+00 0.  1.
</event>
<event>
 7    1  0.6462830E-013  0.5052887E+02  0.7816164E-02  0.1300439E+00
        -11   -1    0    0    0    0  0.00000000000E+00  0.00000000000E+00  0.45593999997E+02  0.45594000000E+02  0.51100000000E-03 0.  1.
         11   -1    0    0    0    0 -0.00000000000E+00 -0.00000000000E+00 -0.45593999997E+02  0.45594000000E+02  0.51100000000E-03 0. -1.
    9900012    2    1    2    0    0  0.48066809550E+01  0.15015944001E+02  0.37477759727E+02  0.50528865353E+02  0.30000016728E+02 0.  0.
         12    1    1    2    0    0 -0.48066809550E+01 -0.15015944001E+02 -0.37477759727E+02  0.40659134647E+02  0.00000000000E+00 0. -1.
         11    1    3    3    0    0  0.65310946874E+01 -0.24442625596E+01  0.42335715996E+01  0.81579866404E+01  0.51100000000E-03 0. -1.
        -11    1    3    3    0    0 -0.29401938953E+01  0.83884318970E+00 -0.18125185244E+01  0.35543806354E+01  0.51100000000E-03 0.  1.
        -12    1    3    3    0    0  0.12157801629E+01  0.16621363371E+02  0.35056706652E+02  0.38816498078E+02  0.00000000000E+00 0.  1.
</event>
<event>
 7    1  0.6462830E-013  0.5052879E+02  0.7816164E-02  0.1300439E+00
        -11   -1    0    0    0    0  0.00000000000E+00  0.00000000000E+00  0.45593999997E+02  0.45594000000E+02  0.51100000000E-03 0. -1.
         11   -1    0    0    0    0 -0.00000000000E+00 -0.00000000000E+00 -0.45593999997E+02  0.45594000000E+02  0.51100000000E-03 0.  1.
    9900012    2    1    2    0    0  0.35010598468E+02  0.20078004590E+02  0.49297799401E+01  0.50528794356E+02  0.29999800923E+02 0.  0.
         12    1    1    2    0    0 -0.35010598468E+02 -0.20078004590E+02 -0.49297799401E+01  0.40659205644E+02  0.00000000000E+00 0. -1.
         11    1    3    3    0    0  0.14003106450E+02  0.44658284466E+01  0.78962734427E+01  0.16684775951E+02  0.51100000000E-03 0. -1.
        -11    1    3    3    0    0  0.19052899312E+02  0.24070513662E+01 -0.60665928253E+01  0.20139772026E+02  0.51100000000E-03 0.  1.
         12    1    3    3    0    0  0.19545927051E+01  0.13205124777E+02  0.31000993227E+01  0.13704246379E+02  0.00000000000E+00 0. -1.
</event>
<event>
 7    1  0.6462830E-013  0.5052886E+02  0.7816164E-02  0.1300439E+00
        -11   -1    0    0    0    0  0.00000000000E+00  0.00000000000E+00  0.45593999997E+02  0.45594000000E+02  0.51100000000E-03 0.  1.
         11   -1    0    0    0    0 -0.00000000000E+00 -0.00000000000E+00 -0.45593999997E+02  0.45594000000E+02  0.51100000000E-03 0. -1.
    9900012    2    1    2    0    0 -0.27582070888E+02 -0.12182530917E+01  0.29848125201E+02  0.50528863842E+02  0.30000012135E+02 0.  0.
         12    1    1    2    0    0  0.27582070888E+02  0.12182530917E+01 -0.29848125201E+02  0.40659136158E+02  0.00000000000E+00 0. -1.
         11    1    3    3    0    0 -0.49151967402E+01  0.45195295849E+01  0.16968473316E+01  0.68894555512E+01  0.51100000000E-03 0. -1.
        -11    1    3    3    0    0  0.11950570609E+00  0.19274280895E+01  0.17049945742E+02  0.17158960071E+02  0.51100000000E-03 0.  1.
        -12    1    3    3    0    0 -0.22786379854E+02 -0.76652107661E+01  0.11101332128E+02  0.26480448220E+02  0.00000000000E+00 0.  1.
</event>
<event>
 7    1  0.6462830E-013  0.5052887E+02  0.7816164E-02  0.1300439E+00
        -11   -1    0    0    0    0  0.00000000000E+00  0.00000000000E+00  0.45593999997E+02  0.45594000000E+02  0.51100000000E-03 0. -1.
         11   -1    0    0    0    0 -0.00000000000E+00 -0.00000000000E+00 -0.45593999997E+02  0.45594000000E+02  0.51100000000E-03 0.  1.
    9900012    2    1    2    0    0 -0.14976127477E+02 -0.35571062697E+02 -0.12789841421E+02  0.50528868932E+02  0.30000027606E+02 0.  0.
         12    1    1    2    0    0  0.14976127477E+02  0.35571062697E+02  0.12789841421E+02  0.40659131068E+02  0.00000000000E+00 0. -1.
         11    1    3    3    0    0  0.17081518608E+01 -0.93790400005E+01 -0.23480330276E+01  0.98182194654E+01  0.51100000000E-03 0. -1.
        -11    1    3    3    0    0 -0.19146434075E+02 -0.17294195775E+02 -0.15585040663E+02  0.30142472328E+02  0.51100000000E-03 0.  1.
         12    1    3    3    0    0  0.24621547376E+01 -0.88978269213E+01  0.51432322689E+01  0.10568177139E+02  0.00000000000E+00 0. -1.
</event>
<event>
 7    1  0.6462830E-013  0.5052887E+02  0.7816164E-02  0.1300439E+00
        -11   -1    0    0    0    0  0.00000000000E+00  0.00000000000E+00  0.45593999997E+02  0.45594000000E+02  0.51100000000E-03 0.  1.
         11   -1    0    0    0    0 -0.00000000000E+00 -0.00000000000E+00 -0.45593999997E+02  0.45594000000E+02  0.51100000000E-03 0. -1.
    9900012    2    1    2    0    0 -0.17513098092E+02 -0.18339816741E+02  0.31782192679E+02  0.50528865056E+02  0.30000015826E+02 0.  0.
         12    1    1    2    0    0  0.17513098092E+02  0.18339816741E+02 -0.31782192679E+02  0.40659134944E+02  0.00000000000E+00 0. -1.
         11    1    3    3    0    0 -0.11379944904E+02 -0.13962970848E+02  0.17015469937E+02  0.24778900669E+02  0.51100000000E-03 0. -1.
        -11    1    3    3    0    0 -0.12287627013E+02 -0.46786368943E+00  0.43667086450E+01  0.13048862736E+02  0.51100000000E-03 0.  1.
         12    1    3    3    0    0  0.61544738260E+01 -0.39089822038E+01  0.10400014097E+02  0.12701101651E+02  0.00000000000E+00 0. -1.
</event>
<event>
 7    1  0.6462830E-013  0.5052887E+02  0.7816164E-02  0.1300439E+00
        -11   -1    0    0    0    0  0.00000000000E+00  0.00000000000E+00  0.45593999997E+02  0.45594000000E+02  0.51100000000E-03 0. -1.
         11   -1    0    0    0    0 -0.00000000000E+00 -0.00000000000E+00 -0.45593999997E+02  0.45594000000E+02  0.51100000000E-03 0.  1.
    9900012    2    1    2    0    0 -0.19551505592E+02  0.23442790679E+02 -0.26857759754E+02  0.50528867388E+02  0.30000022912E+02 0.  0.
         12    1    1    2    0    0  0.19551505592E+02 -0.23442790679E+02  0.26857759754E+02  0.40659132612E+02  0.00000000000E+00 0. -1.
         11    1    3    3    0    0 -0.82409914137E+01  0.20409085577E+02 -0.26407726157E+02  0.34377503030E+02  0.51100000000E-03 0. -1.
        -11    1    3    3    0    0 -0.78268137186E+01  0.72131146604E+01 -0.95838523640E+00  0.10686745932E+02  0.51100000000E-03 0.  1.
         12    1    3    3    0    0 -0.34837004601E+01 -0.41794095581E+01  0.50835163914E+00  0.54646184257E+01  0.00000000000E+00 0. -1.
</event>
<event>
 7    1  0.6462830E-013  0.5052885E+02  0.7816164E-02  0.1300439E+00
        -11   -1    0    0    0    0  0.00000000000E+00  0.00000000000E+00  0.45593999997E+02  0.45594000000E+02  0.51100000000E-03 0. -1.
         11   -1    0    0    0    0 -0.00000000000E+00 -0.00000000000E+00 -0.45593999997E+02  0.45594000000E+02  0.51100000000E-03 0.  1.
    9900012    2    1    2    0    0 -0.19311915615E+02 -0.18787366101E+02 -0.30450802084E+02  0.50528849034E+02  0.29999967124E+02 0.  0.
         12    1    1    2    0    0  0.19311915615E+02  0.18787366101E+02  0.30450802084E+02  0.40659150966E+02  0.00000000000E+00 0. -1.
         11    1    3    3    0    0 -0.12254171437E+02  0.16891760831E+01 -0.14153027317E+02  0.18796973585E+02  0.51100000000E-03 0. -1.
        -11    1    3    3    0    0 -0.91462787936E+01 -0.52698389586E+01 -0.19772515546E+01  0.10739420021E+02  0.51100000000E-03 0.  1.
         12    1    3    3    0    0  0.20885346160E+01 -0.15206703225E+02 -0.14320523212E+02  0.20992455428E+02  0.00000000000E+00 0. -1.
</event>
<event>
 7    1  0.6462830E-013  0.5052881E+02  0.7816164E-02  0.1300439E+00
        -11   -1    0    0    0    0  0.00000000000E+00  0.00000000000E+00  0.45593999997E+02  0.45594000000E+02  0.51100000000E-03 0.  1.
         11   -1    0    0    0    0 -0.00000000000E+00 -0.00000000000E+00 -0.45593999997E+02  0.45594000000E+02  0.51100000000E-03 0. -1.
    9900012    2    1    2    0    0  0.29195891859E+02  0.21012697172E+02  0.18953520771E+02  0.50528812926E+02  0.29999857371E+02 0.  0.
         12    1    1    2    0    0 -0.29195891859E+02 -0.21012697172E+02 -0.18953520771E+02  0.40659187074E+02  0.00000000000E+00 0. -1.
         11    1    3    3    0    0  0.16833684588E+02 -0.15458741532E+01  0.62625985167E+01  0.18027279444E+02  0.51100000000E-03 0. -1.
        -11    1    3    3    0    0  0.75477398919E+01  0.10711200464E+01  0.52574918792E+01  0.92605019707E+01  0.51100000000E-03 0.  1.
        -12    1    3    3    0    0  0.48144673790E+01  0.21487451279E+02  0.74334303752E+01  0.23241031512E+02  0.00000000000E+00 0.  1.
</event>
<event>
 7    1  0.6462830E-013  0.5052886E+02  0.7816164E-02  0.1300439E+00
        -11   -1    0    0    0    0  0.00000000000E+00  0.00000000000E+00  0.45593999997E+02  0.45594000000E+02  0.51100000000E-03 0.  1.
         11   -1    0    0    0    0 -0.00000000000E+00 -0.00000000000E+00 -0.45593999997E+02  0.45594000000E+02  0.51100000000E-03 0. -1.
    9900012    2    1    2    0    0  0.80315903491E+01 -0.37694782571E+02 -0.12952313167E+02  0.50528862122E+02  0.30000006906E+02 0.  0.
         12    1    1    2    0    0 -0.80315903491E+01  0.37694782571E+02  0.12952313167E+02  0.40659137878E+02  0.00000000000E+00 0. -1.
         11    1    3    3    0    0  0.81645929993E+01 -0.19911925026E+02  0.56377589189E+01  0.22247014698E+02  0.51100000000E-03 0.  1.
        -11    1    3    3    0    0  0.42161897874E+01 -0.11608713142E+02 -0.63197255551E+01  0.13873622760E+02  0.51100000000E-03 0. -1.
        -12    1    3    3    0    0 -0.43491924375E+01 -0.61741444027E+01 -0.12270346531E+02  0.14408224664E+02  0.00000000000E+00 0.  1.
</event>
<event>
 7    1  0.6462830E-013  0.5052887E+02  0.7816164E-02  0.1300439E+00
        -11   -1    0    0    0    0  0.00000000000E+00  0.00000000000E+00  0.45593999997E+02  0.45594000000E+02  0.51100000000E-03 0. -1.
         11   -1    0    0    0    0 -0.00000000000E+00 -0.00000000000E+00 -0.45593999997E+02  0.45594000000E+02  0.51100000000E-03 0.  1.
    9900012    2    1    2    0    0 -0.24797386131E+02  0.11202957292E+02 -0.30211729624E+02  0.50528865505E+02  0.30000017190E+02 0.  0.
         12    1    1    2    0    0  0.24797386131E+02 -0.11202957292E+02  0.30211729624E+02  0.40659134495E+02  0.00000000000E+00 0. -1.
         11    1    3    3    0    0  0.52761222708E+01  0.16513868315E+01 -0.19839803457E+01  0.58737316042E+01  0.51100000000E-03 0. -1.
        -11    1    3    3    0    0 -0.10546161826E+02  0.52997289980E+01 -0.24784521795E+01  0.12060322640E+02  0.51100000000E-03 0.  1.
        -12    1    3    3    0    0 -0.19527346575E+02  0.42518414621E+01 -0.25749297098E+02  0.32594811261E+02  0.00000000000E+00 0.  1.
</event>
<event>
 7    1  0.6462830E-013  0.5052887E+02  0.7816164E-02  0.1300439E+00
        -11   -1    0    0    0    0  0.00000000000E+00  0.00000000000E+00  0.45593999997E+02  0.45594000000E+02  0.51100000000E-03 0.  1.
         11   -1    0    0    0    0 -0.00000000000E+00 -0.00000000000E+00 -0.45593999997E+02  0.45594000000E+02  0.51100000000E-03 0. -1.
    9900012    2    1    2    0    0 -0.21908372755E+02 -0.32252416283E+02  0.11531263754E+02  0.50528865766E+02  0.30000017984E+02 0.  0.
         12    1    1    2    0    0  0.21908372755E+02  0.32252416283E+02 -0.11531263754E+02  0.40659134234E+02  0.00000000000E+00 0. -1.
         11    1    3    3    0    0 -0.47174932209E+01 -0.11450951357E+02  0.30599475465E+01  0.12757049366E+02  0.51100000000E-03 0. -1.
        -11    1    3    3    0    0 -0.12388645085E+01 -0.18119619948E+02 -0.23452260480E+01  0.18312714103E+02  0.51100000000E-03 0.  1.
         12    1    3    3    0    0 -0.15952015026E+02 -0.26818449775E+01  0.10816542256E+02  0.19459102298E+02  0.00000000000E+00 0. -1.
</event>
<event>
 7    1  0.6462830E-013  0.5052886E+02  0.7816164E-02  0.1300439E+00
        -11   -1    0    0    0    0  0.00000000000E+00  0.00000000000E+00  0.45593999997E+02  0.45594000000E+02  0.51100000000E-03 0.  1.
         11   -1    0    0    0    0 -0.00000000000E+00 -0.00000000000E+00 -0.45593999997E+02  0.45594000000E+02  0.51100000000E-03 0. -1.
    9900012    2    1    2    0    0 -0.19728575024E+02  0.49970885439E+01  0.35199124248E+02  0.50528856942E+02  0.29999991162E+02 0.  0.
         12    1    1    2    0    0  0.19728575024E+02 -0.49970885439E+01 -0.35199124248E+02  0.40659143058E+02  0.00000000000E+00 0. -1.
         11    1    3    3    0    0 -0.12057204141E+02  0.63924886133E+01  0.49025927091E+00  0.13655784005E+02  0.51100000000E-03 0. -1.
        -11    1    3    3    0    0 -0.44709928904E+01 -0.44239251646E+01  0.10291482078E+02  0.12061322270E+02  0.51100000000E-03 0.  1.
        -12    1    3    3    0    0 -0.32003779924E+01  0.30285250953E+01  0.24417382899E+02  0.24811750668E+02  0.00000000000E+00 0.  1.
</event>
<event>
 7    1  0.6462830E-013  0.5052886E+02  0.7816164E-02  0.1300439E+00
        -11   -1    0    0    0    0  0.00000000000E+00  0.00000000000E+00  0.45593999997E+02  0.45594000000E+02  0.51100000000E-03 0.  1.
         11   -1    0    0    0    0 -0.00000000000E+00 -0.00000000000E+00 -0.45593999997E+02  0.45594000000E+02  0.51100000000E-03 0. -1.
    9900012    2    1    2    0    0  0.38438460443E+02 -0.12874209892E+02 -0.31472486106E+01  0.50528859633E+02  0.29999999341E+02 0.  0.
         12    1    1    2    0    0 -0.38438460443E+02  0.12874209892E+02  0.31472486106E+01  0.40659140367E+02  0.00000000000E+00 0. -1.
         11    1    3    3    0    0  0.64190402347E+01  0.34380082174E+01 -0.14409358411E+01  0.74229559069E+01  0.51100000000E-03 0. -1.
        -11    1    3    3    0    0  0.23090367532E+02 -0.42237327294E+01  0.84713148924E+01  0.24955323424E+02  0.51100000000E-03 0.  1.
         12    1    3    3    0    0  0.89290526760E+01 -0.12088485380E+02 -0.10177627662E+02  0.18150580302E+02  0.00000000000E+00 0. -1.
</event>
<event>
 7    1  0.6462830E-013  0.5052886E+02  0.7816164E-02  0.1300439E+00
        -11   -1    0    0    0    0  0.00000000000E+00  0.00000000000E+00  0.45593999997E+02  0.45594000000E+02  0.51100000000E-03 0.  1.
         11   -1    0    0    0    0 -0.00000000000E+00 -0.00000000000E+00 -0.45593999997E+02  0.45594000000E+02  0.51100000000E-03 0. -1.
    9900012    2    1    2    0    0  0.24187863686E+02 -0.29499125891E+02  0.14068212671E+02  0.50528858521E+02  0.29999995961E+02 0.  0.
         12    1    1    2    0    0 -0.24187863686E+02  0.29499125891E+02 -0.14068212671E+02  0.40659141479E+02  0.00000000000E+00 0. -1.
         11    1    3    3    0    0 -0.29177250338E+01 -0.15248415745E+01  0.83109515441E+01  0.89392492431E+01  0.51100000000E-03 0. -1.
        -11    1    3    3    0    0 -0.11813050313E+01  0.98944504335E-01 -0.42643903032E+00  0.12598103427E+01  0.51100000000E-03 0.  1.
        -12    1    3    3    0    0  0.28286893751E+02 -0.28073228821E+02  0.61837001569E+01  0.40329798935E+02  0.00000000000E+00 0.  1.
</event>
<event>
 7    1  0.6462830E-013  0.5052886E+02  0.7816164E-02  0.1300439E+00
        -11   -1    0    0    0    0  0.00000000000E+00  0.00000000000E+00  0.45593999997E+02  0.45594000000E+02  0.51100000000E-03 0.  1.
         11   -1    0    0    0    0 -0.00000000000E+00 -0.00000000000E+00 -0.45593999997E+02  0.45594000000E+02  0.51100000000E-03 0. -1.
    9900012    2    1    2    0    0  0.20379520420E+02  0.16547008888E+02  0.31048944952E+02  0.50528864024E+02  0.30000012687E+02 0.  0.
         12    1    1    2    0    0 -0.20379520420E+02 -0.16547008888E+02 -0.31048944952E+02  0.40659135976E+02  0.00000000000E+00 0. -1.
         11    1    3    3    0    0  0.70667187119E+00  0.47421438127E+01 -0.16353726702E+01  0.50657434899E+01  0.51100000000E-03 0. -1.
        -11    1    3    3    0    0  0.16085242745E+02  0.28528104190E+01  0.65400071056E+01  0.17596739887E+02  0.51100000000E-03 0.  1.
        -12    1    3    3    0    0  0.35876058039E+01  0.89520546562E+01  0.26144310516E+02  0.27866380647E+02  0.00000000000E+00 0.  1.
</event>
<event>
 7    1  0.6462830E-013  0.5052886E+02  0.7816164E-02  0.1300439E+00
        -11   -1    0    0    0    0  0.00000000000E+00  0.00000000000E+00  0.45593999997E+02  0.45594000000E+02  0.51100000000E-03 0.  1.
         11   -1    0    0    0    0 -0.00000000000E+00 -0.00000000000E+00 -0.45593999997E+02  0.45594000000E+02  0.51100000000E-03 0. -1.
    9900012    2    1    2    0    0 -0.13018394338E+02 -0.62788196338E+01  0.38003464000E+02  0.50528862735E+02  0.30000008770E+02 0.  0.
         12    1    1    2    0    0  0.13018394338E+02  0.62788196338E+01 -0.38003464000E+02  0.40659137265E+02  0.00000000000E+00 0. -1.
         11    1    3    3    0    0 -0.33222917489E-01 -0.10684118345E+01 -0.63624999381E+00  0.12439541495E+01  0.51100000000E-03 0. -1.
        -11    1    3    3    0    0 -0.14086762956E+02 -0.10458931799E+02  0.40063001730E+02  0.43736372196E+02  0.51100000000E-03 0.  1.
         12    1    3    3    0    0  0.11015915356E+01  0.52485239996E+01 -0.14232877366E+01  0.55485363896E+01  0.00000000000E+00 0. -1.
</event>
<event>
 7    1  0.6462830E-013  0.5052886E+02  0.7816164E-02  0.1300439E+00
        -11   -1    0    0    0    0  0.00000000000E+00  0.00000000000E+00  0.45593999997E+02  0.45594000000E+02  0.51100000000E-03 0.  1.
         11   -1    0    0    0    0 -0.00000000000E+00 -0.00000000000E+00 -0.45593999997E+02  0.45594000000E+02  0.51100000000E-03 0. -1.
    9900012    2    1    2    0    0 -0.11209053657E+02  0.38952306253E+02  0.32000426660E+01  0.50528864257E+02  0.30000013396E+02 0.  0.
         12    1    1    2    0    0  0.11209053657E+02 -0.38952306253E+02 -0.32000426660E+01  0.40659135743E+02  0.00000000000E+00 0. -1.
         11    1    3    3    0    0 -0.11345031411E+02  0.20011241543E+02 -0.11371306740E+02  0.25660595142E+02  0.51100000000E-03 0. -1.
        -11    1    3    3    0    0  0.22047796035E+01  0.59051576671E+01  0.19302128918E+01  0.65922425807E+01  0.51100000000E-03 0.  1.
        -12    1    3    3    0    0 -0.20688018490E+01  0.13035907043E+02  0.12641136514E+02  0.18276026535E+02  0.00000000000E+00 0.  1.
</event>
<event>
 7    1  0.6462830E-013  0.5052885E+02  0.7816164E-02  0.1300439E+00
        -11   -1    0    0    0    0  0.00000000000E+00  0.00000000000E+00  0.45593999997E+02  0.45594000000E+02  0.51100000000E-03 0. -1.
         11   -1    0    0    0    0 -0.00000000000E+00 -0.00000000000E+00 -0.45593999997E+02  0.45594000000E+02  0.51100000000E-03 0.  1.
    9900012    2    1    2    0    0  0.28134431961E+02 -0.25981832032E+01 -0.29238149713E+02  0.50528853226E+02  0.29999979866E+02 0.  0.
         12    1    1    2    0    0 -0.28134431961E+02  0.25981832032E+01  0.29238149713E+02  0.40659146774E+02  0.00000000000E+00 0. -1.
         11    1    3    3    0    0  0.23617669592E+01  0.71741599522E+01 -0.41543095002E+01  0.86200233105E+01  0.51100000000E-03 0. -1.
        -11    1    3    3    0    0  0.68966386422E+01 -0.11514089861E+01 -0.19057955736E+02  0.20300124243E+02  0.51100000000E-03 0.  1.
        -12    1    3    3    0    0  0.18876026360E+02 -0.86209341694E+01 -0.60258844774E+01  0.21608705672E+02  0.00000000000E+00 0.  1.
</event>
<event>
 7    1  0.6462830E-013  0.5052886E+02  0.7816164E-02  0.1300439E+00
        -11   -1    0    0    0    0  0.00000000000E+00  0.00000000000E+00  0.45593999997E+02  0.45594000000E+02  0.51100000000E-03 0.  1.
         11   -1    0    0    0    0 -0.00000000000E+00 -0.00000000000E+00 -0.45593999997E+02  0.45594000000E+02  0.51100000000E-03 0. -1.
    9900012    2    1    2    0    0  0.33864188658E+02 -0.15414150853E+02  0.16394694541E+02  0.50528864137E+02  0.30000013032E+02 0.  0.
         12    1    1    2    0    0 -0.33864188658E+02  0.15414150853E+02 -0.16394694541E+02  0.40659135863E+02  0.00000000000E+00 0. -1.
         11    1    3    3    0    0 -0.10894521886E+01 -0.76965607495E+01  0.24086503721E+01  0.81379082274E+01  0.51100000000E-03 0. -1.
        -11    1    3    3    0    0  0.12099657093E+02 -0.72470159728E+01 -0.23452477803E+01  0.14297591744E+02  0.51100000000E-03 0.  1.
        -12    1    3    3    0    0  0.22853983754E+02 -0.47057413125E+00  0.16331291949E+02  0.28093364166E+02  0.00000000000E+00 0.  1.
</event>
<event>
 7    1  0.6462830E-013  0.5052886E+02  0.7816164E-02  0.1300439E+00
        -11   -1    0    0    0    0  0.00000000000E+00  0.00000000000E+00  0.45593999997E+02  0.45594000000E+02  0.51100000000E-03 0. -1.
         11   -1    0    0    0    0 -0.00000000000E+00 -0.00000000000E+00 -0.45593999997E+02  0.45594000000E+02  0.51100000000E-03 0.  1.
    9900012    2    1    2    0    0  0.70950308846E+00  0.38333301162E+02 -0.13535892891E+02  0.50528858728E+02  0.29999996588E+02 0.  0.
         12    1    1    2    0    0 -0.70950308846E+00 -0.38333301162E+02  0.13535892891E+02  0.40659141272E+02  0.00000000000E+00 0. -1.
         11    1    3    3    0    0 -0.65381150754E+01  0.17611755099E+02 -0.11239535089E+01  0.18819780503E+02  0.51100000000E-03 0. -1.
        -11    1    3    3    0    0 -0.50194794237E+01  0.13344186648E+02 -0.29760776058E+01  0.14564323848E+02  0.51100000000E-03 0.  1.
         12    1    3    3    0    0  0.12267097588E+02  0.73773594152E+01 -0.94358617767E+01  0.17144754377E+02  0.00000000000E+00 0. -1.
</event>
<event>
 7    1  0.6462830E-013  0.5052886E+02  0.7816164E-02  0.1300439E+00
        -11   -1    0    0    0    0  0.00000000000E+00  0.00000000000E+00  0.45593999997E+02  0.45594000000E+02  0.51100000000E-03 0.  1.
         11   -1    0    0    0    0 -0.00000000000E+00 -0.00000000000E+00 -0.45593999997E+02  0.45594000000E+02  0.51100000000E-03 0. -1.
    9900012    2    1    2    0    0  0.70522446262E+01 -0.39473278819E+02  0.67299169188E+01  0.50528859862E+02  0.30000000038E+02 0.  0.
         12    1    1    2    0    0 -0.70522446262E+01  0.39473278819E+02 -0.67299169188E+01  0.40659140138E+02  0.00000000000E+00 0. -1.
         11    1    3    3    0    0  0.14145711090E+01 -0.56664461525E+01  0.15788341118E+01  0.60499868459E+01  0.51100000000E-03 0.  1.
        -11    1    3    3    0    0  0.12232306666E+02 -0.31399742113E+02 -0.28691583542E+01  0.33820189252E+02  0.51100000000E-03 0. -1.
         12    1    3    3    0    0 -0.65946331488E+01 -0.24070905533E+01  0.80202411612E+01  0.10658683764E+02  0.00000000000E+00 0. -1.
</event>
<event>
 7    1  0.6462830E-013  0.5052887E+02  0.7816164E-02  0.1300439E+00
        -11   -1    0    0    0    0  0.00000000000E+00  0.00000000000E+00  0.45593999997E+02  0.45594000000E+02  0.51100000000E-03 0.  1.
         11   -1    0    0    0    0 -0.00000000000E+00 -0.00000000000E+00 -0.45593999997E+02  0.45594000000E+02  0.51100000000E-03 0. -1.
    9900012    2    1    2    0    0 -0.14389785967E+02 -0.49203062637E+01  0.37707954795E+02  0.50528865618E+02  0.30000017531E+02 0.  0.
         12    1    1    2    0    0  0.14389785967E+02  0.49203062637E+01 -0.37707954795E+02  0.40659134382E+02  0.00000000000E+00 0. -1.
         11    1    3    3    0    0 -0.27235814169E+01  0.56680475551E+01  0.20208685953E+02  0.21164490237E+02  0.51100000000E-03 0. -1.
        -11    1    3    3    0    0 -0.14057800004E+02 -0.73400907163E+01  0.19272136161E+02  0.24958243230E+02  0.51100000000E-03 0.  1.
         12    1    3    3    0    0  0.23915954533E+01 -0.32482631025E+01 -0.17728673185E+01  0.44061321501E+01  0.00000000000E+00 0. -1.
</event>
<event>
 7    1  0.6462830E-013  0.5052886E+02  0.7816164E-02  0.1300439E+00
        -11   -1    0    0    0    0  0.00000000000E+00  0.00000000000E+00  0.45593999997E+02  0.45594000000E+02  0.51100000000E-03 0.  1.
         11   -1    0    0    0    0 -0.00000000000E+00 -0.00000000000E+00 -0.45593999997E+02  0.45594000000E+02  0.51100000000E-03 0. -1.
    9900012    2    1    2    0    0 -0.23641582822E+02 -0.29916688805E+02  0.14114979256E+02  0.50528863920E+02  0.30000012372E+02 0.  0.
         12    1    1    2    0    0  0.23641582822E+02  0.29916688805E+02 -0.14114979256E+02  0.40659136080E+02  0.00000000000E+00 0. -1.
         11    1    3    3    0    0 -0.18764645477E+01  0.14995702886E+01 -0.11426091925E+00  0.24047632041E+01  0.51100000000E-03 0. -1.
        -11    1    3    3    0    0  0.22338039599E+01  0.30313544045E+01  0.25465675219E+01  0.45457668288E+01  0.51100000000E-03 0.  1.
        -12    1    3    3    0    0 -0.23998922234E+02 -0.34447613498E+02  0.11682672653E+02  0.43578333887E+02  0.00000000000E+00 0.  1.
</event>
<event>
 7    1  0.6462830E-013  0.5052879E+02  0.7816164E-02  0.1300439E+00
        -11   -1    0    0    0    0  0.00000000000E+00  0.00000000000E+00  0.45593999997E+02  0.45594000000E+02  0.51100000000E-03 0.  1.
         11   -1    0    0    0    0 -0.00000000000E+00 -0.00000000000E+00 -0.45593999997E+02  0.45594000000E+02  0.51100000000E-03 0. -1.
    9900012    2    1    2    0    0  0.17599460883E+02  0.31563697822E+02  0.18632314553E+02  0.50528792073E+02  0.29999793986E+02 0.  0.
         12    1    1    2    0    0 -0.17599460883E+02 -0.31563697822E+02 -0.18632314553E+02  0.40659207927E+02  0.00000000000E+00 0. -1.
         11    1    3    3    0    0  0.11805281675E+02  0.28714796978E+01  0.43578739207E+00  0.12157301592E+02  0.51100000000E-03 0. -1.
        -11    1    3    3    0    0  0.10435113994E+02  0.18903136317E+02  0.67767790321E+01  0.22630618661E+02  0.51100000000E-03 0.  1.
         12    1    3    3    0    0 -0.46409347856E+01  0.97890818072E+01  0.11419748129E+02  0.15740871820E+02  0.00000000000E+00 0. -1.
</event>
<event>
 7    1  0.6462830E-013  0.5052887E+02  0.7816164E-02  0.1300439E+00
        -11   -1    0    0    0    0  0.00000000000E+00  0.00000000000E+00  0.45593999997E+02  0.45594000000E+02  0.51100000000E-03 0. -1.
         11   -1    0    0    0    0 -0.00000000000E+00 -0.00000000000E+00 -0.45593999997E+02  0.45594000000E+02  0.51100000000E-03 0.  1.
    9900012    2    1    2    0    0  0.20518773787E+02 -0.29044646407E+01 -0.34981552499E+02  0.50528868088E+02  0.30000025041E+02 0.  0.
         12    1    1    2    0    0 -0.20518773787E+02  0.29044646407E+01  0.34981552499E+02  0.40659131912E+02  0.00000000000E+00 0. -1.
         11    1    3    3    0    0 -0.15128870809E+01 -0.42315517387E+01 -0.43392196162E+01  0.62468939942E+01  0.51100000000E-03 0. -1.
        -11    1    3    3    0    0  0.21118038898E+02 -0.52900906148E+01 -0.30658669395E+02  0.37602003071E+02  0.51100000000E-03 0.  1.
        -12    1    3    3    0    0  0.91362196988E+00  0.66171777128E+01  0.16336512406E-01  0.66799710230E+01  0.00000000000E+00 0.  1.
</event>
<event>
 7    1  0.7146939E-013  0.5052887E+02  0.7816164E-02  0.1300439E+00
        -11   -1    0    0    0    0  0.00000000000E+00  0.00000000000E+00  0.45593999997E+02  0.45594000000E+02  0.51100000000E-03 0. -1.
         11   -1    0    0    0    0 -0.00000000000E+00 -0.00000000000E+00 -0.45593999997E+02  0.45594000000E+02  0.51100000000E-03 0.  1.
    9900012    2    1    2    0    0  0.37417858811E+02 -0.15907990394E+02  0.66652144592E-01  0.50528871149E+02  0.30000034345E+02 0.  0.
         12    1    1    2    0    0 -0.37417858811E+02  0.15907990394E+02 -0.66652144592E-01  0.40659128851E+02  0.00000000000E+00 0. -1.
         11    1    3    3    0    0  0.12910948876E+02 -0.64542475092E+01 -0.11304558121E+02  0.18334201546E+02  0.51100000000E-03 0. -1.
        -11    1    3    3    0    0  0.16094296373E+02 -0.10889077412E+02  0.20231522719E+01  0.19536927292E+02  0.51100000000E-03 0.  1.
         12    1    3    3    0    0  0.84126135624E+01  0.14353345273E+01  0.93480579932E+01  0.12657742311E+02  0.00000000000E+00 0. -1.
</event>
<event>
 7    1  0.6462830E-013  0.5052885E+02  0.7816164E-02  0.1300439E+00
        -11   -1    0    0    0    0  0.00000000000E+00  0.00000000000E+00  0.45593999997E+02  0.45594000000E+02  0.51100000000E-03 0.  1.
         11   -1    0    0    0    0 -0.00000000000E+00 -0.00000000000E+00 -0.45593999997E+02  0.45594000000E+02  0.51100000000E-03 0. -1.
    9900012    2    1    2    0    0 -0.10185350440E+02  0.34939603226E+02  0.18128681993E+02  0.50528851608E+02  0.29999974947E+02 0.  0.
         12    1    1    2    0    0  0.10185350440E+02 -0.34939603226E+02 -0.18128681993E+02  0.40659148392E+02  0.00000000000E+00 0. -1.
         11    1    3    3    0    0  0.70595009168E+01  0.12056642779E+02  0.80770753646E+01  0.16138101964E+02  0.51100000000E-03 0. -1.
        -11    1    3    3    0    0 -0.69658724914E+01  0.15915296695E+02 -0.14909150267E+01  0.17436825294E+02  0.51100000000E-03 0.  1.
        -12    1    3    3    0    0 -0.10278978866E+02  0.69676637511E+01  0.11542521655E+02  0.16953924349E+02  0.00000000000E+00 0.  1.
</event>
<event>
 7    1  0.6462830E-013  0.5052886E+02  0.7816164E-02  0.1300439E+00
        -11   -1    0    0    0    0  0.00000000000E+00  0.00000000000E+00  0.45593999997E+02  0.45594000000E+02  0.51100000000E-03 0. -1.
         11   -1    0    0    0    0 -0.00000000000E+00 -0.00000000000E+00 -0.45593999997E+02  0.45594000000E+02  0.51100000000E-03 0.  1.
    9900012    2    1    2    0    0  0.14682772587E+02  0.28257527476E+02 -0.25280305479E+02  0.50528861852E+02  0.30000006084E+02 0.  0.
         12    1    1    2    0    0 -0.14682772587E+02 -0.28257527476E+02  0.25280305479E+02  0.40659138148E+02  0.00000000000E+00 0. -1.
         11    1    3    3    0    0  0.85839168402E+01  0.10437612228E+02 -0.69640915055E+01  0.15202826977E+02  0.51100000000E-03 0.  1.
        -11    1    3    3    0    0  0.87757143657E+00  0.22810306552E+02 -0.15404160422E+02  0.27538488978E+02  0.51100000000E-03 0. -1.
        -12    1    3    3    0    0  0.52212843098E+01 -0.49903913038E+01 -0.29120535515E+01  0.77875458969E+01  0.00000000000E+00 0.  1.
</event>
<event>
 7    1  0.6462830E-013  0.5052885E+02  0.7816164E-02  0.1300439E+00
        -11   -1    0    0    0    0  0.00000000000E+00  0.00000000000E+00  0.45593999997E+02  0.45594000000E+02  0.51100000000E-03 0.  1.
         11   -1    0    0    0    0 -0.00000000000E+00 -0.00000000000E+00 -0.45593999997E+02  0.45594000000E+02  0.51100000000E-03 0. -1.
    9900012    2    1    2    0    0 -0.12424223756E+02  0.72256934376E+01  0.38034122742E+02  0.50528850054E+02  0.29999970224E+02 0.  0.
         12    1    1    2    0    0  0.12424223756E+02 -0.72256934376E+01 -0.38034122742E+02  0.40659149946E+02  0.00000000000E+00 0. -1.
         11    1    3    3    0    0  0.54126193194E+01 -0.19913811367E+01  0.30181565724E+01  0.65093253172E+01  0.51100000000E-03 0. -1.
        -11    1    3    3    0    0 -0.10223352442E+02  0.13324122970E+02  0.28899469851E+02  0.33424968901E+02  0.51100000000E-03 0.  1.
         12    1    3    3    0    0 -0.76134906331E+01 -0.41070483957E+01  0.61164963183E+01  0.10594555836E+02  0.00000000000E+00 0. -1.
</event>
<event>
 7    1  0.6462830E-013  0.5052886E+02  0.7816164E-02  0.1300439E+00
        -11   -1    0    0    0    0  0.00000000000E+00  0.00000000000E+00  0.45593999997E+02  0.45594000000E+02  0.51100000000E-03 0.  1.
         11   -1    0    0    0    0 -0.00000000000E+00 -0.00000000000E+00 -0.45593999997E+02  0.45594000000E+02  0.51100000000E-03 0. -1.
    9900012    2    1    2    0    0 -0.69009411191E+01  0.12626849323E+02  0.38027686741E+02  0.50528864852E+02  0.30000015204E+02 0.  0.
         12    1    1    2    0    0  0.69009411191E+01 -0.12626849323E+02 -0.38027686741E+02  0.40659135148E+02  0.00000000000E+00 0. -1.
         11    1    3    3    0    0 -0.63765981700E+01 -0.59226330650E+01  0.76921386863E+01  0.11614972427E+02  0.51100000000E-03 0. -1.
        -11    1    3    3    0    0  0.87759728027E+00  0.58610427443E+01  0.23888448363E+02  0.24612597679E+02  0.51100000000E-03 0.  1.
        -12    1    3    3    0    0 -0.14019402293E+01  0.12688439644E+02  0.64470996913E+01  0.14301294747E+02  0.00000000000E+00 0.  1.
</event>
<event>
 7    1  0.6462830E-013  0.5052886E+02  0.7816164E-02  0.1300439E+00
        -11   -1    0    0    0    0  0.00000000000E+00  0.00000000000E+00  0.45593999997E+02  0.45594000000E+02  0.51100000000E-03 0.  1.
         11   -1    0    0    0    0 -0.00000000000E+00 -0.00000000000E+00 -0.45593999997E+02  0.45594000000E+02  0.51100000000E-03 0. -1.
    9900012    2    1    2    0    0 -0.64426314031E+01  0.10160876557E+02  0.38838313997E+02  0.50528861471E+02  0.30000004928E+02 0.  0.
         12    1    1    2    0    0  0.64426314031E+01 -0.10160876557E+02 -0.38838313997E+02  0.40659138529E+02  0.00000000000E+00 0. -1.
         11    1    3    3    0    0 -0.38530947045E+01  0.62362802757E+01  0.16882824535E+01  0.75224881777E+01  0.51100000000E-03 0. -1.
        -11    1    3    3    0    0 -0.48978752922E+01 -0.50982282909E+01  0.31247959274E+01  0.77295189975E+01  0.51100000000E-03 0.  1.
        -12    1    3    3    0    0  0.23083385936E+01  0.90228245718E+01  0.34025235616E+02  0.35276854296E+02  0.00000000000E+00 0.  1.
</event>
<event>
 7    1  0.6462830E-013  0.5052887E+02  0.7816164E-02  0.1300439E+00
        -11   -1    0    0    0    0  0.00000000000E+00  0.00000000000E+00  0.45593999997E+02  0.45594000000E+02  0.51100000000E-03 0. -1.
         11   -1    0    0    0    0 -0.00000000000E+00 -0.00000000000E+00 -0.45593999997E+02  0.45594000000E+02  0.51100000000E-03 0.  1.
    9900012    2    1    2    0    0 -0.24063190901E+02  0.81326856378E+01 -0.31748808009E+02  0.50528873817E+02  0.30000042454E+02 0.  0.
         12    1    1    2    0    0  0.24063190901E+02 -0.81326856378E+01  0.31748808009E+02  0.40659126183E+02  0.00000000000E+00 0. -1.
         11    1    3    3    0    0 -0.94090770989E+01 -0.52130488370E+01 -0.14796764645E+02  0.18293464796E+02  0.51100000000E-03 0.  1.
        -11    1    3    3    0    0 -0.16770366828E+02  0.57711324491E+01 -0.16709244580E+02  0.24366986436E+02  0.51100000000E-03 0. -1.
         12    1    3    3    0    0  0.21162530267E+01  0.75746020257E+01 -0.24279878422E+00  0.78684225846E+01  0.00000000000E+00 0. -1.
</event>
<event>
 7    1  0.6462830E-013  0.5052886E+02  0.7816164E-02  0.1300439E+00
        -11   -1    0    0    0    0  0.00000000000E+00  0.00000000000E+00  0.45593999997E+02  0.45594000000E+02  0.51100000000E-03 0.  1.
         11   -1    0    0    0    0 -0.00000000000E+00 -0.00000000000E+00 -0.45593999997E+02  0.45594000000E+02  0.51100000000E-03 0. -1.
    9900012    2    1    2    0    0  0.29841481877E+02  0.23988602036E+02  0.13682060476E+02  0.50528857767E+02  0.29999993668E+02 0.  0.
         12    1    1    2    0    0 -0.29841481877E+02 -0.23988602036E+02 -0.13682060476E+02  0.40659142233E+02  0.00000000000E+00 0. -1.
         11    1    3    3    0    0 -0.27974225177E+01  0.53701566442E+00 -0.29045807281E+01  0.40682364771E+01  0.51100000000E-03 0. -1.
        -11    1    3    3    0    0  0.73068452451E+01 -0.17324820434E+01  0.13664566555E+01  0.76327377473E+01  0.51100000000E-03 0.  1.
        -12    1    3    3    0    0  0.25332059150E+02  0.25184068415E+02  0.15220184549E+02  0.38827883542E+02  0.00000000000E+00 0.  1.
</event>
<event>
 7    1  0.6462830E-013  0.5052886E+02  0.7816164E-02  0.1300439E+00
        -11   -1    0    0    0    0  0.00000000000E+00  0.00000000000E+00  0.45593999997E+02  0.45594000000E+02  0.51100000000E-03 0.  1.
         11   -1    0    0    0    0 -0.00000000000E+00 -0.00000000000E+00 -0.45593999997E+02  0.45594000000E+02  0.51100000000E-03 0. -1.
    9900012    2    1    2    0    0  0.13481523349E+02 -0.18346581061E+02  0.33687046898E+02  0.50528860349E+02  0.30000001516E+02 0.  0.
         12    1    1    2    0    0 -0.13481523349E+02  0.18346581061E+02 -0.33687046898E+02  0.40659139651E+02  0.00000000000E+00 0. -1.
         11    1    3    3    0    0  0.71721695570E+01 -0.15638993812E+02  0.11816762804E+02  0.20872326824E+02  0.51100000000E-03 0. -1.
        -11    1    3    3    0    0  0.79640027618E+01 -0.33072573275E+00  0.38841535621E+00  0.79803249464E+01  0.51100000000E-03 0.  1.
        -12    1    3    3    0    0 -0.16546489695E+01 -0.23768615165E+01  0.21481868737E+02  0.21676208578E+02  0.00000000000E+00 0.  1.
</event>
<event>
 7    1  0.1154097E-012  0.5052884E+02  0.7816164E-02  0.1300439E+00
        -11   -1    0    0    0    0  0.00000000000E+00  0.00000000000E+00  0.45593999997E+02  0.45594000000E+02  0.51100000000E-03 0.  1.
         11   -1    0    0    0    0 -0.00000000000E+00 -0.00000000000E+00 -0.45593999997E+02  0.45594000000E+02  0.51100000000E-03 0. -1.
    9900012    2    1    2    0    0 -0.29153574287E+02  0.26911517028E+02  0.88885666132E+01  0.50528840406E+02  0.29999940898E+02 0.  0.
         12    1    1    2    0    0  0.29153574287E+02 -0.26911517028E+02 -0.88885666132E+01  0.40659159594E+02  0.00000000000E+00 0. -1.
         11    1    3    3    0    0  0.32643447086E+01  0.39504417639E+01  0.31461831693E+01  0.60133522516E+01  0.51100000000E-03 0. -1.
        -11    1    3    3    0    0 -0.21364601844E+02  0.24730249069E+02  0.64026221731E+01  0.33302026994E+02  0.51100000000E-03 0.  1.
         12    1    3    3    0    0 -0.11053317152E+02 -0.17691738055E+01 -0.66023872919E+00  0.11213461160E+02  0.00000000000E+00 0. -1.
</event>
<event>
 7    1  0.6462830E-013  0.5052885E+02  0.7816164E-02  0.1300439E+00
        -11   -1    0    0    0    0  0.00000000000E+00  0.00000000000E+00  0.45593999997E+02  0.45594000000E+02  0.51100000000E-03 0. -1.
         11   -1    0    0    0    0 -0.00000000000E+00 -0.00000000000E+00 -0.45593999997E+02  0.45594000000E+02  0.51100000000E-03 0.  1.
    9900012    2    1    2    0    0  0.32349189554E+02 -0.24013005666E+02 -0.54837828958E+01  0.50528851205E+02  0.29999973722E+02 0.  0.
         12    1    1    2    0    0 -0.32349189554E+02  0.24013005666E+02  0.54837828958E+01  0.40659148795E+02  0.00000000000E+00 0. -1.
         11    1    3    3    0    0  0.19255668110E+02 -0.11672902870E+02 -0.18412983969E+01  0.22592649155E+02  0.51100000000E-03 0. -1.
        -11    1    3    3    0    0  0.12899078558E+02  0.22456663263E+01 -0.12265484884E+01  0.13150424569E+02  0.51100000000E-03 0.  1.
        -12    1    3    3    0    0  0.19444288643E+00 -0.14585769122E+02 -0.24159360104E+01  0.14785777481E+02  0.00000000000E+00 0.  1.
</event>
<event>
 7    1  0.7500653E-013  0.5052887E+02  0.7816164E-02  0.1300439E+00
        -11   -1    0    0    0    0  0.00000000000E+00  0.00000000000E+00  0.45593999997E+02  0.45594000000E+02  0.51100000000E-03 0.  1.
         11   -1    0    0    0    0 -0.00000000000E+00 -0.00000000000E+00 -0.45593999997E+02  0.45594000000E+02  0.51100000000E-03 0. -1.
    9900012    2    1    2    0    0  0.17780282876E+02 -0.25652749377E+02  0.26056919015E+02  0.50528867713E+02  0.30000023901E+02 0.  0.
         12    1    1    2    0    0 -0.17780282876E+02  0.25652749377E+02 -0.26056919015E+02  0.40659132287E+02  0.00000000000E+00 0. -1.
         11    1    3    3    0    0 -0.12341214829E+01 -0.11775341409E+02  0.90630146614E+01  0.14910397585E+02  0.51100000000E-03 0. -1.
        -11    1    3    3    0    0  0.12795356004E+02 -0.19128837248E+02  0.14045532505E+02  0.26961278407E+02  0.51100000000E-03 0.  1.
         12    1    3    3    0    0  0.62190483551E+01  0.52514292802E+01  0.29483718485E+01  0.86571917205E+01  0.00000000000E+00 0. -1.
</event>
<event>
 7    1  0.6462830E-013  0.5052886E+02  0.7816164E-02  0.1300439E+00
        -11   -1    0    0    0    0  0.00000000000E+00  0.00000000000E+00  0.45593999997E+02  0.45594000000E+02  0.51100000000E-03 0. -1.
         11   -1    0    0    0    0 -0.00000000000E+00 -0.00000000000E+00 -0.45593999997E+02  0.45594000000E+02  0.51100000000E-03 0.  1.
    9900012    2    1    2    0    0 -0.10531924088E+02  0.65719687612E+01 -0.38717612691E+02  0.50528859196E+02  0.29999998013E+02 0.  0.
         12    1    1    2    0    0  0.10531924088E+02 -0.65719687612E+01  0.38717612691E+02  0.40659140804E+02  0.00000000000E+00 0. -1.
         11    1    3    3    0    0 -0.92525575655E+01 -0.45237531806E+01 -0.19831512080E+02  0.22346432288E+02  0.51100000000E-03 0. -1.
        -11    1    3    3    0    0  0.57999378851E+01  0.15950877885E+01 -0.14235532403E+02  0.15454254028E+02  0.51100000000E-03 0.  1.
         12    1    3    3    0    0 -0.70793044077E+01  0.95006341533E+01 -0.46505682081E+01  0.12728172880E+02  0.00000000000E+00 0. -1.
</event>
<event>
 7    1  0.6462830E-013  0.5052886E+02  0.7816164E-02  0.1300439E+00
        -11   -1    0    0    0    0  0.00000000000E+00  0.00000000000E+00  0.45593999997E+02  0.45594000000E+02  0.51100000000E-03 0.  1.
         11   -1    0    0    0    0 -0.00000000000E+00 -0.00000000000E+00 -0.45593999997E+02  0.45594000000E+02  0.51100000000E-03 0. -1.
    9900012    2    1    2    0    0  0.25279341296E+02 -0.34013762835E+01  0.31663084387E+02  0.50528863636E+02  0.30000011508E+02 0.  0.
         12    1    1    2    0    0 -0.25279341296E+02  0.34013762835E+01 -0.31663084387E+02  0.40659136364E+02  0.00000000000E+00 0. -1.
         11    1    3    3    0    0  0.17848952305E+01 -0.89345023892E+01  0.56775714699E+01  0.10735269069E+02  0.51100000000E-03 0. -1.
        -11    1    3    3    0    0 -0.18973888549E+01  0.81840399548E+00  0.81493627557E+01  0.84072577664E+01  0.51100000000E-03 0.  1.
        -12    1    3    3    0    0  0.25391834920E+02  0.47147221102E+01  0.17836150161E+02  0.31386336801E+02  0.00000000000E+00 0.  1.
</event>
<event>
 7    1  0.6462830E-013  0.5052886E+02  0.7816164E-02  0.1300439E+00
        -11   -1    0    0    0    0  0.00000000000E+00  0.00000000000E+00  0.45593999997E+02  0.45594000000E+02  0.51100000000E-03 0.  1.
         11   -1    0    0    0    0 -0.00000000000E+00 -0.00000000000E+00 -0.45593999997E+02  0.45594000000E+02  0.51100000000E-03 0. -1.
    9900012    2    1    2    0    0 -0.23196892047E+02 -0.15892212407E+02  0.29368473147E+02  0.50528862886E+02  0.30000009229E+02 0.  0.
         12    1    1    2    0    0  0.23196892047E+02  0.15892212407E+02 -0.29368473147E+02  0.40659137114E+02  0.00000000000E+00 0. -1.
         11    1    3    3    0    0 -0.18638467962E+01 -0.11450426849E+02  0.10322725050E+02  0.15528839384E+02  0.51100000000E-03 0. -1.
        -11    1    3    3    0    0 -0.55311304827E+01 -0.20335839701E+01  0.18046633198E+02  0.18984463075E+02  0.51100000000E-03 0.  1.
         12    1    3    3    0    0 -0.15801914768E+02 -0.24082015884E+01  0.99911489926E+00  0.16015560428E+02  0.00000000000E+00 0. -1.
</event>
<event>
 7    1  0.6462830E-013  0.5052886E+02  0.7816164E-02  0.1300439E+00
        -11   -1    0    0    0    0  0.00000000000E+00  0.00000000000E+00  0.45593999997E+02  0.45594000000E+02  0.51100000000E-03 0. -1.
         11   -1    0    0    0    0 -0.00000000000E+00 -0.00000000000E+00 -0.45593999997E+02  0.45594000000E+02  0.51100000000E-03 0.  1.
    9900012    2    1    2    0    0 -0.31370030366E+02 -0.12203548023E+02 -0.22807015576E+02  0.50528863893E+02  0.30000012288E+02 0.  0.
         12    1    1    2    0    0  0.31370030366E+02  0.12203548023E+02  0.22807015576E+02  0.40659136107E+02  0.00000000000E+00 0. -1.
         11    1    3    3    0    0  0.26215546266E+00 -0.11343666077E+01 -0.72453279126E+01  0.73382756768E+01  0.51100000000E-03 0.  1.
        -11    1    3    3    0    0 -0.17020797911E+02  0.22544705191E+01 -0.15918362297E+02  0.23413339303E+02  0.51100000000E-03 0. -1.
         12    1    3    3    0    0 -0.14611387918E+02 -0.13323651934E+02  0.35667463420E+00  0.19777248913E+02  0.00000000000E+00 0. -1.
</event>
<event>
 7    1  0.6462830E-013  0.5052886E+02  0.7816164E-02  0.1300439E+00
        -11   -1    0    0    0    0  0.00000000000E+00  0.00000000000E+00  0.45593999997E+02  0.45594000000E+02  0.51100000000E-03 0.  1.
         11   -1    0    0    0    0 -0.00000000000E+00 -0.00000000000E+00 -0.45593999997E+02  0.45594000000E+02  0.51100000000E-03 0. -1.
    9900012    2    1    2    0    0 -0.36514864347E+02  0.14225999969E+02  0.10837506460E+02  0.50528856629E+02  0.29999990211E+02 0.  0.
         12    1    1    2    0    0  0.36514864347E+02 -0.14225999969E+02 -0.10837506460E+02  0.40659143371E+02  0.00000000000E+00 0. -1.
         11    1    3    3    0    0 -0.87960032908E+01  0.14385820308E+02  0.39062307212E+01  0.17308383475E+02  0.51100000000E-03 0. -1.
        -11    1    3    3    0    0 -0.15949425356E+02  0.67013549813E+01  0.89008032705E+01  0.19455503768E+02  0.51100000000E-03 0.  1.
        -12    1    3    3    0    0 -0.11769435700E+02 -0.68611753207E+01 -0.19695275320E+01  0.13764969386E+02  0.00000000000E+00 0.  1.
</event>
<event>
 7    1  0.6462830E-013  0.5052886E+02  0.7816164E-02  0.1300439E+00
        -11   -1    0    0    0    0  0.00000000000E+00  0.00000000000E+00  0.45593999997E+02  0.45594000000E+02  0.51100000000E-03 0.  1.
         11   -1    0    0    0    0 -0.00000000000E+00 -0.00000000000E+00 -0.45593999997E+02  0.45594000000E+02  0.51100000000E-03 0. -1.
    9900012    2    1    2    0    0 -0.27569150158E+02  0.25849290262E+02  0.14997396547E+02  0.50528858953E+02  0.29999997275E+02 0.  0.
         12    1    1    2    0    0  0.27569150158E+02 -0.25849290262E+02 -0.14997396547E+02  0.40659141047E+02  0.00000000000E+00 0. -1.
         11    1    3    3    0    0 -0.44471848782E+00  0.15484015771E+02  0.11576853375E+02  0.19338460468E+02  0.51100000000E-03 0. -1.
        -11    1    3    3    0    0 -0.49283401254E+01  0.58922393369E+01  0.37447302741E+01  0.85457606965E+01  0.51100000000E-03 0.  1.
         12    1    3    3    0    0 -0.22196091544E+02  0.44730351540E+01 -0.32418710208E+00  0.22644637789E+02  0.00000000000E+00 0. -1.
</event>
<event>
 7    1  0.6462830E-013  0.5052885E+02  0.7816164E-02  0.1300439E+00
        -11   -1    0    0    0    0  0.00000000000E+00  0.00000000000E+00  0.45593999997E+02  0.45594000000E+02  0.51100000000E-03 0.  1.
         11   -1    0    0    0    0 -0.00000000000E+00 -0.00000000000E+00 -0.45593999997E+02  0.45594000000E+02  0.51100000000E-03 0. -1.
    9900012    2    1    2    0    0 -0.14714397753E+02 -0.33955857899E+02 -0.16841990928E+02  0.50528850411E+02  0.29999971310E+02 0.  0.
         12    1    1    2    0    0  0.14714397753E+02  0.33955857899E+02  0.16841990928E+02  0.40659149589E+02  0.00000000000E+00 0. -1.
         11    1    3    3    0    0  0.13284611188E+01  0.98825033699E+00  0.19183508940E+00  0.16668079180E+01  0.51100000000E-03 0. -1.
        -11    1    3    3    0    0 -0.14078258016E+02 -0.17126732424E+02  0.25460788812E+01  0.22316021828E+02  0.51100000000E-03 0.  1.
        -12    1    3    3    0    0 -0.19646008558E+01 -0.17817375812E+02 -0.19579904898E+02  0.26546020666E+02  0.00000000000E+00 0.  1.
</event>
<event>
 7    1  0.6462830E-013  0.5052886E+02  0.7816164E-02  0.1300439E+00
        -11   -1    0    0    0    0  0.00000000000E+00  0.00000000000E+00  0.45593999997E+02  0.45594000000E+02  0.51100000000E-03 0. -1.
         11   -1    0    0    0    0 -0.00000000000E+00 -0.00000000000E+00 -0.45593999997E+02  0.45594000000E+02  0.51100000000E-03 0.  1.
    9900012    2    1    2    0    0  0.40058650962E+02  0.43423934707E+01  0.54418336898E+01  0.50528862628E+02  0.30000008443E+02 0.  0.
         12    1    1    2    0    0 -0.40058650962E+02 -0.43423934707E+01 -0.54418336898E+01  0.40659137372E+02  0.00000000000E+00 0. -1.
         11    1    3    3    0    0  0.10369049855E+02 -0.17935006294E+01  0.82601820444E+01  0.13377759419E+02  0.51100000000E-03 0. -1.
        -11    1    3    3    0    0  0.29069234212E+02 -0.10195246836E+01 -0.52725399901E+01  0.29561114432E+02  0.51100000000E-03 0.  1.
         12    1    3    3    0    0  0.62036689556E+00  0.71554187837E+01  0.24541916355E+01  0.75899887773E+01  0.00000000000E+00 0. -1.
</event>
<event>
 7    1  0.6462830E-013  0.5052886E+02  0.7816164E-02  0.1300439E+00
        -11   -1    0    0    0    0  0.00000000000E+00  0.00000000000E+00  0.45593999997E+02  0.45594000000E+02  0.51100000000E-03 0.  1.
         11   -1    0    0    0    0 -0.00000000000E+00 -0.00000000000E+00 -0.45593999997E+02  0.45594000000E+02  0.51100000000E-03 0. -1.
    9900012    2    1    2    0    0  0.90336020641E+01  0.22145572797E+01  0.39580999285E+02  0.50528859151E+02  0.29999997874E+02 0.  0.
         12    1    1    2    0    0 -0.90336020641E+01 -0.22145572797E+01 -0.39580999285E+02  0.40659140849E+02  0.00000000000E+00 0. -1.
         11    1    3    3    0    0 -0.62152225788E+01 -0.10755598855E+01  0.10460699683E+02  0.12215238798E+02  0.51100000000E-03 0.  1.
        -11    1    3    3    0    0  0.13515858620E+02  0.10710250201E+02  0.19259735115E+02  0.25851988136E+02  0.51100000000E-03 0. -1.
         12    1    3    3    0    0  0.17329660231E+01 -0.74201330360E+01  0.98605644871E+01  0.12461632217E+02  0.00000000000E+00 0. -1.
</event>
<event>
 7    1  0.6462830E-013  0.5052886E+02  0.7816164E-02  0.1300439E+00
        -11   -1    0    0    0    0  0.00000000000E+00  0.00000000000E+00  0.45593999997E+02  0.45594000000E+02  0.51100000000E-03 0.  1.
         11   -1    0    0    0    0 -0.00000000000E+00 -0.00000000000E+00 -0.45593999997E+02  0.45594000000E+02  0.51100000000E-03 0. -1.
    9900012    2    1    2    0    0 -0.20555609697E+02  0.47109779162E+01  0.34762609133E+02  0.50528863307E+02  0.30000010507E+02 0.  0.
         12    1    1    2    0    0  0.20555609697E+02 -0.47109779162E+01 -0.34762609133E+02  0.40659136693E+02  0.00000000000E+00 0. -1.
         11    1    3    3    0    0 -0.47115408533E+01 -0.96041056591E+01  0.72197811000E+01  0.12905917330E+02  0.51100000000E-03 0. -1.
        -11    1    3    3    0    0 -0.57147107819E+01 -0.54533084241E+00  0.13933257387E+02  0.15069537707E+02  0.51100000000E-03 0.  1.
         12    1    3    3    0    0 -0.10129358062E+02  0.14860414418E+02  0.13609570646E+02  0.22553408270E+02  0.00000000000E+00 0. -1.
</event>
<event>
 7    1  0.6462830E-013  0.5052885E+02  0.7816164E-02  0.1300439E+00
        -11   -1    0    0    0    0  0.00000000000E+00  0.00000000000E+00  0.45593999997E+02  0.45594000000E+02  0.51100000000E-03 0. -1.
         11   -1    0    0    0    0 -0.00000000000E+00 -0.00000000000E+00 -0.45593999997E+02  0.45594000000E+02  0.51100000000E-03 0.  1.
    9900012    2    1    2    0    0  0.17935638663E+02 -0.35768935658E+02  0.72154499189E+01  0.50528848387E+02  0.29999965157E+02 0.  0.
         12    1    1    2    0    0 -0.17935638663E+02  0.35768935658E+02 -0.72154499189E+01  0.40659151613E+02  0.00000000000E+00 0. -1.
         11    1    3    3    0    0  0.80785920274E+01 -0.32962882874E+00  0.71294707410E+01  0.10779687269E+02  0.51100000000E-03 0. -1.
        -11    1    3    3    0    0 -0.32307834868E+01 -0.47140188107E+01  0.25578274702E+01  0.62611833478E+01  0.51100000000E-03 0.  1.
        -12    1    3    3    0    0  0.13087830122E+02 -0.30725288019E+02 -0.24718482923E+01  0.33487977770E+02  0.00000000000E+00 0.  1.
</event>
<event>
 7    1  0.6462830E-013  0.5052886E+02  0.7816164E-02  0.1300439E+00
        -11   -1    0    0    0    0  0.00000000000E+00  0.00000000000E+00  0.45593999997E+02  0.45594000000E+02  0.51100000000E-03 0.  1.
         11   -1    0    0    0    0 -0.00000000000E+00 -0.00000000000E+00 -0.45593999997E+02  0.45594000000E+02  0.51100000000E-03 0. -1.
    9900012    2    1    2    0    0  0.34601049989E+02 -0.85430602929E+01  0.19569093390E+02  0.50528856433E+02  0.29999989614E+02 0.  0.
         12    1    1    2    0    0 -0.34601049989E+02  0.85430602929E+01 -0.19569093390E+02  0.40659143567E+02  0.00000000000E+00 0. -1.
         11    1    3    3    0    0  0.30857969328E+02  0.37766146444E+00  0.14536328515E+02  0.34112486661E+02  0.51100000000E-03 0. -1.
        -11    1    3    3    0    0  0.31557415286E+01 -0.72024064376E+01  0.90612694820E+01  0.11997498405E+02  0.51100000000E-03 0.  1.
        -12    1    3    3    0    0  0.58733913190E+00 -0.17183153198E+01 -0.40285046068E+01  0.44188713673E+01  0.00000000000E+00 0.  1.
</event>
<event>
 7    1  0.6462830E-013  0.5052886E+02  0.7816164E-02  0.1300439E+00
        -11   -1    0    0    0    0  0.00000000000E+00  0.00000000000E+00  0.45593999997E+02  0.45594000000E+02  0.51100000000E-03 0. -1.
         11   -1    0    0    0    0 -0.00000000000E+00 -0.00000000000E+00 -0.45593999997E+02  0.45594000000E+02  0.51100000000E-03 0.  1.
    9900012    2    1    2    0    0  0.60657942407E+01  0.38990664078E+02 -0.98030619062E+01  0.50528858743E+02  0.29999996635E+02 0.  0.
         12    1    1    2    0    0 -0.60657942407E+01 -0.38990664078E+02  0.98030619062E+01  0.40659141257E+02  0.00000000000E+00 0. -1.
         11    1    3    3    0    0  0.46070885755E+01  0.67178350504E+01  0.35790008404E+01  0.88974052500E+01  0.51100000000E-03 0. -1.
        -11    1    3    3    0    0 -0.62317252440E+01  0.39552204013E-01 -0.29130446748E+01  0.68790837640E+01  0.51100000000E-03 0.  1.
        -12    1    3    3    0    0  0.76904309091E+01  0.32233276824E+02 -0.10469018072E+02  0.34752369729E+02  0.00000000000E+00 0.  1.
</event>
<event>
 7    1  0.6462830E-013  0.5052883E+02  0.7816164E-02  0.1300439E+00
        -11   -1    0    0    0    0  0.00000000000E+00  0.00000000000E+00  0.45593999997E+02  0.45594000000E+02  0.51100000000E-03 0. -1.
         11   -1    0    0    0    0 -0.00000000000E+00 -0.00000000000E+00 -0.45593999997E+02  0.45594000000E+02  0.51100000000E-03 0.  1.
    9900012    2    1    2    0    0 -0.29387288507E+02  0.25796743322E+02 -0.11139280334E+02  0.50528828117E+02  0.29999903546E+02 0.  0.
         12    1    1    2    0    0  0.29387288507E+02 -0.25796743322E+02  0.11139280334E+02  0.40659171883E+02  0.00000000000E+00 0. -1.
         11    1    3    3    0    0 -0.18938082338E+02  0.13035261635E+02  0.40571282432E+01  0.23345862553E+02  0.51100000000E-03 0.  1.
        -11    1    3    3    0    0 -0.61231393847E+01 -0.24648314670E+01 -0.32846577308E+01  0.73727340081E+01  0.51100000000E-03 0. -1.
        -12    1    3    3    0    0 -0.43260667853E+01  0.15226313153E+02 -0.11911750846E+02  0.19810231556E+02  0.00000000000E+00 0.  1.
</event>
<event>
 7    1  0.6462830E-013  0.5052886E+02  0.7816164E-02  0.1300439E+00
        -11   -1    0    0    0    0  0.00000000000E+00  0.00000000000E+00  0.45593999997E+02  0.45594000000E+02  0.51100000000E-03 0.  1.
         11   -1    0    0    0    0 -0.00000000000E+00 -0.00000000000E+00 -0.45593999997E+02  0.45594000000E+02  0.51100000000E-03 0. -1.
    9900012    2    1    2    0    0 -0.29953232545E+02 -0.22045732866E+01  0.27406371941E+02  0.50528861959E+02  0.30000006411E+02 0.  0.
         12    1    1    2    0    0  0.29953232545E+02  0.22045732866E+01 -0.27406371941E+02  0.40659138041E+02  0.00000000000E+00 0. -1.
         11    1    3    3    0    0 -0.20417534192E+02  0.23515962982E+01  0.24715270110E+02  0.32144210747E+02  0.51100000000E-03 0. -1.
        -11    1    3    3    0    0 -0.98221015849E+01 -0.52242208405E+01  0.75671912633E+01  0.13454684939E+02  0.51100000000E-03 0.  1.
         12    1    3    3    0    0  0.28640323204E+00  0.66805125559E+00 -0.48760894333E+01  0.49299662730E+01  0.00000000000E+00 0. -1.
</event>
<event>
 7    1  0.6462830E-013  0.5052887E+02  0.7816164E-02  0.1300439E+00
        -11   -1    0    0    0    0  0.00000000000E+00  0.00000000000E+00  0.45593999997E+02  0.45594000000E+02  0.51100000000E-03 0.  1.
         11   -1    0    0    0    0 -0.00000000000E+00 -0.00000000000E+00 -0.45593999997E+02  0.45594000000E+02  0.51100000000E-03 0. -1.
    9900012    2    1    2    0    0  0.10354971002E+02 -0.80774358608E+01  0.38479796345E+02  0.50528866693E+02  0.30000020799E+02 0.  0.
         12    1    1    2    0    0 -0.10354971002E+02  0.80774358608E+01 -0.38479796345E+02  0.40659133307E+02  0.00000000000E+00 0. -1.
         11    1    3    3    0    0  0.11578056089E+01 -0.88421796933E+01  0.24209711255E+02  0.25799898738E+02  0.51100000000E-03 0. -1.
        -11    1    3    3    0    0  0.70140182148E+01 -0.80419370485E+01  0.50937475325E+01  0.11824359061E+02  0.51100000000E-03 0.  1.
         12    1    3    3    0    0  0.21831471787E+01  0.88066808810E+01  0.91763375572E+01  0.12904608894E+02  0.00000000000E+00 0. -1.
</event>
<event>
 7    1  0.6462830E-013  0.5052886E+02  0.7816164E-02  0.1300439E+00
        -11   -1    0    0    0    0  0.00000000000E+00  0.00000000000E+00  0.45593999997E+02  0.45594000000E+02  0.51100000000E-03 0. -1.
         11   -1    0    0    0    0 -0.00000000000E+00 -0.00000000000E+00 -0.45593999997E+02  0.45594000000E+02  0.51100000000E-03 0.  1.
    9900012    2    1    2    0    0  0.20662591206E+02 -0.23684970725E+02  0.25792350213E+02  0.50528857817E+02  0.29999993820E+02 0.  0.
         12    1    1    2    0    0 -0.20662591206E+02  0.23684970725E+02 -0.25792350213E+02  0.40659142183E+02  0.00000000000E+00 0. -1.
         11    1    3    3    0    0 -0.14146199774E+01 -0.26175874370E+01  0.16410606019E+02  0.16678156488E+02  0.51100000000E-03 0. -1.
        -11    1    3    3    0    0  0.67397647630E+01 -0.50557483785E+01  0.80272625165E+01  0.11637094332E+02  0.51100000000E-03 0.  1.
        -12    1    3    3    0    0  0.15337446420E+02 -0.16011634909E+02  0.13544816768E+01  0.22213606996E+02  0.00000000000E+00 0.  1.
</event>
<event>
 7    1  0.6462830E-013  0.5052885E+02  0.7816164E-02  0.1300439E+00
        -11   -1    0    0    0    0  0.00000000000E+00  0.00000000000E+00  0.45593999997E+02  0.45594000000E+02  0.51100000000E-03 0. -1.
         11   -1    0    0    0    0 -0.00000000000E+00 -0.00000000000E+00 -0.45593999997E+02  0.45594000000E+02  0.51100000000E-03 0.  1.
    9900012    2    1    2    0    0  0.10019091168E+02 -0.55935438969E+01 -0.39006360561E+02  0.50528854837E+02  0.29999984763E+02 0.  0.
         12    1    1    2    0    0 -0.10019091168E+02  0.55935438969E+01  0.39006360561E+02  0.40659145163E+02  0.00000000000E+00 0. -1.
         11    1    3    3    0    0  0.18708823922E+02 -0.20402609795E+01 -0.20123412083E+02  0.27552395023E+02  0.51100000000E-03 0. -1.
        -11    1    3    3    0    0 -0.27003038786E+01 -0.48385738203E+01 -0.38611858320E+01  0.67536800295E+01  0.51100000000E-03 0.  1.
        -12    1    3    3    0    0 -0.59894288745E+01  0.12852909029E+01 -0.15021762646E+02  0.16222779785E+02  0.00000000000E+00 0.  1.
</event>
<event>
 7    1  0.6462830E-013  0.5052886E+02  0.7816164E-02  0.1300439E+00
        -11   -1    0    0    0    0  0.00000000000E+00  0.00000000000E+00  0.45593999997E+02  0.45594000000E+02  0.51100000000E-03 0.  1.
         11   -1    0    0    0    0 -0.00000000000E+00 -0.00000000000E+00 -0.45593999997E+02  0.45594000000E+02  0.51100000000E-03 0. -1.
    9900012    2    1    2    0    0  0.20198384327E+02  0.10822526807E+02  0.33586664242E+02  0.50528857967E+02  0.29999994278E+02 0.  0.
         12    1    1    2    0    0 -0.20198384327E+02 -0.10822526807E+02 -0.33586664242E+02  0.40659142033E+02  0.00000000000E+00 0. -1.
         11    1    3    3    0    0  0.84254682995E+00  0.93341804602E+01  0.15271899330E+02  0.17918362633E+02  0.51100000000E-03 0. -1.
        -11    1    3    3    0    0  0.22712104480E+02 -0.14877684522E+00  0.17767095105E+02  0.28836287785E+02  0.51100000000E-03 0.  1.
         12    1    3    3    0    0 -0.33562669836E+01  0.16371231919E+01  0.54766980711E+00  0.37742075497E+01  0.00000000000E+00 0. -1.
</event>
<event>
 7    1  0.6462830E-013  0.5052886E+02  0.7816164E-02  0.1300439E+00
        -11   -1    0    0    0    0  0.00000000000E+00  0.00000000000E+00  0.45593999997E+02  0.45594000000E+02  0.51100000000E-03 0. -1.
         11   -1    0    0    0    0 -0.00000000000E+00 -0.00000000000E+00 -0.45593999997E+02  0.45594000000E+02  0.51100000000E-03 0.  1.
    9900012    2    1    2    0    0 -0.37768882137E+02  0.11822707328E+02  0.93220608755E+01  0.50528859756E+02  0.29999999714E+02 0.  0.
         12    1    1    2    0    0  0.37768882137E+02 -0.11822707328E+02 -0.93220608755E+01  0.40659140244E+02  0.00000000000E+00 0. -1.
         11    1    3    3    0    0 -0.94002823156E+01 -0.49132766444E+01  0.43073320921E+01  0.11448087395E+02  0.51100000000E-03 0. -1.
        -11    1    3    3    0    0 -0.25174233292E+02  0.41503616948E+01  0.11785539941E+01  0.25541270795E+02  0.51100000000E-03 0.  1.
        -12    1    3    3    0    0 -0.31943665292E+01  0.12585622278E+02  0.38361747893E+01  0.13539501566E+02  0.00000000000E+00 0.  1.
</event>
<event>
 7    1  0.6462830E-013  0.5052885E+02  0.7816164E-02  0.1300439E+00
        -11   -1    0    0    0    0  0.00000000000E+00  0.00000000000E+00  0.45593999997E+02  0.45594000000E+02  0.51100000000E-03 0.  1.
         11   -1    0    0    0    0 -0.00000000000E+00 -0.00000000000E+00 -0.45593999997E+02  0.45594000000E+02  0.51100000000E-03 0. -1.
    9900012    2    1    2    0    0 -0.20431768777E+02  0.25483265119E+02  0.24213888603E+02  0.50528851241E+02  0.29999973832E+02 0.  0.
         12    1    1    2    0    0  0.20431768777E+02 -0.25483265119E+02 -0.24213888603E+02  0.40659148759E+02  0.00000000000E+00 0. -1.
         11    1    3    3    0    0 -0.10871689612E+00  0.93090171121E+01  0.12874421574E+01  0.93982512483E+01  0.51100000000E-03 0. -1.
        -11    1    3    3    0    0 -0.20025122881E+01  0.68328106476E+01  0.18871419387E+02  0.20169973395E+02  0.51100000000E-03 0.  1.
        -12    1    3    3    0    0 -0.18320539593E+02  0.93414373597E+01  0.40550270589E+01  0.20960626598E+02  0.00000000000E+00 0.  1.
</event>
<event>
 7    1  0.6462830E-013  0.5052895E+02  0.7816164E-02  0.1300438E+00
        -11   -1    0    0    0    0  0.00000000000E+00  0.00000000000E+00  0.45593999997E+02  0.45594000000E+02  0.51100000000E-03 0.  1.
         11   -1    0    0    0    0 -0.00000000000E+00 -0.00000000000E+00 -0.45593999997E+02  0.45594000000E+02  0.51100000000E-03 0. -1.
    9900012    2    1    2    0    0 -0.15459125680E+01 -0.34519320305E+02  0.21428598791E+02  0.50528952223E+02  0.30000280777E+02 0.  0.
         12    1    1    2    0    0  0.15459125680E+01  0.34519320305E+02 -0.21428598791E+02  0.40659047777E+02  0.00000000000E+00 0. -1.
         11    1    3    3    0    0 -0.19653307419E+01  0.10638609356E+00 -0.14544067446E+01  0.24472723931E+01  0.51100000000E-03 0. -1.
        -11    1    3    3    0    0 -0.10895463121E+01 -0.56439793662E+01  0.17689049814E+02  0.18599572517E+02  0.51100000000E-03 0.  1.
        -12    1    3    3    0    0  0.15089644861E+01 -0.28981727032E+02  0.51939557214E+01  0.29482107313E+02  0.00000000000E+00 0.  1.
</event>
<event>
 7    1  0.6462830E-013  0.5052887E+02  0.7816164E-02  0.1300439E+00
        -11   -1    0    0    0    0  0.00000000000E+00  0.00000000000E+00  0.45593999997E+02  0.45594000000E+02  0.51100000000E-03 0. -1.
         11   -1    0    0    0    0 -0.00000000000E+00 -0.00000000000E+00 -0.45593999997E+02  0.45594000000E+02  0.51100000000E-03 0.  1.
    9900012    2    1    2    0    0  0.39255849398E+02 -0.25229777473E+01  0.10284821567E+02  0.50528872079E+02  0.30000037170E+02 0.  0.
         12    1    1    2    0    0 -0.39255849398E+02  0.25229777473E+01 -0.10284821567E+02  0.40659127921E+02  0.00000000000E+00 0. -1.
         11    1    3    3    0    0 -0.33292574555E+01 -0.27793725166E+01  0.17398158702E+01  0.46728820138E+01  0.51100000000E-03 0. -1.
        -11    1    3    3    0    0  0.69942106220E+01  0.74772045875E+00  0.74483641840E+01  0.10244813194E+02  0.51100000000E-03 0.  1.
        -12    1    3    3    0    0  0.35590896231E+02 -0.49132568945E+00  0.10966415128E+01  0.35611176870E+02  0.00000000000E+00 0.  1.
</event>
<event>
 7    1  0.6462830E-013  0.5052884E+02  0.7816164E-02  0.1300439E+00
        -11   -1    0    0    0    0  0.00000000000E+00  0.00000000000E+00  0.45593999997E+02  0.45594000000E+02  0.51100000000E-03 0. -1.
         11   -1    0    0    0    0 -0.00000000000E+00 -0.00000000000E+00 -0.45593999997E+02  0.45594000000E+02  0.51100000000E-03 0.  1.
    9900012    2    1    2    0    0 -0.36285271400E+01 -0.38168242748E+02 -0.13534646025E+02  0.50528836128E+02  0.29999927896E+02 0.  0.
         12    1    1    2    0    0  0.36285271400E+01  0.38168242748E+02  0.13534646025E+02  0.40659163872E+02  0.00000000000E+00 0. -1.
         11    1    3    3    0    0  0.78048110189E+01 -0.19097960691E+02 -0.82802985516E+01  0.22230846182E+02  0.51100000000E-03 0. -1.
        -11    1    3    3    0    0 -0.24081913309E+01 -0.18613584896E+02 -0.34685206155E+01  0.19086528329E+02  0.51100000000E-03 0.  1.
        -12    1    3    3    0    0 -0.90251468280E+01 -0.45669716230E+00 -0.17858268577E+01  0.92114616175E+01  0.00000000000E+00 0.  1.
</event>
<event>
 7    1  0.6462830E-013  0.5052886E+02  0.7816164E-02  0.1300439E+00
        -11   -1    0    0    0    0  0.00000000000E+00  0.00000000000E+00  0.45593999997E+02  0.45594000000E+02  0.51100000000E-03 0. -1.
         11   -1    0    0    0    0 -0.00000000000E+00 -0.00000000000E+00 -0.45593999997E+02  0.45594000000E+02  0.51100000000E-03 0.  1.
    9900012    2    1    2    0    0  0.92185830366E+01  0.12321649647E+02 -0.37634563016E+02  0.50528860110E+02  0.30000000790E+02 0.  0.
         12    1    1    2    0    0 -0.92185830366E+01 -0.12321649647E+02  0.37634563016E+02  0.40659139890E+02  0.00000000000E+00 0. -1.
         11    1    3    3    0    0 -0.50800198217E+00 -0.11148168062E+01 -0.88485012820E+01  0.89329086933E+01  0.51100000000E-03 0. -1.
        -11    1    3    3    0    0 -0.11021601831E+01  0.15068941676E+02 -0.26354101312E+02  0.30378058143E+02  0.51100000000E-03 0.  1.
         12    1    3    3    0    0  0.10828745202E+02 -0.16324752230E+01 -0.24319604214E+01  0.11217893273E+02  0.00000000000E+00 0. -1.
</event>
<event>
 7    1  0.6462830E-013  0.5052885E+02  0.7816164E-02  0.1300439E+00
        -11   -1    0    0    0    0  0.00000000000E+00  0.00000000000E+00  0.45593999997E+02  0.45594000000E+02  0.51100000000E-03 0. -1.
         11   -1    0    0    0    0 -0.00000000000E+00 -0.00000000000E+00 -0.45593999997E+02  0.45594000000E+02  0.51100000000E-03 0.  1.
    9900012    2    1    2    0    0  0.24103581961E+02  0.21334170071E+02 -0.24840227006E+02  0.50528851537E+02  0.29999974733E+02 0.  0.
         12    1    1    2    0    0 -0.24103581961E+02 -0.21334170071E+02  0.24840227006E+02  0.40659148463E+02  0.00000000000E+00 0. -1.
         11    1    3    3    0    0  0.78252958657E+01  0.16348656438E+02 -0.74974607010E+01  0.19614426832E+02  0.51100000000E-03 0. -1.
        -11    1    3    3    0    0  0.10057036045E+02  0.31380036933E+01 -0.20978750591E+02  0.23475498244E+02  0.51100000000E-03 0.  1.
         12    1    3    3    0    0  0.62212500510E+01  0.18475099403E+01  0.36359842862E+01  0.74389264619E+01  0.00000000000E+00 0. -1.
</event>
<event>
 7    1  0.6462830E-013  0.5052886E+02  0.7816164E-02  0.1300439E+00
        -11   -1    0    0    0    0  0.00000000000E+00  0.00000000000E+00  0.45593999997E+02  0.45594000000E+02  0.51100000000E-03 0. -1.
         11   -1    0    0    0    0 -0.00000000000E+00 -0.00000000000E+00 -0.45593999997E+02  0.45594000000E+02  0.51100000000E-03 0.  1.
    9900012    2    1    2    0    0 -0.25860803350E+02  0.26440692828E+02  0.16890056485E+02  0.50528863324E+02  0.30000010560E+02 0.  0.
         12    1    1    2    0    0  0.25860803350E+02 -0.26440692828E+02 -0.16890056485E+02  0.40659136676E+02  0.00000000000E+00 0. -1.
         11    1    3    3    0    0  0.23333099892E+01  0.54613367887E+01  0.30086079676E+01  0.66574963154E+01  0.51100000000E-03 0. -1.
        -11    1    3    3    0    0 -0.23950901100E+02  0.60928514692E+01  0.28805531452E+01  0.24881038749E+02  0.51100000000E-03 0.  1.
         12    1    3    3    0    0 -0.42432122392E+01  0.14886504570E+02  0.11000895373E+02  0.18990328260E+02  0.00000000000E+00 0. -1.
</event>
<event>
 7    1  0.6462830E-013  0.5052886E+02  0.7816164E-02  0.1300439E+00
        -11   -1    0    0    0    0  0.00000000000E+00  0.00000000000E+00  0.45593999997E+02  0.45594000000E+02  0.51100000000E-03 0. -1.
         11   -1    0    0    0    0 -0.00000000000E+00 -0.00000000000E+00 -0.45593999997E+02  0.45594000000E+02  0.51100000000E-03 0.  1.
    9900012    2    1    2    0    0 -0.20385915608E+02 -0.10895111117E+02 -0.33449614452E+02  0.50528859473E+02  0.29999998854E+02 0.  0.
         12    1    1    2    0    0  0.20385915608E+02  0.10895111117E+02  0.33449614452E+02  0.40659140527E+02  0.00000000000E+00 0. -1.
         11    1    3    3    0    0 -0.45028063594E+00 -0.38567535120E+01  0.15543659804E+01  0.41825057281E+01  0.51100000000E-03 0. -1.
        -11    1    3    3    0    0 -0.18742856533E+02 -0.15607171218E+00 -0.11881963979E+02  0.22192343222E+02  0.51100000000E-03 0.  1.
         12    1    3    3    0    0 -0.11927784391E+01 -0.68822858926E+01 -0.23122016453E+02  0.24154010523E+02  0.00000000000E+00 0. -1.
</event>
<event>
 7    1  0.6462830E-013  0.5052886E+02  0.7816164E-02  0.1300439E+00
        -11   -1    0    0    0    0  0.00000000000E+00  0.00000000000E+00  0.45593999997E+02  0.45594000000E+02  0.51100000000E-03 0.  1.
         11   -1    0    0    0    0 -0.00000000000E+00 -0.00000000000E+00 -0.45593999997E+02  0.45594000000E+02  0.51100000000E-03 0. -1.
    9900012    2    1    2    0    0  0.19150575106E+02 -0.21763048532E+02  0.28509483095E+02  0.50528862839E+02  0.30000009087E+02 0.  0.
         12    1    1    2    0    0 -0.19150575106E+02  0.21763048532E+02 -0.28509483095E+02  0.40659137161E+02  0.00000000000E+00 0. -1.
         11    1    3    3    0    0  0.96173912526E+01  0.13289764749E+01 -0.23072554859E+01  0.99791693600E+01  0.51100000000E-03 0. -1.
        -11    1    3    3    0    0  0.97741218428E-01 -0.10042889322E+02  0.94137884380E+01  0.13765485545E+02  0.51100000000E-03 0.  1.
        -12    1    3    3    0    0  0.94354426346E+01 -0.13049135686E+02  0.21402950143E+02  0.26784207934E+02  0.00000000000E+00 0.  1.
</event>
<event>
 7    1  0.6462830E-013  0.5052887E+02  0.7816164E-02  0.1300439E+00
        -11   -1    0    0    0    0  0.00000000000E+00  0.00000000000E+00  0.45593999997E+02  0.45594000000E+02  0.51100000000E-03 0.  1.
         11   -1    0    0    0    0 -0.00000000000E+00 -0.00000000000E+00 -0.45593999997E+02  0.45594000000E+02  0.51100000000E-03 0. -1.
    9900012    2    1    2    0    0 -0.32434455166E+02 -0.86246860050E+01  0.22951813768E+02  0.50528870080E+02  0.30000031096E+02 0.  0.
         12    1    1    2    0    0  0.32434455166E+02  0.86246860050E+01 -0.22951813768E+02  0.40659129920E+02  0.00000000000E+00 0. -1.
         11    1    3    3    0    0 -0.18716550232E+02 -0.33664730409E+01  0.95615333704E+01  0.21285330958E+02  0.51100000000E-03 0.  1.
        -11    1    3    3    0    0 -0.10620543739E+02 -0.82784411827E+01 -0.16748274117E+01  0.13569583075E+02  0.51100000000E-03 0. -1.
         12    1    3    3    0    0 -0.30973611948E+01  0.30202282185E+01  0.15065107809E+02  0.15673956047E+02  0.00000000000E+00 0. -1.
</event>
<event>
 7    1  0.6462830E-013  0.5052886E+02  0.7816164E-02  0.1300439E+00
        -11   -1    0    0    0    0  0.00000000000E+00  0.00000000000E+00  0.45593999997E+02  0.45594000000E+02  0.51100000000E-03 0.  1.
         11   -1    0    0    0    0 -0.00000000000E+00 -0.00000000000E+00 -0.45593999997E+02  0.45594000000E+02  0.51100000000E-03 0. -1.
    9900012    2    1    2    0    0 -0.67699965328E+01  0.26960627728E+02  0.29672501891E+02  0.50528859957E+02  0.30000000326E+02 0.  0.
         12    1    1    2    0    0  0.67699965328E+01 -0.26960627728E+02 -0.29672501891E+02  0.40659140043E+02  0.00000000000E+00 0. -1.
         11    1    3    3    0    0  0.44697539043E+01  0.73482261085E+01 -0.14874199954E+01  0.87285477262E+01  0.51100000000E-03 0. -1.
        -11    1    3    3    0    0 -0.30723481210E+01  0.13487696878E+02  0.68551712969E+01  0.15438609517E+02  0.51100000000E-03 0.  1.
        -12    1    3    3    0    0 -0.81674023160E+01  0.61247047414E+01  0.24304750589E+02  0.26361702714E+02  0.00000000000E+00 0.  1.
</event>
<event>
 7    1  0.6462830E-013  0.5052894E+02  0.7816164E-02  0.1300439E+00
        -11   -1    0    0    0    0  0.00000000000E+00  0.00000000000E+00  0.45593999997E+02  0.45594000000E+02  0.51100000000E-03 0.  1.
         11   -1    0    0    0    0 -0.00000000000E+00 -0.00000000000E+00 -0.45593999997E+02  0.45594000000E+02  0.51100000000E-03 0. -1.
    9900012    2    1    2    0    0  0.36313326837E+02  0.67256730609E+01  0.17007839190E+02  0.50528942239E+02  0.30000250429E+02 0.  0.
         12    1    1    2    0    0 -0.36313326837E+02 -0.67256730609E+01 -0.17007839190E+02  0.40659057761E+02  0.00000000000E+00 0. -1.
         11    1    3    3    0    0 -0.22498822015E+01  0.19349272167E+01  0.16833029812E+00  0.29722463904E+01  0.51100000000E-03 0. -1.
        -11    1    3    3    0    0  0.18127815072E+02  0.12716433205E+02  0.52263282496E+01  0.22751700156E+02  0.51100000000E-03 0.  1.
        -12    1    3    3    0    0  0.20435393967E+02 -0.79256873608E+01  0.11613180642E+02  0.24804995693E+02  0.00000000000E+00 0.  1.
</event>
<event>
 7    1  0.6462830E-013  0.5052886E+02  0.7816164E-02  0.1300439E+00
        -11   -1    0    0    0    0  0.00000000000E+00  0.00000000000E+00  0.45593999997E+02  0.45594000000E+02  0.51100000000E-03 0.  1.
         11   -1    0    0    0    0 -0.00000000000E+00 -0.00000000000E+00 -0.45593999997E+02  0.45594000000E+02  0.51100000000E-03 0. -1.
    9900012    2    1    2    0    0  0.33856004728E+02  0.16715625968E+02 -0.15083924475E+02  0.50528856069E+02  0.29999988507E+02 0.  0.
         12    1    1    2    0    0 -0.33856004728E+02 -0.16715625968E+02  0.15083924475E+02  0.40659143931E+02  0.00000000000E+00 0. -1.
         11    1    3    3    0    0  0.11900781076E+02  0.38702550576E+01  0.31682252228E+01  0.12909109797E+02  0.51100000000E-03 0. -1.
        -11    1    3    3    0    0  0.20046592469E+02  0.15333070759E+02 -0.73662388086E+01  0.26291260962E+02  0.51100000000E-03 0.  1.
         12    1    3    3    0    0  0.19086311833E+01 -0.24876998484E+01 -0.10885910889E+02  0.11328485310E+02  0.00000000000E+00 0. -1.
</event>
<event>
 7    1  0.6462830E-013  0.5052888E+02  0.7816164E-02  0.1300439E+00
        -11   -1    0    0    0    0  0.00000000000E+00  0.00000000000E+00  0.45593999997E+02  0.45594000000E+02  0.51100000000E-03 0.  1.
         11   -1    0    0    0    0 -0.00000000000E+00 -0.00000000000E+00 -0.45593999997E+02  0.45594000000E+02  0.51100000000E-03 0. -1.
    9900012    2    1    2    0    0  0.23461055025E+02 -0.74707152284E+01  0.32356322107E+02  0.50528877171E+02  0.30000052649E+02 0.  0.
         12    1    1    2    0    0 -0.23461055025E+02  0.74707152284E+01 -0.32356322107E+02  0.40659122829E+02  0.00000000000E+00 0. -1.
         11    1    3    3    0    0  0.16349387099E+02 -0.13993479596E+01  0.11156035695E+02  0.19842322594E+02  0.51100000000E-03 0. -1.
        -11    1    3    3    0    0  0.37690760228E+01  0.72094614248E+01  0.53375490359E+01  0.97299382358E+01  0.51100000000E-03 0.  1.
        -12    1    3    3    0    0  0.33425919032E+01 -0.13280828694E+02  0.15862737377E+02  0.20956616342E+02  0.00000000000E+00 0.  1.
</event>
<event>
 7    1  0.6462830E-013  0.5052886E+02  0.7816164E-02  0.1300439E+00
        -11   -1    0    0    0    0  0.00000000000E+00  0.00000000000E+00  0.45593999997E+02  0.45594000000E+02  0.51100000000E-03 0. -1.
         11   -1    0    0    0    0 -0.00000000000E+00 -0.00000000000E+00 -0.45593999997E+02  0.45594000000E+02  0.51100000000E-03 0.  1.
    9900012    2    1    2    0    0 -0.36510216209E+02  0.15082884800E+02 -0.96268614208E+01  0.50528858809E+02  0.29999996837E+02 0.  0.
         12    1    1    2    0    0  0.36510216209E+02 -0.15082884800E+02  0.96268614208E+01  0.40659141191E+02  0.00000000000E+00 0. -1.
         11    1    3    3    0    0 -0.62901844770E+01  0.11995534827E+02 -0.68524579522E+00  0.13562036668E+02  0.51100000000E-03 0. -1.
        -11    1    3    3    0    0 -0.12231392530E+02 -0.52047807676E+01 -0.10723577437E+02  0.17078987656E+02  0.51100000000E-03 0.  1.
         12    1    3    3    0    0 -0.17988639203E+02  0.82921307412E+01  0.17819618118E+01  0.19887834485E+02  0.00000000000E+00 0. -1.
</event>
<event>
 7    1  0.6462830E-013  0.5052886E+02  0.7816164E-02  0.1300439E+00
        -11   -1    0    0    0    0  0.00000000000E+00  0.00000000000E+00  0.45593999997E+02  0.45594000000E+02  0.51100000000E-03 0.  1.
         11   -1    0    0    0    0 -0.00000000000E+00 -0.00000000000E+00 -0.45593999997E+02  0.45594000000E+02  0.51100000000E-03 0. -1.
    9900012    2    1    2    0    0  0.16620620574E+02 -0.24817135502E+02  0.27586779682E+02  0.50528860117E+02  0.30000000813E+02 0.  0.
         12    1    1    2    0    0 -0.16620620574E+02  0.24817135502E+02 -0.27586779682E+02  0.40659139883E+02  0.00000000000E+00 0. -1.
         11    1    3    3    0    0  0.59094036253E+01 -0.12619235759E+01 -0.22798124390E+00  0.60469395587E+01  0.51100000000E-03 0. -1.
        -11    1    3    3    0    0  0.59154590948E+01  0.21001393824E+01  0.13084505243E+02  0.14512323020E+02  0.51100000000E-03 0.  1.
        -12    1    3    3    0    0  0.47957578537E+01 -0.25655351308E+02  0.14730255684E+02  0.29969597539E+02  0.00000000000E+00 0.  1.
</event>
<event>
 7    1  0.6462830E-013  0.5052886E+02  0.7816164E-02  0.1300439E+00
        -11   -1    0    0    0    0  0.00000000000E+00  0.00000000000E+00  0.45593999997E+02  0.45594000000E+02  0.51100000000E-03 0. -1.
         11   -1    0    0    0    0 -0.00000000000E+00 -0.00000000000E+00 -0.45593999997E+02  0.45594000000E+02  0.51100000000E-03 0.  1.
    9900012    2    1    2    0    0 -0.18362853420E+02 -0.34431663770E+01 -0.36112541503E+02  0.50528862845E+02  0.30000009103E+02 0.  0.
         12    1    1    2    0    0  0.18362853420E+02  0.34431663770E+01  0.36112541503E+02  0.40659137155E+02  0.00000000000E+00 0. -1.
         11    1    3    3    0    0 -0.40075228806E+01 -0.24230205088E+01  0.14995331989E+01  0.49173029295E+01  0.51100000000E-03 0. -1.
        -11    1    3    3    0    0 -0.16309540309E+02  0.63916951483E+01 -0.21222813074E+02  0.27518405968E+02  0.51100000000E-03 0.  1.
         12    1    3    3    0    0  0.19542097698E+01 -0.74118410164E+01 -0.16389261628E+02  0.18093153948E+02  0.00000000000E+00 0. -1.
</event>
<event>
 7    1  0.6462830E-013  0.5052886E+02  0.7816164E-02  0.1300439E+00
        -11   -1    0    0    0    0  0.00000000000E+00  0.00000000000E+00  0.45593999997E+02  0.45594000000E+02  0.51100000000E-03 0.  1.
         11   -1    0    0    0    0 -0.00000000000E+00 -0.00000000000E+00 -0.45593999997E+02  0.45594000000E+02  0.51100000000E-03 0. -1.
    9900012    2    1    2    0    0  0.20283570131E+02 -0.15926895823E+02  0.31433686513E+02  0.50528857417E+02  0.29999992605E+02 0.  0.
         12    1    1    2    0    0 -0.20283570131E+02  0.15926895823E+02 -0.31433686513E+02  0.40659142583E+02  0.00000000000E+00 0. -1.
         11    1    3    3    0    0  0.42422726960E+01  0.66559897405E+01  0.65732537763E+01  0.10271647508E+02  0.51100000000E-03 0. -1.
        -11    1    3    3    0    0  0.29549165522E+01 -0.49193509042E+01 -0.15019225814E+01  0.59318898212E+01  0.51100000000E-03 0.  1.
        -12    1    3    3    0    0  0.13086380883E+02 -0.17663534659E+02  0.26362355318E+02  0.34325320088E+02  0.00000000000E+00 0.  1.
</event>
<event>
 7    1  0.6462830E-013  0.5052886E+02  0.7816164E-02  0.1300439E+00
        -11   -1    0    0    0    0  0.00000000000E+00  0.00000000000E+00  0.45593999997E+02  0.45594000000E+02  0.51100000000E-03 0.  1.
         11   -1    0    0    0    0 -0.00000000000E+00 -0.00000000000E+00 -0.45593999997E+02  0.45594000000E+02  0.51100000000E-03 0. -1.
    9900012    2    1    2    0    0  0.24629878270E+02  0.19380971450E+02  0.25901988918E+02  0.50528856036E+02  0.29999988408E+02 0.  0.
         12    1    1    2    0    0 -0.24629878270E+02 -0.19380971450E+02 -0.25901988918E+02  0.40659143964E+02  0.00000000000E+00 0. -1.
         11    1    3    3    0    0  0.22849780898E+00  0.10269757095E+02  0.78638053539E+01  0.12936752179E+02  0.51100000000E-03 0. -1.
        -11    1    3    3    0    0  0.16735811825E+02  0.15581939246E+02  0.11288872351E+02  0.25501428731E+02  0.51100000000E-03 0.  1.
        -12    1    3    3    0    0  0.76655686365E+01 -0.64707248916E+01  0.67493112135E+01  0.12090675126E+02  0.00000000000E+00 0.  1.
</event>
<event>
 7    1  0.6462830E-013  0.5052890E+02  0.7816164E-02  0.1300439E+00
        -11   -1    0    0    0    0  0.00000000000E+00  0.00000000000E+00  0.45593999997E+02  0.45594000000E+02  0.51100000000E-03 0.  1.
         11   -1    0    0    0    0 -0.00000000000E+00 -0.00000000000E+00 -0.45593999997E+02  0.45594000000E+02  0.51100000000E-03 0. -1.
    9900012    2    1    2    0    0  0.33064864932E+02  0.13282440029E+02  0.19581984412E+02  0.50528897457E+02  0.30000114311E+02 0.  0.
         12    1    1    2    0    0 -0.33064864932E+02 -0.13282440029E+02 -0.19581984412E+02  0.40659102543E+02  0.00000000000E+00 0. -1.
         11    1    3    3    0    0  0.20257722293E+00  0.24330539599E+01  0.57689801680E+01  0.62643372789E+01  0.51100000000E-03 0. -1.
        -11    1    3    3    0    0  0.28749870054E+02  0.14281215287E+02  0.18582972876E+02  0.37092250125E+02  0.51100000000E-03 0.  1.
        -12    1    3    3    0    0  0.41124176546E+01 -0.34318292178E+01 -0.47699686321E+01  0.71723100530E+01  0.00000000000E+00 0.  1.
</event>
<event>
 7    1  0.6462830E-013  0.5052886E+02  0.7816164E-02  0.1300439E+00
        -11   -1    0    0    0    0  0.00000000000E+00  0.00000000000E+00  0.45593999997E+02  0.45594000000E+02  0.51100000000E-03 0.  1.
         11   -1    0    0    0    0 -0.00000000000E+00 -0.00000000000E+00 -0.45593999997E+02  0.45594000000E+02  0.51100000000E-03 0. -1.
    9900012    2    1    2    0    0  0.35665590959E+02 -0.13984374506E+02 -0.13622362308E+02  0.50528857564E+02  0.29999993052E+02 0.  0.
         12    1    1    2    0    0 -0.35665590959E+02  0.13984374506E+02  0.13622362308E+02  0.40659142436E+02  0.00000000000E+00 0. -1.
         11    1    3    3    0    0  0.16036006785E+02 -0.64772677278E+01 -0.65673938886E+01  0.18499707392E+02  0.51100000000E-03 0. -1.
        -11    1    3    3    0    0  0.16120000576E+02 -0.12521843167E+02  0.26211211528E+01  0.20579631951E+02  0.51100000000E-03 0.  1.
         12    1    3    3    0    0  0.35095835976E+01  0.50147363893E+01 -0.96760895724E+01  0.11449518221E+02  0.00000000000E+00 0. -1.
</event>
<event>
 7    1  0.6462830E-013  0.5052887E+02  0.7816164E-02  0.1300439E+00
        -11   -1    0    0    0    0  0.00000000000E+00  0.00000000000E+00  0.45593999997E+02  0.45594000000E+02  0.51100000000E-03 0.  1.
         11   -1    0    0    0    0 -0.00000000000E+00 -0.00000000000E+00 -0.45593999997E+02  0.45594000000E+02  0.51100000000E-03 0. -1.
    9900012    2    1    2    0    0 -0.45313732516E+01  0.23919904823E+02  0.32564858502E+02  0.50528865731E+02  0.30000017876E+02 0.  0.
         12    1    1    2    0    0  0.45313732516E+01 -0.23919904823E+02 -0.32564858502E+02  0.40659134269E+02  0.00000000000E+00 0. -1.
         11    1    3    3    0    0 -0.24167157124E+01 -0.35728159397E+01  0.86029774346E+01  0.96237596382E+01  0.51100000000E-03 0. -1.
        -11    1    3    3    0    0 -0.94141802103E+01  0.86246424891E+01  0.11212139673E+02  0.16991860504E+02  0.51100000000E-03 0.  1.
         12    1    3    3    0    0  0.72995226710E+01  0.18868078273E+02  0.12749741394E+02  0.23913245588E+02  0.00000000000E+00 0. -1.
</event>
<event>
 7    1  0.6462830E-013  0.5052885E+02  0.7816164E-02  0.1300439E+00
        -11   -1    0    0    0    0  0.00000000000E+00  0.00000000000E+00  0.45593999997E+02  0.45594000000E+02  0.51100000000E-03 0.  1.
         11   -1    0    0    0    0 -0.00000000000E+00 -0.00000000000E+00 -0.45593999997E+02  0.45594000000E+02  0.51100000000E-03 0. -1.
    9900012    2    1    2    0    0 -0.32717972455E+02  0.21360753258E+02  0.11243605208E+02  0.50528853927E+02  0.29999981996E+02 0.  0.
         12    1    1    2    0    0  0.32717972455E+02 -0.21360753258E+02 -0.11243605208E+02  0.40659146073E+02  0.00000000000E+00 0. -1.
         11    1    3    3    0    0 -0.20941521219E+01  0.34354443571E+01  0.42962240136E+01  0.58860251509E+01  0.51100000000E-03 0. -1.
        -11    1    3    3    0    0 -0.31796078240E+02  0.98184461803E+01  0.11577089101E+02  0.35233811448E+02  0.51100000000E-03 0.  1.
        -12    1    3    3    0    0  0.11722579067E+01  0.81068627208E+01 -0.46297079070E+01  0.94090173280E+01  0.00000000000E+00 0.  1.
</event>
<event>
 7    1  0.6462830E-013  0.5052887E+02  0.7816164E-02  0.1300439E+00
        -11   -1    0    0    0    0  0.00000000000E+00  0.00000000000E+00  0.45593999997E+02  0.45594000000E+02  0.51100000000E-03 0.  1.
         11   -1    0    0    0    0 -0.00000000000E+00 -0.00000000000E+00 -0.45593999997E+02  0.45594000000E+02  0.51100000000E-03 0. -1.
    9900012    2    1    2    0    0  0.16177696314E+02  0.34910248654E+02  0.13142355738E+02  0.50528870232E+02  0.30000031557E+02 0.  0.
         12    1    1    2    0    0 -0.16177696314E+02 -0.34910248654E+02 -0.13142355738E+02  0.40659129768E+02  0.00000000000E+00 0. -1.
         11    1    3    3    0    0  0.80054055580E+01 -0.14551706018E+01  0.10963054090E+01  0.82101111709E+01  0.51100000000E-03 0. -1.
        -11    1    3    3    0    0  0.10066492854E+02  0.15485956300E+02  0.70730323794E+00  0.18483760414E+02  0.51100000000E-03 0.  1.
         12    1    3    3    0    0 -0.18942020975E+01  0.20879462956E+02  0.11338747091E+02  0.23834998647E+02  0.00000000000E+00 0. -1.
</event>
<event>
 7    1  0.6462830E-013  0.5052886E+02  0.7816164E-02  0.1300439E+00
        -11   -1    0    0    0    0  0.00000000000E+00  0.00000000000E+00  0.45593999997E+02  0.45594000000E+02  0.51100000000E-03 0.  1.
         11   -1    0    0    0    0 -0.00000000000E+00 -0.00000000000E+00 -0.45593999997E+02  0.45594000000E+02  0.51100000000E-03 0. -1.
    9900012    2    1    2    0    0  0.25673393723E+02  0.66694327728E+01  0.30814955684E+02  0.50528856225E+02  0.29999988981E+02 0.  0.
         12    1    1    2    0    0 -0.25673393723E+02 -0.66694327728E+01 -0.30814955684E+02  0.40659143775E+02  0.00000000000E+00 0. -1.
         11    1    3    3    0    0  0.45848585324E+01 -0.47651843771E+01 -0.12584446907E+01  0.67313886540E+01  0.51100000000E-03 0. -1.
        -11    1    3    3    0    0  0.23936142921E+01  0.31233790354E+01  0.19258127689E+02  0.19656051697E+02  0.51100000000E-03 0.  1.
         12    1    3    3    0    0  0.18694920898E+02  0.83112381145E+01  0.12815272685E+02  0.24141415873E+02  0.00000000000E+00 0. -1.
</event>
<event>
 7    1  0.6462830E-013  0.5052886E+02  0.7816164E-02  0.1300439E+00
        -11   -1    0    0    0    0  0.00000000000E+00  0.00000000000E+00  0.45593999997E+02  0.45594000000E+02  0.51100000000E-03 0. -1.
         11   -1    0    0    0    0 -0.00000000000E+00 -0.00000000000E+00 -0.45593999997E+02  0.45594000000E+02  0.51100000000E-03 0.  1.
    9900012    2    1    2    0    0 -0.73088364868E+01 -0.19650953868E+02 -0.34836570429E+02  0.50528859355E+02  0.29999998496E+02 0.  0.
         12    1    1    2    0    0  0.73088364868E+01  0.19650953868E+02  0.34836570429E+02  0.40659140645E+02  0.00000000000E+00 0. -1.
         11    1    3    3    0    0 -0.72875141661E+01  0.28856031664E+01 -0.14378011206E+02  0.16375645784E+02  0.51100000000E-03 0.  1.
        -11    1    3    3    0    0  0.12598084034E+01 -0.72217416953E+01  0.13695992644E+01  0.74576452539E+01  0.51100000000E-03 0. -1.
         12    1    3    3    0    0 -0.12811307240E+01 -0.15314815339E+02 -0.21828158488E+02  0.26695568317E+02  0.00000000000E+00 0. -1.
</event>
<event>
 7    1  0.6462830E-013  0.5052886E+02  0.7816164E-02  0.1300439E+00
        -11   -1    0    0    0    0  0.00000000000E+00  0.00000000000E+00  0.45593999997E+02  0.45594000000E+02  0.51100000000E-03 0.  1.
         11   -1    0    0    0    0 -0.00000000000E+00 -0.00000000000E+00 -0.45593999997E+02  0.45594000000E+02  0.51100000000E-03 0. -1.
    9900012    2    1    2    0    0  0.10075073563E+02  0.39373625459E+02  0.11730244543E+01  0.50528862337E+02  0.30000007561E+02 0.  0.
         12    1    1    2    0    0 -0.10075073563E+02 -0.39373625459E+02 -0.11730244543E+01  0.40659137663E+02  0.00000000000E+00 0. -1.
         11    1    3    3    0    0  0.15559290385E+02  0.10556178605E+02  0.34007136699E+01  0.19107309537E+02  0.51100000000E-03 0. -1.
        -11    1    3    3    0    0 -0.35754427045E+01  0.45013553104E+01  0.29887335041E+01  0.64790831437E+01  0.51100000000E-03 0.  1.
        -12    1    3    3    0    0 -0.19087741168E+01  0.24316091544E+02 -0.52164227197E+01  0.24942469657E+02  0.00000000000E+00 0.  1.
</event>
<event>
 7    1  0.6462830E-013  0.5052886E+02  0.7816164E-02  0.1300439E+00
        -11   -1    0    0    0    0  0.00000000000E+00  0.00000000000E+00  0.45593999997E+02  0.45594000000E+02  0.51100000000E-03 0. -1.
         11   -1    0    0    0    0 -0.00000000000E+00 -0.00000000000E+00 -0.45593999997E+02  0.45594000000E+02  0.51100000000E-03 0.  1.
    9900012    2    1    2    0    0 -0.90258331855E+01  0.49424603925E+01 -0.39335380566E+02  0.50528859039E+02  0.29999997534E+02 0.  0.
         12    1    1    2    0    0  0.90258331855E+01 -0.49424603925E+01  0.39335380566E+02  0.40659140961E+02  0.00000000000E+00 0. -1.
         11    1    3    3    0    0  0.39941551281E+01  0.97652518859E+01 -0.72305598303E+01  0.12790403250E+02  0.51100000000E-03 0. -1.
        -11    1    3    3    0    0 -0.21390142780E+01  0.21504002699E+01  0.10265107878E+00  0.30348213963E+01  0.51100000000E-03 0.  1.
         12    1    3    3    0    0 -0.10880974036E+02 -0.69731917633E+01 -0.32207471815E+02  0.34703634392E+02  0.00000000000E+00 0. -1.
</event>
<event>
 7    1  0.6462830E-013  0.5052886E+02  0.7816164E-02  0.1300439E+00
        -11   -1    0    0    0    0  0.00000000000E+00  0.00000000000E+00  0.45593999997E+02  0.45594000000E+02  0.51100000000E-03 0.  1.
         11   -1    0    0    0    0 -0.00000000000E+00 -0.00000000000E+00 -0.45593999997E+02  0.45594000000E+02  0.51100000000E-03 0. -1.
    9900012    2    1    2    0    0  0.35090828492E+02  0.20452202621E+02  0.18725941854E+01  0.50528862709E+02  0.30000008690E+02 0.  0.
         12    1    1    2    0    0 -0.35090828492E+02 -0.20452202621E+02 -0.18725941854E+01  0.40659137291E+02  0.00000000000E+00 0. -1.
         11    1    3    3    0    0  0.11388299510E+02  0.11915919009E+02 -0.46766507409E+01  0.17133404623E+02  0.51100000000E-03 0. -1.
        -11    1    3    3    0    0 -0.19228571369E+01 -0.38222215747E+01  0.12374976031E+01  0.44540047052E+01  0.51100000000E-03 0.  1.
         12    1    3    3    0    0  0.25625386119E+02  0.12358505186E+02  0.53117473232E+01  0.28941453381E+02  0.00000000000E+00 0. -1.
</event>
<event>
 7    1  0.6462830E-013  0.5052886E+02  0.7816164E-02  0.1300439E+00
        -11   -1    0    0    0    0  0.00000000000E+00  0.00000000000E+00  0.45593999997E+02  0.45594000000E+02  0.51100000000E-03 0.  1.
         11   -1    0    0    0    0 -0.00000000000E+00 -0.00000000000E+00 -0.45593999997E+02  0.45594000000E+02  0.51100000000E-03 0. -1.
    9900012    2    1    2    0    0 -0.23994124278E+02  0.32123431209E+02  0.67478097052E+01  0.50528858736E+02  0.29999996614E+02 0.  0.
         12    1    1    2    0    0  0.23994124278E+02 -0.32123431209E+02 -0.67478097052E+01  0.40659141264E+02  0.00000000000E+00 0. -1.
         11    1    3    3    0    0 -0.59896354704E+01 -0.16723659335E+01  0.95096209194E+01  0.11362457092E+02  0.51100000000E-03 0. -1.
        -11    1    3    3    0    0 -0.13168632669E+02  0.16507907193E+02 -0.13952360838E+01  0.21162952777E+02  0.51100000000E-03 0.  1.
        -12    1    3    3    0    0 -0.48358561383E+01  0.17287889949E+02 -0.13665751305E+01  0.18003448866E+02  0.00000000000E+00 0.  1.
</event>
<event>
 7    1  0.6462830E-013  0.5052878E+02  0.7816164E-02  0.1300439E+00
        -11   -1    0    0    0    0  0.00000000000E+00  0.00000000000E+00  0.45593999997E+02  0.45594000000E+02  0.51100000000E-03 0. -1.
         11   -1    0    0    0    0 -0.00000000000E+00 -0.00000000000E+00 -0.45593999997E+02  0.45594000000E+02  0.51100000000E-03 0.  1.
    9900012    2    1    2    0    0  0.22263971628E+02  0.24552957260E+02 -0.23550804214E+02  0.50528775684E+02  0.29999744169E+02 0.  0.
         12    1    1    2    0    0 -0.22263971628E+02 -0.24552957260E+02  0.23550804214E+02  0.40659224316E+02  0.00000000000E+00 0. -1.
         11    1    3    3    0    0  0.32885079646E+00 -0.15312989792E+01  0.96035555602E+00  0.18371996258E+01  0.51100000000E-03 0. -1.
        -11    1    3    3    0    0  0.89379867275E+01  0.74283749219E+01 -0.23162538795E+02  0.25914697845E+02  0.51100000000E-03 0.  1.
        -12    1    3    3    0    0  0.12997134104E+02  0.18655881317E+02 -0.13486209750E+01  0.22776878214E+02  0.00000000000E+00 0.  1.
</event>
<event>
 7    1  0.6462830E-013  0.5052888E+02  0.7816164E-02  0.1300439E+00
        -11   -1    0    0    0    0  0.00000000000E+00  0.00000000000E+00  0.45593999997E+02  0.45594000000E+02  0.51100000000E-03 0. -1.
         11   -1    0    0    0    0 -0.00000000000E+00 -0.00000000000E+00 -0.45593999997E+02  0.45594000000E+02  0.51100000000E-03 0.  1.
    9900012    2    1    2    0    0  0.15662123280E+02  0.33131224125E+02  0.17612037907E+02  0.50528880520E+02  0.30000062827E+02 0.  0.
         12    1    1    2    0    0 -0.15662123280E+02 -0.33131224125E+02 -0.17612037907E+02  0.40659119480E+02  0.00000000000E+00 0. -1.
         11    1    3    3    0    0  0.36378666902E+00  0.15119704853E+02  0.89039209164E+01  0.17550430865E+02  0.51100000000E-03 0. -1.
        -11    1    3    3    0    0  0.20006832172E+01  0.20942960984E+01 -0.65950536616E+01  0.72030231531E+01  0.51100000000E-03 0.  1.
         12    1    3    3    0    0  0.13297653394E+02  0.15917223174E+02  0.15303170652E+02  0.25775426502E+02  0.00000000000E+00 0. -1.
</event>
<event>
 7    1  0.6462830E-013  0.5052886E+02  0.7816164E-02  0.1300439E+00
        -11   -1    0    0    0    0  0.00000000000E+00  0.00000000000E+00  0.45593999997E+02  0.45594000000E+02  0.51100000000E-03 0.  1.
         11   -1    0    0    0    0 -0.00000000000E+00 -0.00000000000E+00 -0.45593999997E+02  0.45594000000E+02  0.51100000000E-03 0. -1.
    9900012    2    1    2    0    0  0.37573828673E+02 -0.15474056769E+02  0.13880101286E+01  0.50528860730E+02  0.30000002674E+02 0.  0.
         12    1    1    2    0    0 -0.37573828673E+02  0.15474056769E+02 -0.13880101286E+01  0.40659139270E+02  0.00000000000E+00 0. -1.
         11    1    3    3    0    0  0.81356598127E+01  0.13577204259E+01 -0.56392785846E+01  0.99916879734E+01  0.51100000000E-03 0. -1.
        -11    1    3    3    0    0  0.20521381345E+02 -0.30240991684E+01  0.11207840622E+02  0.23577276343E+02  0.51100000000E-03 0.  1.
        -12    1    3    3    0    0  0.89167875161E+01 -0.13807678027E+02 -0.41805519088E+01  0.16959896414E+02  0.00000000000E+00 0.  1.
</event>
<event>
 7    1  0.6462830E-013  0.5052886E+02  0.7816164E-02  0.1300439E+00
        -11   -1    0    0    0    0  0.00000000000E+00  0.00000000000E+00  0.45593999997E+02  0.45594000000E+02  0.51100000000E-03 0.  1.
         11   -1    0    0    0    0 -0.00000000000E+00 -0.00000000000E+00 -0.45593999997E+02  0.45594000000E+02  0.51100000000E-03 0. -1.
    9900012    2    1    2    0    0 -0.34499809770E+02 -0.10621156027E+01  0.21489556753E+02  0.50528855725E+02  0.29999987462E+02 0.  0.
         12    1    1    2    0    0  0.34499809770E+02  0.10621156027E+01 -0.21489556753E+02  0.40659144275E+02  0.00000000000E+00 0. -1.
         11    1    3    3    0    0 -0.24436707352E+01 -0.16276254504E+01 -0.13886601345E+01  0.32479329579E+01  0.51100000000E-03 0. -1.
        -11    1    3    3    0    0 -0.34353600438E+02  0.44014623529E+01  0.14032152556E+02  0.37369025135E+02  0.51100000000E-03 0.  1.
        -12    1    3    3    0    0  0.22974614033E+01 -0.38359525052E+01  0.88460643315E+01  0.99118976326E+01  0.00000000000E+00 0.  1.
</event>
<event>
 7    1  0.6462830E-013  0.5052884E+02  0.7816164E-02  0.1300439E+00
        -11   -1    0    0    0    0  0.00000000000E+00  0.00000000000E+00  0.45593999997E+02  0.45594000000E+02  0.51100000000E-03 0. -1.
         11   -1    0    0    0    0 -0.00000000000E+00 -0.00000000000E+00 -0.45593999997E+02  0.45594000000E+02  0.51100000000E-03 0.  1.
    9900012    2    1    2    0    0  0.21576373351E+02 -0.34269149502E+02 -0.36404529893E+01  0.50528838763E+02  0.29999935902E+02 0.  0.
         12    1    1    2    0    0 -0.21576373351E+02  0.34269149502E+02  0.36404529893E+01  0.40659161237E+02  0.00000000000E+00 0. -1.
         11    1    3    3    0    0  0.57136585483E+01 -0.15725178316E+02  0.67405746797E+01  0.18037806806E+02  0.51100000000E-03 0. -1.
        -11    1    3    3    0    0  0.17106688182E+02 -0.21550815847E+02 -0.89270270876E+01  0.28926946902E+02  0.51100000000E-03 0.  1.
        -12    1    3    3    0    0 -0.12439733787E+01  0.30068446613E+01 -0.14540005814E+01  0.35640850544E+01  0.00000000000E+00 0.  1.
</event>
<event>
 7    1  0.6462830E-013  0.5052886E+02  0.7816164E-02  0.1300439E+00
        -11   -1    0    0    0    0  0.00000000000E+00  0.00000000000E+00  0.45593999997E+02  0.45594000000E+02  0.51100000000E-03 0.  1.
         11   -1    0    0    0    0 -0.00000000000E+00 -0.00000000000E+00 -0.45593999997E+02  0.45594000000E+02  0.51100000000E-03 0. -1.
    9900012    2    1    2    0    0  0.21815128860E+02 -0.32820926062E+02  0.10002629761E+02  0.50528860353E+02  0.30000001528E+02 0.  0.
         12    1    1    2    0    0 -0.21815128860E+02  0.32820926062E+02 -0.10002629761E+02  0.40659139647E+02  0.00000000000E+00 0. -1.
         11    1    3    3    0    0  0.94611449178E+01 -0.16736183571E+02  0.10397216843E+02  0.21856697417E+02  0.51100000000E-03 0.  1.
        -11    1    3    3    0    0  0.22635154754E+01  0.38326935993E+01 -0.40851026616E+01  0.60416145649E+01  0.51100000000E-03 0. -1.
         12    1    3    3    0    0  0.10090468466E+02 -0.19917436091E+02  0.36905155798E+01  0.22630548370E+02  0.00000000000E+00 0. -1.
</event>
<event>
 7    1  0.6462830E-013  0.5052885E+02  0.7816164E-02  0.1300439E+00
        -11   -1    0    0    0    0  0.00000000000E+00  0.00000000000E+00  0.45593999997E+02  0.45594000000E+02  0.51100000000E-03 0.  1.
         11   -1    0    0    0    0 -0.00000000000E+00 -0.00000000000E+00 -0.45593999997E+02  0.45594000000E+02  0.51100000000E-03 0. -1.
    9900012    2    1    2    0    0  0.25819172466E+02  0.29716454178E+02  0.10171972589E+02  0.50528851680E+02  0.29999975167E+02 0.  0.
         12    1    1    2    0    0 -0.25819172466E+02 -0.29716454178E+02 -0.10171972589E+02  0.40659148320E+02  0.00000000000E+00 0. -1.
         11    1    3    3    0    0  0.16728507538E+02  0.21702808001E+02 -0.40106880387E+00  0.27404665588E+02  0.51100000000E-03 0. -1.
        -11    1    3    3    0    0  0.12876473111E+02  0.95841978525E+01  0.10177781962E+02  0.19006516098E+02  0.51100000000E-03 0.  1.
         12    1    3    3    0    0 -0.37858081825E+01 -0.15705516758E+01  0.39525943139E+00  0.41176699939E+01  0.00000000000E+00 0. -1.
</event>
<event>
 7    1  0.6462830E-013  0.5052885E+02  0.7816164E-02  0.1300439E+00
        -11   -1    0    0    0    0  0.00000000000E+00  0.00000000000E+00  0.45593999997E+02  0.45594000000E+02  0.51100000000E-03 0.  1.
         11   -1    0    0    0    0 -0.00000000000E+00 -0.00000000000E+00 -0.45593999997E+02  0.45594000000E+02  0.51100000000E-03 0. -1.
    9900012    2    1    2    0    0  0.14641052209E+02  0.14640456736E+02  0.34992327128E+02  0.50528851693E+02  0.29999975205E+02 0.  0.
         12    1    1    2    0    0 -0.14641052209E+02 -0.14640456736E+02 -0.34992327128E+02  0.40659148307E+02  0.00000000000E+00 0. -1.
         11    1    3    3    0    0  0.10728380647E+02  0.20818394186E+02  0.24673766888E+02  0.34019089649E+02  0.51100000000E-03 0.  1.
        -11    1    3    3    0    0  0.30960444749E+01  0.12880081827E+01 -0.44736048872E+00  0.33829850927E+01  0.51100000000E-03 0. -1.
        -12    1    3    3    0    0  0.81662708647E+00 -0.74659456329E+01  0.10765920729E+02  0.13126776951E+02  0.00000000000E+00 0.  1.
</event>
<event>
 7    1  0.6462830E-013  0.5052887E+02  0.7816164E-02  0.1300439E+00
        -11   -1    0    0    0    0  0.00000000000E+00  0.00000000000E+00  0.45593999997E+02  0.45594000000E+02  0.51100000000E-03 0.  1.
         11   -1    0    0    0    0 -0.00000000000E+00 -0.00000000000E+00 -0.45593999997E+02  0.45594000000E+02  0.51100000000E-03 0. -1.
    9900012    2    1    2    0    0  0.34243355091E+02  0.21397983339E+02 -0.47627178215E+01  0.50528873842E+02  0.30000042531E+02 0.  0.
         12    1    1    2    0    0 -0.34243355091E+02 -0.21397983339E+02  0.47627178215E+01  0.40659126158E+02  0.00000000000E+00 0. -1.
         11    1    3    3    0    0  0.11616786897E+02  0.31614454108E+01  0.62226529949E+01  0.13552338745E+02  0.51100000000E-03 0. -1.
        -11    1    3    3    0    0  0.26295714006E+01  0.99183085235E+01  0.35898282886E+01  0.10870802966E+02  0.51100000000E-03 0.  1.
         12    1    3    3    0    0  0.19996996793E+02  0.83182294051E+01 -0.14575199105E+02  0.26105732132E+02  0.00000000000E+00 0. -1.
</event>
<event>
 7    1  0.6462830E-013  0.5052885E+02  0.7816164E-02  0.1300439E+00
        -11   -1    0    0    0    0  0.00000000000E+00  0.00000000000E+00  0.45593999997E+02  0.45594000000E+02  0.51100000000E-03 0.  1.
         11   -1    0    0    0    0 -0.00000000000E+00 -0.00000000000E+00 -0.45593999997E+02  0.45594000000E+02  0.51100000000E-03 0. -1.
    9900012    2    1    2    0    0 -0.68242427008E+01 -0.39695952647E+02 -0.55522713575E+01  0.50528847743E+02  0.29999963200E+02 0.  0.
         12    1    1    2    0    0  0.68242427008E+01  0.39695952647E+02  0.55522713575E+01  0.40659152257E+02  0.00000000000E+00 0. -1.
         11    1    3    3    0    0 -0.25915662903E+01 -0.11326543961E+02 -0.44909671623E+01  0.12456949877E+02  0.51100000000E-03 0. -1.
        -11    1    3    3    0    0 -0.10110216616E+02 -0.26520058415E+02 -0.72976572087E+01  0.29305046994E+02  0.51100000000E-03 0.  1.
         12    1    3    3    0    0  0.58775402055E+01 -0.18493502718E+01  0.62363530135E+01  0.87668508716E+01  0.00000000000E+00 0. -1.
</event>
<event>
 7    1  0.6462830E-013  0.5052886E+02  0.7816164E-02  0.1300439E+00
        -11   -1    0    0    0    0  0.00000000000E+00  0.00000000000E+00  0.45593999997E+02  0.45594000000E+02  0.51100000000E-03 0.  1.
         11   -1    0    0    0    0 -0.00000000000E+00 -0.00000000000E+00 -0.45593999997E+02  0.45594000000E+02  0.51100000000E-03 0. -1.
    9900012    2    1    2    0    0  0.36047013132E+02 -0.17730986634E+02  0.62761878397E+01  0.50528861095E+02  0.30000003783E+02 0.  0.
         12    1    1    2    0    0 -0.36047013132E+02  0.17730986634E+02 -0.62761878397E+01  0.40659138905E+02  0.00000000000E+00 0. -1.
         11    1    3    3    0    0  0.31029464646E+01  0.33394132959E+01 -0.61075176060E-01  0.45589130680E+01  0.51100000000E-03 0.  1.
        -11    1    3    3    0    0  0.18941294553E+02 -0.14500770403E+02 -0.77162928417E+01  0.25071620552E+02  0.51100000000E-03 0. -1.
        -12    1    3    3    0    0  0.14002772114E+02 -0.65696295269E+01  0.14053555857E+02  0.20898327475E+02  0.00000000000E+00 0.  1.
</event>
<event>
 7    1  0.6462830E-013  0.5052886E+02  0.7816164E-02  0.1300439E+00
        -11   -1    0    0    0    0  0.00000000000E+00  0.00000000000E+00  0.45593999997E+02  0.45594000000E+02  0.51100000000E-03 0.  1.
         11   -1    0    0    0    0 -0.00000000000E+00 -0.00000000000E+00 -0.45593999997E+02  0.45594000000E+02  0.51100000000E-03 0. -1.
    9900012    2    1    2    0    0 -0.35041940492E+02 -0.13725055115E+02 -0.15389969635E+02  0.50528857157E+02  0.29999991814E+02 0.  0.
         12    1    1    2    0    0  0.35041940492E+02  0.13725055115E+02  0.15389969635E+02  0.40659142843E+02  0.00000000000E+00 0. -1.
         11    1    3    3    0    0 -0.37830979813E+01 -0.11534497475E+02 -0.10054457586E+02  0.15762251741E+02  0.51100000000E-03 0. -1.
        -11    1    3    3    0    0 -0.17791028964E+02 -0.76044843508E+01 -0.13716855858E+00  0.19348584168E+02  0.51100000000E-03 0.  1.
        -12    1    3    3    0    0 -0.13467813547E+02  0.54139267104E+01 -0.51983434906E+01  0.15418021248E+02  0.00000000000E+00 0.  1.
</event>
<event>
 7    1  0.6462830E-013  0.5052884E+02  0.7816164E-02  0.1300439E+00
        -11   -1    0    0    0    0  0.00000000000E+00  0.00000000000E+00  0.45593999997E+02  0.45594000000E+02  0.51100000000E-03 0. -1.
         11   -1    0    0    0    0 -0.00000000000E+00 -0.00000000000E+00 -0.45593999997E+02  0.45594000000E+02  0.51100000000E-03 0.  1.
    9900012    2    1    2    0    0  0.36007701534E+02 -0.60259048919E+01  0.17896957539E+02  0.50528841270E+02  0.29999943523E+02 0.  0.
         12    1    1    2    0    0 -0.36007701534E+02  0.60259048919E+01 -0.17896957539E+02  0.40659158730E+02  0.00000000000E+00 0. -1.
         11    1    3    3    0    0 -0.14668823341E+01 -0.68849261052E+00  0.10560408690E+01  0.19341634975E+01  0.51100000000E-03 0. -1.
        -11    1    3    3    0    0  0.17113422901E+02 -0.10544006305E+02 -0.22187027376E+01  0.20222956125E+02  0.51100000000E-03 0.  1.
        -12    1    3    3    0    0  0.20361160967E+02  0.52065940235E+01  0.19059619407E+02  0.28371721647E+02  0.00000000000E+00 0.  1.
</event>
<event>
 7    1  0.6462830E-013  0.5052888E+02  0.7816164E-02  0.1300439E+00
        -11   -1    0    0    0    0  0.00000000000E+00  0.00000000000E+00  0.45593999997E+02  0.45594000000E+02  0.51100000000E-03 0. -1.
         11   -1    0    0    0    0 -0.00000000000E+00 -0.00000000000E+00 -0.45593999997E+02  0.45594000000E+02  0.51100000000E-03 0.  1.
    9900012    2    1    2    0    0 -0.19396198368E+01  0.29234478107E+02 -0.28191255199E+02  0.50528884110E+02  0.30000073741E+02 0.  0.
         12    1    1    2    0    0  0.19396198368E+01 -0.29234478107E+02  0.28191255199E+02  0.40659115890E+02  0.00000000000E+00 0. -1.
         11    1    3    3    0    0 -0.36989523328E+01  0.21099088771E+02 -0.70411740195E+01  0.22548435137E+02  0.51100000000E-03 0.  1.
        -11    1    3    3    0    0  0.31541853741E+01 -0.64445703079E+00  0.15709261161E+01  0.35821808109E+01  0.51100000000E-03 0. -1.
        -12    1    3    3    0    0 -0.13948528780E+01  0.87798463666E+01 -0.22721007295E+02  0.24398268162E+02  0.00000000000E+00 0.  1.
</event>
<event>
 7    1  0.6462830E-013  0.5052886E+02  0.7816164E-02  0.1300439E+00
        -11   -1    0    0    0    0  0.00000000000E+00  0.00000000000E+00  0.45593999997E+02  0.45594000000E+02  0.51100000000E-03 0.  1.
         11   -1    0    0    0    0 -0.00000000000E+00 -0.00000000000E+00 -0.45593999997E+02  0.45594000000E+02  0.51100000000E-03 0. -1.
    9900012    2    1    2    0    0 -0.49657330497E+01  0.27195195572E+02  0.29814904911E+02  0.50528859308E+02  0.29999998353E+02 0.  0.
         12    1    1    2    0    0  0.49657330497E+01 -0.27195195572E+02 -0.29814904911E+02  0.40659140692E+02  0.00000000000E+00 0. -1.
         11    1    3    3    0    0  0.22676642716E+01 -0.33118811028E+01  0.84461354885E+01  0.93513668861E+01  0.51100000000E-03 0. -1.
        -11    1    3    3    0    0  0.50966290723E+01  0.10234459468E+02  0.60625320630E+01  0.12941177836E+02  0.51100000000E-03 0.  1.
         12    1    3    3    0    0 -0.12330026394E+02  0.20272617207E+02  0.15306237360E+02  0.28236314586E+02  0.00000000000E+00 0. -1.
</event>
<event>
 7    1  0.6462830E-013  0.5052887E+02  0.7816164E-02  0.1300439E+00
        -11   -1    0    0    0    0  0.00000000000E+00  0.00000000000E+00  0.45593999997E+02  0.45594000000E+02  0.51100000000E-03 0.  1.
         11   -1    0    0    0    0 -0.00000000000E+00 -0.00000000000E+00 -0.45593999997E+02  0.45594000000E+02  0.51100000000E-03 0. -1.
    9900012    2    1    2    0    0  0.15241948274E+02 -0.16815677906E+02  0.33735459669E+02  0.50528865114E+02  0.30000016000E+02 0.  0.
         12    1    1    2    0    0 -0.15241948274E+02  0.16815677906E+02 -0.33735459669E+02  0.40659134886E+02  0.00000000000E+00 0. -1.
         11    1    3    3    0    0 -0.33548603071E+01 -0.10524892304E+02  0.55152402054E+01  0.12346915424E+02  0.51100000000E-03 0. -1.
        -11    1    3    3    0    0  0.15052005719E+02 -0.11813976008E+02  0.21686857891E+02  0.28921492194E+02  0.51100000000E-03 0.  1.
        -12    1    3    3    0    0  0.35448028620E+01  0.55231904068E+01  0.65333615722E+01  0.92604574959E+01  0.00000000000E+00 0.  1.
</event>
<event>
 7    1  0.6462830E-013  0.5052885E+02  0.7816164E-02  0.1300439E+00
        -11   -1    0    0    0    0  0.00000000000E+00  0.00000000000E+00  0.45593999997E+02  0.45594000000E+02  0.51100000000E-03 0. -1.
         11   -1    0    0    0    0 -0.00000000000E+00 -0.00000000000E+00 -0.45593999997E+02  0.45594000000E+02  0.51100000000E-03 0.  1.
    9900012    2    1    2    0    0 -0.17735646183E+02 -0.33527446416E+02 -0.14646617509E+02  0.50528853266E+02  0.29999979987E+02 0.  0.
         12    1    1    2    0    0  0.17735646183E+02  0.33527446416E+02  0.14646617509E+02  0.40659146734E+02  0.00000000000E+00 0. -1.
         11    1    3    3    0    0 -0.10498824369E+02 -0.12690209013E+02 -0.13433276291E+02  0.21253696857E+02  0.51100000000E-03 0. -1.
        -11    1    3    3    0    0 -0.26024424091E+00 -0.16535186631E+02 -0.82424786918E+01  0.18477515505E+02  0.51100000000E-03 0.  1.
        -12    1    3    3    0    0 -0.69765775732E+01 -0.43020507719E+01  0.70291374736E+01  0.10797640904E+02  0.00000000000E+00 0.  1.
</event>
<event>
 7    1  0.6462830E-013  0.5052886E+02  0.7816164E-02  0.1300439E+00
        -11   -1    0    0    0    0  0.00000000000E+00  0.00000000000E+00  0.45593999997E+02  0.45594000000E+02  0.51100000000E-03 0. -1.
         11   -1    0    0    0    0 -0.00000000000E+00 -0.00000000000E+00 -0.45593999997E+02  0.45594000000E+02  0.51100000000E-03 0.  1.
    9900012    2    1    2    0    0  0.18546663620E+02  0.11492678043E+02 -0.34308973881E+02  0.50528855041E+02  0.29999985383E+02 0.  0.
         12    1    1    2    0    0 -0.18546663620E+02 -0.11492678043E+02  0.34308973881E+02  0.40659144959E+02  0.00000000000E+00 0. -1.
         11    1    3    3    0    0 -0.26657161007E+01 -0.35834589951E+01  0.11816961163E+01  0.46199163057E+01  0.51100000000E-03 0. -1.
        -11    1    3    3    0    0  0.56561697647E+01  0.79894509429E+01 -0.22178069913E+02  0.24242325963E+02  0.51100000000E-03 0.  1.
        -12    1    3    3    0    0  0.15556209956E+02  0.70866860951E+01 -0.13312600084E+02  0.21666612772E+02  0.00000000000E+00 0.  1.
</event>
<event>
 7    1  0.6462830E-013  0.5052887E+02  0.7816164E-02  0.1300439E+00
        -11   -1    0    0    0    0  0.00000000000E+00  0.00000000000E+00  0.45593999997E+02  0.45594000000E+02  0.51100000000E-03 0. -1.
         11   -1    0    0    0    0 -0.00000000000E+00 -0.00000000000E+00 -0.45593999997E+02  0.45594000000E+02  0.51100000000E-03 0.  1.
    9900012    2    1    2    0    0 -0.84523623302E+01 -0.38907756483E+02 -0.82406633895E+01  0.50528874620E+02  0.30000044896E+02 0.  0.
         12    1    1    2    0    0  0.84523623302E+01  0.38907756483E+02  0.82406633895E+01  0.40659125380E+02  0.00000000000E+00 0. -1.
         11    1    3    3    0    0 -0.81380630920E+01 -0.33005427277E+01 -0.91034950563E+01  0.12648923894E+02  0.51100000000E-03 0.  1.
        -11    1    3    3    0    0  0.58600873261E+01 -0.15291793044E+02 -0.18248282178E+01  0.16477547034E+02  0.51100000000E-03 0. -1.
        -12    1    3    3    0    0 -0.61743865644E+01 -0.20315420712E+02  0.26876598846E+01  0.21402403692E+02  0.00000000000E+00 0.  1.
</event>
<event>
 7    1  0.6462830E-013  0.5052886E+02  0.7816164E-02  0.1300439E+00
        -11   -1    0    0    0    0  0.00000000000E+00  0.00000000000E+00  0.45593999997E+02  0.45594000000E+02  0.51100000000E-03 0. -1.
         11   -1    0    0    0    0 -0.00000000000E+00 -0.00000000000E+00 -0.45593999997E+02  0.45594000000E+02  0.51100000000E-03 0.  1.
    9900012    2    1    2    0    0  0.15374725971E+02  0.26144649487E+02 -0.27078416806E+02  0.50528861394E+02  0.30000004693E+02 0.  0.
         12    1    1    2    0    0 -0.15374725971E+02 -0.26144649487E+02  0.27078416806E+02  0.40659138606E+02  0.00000000000E+00 0. -1.
         11    1    3    3    0    0  0.16984614057E+02  0.22273908489E+02 -0.12710257951E+02  0.30759628923E+02  0.51100000000E-03 0. -1.
        -11    1    3    3    0    0 -0.33134850981E+01  0.47857816075E+00  0.13421224554E+01  0.36068703190E+01  0.51100000000E-03 0.  1.
        -12    1    3    3    0    0  0.17035970125E+01  0.33921628374E+01 -0.15710281310E+02  0.16162362152E+02  0.00000000000E+00 0.  1.
</event>
<event>
 7    1  0.6462830E-013  0.5052886E+02  0.7816164E-02  0.1300439E+00
        -11   -1    0    0    0    0  0.00000000000E+00  0.00000000000E+00  0.45593999997E+02  0.45594000000E+02  0.51100000000E-03 0.  1.
         11   -1    0    0    0    0 -0.00000000000E+00 -0.00000000000E+00 -0.45593999997E+02  0.45594000000E+02  0.51100000000E-03 0. -1.
    9900012    2    1    2    0    0  0.35259724187E+02  0.18527746802E+02  0.81633310395E+01  0.50528861729E+02  0.30000005711E+02 0.  0.
         12    1    1    2    0    0 -0.35259724187E+02 -0.18527746802E+02 -0.81633310395E+01  0.40659138271E+02  0.00000000000E+00 0. -1.
         11    1    3    3    0    0  0.44802276313E+01 -0.24350289841E+01  0.59178072914E+01  0.78116739040E+01  0.51100000000E-03 0. -1.
        -11    1    3    3    0    0  0.26129515247E+02  0.91032974695E+01  0.79066906892E+01  0.28777375658E+02  0.51100000000E-03 0.  1.
        -12    1    3    3    0    0  0.46499813088E+01  0.11859478317E+02 -0.56611669411E+01  0.13939812167E+02  0.00000000000E+00 0.  1.
</event>
<event>
 7    1  0.6462830E-013  0.5052886E+02  0.7816164E-02  0.1300439E+00
        -11   -1    0    0    0    0  0.00000000000E+00  0.00000000000E+00  0.45593999997E+02  0.45594000000E+02  0.51100000000E-03 0.  1.
         11   -1    0    0    0    0 -0.00000000000E+00 -0.00000000000E+00 -0.45593999997E+02  0.45594000000E+02  0.51100000000E-03 0. -1.
    9900012    2    1    2    0    0  0.24784932653E+02  0.29177230207E+02  0.13695334764E+02  0.50528857812E+02  0.29999993806E+02 0.  0.
         12    1    1    2    0    0 -0.24784932653E+02 -0.29177230207E+02 -0.13695334764E+02  0.40659142188E+02  0.00000000000E+00 0. -1.
         11    1    3    3    0    0  0.18968312345E+02  0.11620228279E+02  0.10151149839E+02  0.24451429852E+02  0.51100000000E-03 0. -1.
        -11    1    3    3    0    0  0.35001095998E+01  0.20822676168E+02  0.51984139086E+01  0.21745301042E+02  0.51100000000E-03 0.  1.
         12    1    3    3    0    0  0.23165107081E+01 -0.32656742401E+01 -0.16542289836E+01  0.43321269180E+01  0.00000000000E+00 0. -1.
</event>
<event>
 7    1  0.6462830E-013  0.5052885E+02  0.7816164E-02  0.1300439E+00
        -11   -1    0    0    0    0  0.00000000000E+00  0.00000000000E+00  0.45593999997E+02  0.45594000000E+02  0.51100000000E-03 0. -1.
         11   -1    0    0    0    0 -0.00000000000E+00 -0.00000000000E+00 -0.45593999997E+02  0.45594000000E+02  0.51100000000E-03 0.  1.
    9900012    2    1    2    0    0  0.12065293252E+02 -0.20906969368E+02 -0.32718398288E+02  0.50528852740E+02  0.29999978388E+02 0.  0.
         12    1    1    2    0    0 -0.12065293252E+02  0.20906969368E+02  0.32718398288E+02  0.40659147260E+02  0.00000000000E+00 0. -1.
         11    1    3    3    0    0 -0.33435850794E+01 -0.90388084290E+01 -0.18252689918E+02  0.20640743894E+02  0.51100000000E-03 0. -1.
        -11    1    3    3    0    0  0.39083386076E+01 -0.13496718972E+02 -0.10753971203E+02  0.17694192002E+02  0.51100000000E-03 0.  1.
        -12    1    3    3    0    0  0.11500539724E+02  0.16285580333E+01 -0.37117371663E+01  0.12193916844E+02  0.00000000000E+00 0.  1.
</event>
<event>
 7    1  0.6462830E-013  0.5052886E+02  0.7816164E-02  0.1300439E+00
        -11   -1    0    0    0    0  0.00000000000E+00  0.00000000000E+00  0.45593999997E+02  0.45594000000E+02  0.51100000000E-03 0.  1.
         11   -1    0    0    0    0 -0.00000000000E+00 -0.00000000000E+00 -0.45593999997E+02  0.45594000000E+02  0.51100000000E-03 0. -1.
    9900012    2    1    2    0    0  0.36212824803E+02 -0.18371047452E+02 -0.20741101334E+01  0.50528855917E+02  0.29999988046E+02 0.  0.
         12    1    1    2    0    0 -0.36212824803E+02  0.18371047452E+02  0.20741101334E+01  0.40659144083E+02  0.00000000000E+00 0. -1.
         11    1    3    3    0    0  0.15751615948E+01 -0.48003106332E+01 -0.22825042935E+01  0.55438201933E+01  0.51100000000E-03 0. -1.
        -11    1    3    3    0    0  0.31250861187E+02 -0.12965119285E+02  0.94460624905E+01  0.35127464182E+02  0.51100000000E-03 0.  1.
         12    1    3    3    0    0  0.33868020217E+01 -0.60561753363E+00 -0.92376683303E+01  0.98575715423E+01  0.00000000000E+00 0. -1.
</event>
<event>
 7    1  0.6462830E-013  0.5052886E+02  0.7816164E-02  0.1300439E+00
        -11   -1    0    0    0    0  0.00000000000E+00  0.00000000000E+00  0.45593999997E+02  0.45594000000E+02  0.51100000000E-03 0. -1.
         11   -1    0    0    0    0 -0.00000000000E+00 -0.00000000000E+00 -0.45593999997E+02  0.45594000000E+02  0.51100000000E-03 0.  1.
    9900012    2    1    2    0    0 -0.11004439929E+02  0.79861228820E+01 -0.38318271565E+02  0.50528858438E+02  0.29999995708E+02 0.  0.
         12    1    1    2    0    0  0.11004439929E+02 -0.79861228820E+01  0.38318271565E+02  0.40659141562E+02  0.00000000000E+00 0. -1.
         11    1    3    3    0    0  0.22532235620E+01 -0.19831615252E+01 -0.45000343186E+01  0.54092749223E+01  0.51100000000E-03 0. -1.
        -11    1    3    3    0    0 -0.12549173615E+02 -0.49397664432E+01 -0.91846576859E+01  0.16316892719E+02  0.51100000000E-03 0.  1.
        -12    1    3    3    0    0 -0.70848987642E+00  0.14909050850E+02 -0.24633579560E+02  0.28802690797E+02  0.00000000000E+00 0.  1.
</event>
<event>
 7    1  0.6462830E-013  0.5052886E+02  0.7816164E-02  0.1300439E+00
        -11   -1    0    0    0    0  0.00000000000E+00  0.00000000000E+00  0.45593999997E+02  0.45594000000E+02  0.51100000000E-03 0. -1.
         11   -1    0    0    0    0 -0.00000000000E+00 -0.00000000000E+00 -0.45593999997E+02  0.45594000000E+02  0.51100000000E-03 0.  1.
    9900012    2    1    2    0    0  0.45553906487E+01  0.12641759620E+02 -0.38374473703E+02  0.50528857089E+02  0.29999991608E+02 0.  0.
         12    1    1    2    0    0 -0.45553906487E+01 -0.12641759620E+02  0.38374473703E+02  0.40659142911E+02  0.00000000000E+00 0. -1.
         11    1    3    3    0    0 -0.58709290911E+01  0.17202115458E+01 -0.16223949664E+02  0.17339073767E+02  0.51100000000E-03 0. -1.
        -11    1    3    3    0    0 -0.11832508585E+01  0.12417942000E+02 -0.14850645628E+02  0.19394510614E+02  0.51100000000E-03 0.  1.
        -12    1    3    3    0    0  0.11609570598E+02 -0.14963939262E+01 -0.72998784115E+01  0.13795272708E+02  0.00000000000E+00 0.  1.
</event>
<event>
 7    1  0.6462830E-013  0.5052887E+02  0.7816164E-02  0.1300439E+00
        -11   -1    0    0    0    0  0.00000000000E+00  0.00000000000E+00  0.45593999997E+02  0.45594000000E+02  0.51100000000E-03 0. -1.
         11   -1    0    0    0    0 -0.00000000000E+00 -0.00000000000E+00 -0.45593999997E+02  0.45594000000E+02  0.51100000000E-03 0.  1.
    9900012    2    1    2    0    0 -0.10240799204E+02 -0.36659503621E+02  0.14295849239E+02  0.50528874585E+02  0.30000044787E+02 0.  0.
         12    1    1    2    0    0  0.10240799204E+02  0.36659503621E+02 -0.14295849239E+02  0.40659125415E+02  0.00000000000E+00 0. -1.
         11    1    3    3    0    0  0.46021780826E+01 -0.10024917959E+00  0.15992728040E+00  0.46060471120E+01  0.51100000000E-03 0.  1.
        -11    1    3    3    0    0 -0.11339135528E+02 -0.82894034410E+01  0.97563978571E+01  0.17101973668E+02  0.51100000000E-03 0. -1.
         12    1    3    3    0    0 -0.35038417585E+01 -0.28269851000E+02  0.43795241012E+01  0.28820853804E+02  0.00000000000E+00 0. -1.
</event>
<event>
 7    1  0.6462830E-013  0.5052886E+02  0.7816164E-02  0.1300439E+00
        -11   -1    0    0    0    0  0.00000000000E+00  0.00000000000E+00  0.45593999997E+02  0.45594000000E+02  0.51100000000E-03 0. -1.
         11   -1    0    0    0    0 -0.00000000000E+00 -0.00000000000E+00 -0.45593999997E+02  0.45594000000E+02  0.51100000000E-03 0.  1.
    9900012    2    1    2    0    0 -0.17903857948E+02  0.97951437756E+01 -0.35166359983E+02  0.50528857788E+02  0.29999993731E+02 0.  0.
         12    1    1    2    0    0  0.17903857948E+02 -0.97951437756E+01  0.35166359983E+02  0.40659142212E+02  0.00000000000E+00 0. -1.
         11    1    3    3    0    0  0.20021934783E+01 -0.61333228273E+01 -0.33629879078E+01  0.72757209648E+01  0.51100000000E-03 0. -1.
        -11    1    3    3    0    0 -0.55894683730E+00  0.86129887039E+01 -0.93134948516E+01  0.12697920404E+02  0.51100000000E-03 0.  1.
        -12    1    3    3    0    0 -0.19347104589E+02  0.73154778990E+01 -0.22489877224E+02  0.30555216419E+02  0.00000000000E+00 0.  1.
</event>
<event>
 7    1  0.6462830E-013  0.5052889E+02  0.7816164E-02  0.1300439E+00
        -11   -1    0    0    0    0  0.00000000000E+00  0.00000000000E+00  0.45593999997E+02  0.45594000000E+02  0.51100000000E-03 0.  1.
         11   -1    0    0    0    0 -0.00000000000E+00 -0.00000000000E+00 -0.45593999997E+02  0.45594000000E+02  0.51100000000E-03 0. -1.
    9900012    2    1    2    0    0  0.51537500605E+01 -0.27828534067E+02  0.29192029869E+02  0.50528892092E+02  0.30000098002E+02 0.  0.
         12    1    1    2    0    0 -0.51537500605E+01  0.27828534067E+02 -0.29192029869E+02  0.40659107908E+02  0.00000000000E+00 0. -1.
         11    1    3    3    0    0 -0.37741645549E+01  0.27723459043E+01  0.17008159554E+01  0.49822680654E+01  0.51100000000E-03 0. -1.
        -11    1    3    3    0    0  0.11670422626E+02 -0.11169617655E+02  0.16332959902E+02  0.22972259407E+02  0.51100000000E-03 0.  1.
        -12    1    3    3    0    0 -0.27425080104E+01 -0.19431262316E+02  0.11158254011E+02  0.22574364619E+02  0.00000000000E+00 0.  1.
</event>
<event>
 7    1  0.6462830E-013  0.5052886E+02  0.7816164E-02  0.1300439E+00
        -11   -1    0    0    0    0  0.00000000000E+00  0.00000000000E+00  0.45593999997E+02  0.45594000000E+02  0.51100000000E-03 0.  1.
         11   -1    0    0    0    0 -0.00000000000E+00 -0.00000000000E+00 -0.45593999997E+02  0.45594000000E+02  0.51100000000E-03 0. -1.
    9900012    2    1    2    0    0 -0.40471045261E+02 -0.21687296864E+01 -0.32490940687E+01  0.50528861972E+02  0.30000006449E+02 0.  0.
         12    1    1    2    0    0  0.40471045261E+02  0.21687296864E+01  0.32490940687E+01  0.40659138028E+02  0.00000000000E+00 0. -1.
         11    1    3    3    0    0 -0.75549481903E+01 -0.39629235009E+00  0.11935860365E+01  0.76589123034E+01  0.51100000000E-03 0. -1.
        -11    1    3    3    0    0 -0.87652499624E+01 -0.13172976800E+02 -0.31433958455E+01  0.16131889610E+02  0.51100000000E-03 0.  1.
         12    1    3    3    0    0 -0.24150847108E+02  0.11400539464E+02 -0.12992842597E+01  0.26738060058E+02  0.00000000000E+00 0. -1.
</event>
<event>
 7    1  0.6462830E-013  0.5052886E+02  0.7816164E-02  0.1300439E+00
        -11   -1    0    0    0    0  0.00000000000E+00  0.00000000000E+00  0.45593999997E+02  0.45594000000E+02  0.51100000000E-03 0.  1.
         11   -1    0    0    0    0 -0.00000000000E+00 -0.00000000000E+00 -0.45593999997E+02  0.45594000000E+02  0.51100000000E-03 0. -1.
    9900012    2    1    2    0    0 -0.21699314939E+02  0.61762304179E+01  0.33825431186E+02  0.50528857290E+02  0.29999992219E+02 0.  0.
         12    1    1    2    0    0  0.21699314939E+02 -0.61762304179E+01 -0.33825431186E+02  0.40659142710E+02  0.00000000000E+00 0. -1.
         11    1    3    3    0    0  0.51239863875E+01  0.57977851044E+01  0.66242390320E+01  0.10185778892E+02  0.51100000000E-03 0. -1.
        -11    1    3    3    0    0 -0.29562324892E+01 -0.15409278022E+01 -0.87169893659E+00  0.34458131579E+01  0.51100000000E-03 0.  1.
        -12    1    3    3    0    0 -0.23867068837E+02  0.19193731158E+01  0.28072891091E+02  0.36897265240E+02  0.00000000000E+00 0.  1.
</event>
<event>
 7    1  0.6462830E-013  0.5052877E+02  0.7816164E-02  0.1300439E+00
        -11   -1    0    0    0    0  0.00000000000E+00  0.00000000000E+00  0.45593999997E+02  0.45594000000E+02  0.51100000000E-03 0. -1.
         11   -1    0    0    0    0 -0.00000000000E+00 -0.00000000000E+00 -0.45593999997E+02  0.45594000000E+02  0.51100000000E-03 0.  1.
    9900012    2    1    2    0    0 -0.21288999662E+02 -0.29510886620E+02 -0.18139988802E+02  0.50528768214E+02  0.29999721461E+02 0.  0.
         12    1    1    2    0    0  0.21288999662E+02  0.29510886620E+02  0.18139988802E+02  0.40659231786E+02  0.00000000000E+00 0. -1.
         11    1    3    3    0    0 -0.20954422374E+02 -0.19302795191E+02 -0.72784864565E+01  0.29405137044E+02  0.51100000000E-03 0. -1.
        -11    1    3    3    0    0 -0.29269363778E+01 -0.13555039244E+02 -0.86958242739E+01  0.16368366001E+02  0.51100000000E-03 0.  1.
         12    1    3    3    0    0  0.25923590895E+01  0.33469478144E+01 -0.21656780715E+01  0.47552651694E+01  0.00000000000E+00 0. -1.
</event>
<event>
 7    1  0.6462830E-013  0.5052886E+02  0.7816164E-02  0.1300439E+00
        -11   -1    0    0    0    0  0.00000000000E+00  0.00000000000E+00  0.45593999997E+02  0.45594000000E+02  0.51100000000E-03 0.  1.
         11   -1    0    0    0    0 -0.00000000000E+00 -0.00000000000E+00 -0.45593999997E+02  0.45594000000E+02  0.51100000000E-03 0. -1.
    9900012    2    1    2    0    0 -0.24977043214E+02  0.23736636005E+02  0.21584365478E+02  0.50528863147E+02  0.30000010022E+02 0.  0.
         12    1    1    2    0    0  0.24977043214E+02 -0.23736636005E+02 -0.21584365478E+02  0.40659136853E+02  0.00000000000E+00 0. -1.
         11    1    3    3    0    0 -0.13753271261E+02  0.12700920725E+02  0.15995204124E+01  0.18788941520E+02  0.51100000000E-03 0. -1.
        -11    1    3    3    0    0 -0.58765813900E+01  0.82492155046E+01 -0.74038138647E+00  0.10155389216E+02  0.51100000000E-03 0.  1.
        -12    1    3    3    0    0 -0.53471905626E+01  0.27864997761E+01  0.20725226452E+02  0.21584532411E+02  0.00000000000E+00 0.  1.
</event>
<event>
 7    1  0.6462830E-013  0.5052886E+02  0.7816164E-02  0.1300439E+00
        -11   -1    0    0    0    0  0.00000000000E+00  0.00000000000E+00  0.45593999997E+02  0.45594000000E+02  0.51100000000E-03 0.  1.
         11   -1    0    0    0    0 -0.00000000000E+00 -0.00000000000E+00 -0.45593999997E+02  0.45594000000E+02  0.51100000000E-03 0. -1.
    9900012    2    1    2    0    0  0.19088476859E+02 -0.35861891294E+02  0.16494433118E+01  0.50528857619E+02  0.29999993218E+02 0.  0.
         12    1    1    2    0    0 -0.19088476859E+02  0.35861891294E+02 -0.16494433118E+01  0.40659142381E+02  0.00000000000E+00 0. -1.
         11    1    3    3    0    0  0.60523927013E+01 -0.62323372035E+01 -0.97324788005E+01  0.13045866330E+02  0.51100000000E-03 0. -1.
        -11    1    3    3    0    0 -0.73996861522E+00  0.13252665077E+00  0.37318565697E+01  0.38068189585E+01  0.51100000000E-03 0.  1.
         12    1    3    3    0    0  0.13776052772E+02 -0.29762080741E+02  0.76500655426E+01  0.33676172330E+02  0.00000000000E+00 0. -1.
</event>
<event>
 7    1  0.6462830E-013  0.5052886E+02  0.7816164E-02  0.1300439E+00
        -11   -1    0    0    0    0  0.00000000000E+00  0.00000000000E+00  0.45593999997E+02  0.45594000000E+02  0.51100000000E-03 0. -1.
         11   -1    0    0    0    0 -0.00000000000E+00 -0.00000000000E+00 -0.45593999997E+02  0.45594000000E+02  0.51100000000E-03 0.  1.
    9900012    2    1    2    0    0 -0.30061069804E+02  0.14631577522E+02 -0.23139037039E+02  0.50528855719E+02  0.29999987443E+02 0.  0.
         12    1    1    2    0    0  0.30061069804E+02 -0.14631577522E+02  0.23139037039E+02  0.40659144281E+02  0.00000000000E+00 0. -1.
         11    1    3    3    0    0 -0.87242345092E+01  0.13380722440E+02 -0.13395268418E+02  0.20846803521E+02  0.51100000000E-03 0.  1.
        -11    1    3    3    0    0 -0.51307307974E+01 -0.49221579089E+01 -0.10081878401E+02  0.12336786833E+02  0.51100000000E-03 0. -1.
        -12    1    3    3    0    0 -0.16206104498E+02  0.61730129911E+01  0.33810978001E+00  0.17345265365E+02  0.00000000000E+00 0.  1.
</event>
<event>
 7    1  0.6462830E-013  0.5052884E+02  0.7816164E-02  0.1300439E+00
        -11   -1    0    0    0    0  0.00000000000E+00  0.00000000000E+00  0.45593999997E+02  0.45594000000E+02  0.51100000000E-03 0. -1.
         11   -1    0    0    0    0 -0.00000000000E+00 -0.00000000000E+00 -0.45593999997E+02  0.45594000000E+02  0.51100000000E-03 0.  1.
    9900012    2    1    2    0    0 -0.42304230150E+01  0.15637935005E+02 -0.37292438958E+02  0.50528837520E+02  0.29999932126E+02 0.  0.
         12    1    1    2    0    0  0.42304230150E+01 -0.15637935005E+02  0.37292438958E+02  0.40659162480E+02  0.00000000000E+00 0. -1.
         11    1    3    3    0    0 -0.10050356793E+02 -0.63618923090E+00 -0.26009798238E+02  0.27891289196E+02  0.51100000000E-03 0.  1.
        -11    1    3    3    0    0  0.49302204076E+01  0.23602189985E+01 -0.47461656875E+01  0.72390466211E+01  0.51100000000E-03 0. -1.
        -12    1    3    3    0    0  0.88971337005E+00  0.13913905238E+02 -0.65364750328E+01  0.15398501703E+02  0.00000000000E+00 0.  1.
</event>
<event>
 7    1  0.6462830E-013  0.5052886E+02  0.7816164E-02  0.1300439E+00
        -11   -1    0    0    0    0  0.00000000000E+00  0.00000000000E+00  0.45593999997E+02  0.45594000000E+02  0.51100000000E-03 0.  1.
         11   -1    0    0    0    0 -0.00000000000E+00 -0.00000000000E+00 -0.45593999997E+02  0.45594000000E+02  0.51100000000E-03 0. -1.
    9900012    2    1    2    0    0  0.21316249529E+02 -0.17421847536E+02  0.29920934168E+02  0.50528861212E+02  0.30000004139E+02 0.  0.
         12    1    1    2    0    0 -0.21316249529E+02  0.17421847536E+02 -0.29920934168E+02  0.40659138788E+02  0.00000000000E+00 0. -1.
         11    1    3    3    0    0  0.14689850683E+01 -0.13665814417E+02  0.36984070489E+01  0.14233433028E+02  0.51100000000E-03 0. -1.
        -11    1    3    3    0    0  0.12917256889E+02 -0.94047696349E+01  0.18820561299E+02  0.24688433432E+02  0.51100000000E-03 0.  1.
        -12    1    3    3    0    0  0.69300075713E+01  0.56487365161E+01  0.74019658197E+01  0.11606994752E+02  0.00000000000E+00 0.  1.
</event>
<event>
 7    1  0.6462830E-013  0.5052887E+02  0.7816164E-02  0.1300439E+00
        -11   -1    0    0    0    0  0.00000000000E+00  0.00000000000E+00  0.45593999997E+02  0.45594000000E+02  0.51100000000E-03 0.  1.
         11   -1    0    0    0    0 -0.00000000000E+00 -0.00000000000E+00 -0.45593999997E+02  0.45594000000E+02  0.51100000000E-03 0. -1.
    9900012    2    1    2    0    0  0.28777738659E+02 -0.23100606814E+02  0.17069519796E+02  0.50528870846E+02  0.30000033422E+02 0.  0.
         12    1    1    2    0    0 -0.28777738659E+02  0.23100606814E+02 -0.17069519796E+02  0.40659129154E+02  0.00000000000E+00 0. -1.
         11    1    3    3    0    0  0.18610164119E+02  0.72379663400E+00  0.85964226051E+01  0.20512449195E+02  0.51100000000E-03 0. -1.
        -11    1    3    3    0    0  0.98849396465E+01 -0.73746134374E+01  0.32254268436E+01  0.12747561875E+02  0.51100000000E-03 0.  1.
        -12    1    3    3    0    0  0.28263489346E+00 -0.16449790010E+02  0.52476703478E+01  0.17268859776E+02  0.00000000000E+00 0.  1.
</event>
<event>
 7    1  0.6462830E-013  0.5052890E+02  0.7816164E-02  0.1300439E+00
        -11   -1    0    0    0    0  0.00000000000E+00  0.00000000000E+00  0.45593999997E+02  0.45594000000E+02  0.51100000000E-03 0. -1.
         11   -1    0    0    0    0 -0.00000000000E+00 -0.00000000000E+00 -0.45593999997E+02  0.45594000000E+02  0.51100000000E-03 0.  1.
    9900012    2    1    2    0    0 -0.81828970189E+01  0.17311491809E+02 -0.35868024388E+02  0.50528896151E+02  0.30000110341E+02 0.  0.
         12    1    1    2    0    0  0.81828970189E+01 -0.17311491809E+02  0.35868024388E+02  0.40659103849E+02  0.00000000000E+00 0. -1.
         11    1    3    3    0    0  0.54683559610E+01  0.54277110706E+01 -0.12300487214E+02  0.14514301580E+02  0.51100000000E-03 0.  1.
        -11    1    3    3    0    0 -0.22281519438E+00  0.11578320813E+01  0.36440948334E+01  0.38300977997E+01  0.51100000000E-03 0. -1.
         12    1    3    3    0    0 -0.13428437785E+02  0.10725948657E+02 -0.27211632007E+02  0.32184496772E+02  0.00000000000E+00 0. -1.
</event>
<event>
 7    1  0.6462830E-013  0.5052886E+02  0.7816164E-02  0.1300439E+00
        -11   -1    0    0    0    0  0.00000000000E+00  0.00000000000E+00  0.45593999997E+02  0.45594000000E+02  0.51100000000E-03 0. -1.
         11   -1    0    0    0    0 -0.00000000000E+00 -0.00000000000E+00 -0.45593999997E+02  0.45594000000E+02  0.51100000000E-03 0.  1.
    9900012    2    1    2    0    0 -0.28686420678E+02  0.10813852940E+02 -0.26707966237E+02  0.50528860717E+02  0.30000002636E+02 0.  0.
         12    1    1    2    0    0  0.28686420678E+02 -0.10813852940E+02  0.26707966237E+02  0.40659139283E+02  0.00000000000E+00 0. -1.
         11    1    3    3    0    0 -0.12448932651E+02  0.24656970458E+01 -0.19193234393E+02  0.23009472676E+02  0.51100000000E-03 0.  1.
        -11    1    3    3    0    0  0.23565152497E+01 -0.68411267508E-01 -0.66892433622E+01  0.70925186812E+01  0.51100000000E-03 0. -1.
         12    1    3    3    0    0 -0.18594003277E+02  0.84165671615E+01 -0.82548848101E+00  0.20426869361E+02  0.00000000000E+00 0. -1.
</event>
<event>
 7    1  0.6462830E-013  0.5052884E+02  0.7816164E-02  0.1300439E+00
        -11   -1    0    0    0    0  0.00000000000E+00  0.00000000000E+00  0.45593999997E+02  0.45594000000E+02  0.51100000000E-03 0. -1.
         11   -1    0    0    0    0 -0.00000000000E+00 -0.00000000000E+00 -0.45593999997E+02  0.45594000000E+02  0.51100000000E-03 0.  1.
    9900012    2    1    2    0    0  0.37616638832E+01  0.28899940917E+02 -0.28351557108E+02  0.50528837557E+02  0.29999932237E+02 0.  0.
         12    1    1    2    0    0 -0.37616638832E+01 -0.28899940917E+02  0.28351557108E+02  0.40659162443E+02  0.00000000000E+00 0. -1.
         11    1    3    3    0    0  0.73625393110E+00  0.94789227117E+01 -0.17009034709E+01  0.96584221539E+01  0.51100000000E-03 0. -1.
        -11    1    3    3    0    0  0.66082261294E+01  0.23562888377E+02 -0.17077733773E+02  0.29841704916E+02  0.51100000000E-03 0.  1.
         12    1    3    3    0    0 -0.35828161773E+01 -0.41418701716E+01 -0.95729198636E+01  0.11028710486E+02  0.00000000000E+00 0. -1.
</event>
<event>
 7    1  0.6462830E-013  0.5052886E+02  0.7816164E-02  0.1300439E+00
        -11   -1    0    0    0    0  0.00000000000E+00  0.00000000000E+00  0.45593999997E+02  0.45594000000E+02  0.51100000000E-03 0.  1.
         11   -1    0    0    0    0 -0.00000000000E+00 -0.00000000000E+00 -0.45593999997E+02  0.45594000000E+02  0.51100000000E-03 0. -1.
    9900012    2    1    2    0    0 -0.98897684166E+01  0.32162748585E+02 -0.22823580233E+02  0.50528859201E+02  0.29999998027E+02 0.  0.
         12    1    1    2    0    0  0.98897684166E+01 -0.32162748585E+02  0.22823580233E+02  0.40659140799E+02  0.00000000000E+00 0. -1.
         11    1    3    3    0    0 -0.48155217223E+01  0.10166170537E+02 -0.69020025913E-01  0.11249223834E+02  0.51100000000E-03 0. -1.
        -11    1    3    3    0    0  0.36309447271E+01  0.20829740885E+02 -0.90435017364E+01  0.22996669082E+02  0.51100000000E-03 0.  1.
        -12    1    3    3    0    0 -0.87051914214E+01  0.11668371631E+01 -0.13711058470E+02  0.16282966285E+02  0.00000000000E+00 0.  1.
</event>
<event>
 7    1  0.6462830E-013  0.5052886E+02  0.7816164E-02  0.1300439E+00
        -11   -1    0    0    0    0  0.00000000000E+00  0.00000000000E+00  0.45593999997E+02  0.45594000000E+02  0.51100000000E-03 0.  1.
         11   -1    0    0    0    0 -0.00000000000E+00 -0.00000000000E+00 -0.45593999997E+02  0.45594000000E+02  0.51100000000E-03 0. -1.
    9900012    2    1    2    0    0 -0.10829428741E+02 -0.66211111072E+01  0.38627062100E+02  0.50528861228E+02  0.30000004190E+02 0.  0.
         12    1    1    2    0    0  0.10829428741E+02  0.66211111072E+01 -0.38627062100E+02  0.40659138772E+02  0.00000000000E+00 0. -1.
         11    1    3    3    0    0  0.11394439267E+01  0.62881817892E+01  0.19665712445E+02  0.20678003020E+02  0.51100000000E-03 0. -1.
        -11    1    3    3    0    0  0.32971170273E+00 -0.45326973589E+01  0.13085925528E+02  0.13852635213E+02  0.51100000000E-03 0.  1.
        -12    1    3    3    0    0 -0.12298584371E+02 -0.83765955374E+01  0.58754241268E+01  0.15998222995E+02  0.00000000000E+00 0.  1.
</event>
<event>
 7    1  0.6462830E-013  0.5052886E+02  0.7816164E-02  0.1300439E+00
        -11   -1    0    0    0    0  0.00000000000E+00  0.00000000000E+00  0.45593999997E+02  0.45594000000E+02  0.51100000000E-03 0. -1.
         11   -1    0    0    0    0 -0.00000000000E+00 -0.00000000000E+00 -0.45593999997E+02  0.45594000000E+02  0.51100000000E-03 0.  1.
    9900012    2    1    2    0    0  0.76319685964E+01 -0.27503394334E+02 -0.28956556242E+02  0.50528858421E+02  0.29999995656E+02 0.  0.
         12    1    1    2    0    0 -0.76319685964E+01  0.27503394334E+02  0.28956556242E+02  0.40659141579E+02  0.00000000000E+00 0. -1.
         11    1    3    3    0    0 -0.39813985989E+01 -0.10371000624E+02 -0.56842509529E+01  0.12478777901E+02  0.51100000000E-03 0. -1.
        -11    1    3    3    0    0  0.70871467071E+00 -0.13609121976E+02 -0.22822540482E+02  0.26581550589E+02  0.51100000000E-03 0.  1.
        -12    1    3    3    0    0  0.10904652525E+02 -0.35232717342E+01 -0.44976480780E+00  0.11468529931E+02  0.00000000000E+00 0.  1.
</event>
<event>
 7    1  0.6462830E-013  0.5052886E+02  0.7816164E-02  0.1300439E+00
        -11   -1    0    0    0    0  0.00000000000E+00  0.00000000000E+00  0.45593999997E+02  0.45594000000E+02  0.51100000000E-03 0.  1.
         11   -1    0    0    0    0 -0.00000000000E+00 -0.00000000000E+00 -0.45593999997E+02  0.45594000000E+02  0.51100000000E-03 0. -1.
    9900012    2    1    2    0    0 -0.27042418789E+01 -0.24091247070E+02  0.32641455735E+02  0.50528859059E+02  0.29999997595E+02 0.  0.
         12    1    1    2    0    0  0.27042418789E+01  0.24091247070E+02 -0.32641455735E+02  0.40659140941E+02  0.00000000000E+00 0. -1.
         11    1    3    3    0    0 -0.16676436351E+00 -0.61977562201E+01  0.19579323329E+02  0.20537524067E+02  0.51100000000E-03 0. -1.
        -11    1    3    3    0    0 -0.89525864162E+01 -0.10791112467E+02  0.14662750981E+02  0.20287759325E+02  0.51100000000E-03 0.  1.
         12    1    3    3    0    0  0.64151089008E+01 -0.71023783830E+01 -0.16006185749E+01  0.97035756671E+01  0.00000000000E+00 0. -1.
</event>
<event>
 7    1  0.6462830E-013  0.5052887E+02  0.7816164E-02  0.1300439E+00
        -11   -1    0    0    0    0  0.00000000000E+00  0.00000000000E+00  0.45593999997E+02  0.45594000000E+02  0.51100000000E-03 0.  1.
         11   -1    0    0    0    0 -0.00000000000E+00 -0.00000000000E+00 -0.45593999997E+02  0.45594000000E+02  0.51100000000E-03 0. -1.
    9900012    2    1    2    0    0  0.13294553580E+02 -0.11238756084E+02  0.36743848477E+02  0.50528865797E+02  0.30000018078E+02 0.  0.
         12    1    1    2    0    0 -0.13294553580E+02  0.11238756084E+02 -0.36743848477E+02  0.40659134203E+02  0.00000000000E+00 0. -1.
         11    1    3    3    0    0  0.52782372530E+00 -0.75198339438E+01  0.26057577280E+02  0.27126072963E+02  0.51100000000E-03 0. -1.
        -11    1    3    3    0    0  0.52018991498E+01  0.19516694593E+01  0.12587644650E+02  0.13759272020E+02  0.51100000000E-03 0.  1.
         12    1    3    3    0    0  0.75648307051E+01 -0.56705915999E+01 -0.19013734527E+01  0.96435208143E+01  0.00000000000E+00 0. -1.
</event>
<event>
 7    1  0.6462830E-013  0.5052888E+02  0.7816164E-02  0.1300439E+00
        -11   -1    0    0    0    0  0.00000000000E+00  0.00000000000E+00  0.45593999997E+02  0.45594000000E+02  0.51100000000E-03 0. -1.
         11   -1    0    0    0    0 -0.00000000000E+00 -0.00000000000E+00 -0.45593999997E+02  0.45594000000E+02  0.51100000000E-03 0.  1.
    9900012    2    1    2    0    0 -0.23822030667E+02  0.31804505203E+02  0.86109600069E+01  0.50528876441E+02  0.30000050430E+02 0.  0.
         12    1    1    2    0    0  0.23822030667E+02 -0.31804505203E+02 -0.86109600069E+01  0.40659123559E+02  0.00000000000E+00 0. -1.
         11    1    3    3    0    0 -0.54511972111E+01  0.66013412699E+00  0.89881367900E+01  0.10532707692E+02  0.51100000000E-03 0. -1.
        -11    1    3    3    0    0 -0.13558236763E+02  0.14268301601E+02  0.70953664142E+01  0.20922582047E+02  0.51100000000E-03 0.  1.
         12    1    3    3    0    0 -0.48125966935E+01  0.16876069475E+02 -0.74725431973E+01  0.19073586703E+02  0.00000000000E+00 0. -1.
</event>
<event>
 7    1  0.6462830E-013  0.5052887E+02  0.7816164E-02  0.1300439E+00
        -11   -1    0    0    0    0  0.00000000000E+00  0.00000000000E+00  0.45593999997E+02  0.45594000000E+02  0.51100000000E-03 0. -1.
         11   -1    0    0    0    0 -0.00000000000E+00 -0.00000000000E+00 -0.45593999997E+02  0.45594000000E+02  0.51100000000E-03 0.  1.
    9900012    2    1    2    0    0  0.47412603627E+01 -0.18324719838E+02 -0.35984575157E+02  0.50528873642E+02  0.30000041922E+02 0.  0.
         12    1    1    2    0    0 -0.47412603627E+01  0.18324719838E+02  0.35984575157E+02  0.40659126358E+02  0.00000000000E+00 0. -1.
         11    1    3    3    0    0 -0.48717853751E+01  0.30849201254E+01 -0.56641786003E+01  0.80829415684E+01  0.51100000000E-03 0. -1.
        -11    1    3    3    0    0  0.28708614988E+01 -0.23317682546E+01 -0.18803380579E+02  0.19163666413E+02  0.51100000000E-03 0.  1.
        -12    1    3    3    0    0  0.67421842390E+01 -0.19077871708E+02 -0.11517015978E+02  0.23282265660E+02  0.00000000000E+00 0.  1.
</event>
<event>
 7    1  0.6462830E-013  0.5052886E+02  0.7816164E-02  0.1300439E+00
        -11   -1    0    0    0    0  0.00000000000E+00  0.00000000000E+00  0.45593999997E+02  0.45594000000E+02  0.51100000000E-03 0.  1.
         11   -1    0    0    0    0 -0.00000000000E+00 -0.00000000000E+00 -0.45593999997E+02  0.45594000000E+02  0.51100000000E-03 0. -1.
    9900012    2    1    2    0    0  0.33115581172E+02 -0.17747390960E+02 -0.15542004465E+02  0.50528861974E+02  0.30000006455E+02 0.  0.
         12    1    1    2    0    0 -0.33115581172E+02  0.17747390960E+02  0.15542004465E+02  0.40659138026E+02  0.00000000000E+00 0. -1.
         11    1    3    3    0    0  0.41403578940E+00  0.47656771398E+01 -0.39903550557E+01  0.62294492508E+01  0.51100000000E-03 0. -1.
        -11    1    3    3    0    0  0.10191738399E+02 -0.37410194948E+01  0.34257550825E+01  0.11384311863E+02  0.51100000000E-03 0.  1.
         12    1    3    3    0    0  0.22509806984E+02 -0.18772048605E+02 -0.14977404492E+02  0.32915100860E+02  0.00000000000E+00 0. -1.
</event>
<event>
 7    1  0.6462830E-013  0.5052886E+02  0.7816164E-02  0.1300439E+00
        -11   -1    0    0    0    0  0.00000000000E+00  0.00000000000E+00  0.45593999997E+02  0.45594000000E+02  0.51100000000E-03 0.  1.
         11   -1    0    0    0    0 -0.00000000000E+00 -0.00000000000E+00 -0.45593999997E+02  0.45594000000E+02  0.51100000000E-03 0. -1.
    9900012    2    1    2    0    0 -0.17967925398E+02 -0.50702781912E+01  0.36119411566E+02  0.50528856429E+02  0.29999989601E+02 0.  0.
         12    1    1    2    0    0  0.17967925398E+02  0.50702781912E+01 -0.36119411566E+02  0.40659143571E+02  0.00000000000E+00 0. -1.
         11    1    3    3    0    0 -0.15964236238E+02  0.64697447399E+01  0.26476861584E+02  0.31587001049E+02  0.51100000000E-03 0.  1.
        -11    1    3    3    0    0  0.30668048767E+00  0.48635745203E+00  0.61921262635E+01  0.62187638979E+01  0.51100000000E-03 0. -1.
        -12    1    3    3    0    0 -0.23103696485E+01 -0.12026380383E+02  0.34504237186E+01  0.12723091482E+02  0.00000000000E+00 0.  1.
</event>
<event>
 7    1  0.6462830E-013  0.5052886E+02  0.7816164E-02  0.1300439E+00
        -11   -1    0    0    0    0  0.00000000000E+00  0.00000000000E+00  0.45593999997E+02  0.45594000000E+02  0.51100000000E-03 0.  1.
         11   -1    0    0    0    0 -0.00000000000E+00 -0.00000000000E+00 -0.45593999997E+02  0.45594000000E+02  0.51100000000E-03 0. -1.
    9900012    2    1    2    0    0  0.14083791683E+02  0.12096686214E+02  0.36172950575E+02  0.50528863772E+02  0.30000011922E+02 0.  0.
         12    1    1    2    0    0 -0.14083791683E+02 -0.12096686214E+02 -0.36172950575E+02  0.40659136228E+02  0.00000000000E+00 0. -1.
         11    1    3    3    0    0  0.96415427410E+01 -0.79071492325E+01  0.19826780595E+02  0.23421861251E+02  0.51100000000E-03 0.  1.
        -11    1    3    3    0    0  0.24862663723E+01  0.57585851185E+01  0.89728639125E+01  0.10947835864E+02  0.51100000000E-03 0. -1.
        -12    1    3    3    0    0  0.19559825694E+01  0.14245250328E+02  0.73733060667E+01  0.16159166658E+02  0.00000000000E+00 0.  1.
</event>
<event>
 7    1  0.1060473E-012  0.5052885E+02  0.7816164E-02  0.1300439E+00
        -11   -1    0    0    0    0  0.00000000000E+00  0.00000000000E+00  0.45593999997E+02  0.45594000000E+02  0.51100000000E-03 0.  1.
         11   -1    0    0    0    0 -0.00000000000E+00 -0.00000000000E+00 -0.45593999997E+02  0.45594000000E+02  0.51100000000E-03 0. -1.
    9900012    2    1    2    0    0  0.12437335783E+02 -0.30313512007E+02  0.24074259254E+02  0.50528852318E+02  0.29999977106E+02 0.  0.
         12    1    1    2    0    0 -0.12437335783E+02  0.30313512007E+02 -0.24074259254E+02  0.40659147682E+02  0.00000000000E+00 0. -1.
         11    1    3    3    0    0  0.94246470142E+01 -0.10688166314E+02  0.62481521254E+00  0.14263634348E+02  0.51100000000E-03 0. -1.
        -11    1    3    3    0    0  0.98629148615E+01 -0.11321828337E+02  0.19902734547E+02  0.24931500740E+02  0.51100000000E-03 0.  1.
         12    1    3    3    0    0 -0.68502260927E+01 -0.83035173564E+01  0.35467094948E+01  0.11333717230E+02  0.00000000000E+00 0. -1.
</event>
<event>
 7    1  0.6462830E-013  0.5052886E+02  0.7816164E-02  0.1300439E+00
        -11   -1    0    0    0    0  0.00000000000E+00  0.00000000000E+00  0.45593999997E+02  0.45594000000E+02  0.51100000000E-03 0.  1.
         11   -1    0    0    0    0 -0.00000000000E+00 -0.00000000000E+00 -0.45593999997E+02  0.45594000000E+02  0.51100000000E-03 0. -1.
    9900012    2    1    2    0    0  0.10596848919E+02  0.32129224580E+02  0.22551829465E+02  0.50528864601E+02  0.30000014442E+02 0.  0.
         12    1    1    2    0    0 -0.10596848919E+02 -0.32129224580E+02 -0.22551829465E+02  0.40659135399E+02  0.00000000000E+00 0. -1.
         11    1    3    3    0    0  0.76617206679E+01  0.94869592189E+01 -0.32989583246E+01  0.12632794034E+02  0.51100000000E-03 0. -1.
        -11    1    3    3    0    0 -0.59548509732E+01  0.50847092557E+01  0.53848462639E+01  0.95032146074E+01  0.51100000000E-03 0.  1.
        -12    1    3    3    0    0  0.88899792240E+01  0.17557556106E+02  0.20465941526E+02  0.28392855960E+02  0.00000000000E+00 0.  1.
</event>
<event>
 7    1  0.6462830E-013  0.5052886E+02  0.7816164E-02  0.1300439E+00
        -11   -1    0    0    0    0  0.00000000000E+00  0.00000000000E+00  0.45593999997E+02  0.45594000000E+02  0.51100000000E-03 0.  1.
         11   -1    0    0    0    0 -0.00000000000E+00 -0.00000000000E+00 -0.45593999997E+02  0.45594000000E+02  0.51100000000E-03 0. -1.
    9900012    2    1    2    0    0  0.10066049918E+02  0.24920802773E+01  0.39314501475E+02  0.50528857716E+02  0.29999993514E+02 0.  0.
         12    1    1    2    0    0 -0.10066049918E+02 -0.24920802773E+01 -0.39314501475E+02  0.40659142284E+02  0.00000000000E+00 0. -1.
         11    1    3    3    0    0 -0.80290544042E+00  0.23477155500E+01  0.45174564708E+01  0.51540119011E+01  0.51100000000E-03 0.  1.
        -11    1    3    3    0    0  0.68696688655E+01 -0.13029974628E+02  0.13295108454E+02  0.19842693824E+02  0.51100000000E-03 0. -1.
         12    1    3    3    0    0  0.39992864926E+01  0.13174339355E+02  0.21501936550E+02  0.25532151991E+02  0.00000000000E+00 0. -1.
</event>
<event>
 7    1  0.6462830E-013  0.5052886E+02  0.7816164E-02  0.1300439E+00
        -11   -1    0    0    0    0  0.00000000000E+00  0.00000000000E+00  0.45593999997E+02  0.45594000000E+02  0.51100000000E-03 0. -1.
         11   -1    0    0    0    0 -0.00000000000E+00 -0.00000000000E+00 -0.45593999997E+02  0.45594000000E+02  0.51100000000E-03 0.  1.
    9900012    2    1    2    0    0  0.27308988749E+02  0.22290161852E+01 -0.30040249482E+02  0.50528856273E+02  0.29999989127E+02 0.  0.
         12    1    1    2    0    0 -0.27308988749E+02 -0.22290161852E+01  0.30040249482E+02  0.40659143727E+02  0.00000000000E+00 0. -1.
         11    1    3    3    0    0  0.66858603037E+01 -0.57487794225E+01 -0.21129534759E+01  0.90671806810E+01  0.51100000000E-03 0. -1.
        -11    1    3    3    0    0  0.66158322681E+01 -0.64633310246E+01 -0.36784693825E+01  0.99536436440E+01  0.51100000000E-03 0.  1.
         12    1    3    3    0    0  0.14007296178E+02  0.14441126632E+02 -0.24248826624E+02  0.31508031948E+02  0.00000000000E+00 0. -1.
</event>
<event>
 7    1  0.6462830E-013  0.5052886E+02  0.7816164E-02  0.1300439E+00
        -11   -1    0    0    0    0  0.00000000000E+00  0.00000000000E+00  0.45593999997E+02  0.45594000000E+02  0.51100000000E-03 0.  1.
         11   -1    0    0    0    0 -0.00000000000E+00 -0.00000000000E+00 -0.45593999997E+02  0.45594000000E+02  0.51100000000E-03 0. -1.
    9900012    2    1    2    0    0  0.12464410046E+02 -0.32061953484E+02  0.21675689454E+02  0.50528857211E+02  0.29999991978E+02 0.  0.
         12    1    1    2    0    0 -0.12464410046E+02  0.32061953484E+02 -0.21675689454E+02  0.40659142789E+02  0.00000000000E+00 0. -1.
         11    1    3    3    0    0 -0.58730089711E+01 -0.99359527827E+00  0.58452989477E+01  0.83454769786E+01  0.51100000000E-03 0. -1.
        -11    1    3    3    0    0 -0.20022492122E+01 -0.19054031875E+01 -0.87498298941E+00  0.28991651742E+01  0.51100000000E-03 0.  1.
        -12    1    3    3    0    0  0.20339668230E+02 -0.29162955018E+02  0.16705373496E+02  0.39284215058E+02  0.00000000000E+00 0.  1.
</event>
<event>
 7    1  0.6462830E-013  0.5052888E+02  0.7816164E-02  0.1300439E+00
        -11   -1    0    0    0    0  0.00000000000E+00  0.00000000000E+00  0.45593999997E+02  0.45594000000E+02  0.51100000000E-03 0.  1.
         11   -1    0    0    0    0 -0.00000000000E+00 -0.00000000000E+00 -0.45593999997E+02  0.45594000000E+02  0.51100000000E-03 0. -1.
    9900012    2    1    2    0    0  0.21495099145E+02  0.33093092286E+02  0.97965127284E+01  0.50528884098E+02  0.30000073703E+02 0.  0.
         12    1    1    2    0    0 -0.21495099145E+02 -0.33093092286E+02 -0.97965127284E+01  0.40659115902E+02  0.00000000000E+00 0. -1.
         11    1    3    3    0    0 -0.10078581716E+01  0.12114155870E+02  0.65572734982E+01  0.13811820536E+02  0.51100000000E-03 0. -1.
        -11    1    3    3    0    0  0.98784623993E+01  0.21483995204E+02  0.43150244665E+01  0.24036753227E+02  0.51100000000E-03 0.  1.
         12    1    3    3    0    0  0.12624494917E+02 -0.50505878754E+00 -0.10757852363E+01  0.12680310334E+02  0.00000000000E+00 0. -1.
</event>
<event>
 7    1  0.6462830E-013  0.5052886E+02  0.7816164E-02  0.1300439E+00
        -11   -1    0    0    0    0  0.00000000000E+00  0.00000000000E+00  0.45593999997E+02  0.45594000000E+02  0.51100000000E-03 0.  1.
         11   -1    0    0    0    0 -0.00000000000E+00 -0.00000000000E+00 -0.45593999997E+02  0.45594000000E+02  0.51100000000E-03 0. -1.
    9900012    2    1    2    0    0  0.41915413286E+00  0.40129998945E+02  0.65248160564E+01  0.50528859206E+02  0.29999998043E+02 0.  0.
         12    1    1    2    0    0 -0.41915413286E+00 -0.40129998945E+02 -0.65248160564E+01  0.40659140794E+02  0.00000000000E+00 0. -1.
         11    1    3    3    0    0  0.67548310174E+01  0.11971351118E+02  0.44523868330E+01  0.14448693312E+02  0.51100000000E-03 0.  1.
        -11    1    3    3    0    0 -0.12310184930E+02  0.26890951969E+02  0.35764542666E+01  0.29790182547E+02  0.51100000000E-03 0. -1.
         12    1    3    3    0    0  0.59745080453E+01  0.12676958579E+01 -0.15040250433E+01  0.62899833467E+01  0.00000000000E+00 0. -1.
</event>
<event>
 7    1  0.6462830E-013  0.5052884E+02  0.7816164E-02  0.1300439E+00
        -11   -1    0    0    0    0  0.00000000000E+00  0.00000000000E+00  0.45593999997E+02  0.45594000000E+02  0.51100000000E-03 0.  1.
         11   -1    0    0    0    0 -0.00000000000E+00 -0.00000000000E+00 -0.45593999997E+02  0.45594000000E+02  0.51100000000E-03 0. -1.
    9900012    2    1    2    0    0  0.12189779899E+02 -0.20859149345E+02  0.32702783792E+02  0.50528844658E+02  0.29999953823E+02 0.  0.
         12    1    1    2    0    0 -0.12189779899E+02  0.20859149345E+02 -0.32702783792E+02  0.40659155342E+02  0.00000000000E+00 0. -1.
         11    1    3    3    0    0  0.64102740231E+01  0.25618564673E+01  0.11563849193E+02  0.13467640106E+02  0.51100000000E-03 0. -1.
        -11    1    3    3    0    0  0.72531744050E+01 -0.16009612028E+02  0.23314943946E+02  0.29197651065E+02  0.51100000000E-03 0.  1.
         12    1    3    3    0    0 -0.14736685296E+01 -0.74113937841E+01 -0.21760093475E+01  0.78635534868E+01  0.00000000000E+00 0. -1.
</event>
<event>
 7    1  0.6462830E-013  0.5052884E+02  0.7816164E-02  0.1300439E+00
        -11   -1    0    0    0    0  0.00000000000E+00  0.00000000000E+00  0.45593999997E+02  0.45594000000E+02  0.51100000000E-03 0.  1.
         11   -1    0    0    0    0 -0.00000000000E+00 -0.00000000000E+00 -0.45593999997E+02  0.45594000000E+02  0.51100000000E-03 0. -1.
    9900012    2    1    2    0    0  0.19449072141E+02 -0.10593577201E+02  0.34098047107E+02  0.50528842341E+02  0.29999946779E+02 0.  0.
         12    1    1    2    0    0 -0.19449072141E+02  0.10593577201E+02 -0.34098047107E+02  0.40659157659E+02  0.00000000000E+00 0. -1.
         11    1    3    3    0    0 -0.17173383966E+01 -0.94049794521E+01  0.15161934603E+02  0.17924484674E+02  0.51100000000E-03 0. -1.
        -11    1    3    3    0    0  0.15834146226E+02 -0.78399367496E+01  0.15157917054E+02  0.23279760407E+02  0.51100000000E-03 0.  1.
        -12    1    3    3    0    0  0.53322643119E+01  0.66513390008E+01  0.37781954489E+01  0.93245972592E+01  0.00000000000E+00 0.  1.
</event>
<event>
 7    1  0.6462830E-013  0.5052886E+02  0.7816164E-02  0.1300439E+00
        -11   -1    0    0    0    0  0.00000000000E+00  0.00000000000E+00  0.45593999997E+02  0.45594000000E+02  0.51100000000E-03 0.  1.
         11   -1    0    0    0    0 -0.00000000000E+00 -0.00000000000E+00 -0.45593999997E+02  0.45594000000E+02  0.51100000000E-03 0. -1.
    9900012    2    1    2    0    0  0.11815028786E+02  0.38647586778E+02 -0.44648756833E+01  0.50528856086E+02  0.29999988558E+02 0.  0.
         12    1    1    2    0    0 -0.11815028786E+02 -0.38647586778E+02  0.44648756833E+01  0.40659143914E+02  0.00000000000E+00 0. -1.
         11    1    3    3    0    0  0.17752264783E+02  0.24253091077E+02 -0.28423853802E+01  0.30189973279E+02  0.51100000000E-03 0. -1.
        -11    1    3    3    0    0 -0.28656815361E+01  0.15566032101E+02 -0.39474231692E+01  0.16312438076E+02  0.51100000000E-03 0.  1.
        -12    1    3    3    0    0 -0.30715544603E+01 -0.11715363999E+01  0.23249328661E+01  0.40264447309E+01  0.00000000000E+00 0.  1.
</event>
<event>
 7    1  0.6462830E-013  0.5052885E+02  0.7816164E-02  0.1300439E+00
        -11   -1    0    0    0    0  0.00000000000E+00  0.00000000000E+00  0.45593999997E+02  0.45594000000E+02  0.51100000000E-03 0.  1.
         11   -1    0    0    0    0 -0.00000000000E+00 -0.00000000000E+00 -0.45593999997E+02  0.45594000000E+02  0.51100000000E-03 0. -1.
    9900012    2    1    2    0    0  0.41080872013E+01  0.37280153904E+02  0.15699678913E+02  0.50528853753E+02  0.29999981468E+02 0.  0.
         12    1    1    2    0    0 -0.41080872013E+01 -0.37280153904E+02 -0.15699678913E+02  0.40659146247E+02  0.00000000000E+00 0. -1.
         11    1    3    3    0    0  0.42491999162E+01  0.30827826035E+02  0.11475959535E+02  0.33167879122E+02  0.51100000000E-03 0. -1.
        -11    1    3    3    0    0  0.44501038693E+00  0.35603341509E+01  0.10136494536E+02  0.10752791975E+02  0.51100000000E-03 0.  1.
        -12    1    3    3    0    0 -0.58612310178E+00  0.28919937182E+01 -0.59127751575E+01  0.66081826564E+01  0.00000000000E+00 0.  1.
</event>
<event>
 7    1  0.6462830E-013  0.5052886E+02  0.7816164E-02  0.1300439E+00
        -11   -1    0    0    0    0  0.00000000000E+00  0.00000000000E+00  0.45593999997E+02  0.45594000000E+02  0.51100000000E-03 0.  1.
         11   -1    0    0    0    0 -0.00000000000E+00 -0.00000000000E+00 -0.45593999997E+02  0.45594000000E+02  0.51100000000E-03 0. -1.
    9900012    2    1    2    0    0 -0.14098824764E+02 -0.36327896145E+02  0.11604842927E+02  0.50528864773E+02  0.30000014965E+02 0.  0.
         12    1    1    2    0    0  0.14098824764E+02  0.36327896145E+02 -0.11604842927E+02  0.40659135227E+02  0.00000000000E+00 0. -1.
         11    1    3    3    0    0  0.44669419927E+01 -0.16660250181E+02 -0.18479454613E+01  0.17347403539E+02  0.51100000000E-03 0. -1.
        -11    1    3    3    0    0 -0.39740149324E+01 -0.12546536799E+02  0.10130711711E+02  0.16608422573E+02  0.51100000000E-03 0.  1.
        -12    1    3    3    0    0 -0.14591751824E+02 -0.71211091654E+01  0.33220766769E+01  0.16573038662E+02  0.00000000000E+00 0.  1.
</event>
<event>
 7    1  0.6462830E-013  0.5052887E+02  0.7816164E-02  0.1300439E+00
        -11   -1    0    0    0    0  0.00000000000E+00  0.00000000000E+00  0.45593999997E+02  0.45594000000E+02  0.51100000000E-03 0.  1.
         11   -1    0    0    0    0 -0.00000000000E+00 -0.00000000000E+00 -0.45593999997E+02  0.45594000000E+02  0.51100000000E-03 0. -1.
    9900012    2    1    2    0    0  0.42194816379E+01 -0.39239365541E+02  0.97791965365E+01  0.50528874109E+02  0.30000043341E+02 0.  0.
         12    1    1    2    0    0 -0.42194816379E+01  0.39239365541E+02 -0.97791965365E+01  0.40659125891E+02  0.00000000000E+00 0. -1.
         11    1    3    3    0    0  0.83135396239E+01 -0.16997196088E+01 -0.25526613663E+01  0.88611550116E+01  0.51100000000E-03 0. -1.
        -11    1    3    3    0    0 -0.39182396990E+01 -0.29978946317E+01 -0.15993328482E+00  0.49361476354E+01  0.51100000000E-03 0.  1.
         12    1    3    3    0    0 -0.17581828699E+00 -0.34541751300E+02  0.12491791188E+02  0.36731571462E+02  0.00000000000E+00 0. -1.
</event>
<event>
 7    1  0.6462830E-013  0.5052886E+02  0.7816164E-02  0.1300439E+00
        -11   -1    0    0    0    0  0.00000000000E+00  0.00000000000E+00  0.45593999997E+02  0.45594000000E+02  0.51100000000E-03 0.  1.
         11   -1    0    0    0    0 -0.00000000000E+00 -0.00000000000E+00 -0.45593999997E+02  0.45594000000E+02  0.51100000000E-03 0. -1.
    9900012    2    1    2    0    0 -0.46367087629E+01 -0.39118106512E+02  0.10071751997E+02  0.50528861870E+02  0.30000006139E+02 0.  0.
         12    1    1    2    0    0  0.46367087629E+01  0.39118106512E+02 -0.10071751997E+02  0.40659138130E+02  0.00000000000E+00 0. -1.
         11    1    3    3    0    0  0.70031026795E+01 -0.68693669767E+01 -0.22235113202E+01  0.10058610871E+02  0.51100000000E-03 0. -1.
        -11    1    3    3    0    0  0.18054265370E+01 -0.20830093466E+02  0.62230629305E+01  0.21814648090E+02  0.51100000000E-03 0.  1.
        -12    1    3    3    0    0 -0.13445237979E+02 -0.11418646069E+02  0.60722003866E+01  0.18655602909E+02  0.00000000000E+00 0.  1.
</event>
<event>
 7    1  0.6462830E-013  0.5052885E+02  0.7816164E-02  0.1300439E+00
        -11   -1    0    0    0    0  0.00000000000E+00  0.00000000000E+00  0.45593999997E+02  0.45594000000E+02  0.51100000000E-03 0.  1.
         11   -1    0    0    0    0 -0.00000000000E+00 -0.00000000000E+00 -0.45593999997E+02  0.45594000000E+02  0.51100000000E-03 0. -1.
    9900012    2    1    2    0    0  0.24007467786E+02 -0.15124708936E+02  0.29121314512E+02  0.50528852336E+02  0.29999977160E+02 0.  0.
         12    1    1    2    0    0 -0.24007467786E+02  0.15124708936E+02 -0.29121314512E+02  0.40659147664E+02  0.00000000000E+00 0. -1.
         11    1    3    3    0    0 -0.19549219226E+01 -0.85182698817E+00 -0.51436662155E+00  0.21936048467E+01  0.51100000000E-03 0. -1.
        -11    1    3    3    0    0  0.11601994507E+02  0.51925280831E+01  0.16439864814E+02  0.20780706913E+02  0.51100000000E-03 0.  1.
         12    1    3    3    0    0  0.14360395201E+02 -0.19465410031E+02  0.13195816319E+02  0.27554540576E+02  0.00000000000E+00 0. -1.
</event>
<event>
 7    1  0.6462830E-013  0.5052888E+02  0.7816164E-02  0.1300439E+00
        -11   -1    0    0    0    0  0.00000000000E+00  0.00000000000E+00  0.45593999997E+02  0.45594000000E+02  0.51100000000E-03 0. -1.
         11   -1    0    0    0    0 -0.00000000000E+00 -0.00000000000E+00 -0.45593999997E+02  0.45594000000E+02  0.51100000000E-03 0.  1.
    9900012    2    1    2    0    0  0.77040771868E+01 -0.25358526238E+02 -0.30834344158E+02  0.50528875096E+02  0.30000046343E+02 0.  0.
         12    1    1    2    0    0 -0.77040771868E+01  0.25358526238E+02  0.30834344158E+02  0.40659124904E+02  0.00000000000E+00 0. -1.
         11    1    3    3    0    0 -0.94415673184E+01 -0.52040799748E+01 -0.37542614588E+01  0.11415783862E+02  0.51100000000E-03 0. -1.
        -11    1    3    3    0    0  0.11006910413E+02 -0.11924844172E+02 -0.96404090446E+01  0.18875684681E+02  0.51100000000E-03 0.  1.
        -12    1    3    3    0    0  0.61387340923E+01 -0.82296020912E+01 -0.17439673655E+02  0.20237406554E+02  0.00000000000E+00 0.  1.
</event>
<event>
 7    1  0.6462830E-013  0.5052887E+02  0.7816164E-02  0.1300439E+00
        -11   -1    0    0    0    0  0.00000000000E+00  0.00000000000E+00  0.45593999997E+02  0.45594000000E+02  0.51100000000E-03 0. -1.
         11   -1    0    0    0    0 -0.00000000000E+00 -0.00000000000E+00 -0.45593999997E+02  0.45594000000E+02  0.51100000000E-03 0.  1.
    9900012    2    1    2    0    0  0.34383416044E+02  0.10614271620E+02 -0.18928352055E+02  0.50528873443E+02  0.30000041316E+02 0.  0.
         12    1    1    2    0    0 -0.34383416044E+02 -0.10614271620E+02  0.18928352055E+02  0.40659126557E+02  0.00000000000E+00 0. -1.
         11    1    3    3    0    0  0.10284773122E+02 -0.87020890343E+01 -0.50986693232E+01  0.14404837412E+02  0.51100000000E-03 0. -1.
        -11    1    3    3    0    0  0.85103152060E+01 -0.50842381960E-01 -0.34781987123E+01  0.91937977135E+01  0.51100000000E-03 0.  1.
        -12    1    3    3    0    0  0.15588327716E+02  0.19367203036E+02 -0.10351484020E+02  0.26930238317E+02  0.00000000000E+00 0.  1.
</event>
<event>
 7    1  0.6462830E-013  0.5052885E+02  0.7816164E-02  0.1300439E+00
        -11   -1    0    0    0    0  0.00000000000E+00  0.00000000000E+00  0.45593999997E+02  0.45594000000E+02  0.51100000000E-03 0.  1.
         11   -1    0    0    0    0 -0.00000000000E+00 -0.00000000000E+00 -0.45593999997E+02  0.45594000000E+02  0.51100000000E-03 0. -1.
    9900012    2    1    2    0    0  0.28673144460E+02 -0.18014209401E+02  0.22505674039E+02  0.50528851982E+02  0.29999976085E+02 0.  0.
         12    1    1    2    0    0 -0.28673144460E+02  0.18014209401E+02 -0.22505674039E+02  0.40659148018E+02  0.00000000000E+00 0. -1.
         11    1    3    3    0    0 -0.33096632046E+01  0.93009353139E+00  0.60908773163E+01  0.69941211919E+01  0.51100000000E-03 0.  1.
        -11    1    3    3    0    0  0.13072842971E+02 -0.11322274385E+02 -0.10371817320E+00  0.17294619924E+02  0.51100000000E-03 0. -1.
         12    1    3    3    0    0  0.18909964693E+02 -0.76220285480E+01  0.16518514896E+02  0.26240110866E+02  0.00000000000E+00 0. -1.
</event>
<event>
 7    1  0.6462830E-013  0.5052886E+02  0.7816164E-02  0.1300439E+00
        -11   -1    0    0    0    0  0.00000000000E+00  0.00000000000E+00  0.45593999997E+02  0.45594000000E+02  0.51100000000E-03 0.  1.
         11   -1    0    0    0    0 -0.00000000000E+00 -0.00000000000E+00 -0.45593999997E+02  0.45594000000E+02  0.51100000000E-03 0. -1.
    9900012    2    1    2    0    0 -0.33936417576E+02 -0.14669117442E+02  0.16920466612E+02  0.50528860378E+02  0.30000001606E+02 0.  0.
         12    1    1    2    0    0  0.33936417576E+02  0.14669117442E+02 -0.16920466612E+02  0.40659139622E+02  0.00000000000E+00 0. -1.
         11    1    3    3    0    0 -0.12534632133E+02 -0.45465872574E+01  0.51307333174E+01  0.14286808007E+02  0.51100000000E-03 0. -1.
        -11    1    3    3    0    0 -0.70189323748E+01 -0.16808229997E+02  0.82238834929E+01  0.19985351317E+02  0.51100000000E-03 0.  1.
         12    1    3    3    0    0 -0.14382853068E+02  0.66856998121E+01  0.35658498022E+01  0.16256701054E+02  0.00000000000E+00 0. -1.
</event>
<event>
 7    1  0.6462830E-013  0.5052886E+02  0.7816164E-02  0.1300439E+00
        -11   -1    0    0    0    0  0.00000000000E+00  0.00000000000E+00  0.45593999997E+02  0.45594000000E+02  0.51100000000E-03 0. -1.
         11   -1    0    0    0    0 -0.00000000000E+00 -0.00000000000E+00 -0.45593999997E+02  0.45594000000E+02  0.51100000000E-03 0.  1.
    9900012    2    1    2    0    0 -0.40589393337E+02  0.23632562760E+01  0.28626854313E+00  0.50528858575E+02  0.29999996126E+02 0.  0.
         12    1    1    2    0    0  0.40589393337E+02 -0.23632562760E+01 -0.28626854313E+00  0.40659141425E+02  0.00000000000E+00 0. -1.
         11    1    3    3    0    0 -0.18947695780E+01  0.53881932736E+01 -0.62446027002E+00  0.57456704915E+01  0.51100000000E-03 0. -1.
        -11    1    3    3    0    0 -0.14777944558E+02  0.17632747071E+01 -0.10136468079E+02  0.18006797839E+02  0.51100000000E-03 0.  1.
         12    1    3    3    0    0 -0.23916679201E+02 -0.47882117047E+01  0.11047196892E+02  0.26776390245E+02  0.00000000000E+00 0. -1.
</event>
<event>
 7    1  0.6462830E-013  0.5052886E+02  0.7816164E-02  0.1300439E+00
        -11   -1    0    0    0    0  0.00000000000E+00  0.00000000000E+00  0.45593999997E+02  0.45594000000E+02  0.51100000000E-03 0.  1.
         11   -1    0    0    0    0 -0.00000000000E+00 -0.00000000000E+00 -0.45593999997E+02  0.45594000000E+02  0.51100000000E-03 0. -1.
    9900012    2    1    2    0    0  0.22844978098E+02  0.14404737644E+02  0.30393682093E+02  0.50528863239E+02  0.30000010303E+02 0.  0.
         12    1    1    2    0    0 -0.22844978098E+02 -0.14404737644E+02 -0.30393682093E+02  0.40659136761E+02  0.00000000000E+00 0. -1.
         11    1    3    3    0    0  0.79604601832E+01  0.13398586199E+02  0.44071082733E+01  0.16196099594E+02  0.51100000000E-03 0. -1.
        -11    1    3    3    0    0  0.21223235802E+01  0.75895169140E+01  0.11444588500E+02  0.13895453593E+02  0.51100000000E-03 0.  1.
         12    1    3    3    0    0  0.12762194335E+02 -0.65833654685E+01  0.14541985320E+02  0.20437310053E+02  0.00000000000E+00 0. -1.
</event>
<event>
 7    1  0.6462830E-013  0.5052886E+02  0.7816164E-02  0.1300439E+00
        -11   -1    0    0    0    0  0.00000000000E+00  0.00000000000E+00  0.45593999997E+02  0.45594000000E+02  0.51100000000E-03 0.  1.
         11   -1    0    0    0    0 -0.00000000000E+00 -0.00000000000E+00 -0.45593999997E+02  0.45594000000E+02  0.51100000000E-03 0. -1.
    9900012    2    1    2    0    0 -0.15137109575E+02 -0.92511292572E+00  0.37725029185E+02  0.50528858996E+02  0.29999997404E+02 0.  0.
         12    1    1    2    0    0  0.15137109575E+02  0.92511292572E+00 -0.37725029185E+02  0.40659141004E+02  0.00000000000E+00 0. -1.
         11    1    3    3    0    0 -0.40773250519E+01 -0.11340019468E+02  0.20676458400E+02  0.23931914953E+02  0.51100000000E-03 0. -1.
        -11    1    3    3    0    0 -0.51165712454E+01 -0.22448414114E+01  0.17177793288E+01  0.58454580962E+01  0.51100000000E-03 0.  1.
        -12    1    3    3    0    0 -0.59432132778E+01  0.12659747954E+02  0.15330791456E+02  0.20751485946E+02  0.00000000000E+00 0.  1.
</event>
<event>
 7    1  0.6462830E-013  0.5052886E+02  0.7816164E-02  0.1300439E+00
        -11   -1    0    0    0    0  0.00000000000E+00  0.00000000000E+00  0.45593999997E+02  0.45594000000E+02  0.51100000000E-03 0.  1.
         11   -1    0    0    0    0 -0.00000000000E+00 -0.00000000000E+00 -0.45593999997E+02  0.45594000000E+02  0.51100000000E-03 0. -1.
    9900012    2    1    2    0    0 -0.30832487223E+02 -0.56799760649E+01  0.25889402172E+02  0.50528861528E+02  0.30000005100E+02 0.  0.
         12    1    1    2    0    0  0.30832487223E+02  0.56799760649E+01 -0.25889402172E+02  0.40659138472E+02  0.00000000000E+00 0. -1.
         11    1    3    3    0    0  0.15092986829E+01  0.19324780050E+01  0.12427762172E+02  0.12667348839E+02  0.51100000000E-03 0. -1.
        -11    1    3    3    0    0 -0.18009569891E+02 -0.32948033513E+01  0.13739500524E+02  0.22890482994E+02  0.51100000000E-03 0.  1.
        -12    1    3    3    0    0 -0.14332216016E+02 -0.43176507187E+01 -0.27786052417E+00  0.14971029695E+02  0.00000000000E+00 0.  1.
</event>
<event>
 7    1  0.6462830E-013  0.5052886E+02  0.7816164E-02  0.1300439E+00
        -11   -1    0    0    0    0  0.00000000000E+00  0.00000000000E+00  0.45593999997E+02  0.45594000000E+02  0.51100000000E-03 0. -1.
         11   -1    0    0    0    0 -0.00000000000E+00 -0.00000000000E+00 -0.45593999997E+02  0.45594000000E+02  0.51100000000E-03 0.  1.
    9900012    2    1    2    0    0  0.33404316275E+00 -0.39059498962E+02  0.11287587610E+02  0.50528859846E+02  0.29999999989E+02 0.  0.
         12    1    1    2    0    0 -0.33404316275E+00  0.39059498962E+02 -0.11287587610E+02  0.40659140154E+02  0.00000000000E+00 0. -1.
         11    1    3    3    0    0  0.12949409735E+02 -0.18706683199E+02  0.82416322053E+01  0.24198175767E+02  0.51100000000E-03 0. -1.
        -11    1    3    3    0    0 -0.12147242536E+01 -0.11457835055E+02  0.28497252939E+01  0.11869223802E+02  0.51100000000E-03 0.  1.
         12    1    3    3    0    0 -0.11400642319E+02 -0.88949807082E+01  0.19623011028E+00  0.14461460277E+02  0.00000000000E+00 0. -1.
</event>
<event>
 7    1  0.6462830E-013  0.5052886E+02  0.7816164E-02  0.1300439E+00
        -11   -1    0    0    0    0  0.00000000000E+00  0.00000000000E+00  0.45593999997E+02  0.45594000000E+02  0.51100000000E-03 0.  1.
         11   -1    0    0    0    0 -0.00000000000E+00 -0.00000000000E+00 -0.45593999997E+02  0.45594000000E+02  0.51100000000E-03 0. -1.
    9900012    2    1    2    0    0 -0.12305434354E+02  0.26816833551E+02  0.27974981828E+02  0.50528857306E+02  0.29999992267E+02 0.  0.
         12    1    1    2    0    0  0.12305434354E+02 -0.26816833551E+02 -0.27974981828E+02  0.40659142694E+02  0.00000000000E+00 0. -1.
         11    1    3    3    0    0 -0.79255122152E+01  0.98577751154E+01 -0.21176597707E+01  0.12824740047E+02  0.51100000000E-03 0. -1.
        -11    1    3    3    0    0 -0.29512513749E+01  0.12537157639E+02  0.80759045650E+01  0.15202316967E+02  0.51100000000E-03 0.  1.
         12    1    3    3    0    0 -0.14286707636E+01  0.44219007962E+01  0.22016737034E+02  0.22501800293E+02  0.00000000000E+00 0. -1.
</event>
<event>
 7    1  0.6462830E-013  0.5052885E+02  0.7816164E-02  0.1300439E+00
        -11   -1    0    0    0    0  0.00000000000E+00  0.00000000000E+00  0.45593999997E+02  0.45594000000E+02  0.51100000000E-03 0. -1.
         11   -1    0    0    0    0 -0.00000000000E+00 -0.00000000000E+00 -0.45593999997E+02  0.45594000000E+02  0.51100000000E-03 0.  1.
    9900012    2    1    2    0    0 -0.35962952721E+02 -0.18281162889E+02  0.50627386878E+01  0.50528853329E+02  0.29999980179E+02 0.  0.
         12    1    1    2    0    0  0.35962952721E+02  0.18281162889E+02 -0.50627386878E+01  0.40659146671E+02  0.00000000000E+00 0. -1.
         11    1    3    3    0    0 -0.14329530353E+02  0.29718360086E+01  0.43470032563E+01  0.15266423516E+02  0.51100000000E-03 0.  1.
        -11    1    3    3    0    0  0.12127686386E+01  0.12609380001E+01 -0.24727033170E+01  0.30290319189E+01  0.51100000000E-03 0. -1.
        -12    1    3    3    0    0 -0.22846191007E+02 -0.22513936897E+02  0.31884387485E+01  0.32233397894E+02  0.00000000000E+00 0.  1.
</event>
<event>
 7    1  0.6462830E-013  0.5052886E+02  0.7816164E-02  0.1300439E+00
        -11   -1    0    0    0    0  0.00000000000E+00  0.00000000000E+00  0.45593999997E+02  0.45594000000E+02  0.51100000000E-03 0.  1.
         11   -1    0    0    0    0 -0.00000000000E+00 -0.00000000000E+00 -0.45593999997E+02  0.45594000000E+02  0.51100000000E-03 0. -1.
    9900012    2    1    2    0    0 -0.20397831028E+02 -0.87783657115E+01  0.34059272717E+02  0.50528864825E+02  0.30000015122E+02 0.  0.
         12    1    1    2    0    0  0.20397831028E+02  0.87783657115E+01 -0.34059272717E+02  0.40659135175E+02  0.00000000000E+00 0. -1.
         11    1    3    3    0    0 -0.17129335859E+02 -0.90960277904E+01  0.25068125109E+02  0.31694838148E+02  0.51100000000E-03 0.  1.
        -11    1    3    3    0    0 -0.74708989664E+01 -0.73341623109E+00 -0.13454484820E+01  0.76264318402E+01  0.51100000000E-03 0. -1.
        -12    1    3    3    0    0  0.42024037976E+01  0.10510783100E+01  0.10336596090E+02  0.11207594836E+02  0.00000000000E+00 0.  1.
</event>
<event>
 7    1  0.6462830E-013  0.5052884E+02  0.7816164E-02  0.1300439E+00
        -11   -1    0    0    0    0  0.00000000000E+00  0.00000000000E+00  0.45593999997E+02  0.45594000000E+02  0.51100000000E-03 0.  1.
         11   -1    0    0    0    0 -0.00000000000E+00 -0.00000000000E+00 -0.45593999997E+02  0.45594000000E+02  0.51100000000E-03 0. -1.
    9900012    2    1    2    0    0  0.74392415386E+01  0.27140435970E+02  0.29346573169E+02  0.50528844376E+02  0.29999952964E+02 0.  0.
         12    1    1    2    0    0 -0.74392415386E+01 -0.27140435970E+02 -0.29346573169E+02  0.40659155624E+02  0.00000000000E+00 0. -1.
         11    1    3    3    0    0 -0.30646338223E+00  0.20841189391E+02  0.88956456942E+01  0.22662338970E+02  0.51100000000E-03 0. -1.
        -11    1    3    3    0    0  0.50446625935E+01  0.93256248036E+01  0.21235173707E+02  0.23734963688E+02  0.51100000000E-03 0.  1.
        -12    1    3    3    0    0  0.27010423274E+01 -0.30263782239E+01 -0.78424623210E+00  0.41315417172E+01  0.00000000000E+00 0.  1.
</event>
<event>
 7    1  0.6462830E-013  0.5052886E+02  0.7816164E-02  0.1300439E+00
        -11   -1    0    0    0    0  0.00000000000E+00  0.00000000000E+00  0.45593999997E+02  0.45594000000E+02  0.51100000000E-03 0.  1.
         11   -1    0    0    0    0 -0.00000000000E+00 -0.00000000000E+00 -0.45593999997E+02  0.45594000000E+02  0.51100000000E-03 0. -1.
    9900012    2    1    2    0    0 -0.23274211318E+01 -0.40514797958E+02  0.25099831220E+01  0.50528858863E+02  0.29999997000E+02 0.  0.
         12    1    1    2    0    0  0.23274211318E+01  0.40514797958E+02 -0.25099831220E+01  0.40659141137E+02  0.00000000000E+00 0. -1.
         11    1    3    3    0    0 -0.70319781528E-01  0.18313861739E+01 -0.34377560091E+01  0.38957780775E+01  0.51100000000E-03 0. -1.
        -11    1    3    3    0    0  0.71939182513E+01 -0.15380820015E+02 -0.16684645960E+01  0.17061824595E+02  0.51100000000E-03 0.  1.
         12    1    3    3    0    0 -0.94510196016E+01 -0.26965364118E+02  0.76162037272E+01  0.29571256191E+02  0.00000000000E+00 0. -1.
</event>
<event>
 7    1  0.6462830E-013  0.5052887E+02  0.7816164E-02  0.1300439E+00
        -11   -1    0    0    0    0  0.00000000000E+00  0.00000000000E+00  0.45593999997E+02  0.45594000000E+02  0.51100000000E-03 0.  1.
         11   -1    0    0    0    0 -0.00000000000E+00 -0.00000000000E+00 -0.45593999997E+02  0.45594000000E+02  0.51100000000E-03 0. -1.
    9900012    2    1    2    0    0 -0.11257871154E+02 -0.37048169796E+02 -0.12403969465E+02  0.50528868102E+02  0.30000025084E+02 0.  0.
         12    1    1    2    0    0  0.11257871154E+02  0.37048169796E+02  0.12403969465E+02  0.40659131898E+02  0.00000000000E+00 0. -1.
         11    1    3    3    0    0  0.59952914135E+00  0.31966867781E+00 -0.10479853988E+01  0.12489583308E+01  0.51100000000E-03 0. -1.
        -11    1    3    3    0    0 -0.46627997594E+01 -0.39888635482E+02 -0.79942885547E+01  0.40948181791E+02  0.51100000000E-03 0.  1.
        -12    1    3    3    0    0 -0.71946005360E+01  0.25207970082E+01 -0.33616955111E+01  0.83317279804E+01  0.00000000000E+00 0.  1.
</event>
<event>
 7    1  0.6462830E-013  0.5052886E+02  0.7816164E-02  0.1300439E+00
        -11   -1    0    0    0    0  0.00000000000E+00  0.00000000000E+00  0.45593999997E+02  0.45594000000E+02  0.51100000000E-03 0.  1.
         11   -1    0    0    0    0 -0.00000000000E+00 -0.00000000000E+00 -0.45593999997E+02  0.45594000000E+02  0.51100000000E-03 0. -1.
    9900012    2    1    2    0    0 -0.43523202873E+01 -0.24941457258E+02  0.31814248206E+02  0.50528863622E+02  0.30000011466E+02 0.  0.
         12    1    1    2    0    0  0.43523202873E+01  0.24941457258E+02 -0.31814248206E+02  0.40659136378E+02  0.00000000000E+00 0. -1.
         11    1    3    3    0    0  0.12931576512E+01  0.60183186361E+00 -0.12568425159E+01  0.19010817115E+01  0.51100000000E-03 0. -1.
        -11    1    3    3    0    0 -0.58324615579E+01  0.12194113883E+01  0.15515549503E+02  0.16620374502E+02  0.51100000000E-03 0.  1.
        -12    1    3    3    0    0  0.18698361943E+00 -0.26762700510E+02  0.17555541219E+02  0.32007407408E+02  0.00000000000E+00 0.  1.
</event>
<event>
 7    1  0.6462830E-013  0.5052872E+02  0.7816164E-02  0.1300439E+00
        -11   -1    0    0    0    0  0.00000000000E+00  0.00000000000E+00  0.45593999997E+02  0.45594000000E+02  0.51100000000E-03 0.  1.
         11   -1    0    0    0    0 -0.00000000000E+00 -0.00000000000E+00 -0.45593999997E+02  0.45594000000E+02  0.51100000000E-03 0. -1.
    9900012    2    1    2    0    0  0.19993942823E+02  0.23873737153E+02  0.26143144225E+02  0.50528719814E+02  0.29999574344E+02 0.  0.
         12    1    1    2    0    0 -0.19993942823E+02 -0.23873737153E+02 -0.26143144225E+02  0.40659280186E+02  0.00000000000E+00 0. -1.
         11    1    3    3    0    0 -0.41131195579E+00  0.14219240038E+02  0.92635735811E+01  0.16975563629E+02  0.51100000000E-03 0.  1.
        -11    1    3    3    0    0 -0.28406404026E+01 -0.13533289261E+01  0.89909361066E+00  0.32724771444E+01  0.51100000000E-03 0. -1.
         12    1    3    3    0    0  0.23245895182E+02  0.11007826041E+02  0.15980477033E+02  0.30280679041E+02  0.00000000000E+00 0. -1.
</event>
<event>
 7    1  0.6462830E-013  0.5052885E+02  0.7816164E-02  0.1300439E+00
        -11   -1    0    0    0    0  0.00000000000E+00  0.00000000000E+00  0.45593999997E+02  0.45594000000E+02  0.51100000000E-03 0.  1.
         11   -1    0    0    0    0 -0.00000000000E+00 -0.00000000000E+00 -0.45593999997E+02  0.45594000000E+02  0.51100000000E-03 0. -1.
    9900012    2    1    2    0    0  0.11400798004E+02  0.22372873469E+02  0.31978783018E+02  0.50528853111E+02  0.29999979518E+02 0.  0.
         12    1    1    2    0    0 -0.11400798004E+02 -0.22372873469E+02 -0.31978783018E+02  0.40659146889E+02  0.00000000000E+00 0. -1.
         11    1    3    3    0    0  0.21099933111E+01  0.12156842224E+02  0.53292325620E+01  0.13440297787E+02  0.51100000000E-03 0. -1.
        -11    1    3    3    0    0  0.73818215552E+01  0.10253163168E+02  0.30377542525E+02  0.32900056755E+02  0.51100000000E-03 0.  1.
         12    1    3    3    0    0  0.19089831379E+01 -0.37131922080E-01 -0.37279920689E+01  0.41884985695E+01  0.00000000000E+00 0. -1.
</event>
<event>
 7    1  0.6462830E-013  0.5052887E+02  0.7816164E-02  0.1300439E+00
        -11   -1    0    0    0    0  0.00000000000E+00  0.00000000000E+00  0.45593999997E+02  0.45594000000E+02  0.51100000000E-03 0.  1.
         11   -1    0    0    0    0 -0.00000000000E+00 -0.00000000000E+00 -0.45593999997E+02  0.45594000000E+02  0.51100000000E-03 0. -1.
    9900012    2    1    2    0    0 -0.88225177938E+01 -0.22859925964E+02  0.32446134732E+02  0.50528871943E+02  0.30000036759E+02 0.  0.
         12    1    1    2    0    0  0.88225177938E+01  0.22859925964E+02 -0.32446134732E+02  0.40659128057E+02  0.00000000000E+00 0. -1.
         11    1    3    3    0    0 -0.38578229851E+00 -0.17209636432E+02  0.21344087107E+02  0.27420621233E+02  0.51100000000E-03 0. -1.
        -11    1    3    3    0    0 -0.37268521447E+00  0.41795886428E+01  0.93825366807E+01  0.10278124844E+02  0.51100000000E-03 0.  1.
         12    1    3    3    0    0 -0.80640502808E+01 -0.98298781746E+01  0.17195109443E+01  0.12830125866E+02  0.00000000000E+00 0. -1.
</event>
<event>
 7    1  0.6462830E-013  0.5052887E+02  0.7816164E-02  0.1300439E+00
        -11   -1    0    0    0    0  0.00000000000E+00  0.00000000000E+00  0.45593999997E+02  0.45594000000E+02  0.51100000000E-03 0.  1.
         11   -1    0    0    0    0 -0.00000000000E+00 -0.00000000000E+00 -0.45593999997E+02  0.45594000000E+02  0.51100000000E-03 0. -1.
    9900012    2    1    2    0    0  0.11170195321E+02 -0.37527674616E+02  0.10957419203E+02  0.50528872351E+02  0.30000037997E+02 0.  0.
         12    1    1    2    0    0 -0.11170195321E+02  0.37527674616E+02 -0.10957419203E+02  0.40659127649E+02  0.00000000000E+00 0. -1.
         11    1    3    3    0    0  0.54905522028E+01 -0.34005951639E+01 -0.17951538224E+01  0.67031924087E+01  0.51100000000E-03 0. -1.
        -11    1    3    3    0    0 -0.73306164165E+01 -0.29162839570E+01  0.66962985304E+00  0.79177682187E+01  0.51100000000E-03 0.  1.
        -12    1    3    3    0    0  0.13010259535E+02 -0.31210795495E+02  0.12082943172E+02  0.35907911723E+02  0.00000000000E+00 0.  1.
</event>
<event>
 7    1  0.6462830E-013  0.5052886E+02  0.7816164E-02  0.1300439E+00
        -11   -1    0    0    0    0  0.00000000000E+00  0.00000000000E+00  0.45593999997E+02  0.45594000000E+02  0.51100000000E-03 0. -1.
         11   -1    0    0    0    0 -0.00000000000E+00 -0.00000000000E+00 -0.45593999997E+02  0.45594000000E+02  0.51100000000E-03 0.  1.
    9900012    2    1    2    0    0  0.32135580349E+02  0.14864815306E+02 -0.19987672657E+02  0.50528864289E+02  0.30000013494E+02 0.  0.
         12    1    1    2    0    0 -0.32135580349E+02 -0.14864815306E+02  0.19987672657E+02  0.40659135711E+02  0.00000000000E+00 0. -1.
         11    1    3    3    0    0  0.14380172827E+01  0.43942355197E+01 -0.44241720391E+00  0.46446671303E+01  0.51100000000E-03 0. -1.
        -11    1    3    3    0    0  0.19874658882E+02  0.95575855903E+01  0.16013137614E+01  0.22111393308E+02  0.51100000000E-03 0.  1.
        -12    1    3    3    0    0  0.10822904184E+02  0.91299419628E+00 -0.21146569215E+02  0.23772803851E+02  0.00000000000E+00 0.  1.
</event>
<event>
 7    1  0.6462830E-013  0.5052886E+02  0.7816164E-02  0.1300439E+00
        -11   -1    0    0    0    0  0.00000000000E+00  0.00000000000E+00  0.45593999997E+02  0.45594000000E+02  0.51100000000E-03 0. -1.
         11   -1    0    0    0    0 -0.00000000000E+00 -0.00000000000E+00 -0.45593999997E+02  0.45594000000E+02  0.51100000000E-03 0.  1.
    9900012    2    1    2    0    0  0.31768868211E+02 -0.23468595462E+02 -0.96503919828E+01  0.50528855570E+02  0.29999986991E+02 0.  0.
         12    1    1    2    0    0 -0.31768868211E+02  0.23468595462E+02  0.96503919828E+01  0.40659144430E+02  0.00000000000E+00 0. -1.
         11    1    3    3    0    0  0.12529581727E+01  0.32913943145E-01  0.32353710370E+01  0.34696705202E+01  0.51100000000E-03 0. -1.
        -11    1    3    3    0    0  0.13499075166E+02  0.27399604095E+01 -0.60524324632E+01  0.15045409678E+02  0.51100000000E-03 0.  1.
        -12    1    3    3    0    0  0.17016834872E+02 -0.26241469814E+02 -0.68333305566E+01  0.32013775372E+02  0.00000000000E+00 0.  1.
</event>
<event>
 7    1  0.6462830E-013  0.5052886E+02  0.7816164E-02  0.1300439E+00
        -11   -1    0    0    0    0  0.00000000000E+00  0.00000000000E+00  0.45593999997E+02  0.45594000000E+02  0.51100000000E-03 0. -1.
         11   -1    0    0    0    0 -0.00000000000E+00 -0.00000000000E+00 -0.45593999997E+02  0.45594000000E+02  0.51100000000E-03 0.  1.
    9900012    2    1    2    0    0 -0.38255636088E+02 -0.13772034201E+02 -0.53531564738E-01  0.50528862231E+02  0.30000007236E+02 0.  0.
         12    1    1    2    0    0  0.38255636088E+02  0.13772034201E+02  0.53531564738E-01  0.40659137769E+02  0.00000000000E+00 0. -1.
         11    1    3    3    0    0 -0.17192236855E+01 -0.24398086606E+01 -0.98048775231E+01  0.10249098491E+02  0.51100000000E-03 0. -1.
        -11    1    3    3    0    0 -0.11566573617E+02 -0.74915275044E+01  0.42861420686E+01  0.14431896053E+02  0.51100000000E-03 0.  1.
        -12    1    3    3    0    0 -0.24969838786E+02 -0.38406980358E+01  0.54652038898E+01  0.25847867687E+02  0.00000000000E+00 0.  1.
</event>
<event>
 7    1  0.6462830E-013  0.5052886E+02  0.7816164E-02  0.1300439E+00
        -11   -1    0    0    0    0  0.00000000000E+00  0.00000000000E+00  0.45593999997E+02  0.45594000000E+02  0.51100000000E-03 0. -1.
         11   -1    0    0    0    0 -0.00000000000E+00 -0.00000000000E+00 -0.45593999997E+02  0.45594000000E+02  0.51100000000E-03 0.  1.
    9900012    2    1    2    0    0 -0.79180853031E+01 -0.99696391989E+01 -0.38614446541E+02  0.50528864958E+02  0.30000015528E+02 0.  0.
         12    1    1    2    0    0  0.79180853031E+01  0.99696391989E+01  0.38614446541E+02  0.40659135042E+02  0.00000000000E+00 0. -1.
         11    1    3    3    0    0 -0.61644541215E+00 -0.12919334691E+01  0.13994513693E+01  0.20018894652E+01  0.51100000000E-03 0. -1.
        -11    1    3    3    0    0  0.28657770311E+01 -0.87125054719E+01 -0.22849856823E+01  0.94520679970E+01  0.51100000000E-03 0.  1.
        -12    1    3    3    0    0 -0.10167416922E+02  0.34799742201E-01 -0.37728912229E+02  0.39074907496E+02  0.00000000000E+00 0.  1.
</event>
<event>
 7    1  0.6462830E-013  0.5052886E+02  0.7816164E-02  0.1300439E+00
        -11   -1    0    0    0    0  0.00000000000E+00  0.00000000000E+00  0.45593999997E+02  0.45594000000E+02  0.51100000000E-03 0.  1.
         11   -1    0    0    0    0 -0.00000000000E+00 -0.00000000000E+00 -0.45593999997E+02  0.45594000000E+02  0.51100000000E-03 0. -1.
    9900012    2    1    2    0    0 -0.95732980067E+01  0.19025321234E+02  0.34634586709E+02  0.50528862290E+02  0.30000007418E+02 0.  0.
         12    1    1    2    0    0  0.95732980067E+01 -0.19025321234E+02 -0.34634586709E+02  0.40659137710E+02  0.00000000000E+00 0. -1.
         11    1    3    3    0    0 -0.79134944575E+01  0.99717953704E+01  0.61733899470E+01  0.14148174481E+02  0.51100000000E-03 0. -1.
        -11    1    3    3    0    0 -0.78411318495E+01  0.10249718573E+02  0.26987811469E+02  0.29914579183E+02  0.51100000000E-03 0.  1.
         12    1    3    3    0    0  0.61813283003E+01 -0.11961927094E+01  0.14733852927E+01  0.64661086269E+01  0.00000000000E+00 0. -1.
</event>
<event>
 7    1  0.6462830E-013  0.5052886E+02  0.7816164E-02  0.1300439E+00
        -11   -1    0    0    0    0  0.00000000000E+00  0.00000000000E+00  0.45593999997E+02  0.45594000000E+02  0.51100000000E-03 0. -1.
         11   -1    0    0    0    0 -0.00000000000E+00 -0.00000000000E+00 -0.45593999997E+02  0.45594000000E+02  0.51100000000E-03 0.  1.
    9900012    2    1    2    0    0 -0.83410231510E+01 -0.39056139339E+02 -0.76296126027E+01  0.50528859875E+02  0.30000000075E+02 0.  0.
         12    1    1    2    0    0  0.83410231510E+01  0.39056139339E+02  0.76296126027E+01  0.40659140125E+02  0.00000000000E+00 0. -1.
         11    1    3    3    0    0 -0.42908236559E+01  0.38482634171E+00 -0.18193556683E+01  0.46764638637E+01  0.51100000000E-03 0. -1.
        -11    1    3    3    0    0  0.79379591139E+00 -0.16652885133E+02 -0.13357848142E+02  0.21363070998E+02  0.51100000000E-03 0.  1.
        -12    1    3    3    0    0 -0.48439954065E+01 -0.22788080548E+02  0.75475912080E+01  0.24489325013E+02  0.00000000000E+00 0.  1.
</event>
<event>
 7    1  0.6462830E-013  0.5052886E+02  0.7816164E-02  0.1300439E+00
        -11   -1    0    0    0    0  0.00000000000E+00  0.00000000000E+00  0.45593999997E+02  0.45594000000E+02  0.51100000000E-03 0.  1.
         11   -1    0    0    0    0 -0.00000000000E+00 -0.00000000000E+00 -0.45593999997E+02  0.45594000000E+02  0.51100000000E-03 0. -1.
    9900012    2    1    2    0    0  0.28773279197E+02  0.12728114045E+02  0.25753825162E+02  0.50528855968E+02  0.29999988201E+02 0.  0.
         12    1    1    2    0    0 -0.28773279197E+02 -0.12728114045E+02 -0.25753825162E+02  0.40659144032E+02  0.00000000000E+00 0. -1.
         11    1    3    3    0    0  0.21249843496E+02 -0.60240520417E+00  0.16020793430E+01  0.21318663165E+02  0.51100000000E-03 0. -1.
        -11    1    3    3    0    0  0.35890861576E+01  0.10073944231E+02  0.12264226875E+02  0.16271974463E+02  0.51100000000E-03 0.  1.
        -12    1    3    3    0    0  0.39343495434E+01  0.32565750183E+01  0.11887518944E+02  0.12938218340E+02  0.00000000000E+00 0.  1.
</event>
<event>
 7    1  0.6462830E-013  0.5052886E+02  0.7816164E-02  0.1300439E+00
        -11   -1    0    0    0    0  0.00000000000E+00  0.00000000000E+00  0.45593999997E+02  0.45594000000E+02  0.51100000000E-03 0. -1.
         11   -1    0    0    0    0 -0.00000000000E+00 -0.00000000000E+00 -0.45593999997E+02  0.45594000000E+02  0.51100000000E-03 0.  1.
    9900012    2    1    2    0    0 -0.30199431541E+02 -0.33635068549E+01 -0.27015677814E+02  0.50528859681E+02  0.29999999485E+02 0.  0.
         12    1    1    2    0    0  0.30199431541E+02  0.33635068549E+01  0.27015677814E+02  0.40659140319E+02  0.00000000000E+00 0. -1.
         11    1    3    3    0    0 -0.75486429271E+01  0.24290427019E+01 -0.60003837185E+01  0.99441874238E+01  0.51100000000E-03 0. -1.
        -11    1    3    3    0    0 -0.22406612503E+02 -0.14017266998E+02 -0.14976872673E+02  0.30378393198E+02  0.51100000000E-03 0.  1.
         12    1    3    3    0    0 -0.24417611069E+00  0.82247174411E+01 -0.60384214221E+01  0.10206279059E+02  0.00000000000E+00 0. -1.
</event>
<event>
 7    1  0.6462830E-013  0.5052887E+02  0.7816164E-02  0.1300439E+00
        -11   -1    0    0    0    0  0.00000000000E+00  0.00000000000E+00  0.45593999997E+02  0.45594000000E+02  0.51100000000E-03 0.  1.
         11   -1    0    0    0    0 -0.00000000000E+00 -0.00000000000E+00 -0.45593999997E+02  0.45594000000E+02  0.51100000000E-03 0. -1.
    9900012    2    1    2    0    0 -0.13332143255E+02  0.33405262401E+02  0.18960682691E+02  0.50528867103E+02  0.30000022045E+02 0.  0.
         12    1    1    2    0    0  0.13332143255E+02 -0.33405262401E+02 -0.18960682691E+02  0.40659132897E+02  0.00000000000E+00 0. -1.
         11    1    3    3    0    0 -0.43676712674E+01  0.60986233534E+01  0.72105567191E+01  0.10404897288E+02  0.51100000000E-03 0. -1.
        -11    1    3    3    0    0  0.60799807354E+01  0.17431582065E+02  0.12189663588E+02  0.22122705930E+02  0.51100000000E-03 0.  1.
         12    1    3    3    0    0 -0.15044452723E+02  0.98750569824E+01 -0.43953761564E+00  0.18001263885E+02  0.00000000000E+00 0. -1.
</event>
<event>
 7    1  0.6462830E-013  0.5052886E+02  0.7816164E-02  0.1300439E+00
        -11   -1    0    0    0    0  0.00000000000E+00  0.00000000000E+00  0.45593999997E+02  0.45594000000E+02  0.51100000000E-03 0.  1.
         11   -1    0    0    0    0 -0.00000000000E+00 -0.00000000000E+00 -0.45593999997E+02  0.45594000000E+02  0.51100000000E-03 0. -1.
    9900012    2    1    2    0    0 -0.20426325711E+02  0.90999974037E+01  0.33957633072E+02  0.50528861068E+02  0.30000003704E+02 0.  0.
         12    1    1    2    0    0  0.20426325711E+02 -0.90999974037E+01 -0.33957633072E+02  0.40659138932E+02  0.00000000000E+00 0. -1.
         11    1    3    3    0    0 -0.12150604625E+02  0.57442964589E+01  0.71325806188E+01  0.15215381727E+02  0.51100000000E-03 0. -1.
        -11    1    3    3    0    0 -0.73368267799E+01 -0.83277924656E+01  0.11060209502E+02  0.15668739229E+02  0.51100000000E-03 0.  1.
        -12    1    3    3    0    0 -0.93889430625E+00  0.11683493410E+02  0.15764842951E+02  0.19644740112E+02  0.00000000000E+00 0.  1.
</event>
<event>
 7    1  0.6462830E-013  0.5052886E+02  0.7816164E-02  0.1300439E+00
        -11   -1    0    0    0    0  0.00000000000E+00  0.00000000000E+00  0.45593999997E+02  0.45594000000E+02  0.51100000000E-03 0. -1.
         11   -1    0    0    0    0 -0.00000000000E+00 -0.00000000000E+00 -0.45593999997E+02  0.45594000000E+02  0.51100000000E-03 0.  1.
    9900012    2    1    2    0    0 -0.40512901401E+02 -0.33165540176E+01 -0.93341944248E+00  0.50528856104E+02  0.29999988614E+02 0.  0.
         12    1    1    2    0    0  0.40512901401E+02  0.33165540176E+01  0.93341944248E+00  0.40659143896E+02  0.00000000000E+00 0. -1.
         11    1    3    3    0    0  0.16052623799E+01 -0.30874550040E+01  0.78591149922E+00  0.35674785011E+01  0.51100000000E-03 0. -1.
        -11    1    3    3    0    0 -0.69582192334E+01  0.71957371367E+01  0.35938120621E+01  0.10635362393E+02  0.51100000000E-03 0.  1.
        -12    1    3    3    0    0 -0.35159944547E+02 -0.74248361502E+01 -0.53131430038E+01  0.36326015210E+02  0.00000000000E+00 0.  1.
</event>
<event>
 7    1  0.6462830E-013  0.5052886E+02  0.7816164E-02  0.1300439E+00
        -11   -1    0    0    0    0  0.00000000000E+00  0.00000000000E+00  0.45593999997E+02  0.45594000000E+02  0.51100000000E-03 0. -1.
         11   -1    0    0    0    0 -0.00000000000E+00 -0.00000000000E+00 -0.45593999997E+02  0.45594000000E+02  0.51100000000E-03 0.  1.
    9900012    2    1    2    0    0  0.82305834215E+01 -0.20060576083E+02 -0.34394716041E+02  0.50528859481E+02  0.29999998878E+02 0.  0.
         12    1    1    2    0    0 -0.82305834215E+01  0.20060576083E+02  0.34394716041E+02  0.40659140519E+02  0.00000000000E+00 0. -1.
         11    1    3    3    0    0  0.91915866665E+01 -0.18089441276E+02 -0.10709414165E+02  0.22943511133E+02  0.51100000000E-03 0. -1.
        -11    1    3    3    0    0  0.40922316701E+01 -0.62081555312E+01 -0.14260006657E+02  0.16082143678E+02  0.51100000000E-03 0.  1.
        -12    1    3    3    0    0 -0.50532349150E+01  0.42370207241E+01 -0.94252952186E+01  0.11503204670E+02  0.00000000000E+00 0.  1.
</event>
<event>
 7    1  0.6462830E-013  0.5052886E+02  0.7816164E-02  0.1300439E+00
        -11   -1    0    0    0    0  0.00000000000E+00  0.00000000000E+00  0.45593999997E+02  0.45594000000E+02  0.51100000000E-03 0.  1.
         11   -1    0    0    0    0 -0.00000000000E+00 -0.00000000000E+00 -0.45593999997E+02  0.45594000000E+02  0.51100000000E-03 0. -1.
    9900012    2    1    2    0    0  0.30872746527E+02  0.25370760487E+02  0.75076003791E+01  0.50528855528E+02  0.29999986862E+02 0.  0.
         12    1    1    2    0    0 -0.30872746527E+02 -0.25370760487E+02 -0.75076003791E+01  0.40659144472E+02  0.00000000000E+00 0. -1.
         11    1    3    3    0    0  0.22145782901E+02  0.22022558627E+02  0.84197683354E+01  0.32346889926E+02  0.51100000000E-03 0. -1.
        -11    1    3    3    0    0  0.12916244718E+02  0.18143463324E+01 -0.27958448253E+01  0.13339339518E+02  0.51100000000E-03 0.  1.
         12    1    3    3    0    0 -0.41892810919E+01  0.15338555267E+01  0.18836768690E+01  0.48426260841E+01  0.00000000000E+00 0. -1.
</event>
<event>
 7    1  0.1055474E-012  0.5052887E+02  0.7816164E-02  0.1300439E+00
        -11   -1    0    0    0    0  0.00000000000E+00  0.00000000000E+00  0.45593999997E+02  0.45594000000E+02  0.51100000000E-03 0.  1.
         11   -1    0    0    0    0 -0.00000000000E+00 -0.00000000000E+00 -0.45593999997E+02  0.45594000000E+02  0.51100000000E-03 0. -1.
    9900012    2    1    2    0    0  0.31892482773E+02  0.19731538366E+00  0.25218951018E+02  0.50528869645E+02  0.30000029772E+02 0.  0.
         12    1    1    2    0    0 -0.31892482773E+02 -0.19731538366E+00 -0.25218951018E+02  0.40659130355E+02  0.00000000000E+00 0. -1.
         11    1    3    3    0    0 -0.15656629297E+01  0.51211822801E+01  0.81195641409E+01  0.97265168716E+01  0.51100000000E-03 0. -1.
        -11    1    3    3    0    0  0.16554738943E+02  0.38190542483E+00  0.16040239569E+02  0.23054164893E+02  0.51100000000E-03 0.  1.
         12    1    3    3    0    0  0.16903406760E+02 -0.53057723212E+01  0.10591473084E+01  0.17748187880E+02  0.00000000000E+00 0. -1.
</event>
<event>
 7    1  0.6462830E-013  0.5052886E+02  0.7816164E-02  0.1300439E+00
        -11   -1    0    0    0    0  0.00000000000E+00  0.00000000000E+00  0.45593999997E+02  0.45594000000E+02  0.51100000000E-03 0.  1.
         11   -1    0    0    0    0 -0.00000000000E+00 -0.00000000000E+00 -0.45593999997E+02  0.45594000000E+02  0.51100000000E-03 0. -1.
    9900012    2    1    2    0    0  0.29142701179E+02  0.28343458326E+02  0.71914226015E+00  0.50528858009E+02  0.29999994403E+02 0.  0.
         12    1    1    2    0    0 -0.29142701179E+02 -0.28343458326E+02 -0.71914226015E+00  0.40659141991E+02  0.00000000000E+00 0. -1.
         11    1    3    3    0    0  0.10676496931E+02  0.17397513203E+01 -0.95434143630E+01  0.14425362364E+02  0.51100000000E-03 0. -1.
        -11    1    3    3    0    0  0.18278257660E+01 -0.57477193719E+00  0.27690033408E+01  0.33672970723E+01  0.51100000000E-03 0.  1.
        -12    1    3    3    0    0  0.16638378482E+02  0.27178478943E+02  0.74935532824E+01  0.32736198572E+02  0.00000000000E+00 0.  1.
</event>
<event>
 7    1  0.6462830E-013  0.5052886E+02  0.7816164E-02  0.1300439E+00
        -11   -1    0    0    0    0  0.00000000000E+00  0.00000000000E+00  0.45593999997E+02  0.45594000000E+02  0.51100000000E-03 0.  1.
         11   -1    0    0    0    0 -0.00000000000E+00 -0.00000000000E+00 -0.45593999997E+02  0.45594000000E+02  0.51100000000E-03 0. -1.
    9900012    2    1    2    0    0  0.57191157747E-01  0.37354232809E+02  0.16056888606E+02  0.50528860176E+02  0.30000000990E+02 0.  0.
         12    1    1    2    0    0 -0.57191157747E-01 -0.37354232809E+02 -0.16056888606E+02  0.40659139824E+02  0.00000000000E+00 0. -1.
         11    1    3    3    0    0 -0.11963178478E+02  0.22848096178E+02  0.45960649757E+01  0.26196888208E+02  0.51100000000E-03 0. -1.
        -11    1    3    3    0    0  0.98837669462E+01  0.16033873860E+02  0.99558564833E+01  0.21304765631E+02  0.51100000000E-03 0.  1.
        -12    1    3    3    0    0  0.21366026891E+01 -0.15277372293E+01  0.15049671473E+01  0.30272063371E+01  0.00000000000E+00 0.  1.
</event>
<event>
 7    1  0.6462830E-013  0.5052884E+02  0.7816164E-02  0.1300439E+00
        -11   -1    0    0    0    0  0.00000000000E+00  0.00000000000E+00  0.45593999997E+02  0.45594000000E+02  0.51100000000E-03 0.  1.
         11   -1    0    0    0    0 -0.00000000000E+00 -0.00000000000E+00 -0.45593999997E+02  0.45594000000E+02  0.51100000000E-03 0. -1.
    9900012    2    1    2    0    0 -0.25809023675E+02  0.21337548156E+02  0.23060146768E+02  0.50528843180E+02  0.29999949330E+02 0.  0.
         12    1    1    2    0    0  0.25809023675E+02 -0.21337548156E+02 -0.23060146768E+02  0.40659156820E+02  0.00000000000E+00 0. -1.
         11    1    3    3    0    0  0.13393121208E+01 -0.15337023947E+00 -0.26177472734E+01  0.29444660697E+01  0.51100000000E-03 0. -1.
        -11    1    3    3    0    0 -0.18853722413E+02  0.12688878760E+02  0.44569895795E+01  0.23158912958E+02  0.51100000000E-03 0.  1.
        -12    1    3    3    0    0 -0.82946133830E+01  0.88020396353E+01  0.21220904462E+02  0.24425464153E+02  0.00000000000E+00 0.  1.
</event>
<event>
 7    1  0.6462830E-013  0.5052886E+02  0.7816164E-02  0.1300439E+00
        -11   -1    0    0    0    0  0.00000000000E+00  0.00000000000E+00  0.45593999997E+02  0.45594000000E+02  0.51100000000E-03 0. -1.
         11   -1    0    0    0    0 -0.00000000000E+00 -0.00000000000E+00 -0.45593999997E+02  0.45594000000E+02  0.51100000000E-03 0.  1.
    9900012    2    1    2    0    0 -0.34453776958E+02  0.86579128629E+01 -0.19777347954E+02  0.50528859651E+02  0.29999999394E+02 0.  0.
         12    1    1    2    0    0  0.34453776958E+02 -0.86579128629E+01  0.19777347954E+02  0.40659140349E+02  0.00000000000E+00 0. -1.
         11    1    3    3    0    0  0.21908004002E+01 -0.40988934743E+01  0.42973060115E+00  0.46674621325E+01  0.51100000000E-03 0. -1.
        -11    1    3    3    0    0 -0.11642709571E+02 -0.19607299336E+01 -0.32027872907E+01  0.12233355824E+02  0.51100000000E-03 0.  1.
        -12    1    3    3    0    0 -0.25001867788E+02  0.14717536271E+02 -0.17004291265E+02  0.33628041694E+02  0.00000000000E+00 0.  1.
</event>
<event>
 7    1  0.6462830E-013  0.5052886E+02  0.7816164E-02  0.1300439E+00
        -11   -1    0    0    0    0  0.00000000000E+00  0.00000000000E+00  0.45593999997E+02  0.45594000000E+02  0.51100000000E-03 0.  1.
         11   -1    0    0    0    0 -0.00000000000E+00 -0.00000000000E+00 -0.45593999997E+02  0.45594000000E+02  0.51100000000E-03 0. -1.
    9900012    2    1    2    0    0  0.23038542771E+02  0.13267542820E+02  0.30763019128E+02  0.50528862142E+02  0.30000006966E+02 0.  0.
         12    1    1    2    0    0 -0.23038542771E+02 -0.13267542820E+02 -0.30763019128E+02  0.40659137858E+02  0.00000000000E+00 0. -1.
         11    1    3    3    0    0  0.59950332322E+01  0.56392842919E+01  0.78409657287E+01  0.11367616047E+02  0.51100000000E-03 0. -1.
        -11    1    3    3    0    0  0.80278466467E+01  0.16376414676E+02  0.18128857438E+02  0.25715535221E+02  0.51100000000E-03 0.  1.
         12    1    3    3    0    0  0.90156628919E+01 -0.87481561479E+01  0.47931959616E+01  0.13445710874E+02  0.00000000000E+00 0. -1.
</event>
<event>
 7    1  0.6462830E-013  0.5052885E+02  0.7816164E-02  0.1300439E+00
        -11   -1    0    0    0    0  0.00000000000E+00  0.00000000000E+00  0.45593999997E+02  0.45594000000E+02  0.51100000000E-03 0.  1.
         11   -1    0    0    0    0 -0.00000000000E+00 -0.00000000000E+00 -0.45593999997E+02  0.45594000000E+02  0.51100000000E-03 0. -1.
    9900012    2    1    2    0    0 -0.15766555742E+02 -0.12849079495E+01  0.37455722115E+02  0.50528851121E+02  0.29999973468E+02 0.  0.
         12    1    1    2    0    0  0.15766555742E+02  0.12849079495E+01 -0.37455722115E+02  0.40659148879E+02  0.00000000000E+00 0. -1.
         11    1    3    3    0    0 -0.28616032604E+01  0.70180526925E+01  0.42011431963E+01  0.86655317916E+01  0.51100000000E-03 0. -1.
        -11    1    3    3    0    0 -0.16241023672E+02 -0.44474331697E+00  0.26006441070E+02  0.30664370594E+02  0.51100000000E-03 0.  1.
        -12    1    3    3    0    0  0.33360711906E+01 -0.78582173250E+01  0.72481378485E+01  0.11198948736E+02  0.00000000000E+00 0.  1.
</event>
<event>
 7    1  0.6462830E-013  0.5052886E+02  0.7816164E-02  0.1300439E+00
        -11   -1    0    0    0    0  0.00000000000E+00  0.00000000000E+00  0.45593999997E+02  0.45594000000E+02  0.51100000000E-03 0. -1.
         11   -1    0    0    0    0 -0.00000000000E+00 -0.00000000000E+00 -0.45593999997E+02  0.45594000000E+02  0.51100000000E-03 0.  1.
    9900012    2    1    2    0    0 -0.43982866315E+01  0.34248187346E+02 -0.21468167204E+02  0.50528862468E+02  0.30000007957E+02 0.  0.
         12    1    1    2    0    0  0.43982866315E+01 -0.34248187346E+02  0.21468167204E+02  0.40659137532E+02  0.00000000000E+00 0. -1.
         11    1    3    3    0    0 -0.35863325527E+01  0.16499480818E+02 -0.48951899256E+01  0.17580032228E+02  0.51100000000E-03 0. -1.
        -11    1    3    3    0    0 -0.16344517008E+01  0.66188915136E+01  0.51383037565E+01  0.85371730090E+01  0.51100000000E-03 0.  1.
        -12    1    3    3    0    0  0.82249762197E+00  0.11129815014E+02 -0.21711281035E+02  0.24411657231E+02  0.00000000000E+00 0.  1.
</event>
<event>
 7    1  0.6462830E-013  0.5052886E+02  0.7816164E-02  0.1300439E+00
        -11   -1    0    0    0    0  0.00000000000E+00  0.00000000000E+00  0.45593999997E+02  0.45594000000E+02  0.51100000000E-03 0.  1.
         11   -1    0    0    0    0 -0.00000000000E+00 -0.00000000000E+00 -0.45593999997E+02  0.45594000000E+02  0.51100000000E-03 0. -1.
    9900012    2    1    2    0    0  0.29782898753E+02 -0.27410369192E+02  0.38491769689E+01  0.50528861289E+02  0.30000004373E+02 0.  0.
         12    1    1    2    0    0 -0.29782898753E+02  0.27410369192E+02 -0.38491769689E+01  0.40659138711E+02  0.00000000000E+00 0. -1.
         11    1    3    3    0    0  0.46778438947E+00 -0.74579876209E+01  0.52418283324E+01  0.91278237338E+01  0.51100000000E-03 0. -1.
        -11    1    3    3    0    0  0.32883653497E+01  0.21814059609E+01 -0.57339516864E+01  0.69606092293E+01  0.51100000000E-03 0.  1.
        -12    1    3    3    0    0  0.26026749014E+02 -0.22133787532E+02  0.43413003228E+01  0.34440428326E+02  0.00000000000E+00 0.  1.
</event>
<event>
 7    1  0.6462830E-013  0.5052886E+02  0.7816164E-02  0.1300439E+00
        -11   -1    0    0    0    0  0.00000000000E+00  0.00000000000E+00  0.45593999997E+02  0.45594000000E+02  0.51100000000E-03 0.  1.
         11   -1    0    0    0    0 -0.00000000000E+00 -0.00000000000E+00 -0.45593999997E+02  0.45594000000E+02  0.51100000000E-03 0. -1.
    9900012    2    1    2    0    0  0.39673436063E+02 -0.27527529983E+00 -0.88942803478E+01  0.50528861686E+02  0.30000005582E+02 0.  0.
         12    1    1    2    0    0 -0.39673436063E+02  0.27527529983E+00  0.88942803478E+01  0.40659138314E+02  0.00000000000E+00 0. -1.
         11    1    3    3    0    0  0.12781370593E+02 -0.50108325498E+01 -0.83290276708E+00  0.13753748739E+02  0.51100000000E-03 0. -1.
        -11    1    3    3    0    0  0.89878811760E+01 -0.70419181453E+01  0.41030479601E+01  0.12132832399E+02  0.51100000000E-03 0.  1.
         12    1    3    3    0    0  0.17904184293E+02  0.11777475395E+02 -0.12164425541E+02  0.24642280548E+02  0.00000000000E+00 0. -1.
</event>
<event>
 7    1  0.6462830E-013  0.5052887E+02  0.7816164E-02  0.1300439E+00
        -11   -1    0    0    0    0  0.00000000000E+00  0.00000000000E+00  0.45593999997E+02  0.45594000000E+02  0.51100000000E-03 0. -1.
         11   -1    0    0    0    0 -0.00000000000E+00 -0.00000000000E+00 -0.45593999997E+02  0.45594000000E+02  0.51100000000E-03 0.  1.
    9900012    2    1    2    0    0 -0.10318356556E+02 -0.21146053379E+02 -0.33159325637E+02  0.50528869018E+02  0.30000027866E+02 0.  0.
         12    1    1    2    0    0  0.10318356556E+02  0.21146053379E+02  0.33159325637E+02  0.40659130982E+02  0.00000000000E+00 0. -1.
         11    1    3    3    0    0 -0.34913473854E+01 -0.17946939410E+01  0.48943495576E+00  0.39560055288E+01  0.51100000000E-03 0. -1.
        -11    1    3    3    0    0 -0.16052915967E+02 -0.11707940907E+02 -0.24219127622E+02  0.31326316961E+02  0.51100000000E-03 0.  1.
         12    1    3    3    0    0  0.92259067961E+01 -0.76434185314E+01 -0.94296329704E+01  0.15246546527E+02  0.00000000000E+00 0. -1.
</event>
<event>
 7    1  0.6462830E-013  0.5052887E+02  0.7816164E-02  0.1300439E+00
        -11   -1    0    0    0    0  0.00000000000E+00  0.00000000000E+00  0.45593999997E+02  0.45594000000E+02  0.51100000000E-03 0.  1.
         11   -1    0    0    0    0 -0.00000000000E+00 -0.00000000000E+00 -0.45593999997E+02  0.45594000000E+02  0.51100000000E-03 0. -1.
    9900012    2    1    2    0    0 -0.14468539650E+01  0.11473532235E+02  0.38979864737E+02  0.50528865931E+02  0.30000018483E+02 0.  0.
         12    1    1    2    0    0  0.14468539650E+01 -0.11473532235E+02 -0.38979864737E+02  0.40659134069E+02  0.00000000000E+00 0. -1.
         11    1    3    3    0    0 -0.94980156063E+01 -0.13131060426E+01  0.19105985042E+02  0.21376978566E+02  0.51100000000E-03 0. -1.
        -11    1    3    3    0    0  0.27834322784E+01 -0.29372005206E+00  0.13304094301E+02  0.13595318759E+02  0.51100000000E-03 0.  1.
         12    1    3    3    0    0  0.52677293629E+01  0.13080358329E+02  0.65697853946E+01  0.15556568606E+02  0.00000000000E+00 0. -1.
</event>
<event>
 7    1  0.6462830E-013  0.5052887E+02  0.7816164E-02  0.1300439E+00
        -11   -1    0    0    0    0  0.00000000000E+00  0.00000000000E+00  0.45593999997E+02  0.45594000000E+02  0.51100000000E-03 0. -1.
         11   -1    0    0    0    0 -0.00000000000E+00 -0.00000000000E+00 -0.45593999997E+02  0.45594000000E+02  0.51100000000E-03 0.  1.
    9900012    2    1    2    0    0 -0.24469732327E+02  0.14001611452E+02 -0.29297649088E+02  0.50528866149E+02  0.30000019148E+02 0.  0.
         12    1    1    2    0    0  0.24469732327E+02 -0.14001611452E+02  0.29297649088E+02  0.40659133851E+02  0.00000000000E+00 0. -1.
         11    1    3    3    0    0 -0.29009502954E+01  0.60095850321E+01 -0.20992869098E+02  0.22027963549E+02  0.51100000000E-03 0.  1.
        -11    1    3    3    0    0 -0.31376252443E+01  0.81935563149E+01 -0.35539508403E+01  0.94662360046E+01  0.51100000000E-03 0. -1.
         12    1    3    3    0    0 -0.18431156787E+02 -0.20152989469E+00 -0.47508291491E+01  0.19034666596E+02  0.00000000000E+00 0. -1.
</event>
<event>
 7    1  0.6462830E-013  0.5052886E+02  0.7816164E-02  0.1300439E+00
        -11   -1    0    0    0    0  0.00000000000E+00  0.00000000000E+00  0.45593999997E+02  0.45594000000E+02  0.51100000000E-03 0. -1.
         11   -1    0    0    0    0 -0.00000000000E+00 -0.00000000000E+00 -0.45593999997E+02  0.45594000000E+02  0.51100000000E-03 0.  1.
    9900012    2    1    2    0    0  0.34334293160E+02  0.18993291407E+01 -0.21695955301E+02  0.50528860629E+02  0.30000002368E+02 0.  0.
         12    1    1    2    0    0 -0.34334293160E+02 -0.18993291407E+01  0.21695955301E+02  0.40659139371E+02  0.00000000000E+00 0. -1.
         11    1    3    3    0    0  0.53138635812E+01  0.90887985231E+01 -0.68552002425E+01  0.12563326605E+02  0.51100000000E-03 0. -1.
        -11    1    3    3    0    0 -0.23324265238E+01 -0.18115088830E+01 -0.23697973664E+00  0.29627584408E+01  0.51100000000E-03 0.  1.
        -12    1    3    3    0    0  0.31352856102E+02 -0.53779604993E+01 -0.14603775322E+02  0.35002775583E+02  0.00000000000E+00 0.  1.
</event>
<event>
 7    1  0.6462830E-013  0.5052887E+02  0.7816164E-02  0.1300439E+00
        -11   -1    0    0    0    0  0.00000000000E+00  0.00000000000E+00  0.45593999997E+02  0.45594000000E+02  0.51100000000E-03 0.  1.
         11   -1    0    0    0    0 -0.00000000000E+00 -0.00000000000E+00 -0.45593999997E+02  0.45594000000E+02  0.51100000000E-03 0. -1.
    9900012    2    1    2    0    0 -0.29243169119E+02  0.22127524064E+02  0.17560604775E+02  0.50528866938E+02  0.30000021544E+02 0.  0.
         12    1    1    2    0    0  0.29243169119E+02 -0.22127524064E+02 -0.17560604775E+02  0.40659133062E+02  0.00000000000E+00 0. -1.
         11    1    3    3    0    0 -0.23540277139E+01 -0.43072684268E+01  0.13361606730E+01  0.50871734179E+01  0.51100000000E-03 0. -1.
        -11    1    3    3    0    0 -0.79505093407E+01  0.17551673442E+02  0.50461237047E+00  0.19275022005E+02  0.51100000000E-03 0.  1.
        -12    1    3    3    0    0 -0.18938632064E+02  0.88831190491E+01  0.15719831731E+02  0.26166671515E+02  0.00000000000E+00 0.  1.
</event>
<event>
 7    1  0.6462830E-013  0.5052885E+02  0.7816164E-02  0.1300439E+00
        -11   -1    0    0    0    0  0.00000000000E+00  0.00000000000E+00  0.45593999997E+02  0.45594000000E+02  0.51100000000E-03 0.  1.
         11   -1    0    0    0    0 -0.00000000000E+00 -0.00000000000E+00 -0.45593999997E+02  0.45594000000E+02  0.51100000000E-03 0. -1.
    9900012    2    1    2    0    0  0.12449872469E+02 -0.26633893436E+01  0.38614416491E+02  0.50528854310E+02  0.29999983162E+02 0.  0.
         12    1    1    2    0    0 -0.12449872469E+02  0.26633893436E+01 -0.38614416491E+02  0.40659145690E+02  0.00000000000E+00 0. -1.
         11    1    3    3    0    0 -0.99922600348E-02  0.10959814407E+01  0.60883020923E+00  0.12537741616E+01  0.51100000000E-03 0. -1.
        -11    1    3    3    0    0  0.18868056975E+01 -0.14073191568E+02  0.28120688324E+02  0.31502188317E+02  0.51100000000E-03 0.  1.
        -12    1    3    3    0    0  0.10573059032E+02  0.10313820784E+02  0.98848979575E+01  0.17772891832E+02  0.00000000000E+00 0.  1.
</event>
<event>
 7    1  0.6462830E-013  0.5052888E+02  0.7816164E-02  0.1300439E+00
        -11   -1    0    0    0    0  0.00000000000E+00  0.00000000000E+00  0.45593999997E+02  0.45594000000E+02  0.51100000000E-03 0.  1.
         11   -1    0    0    0    0 -0.00000000000E+00 -0.00000000000E+00 -0.45593999997E+02  0.45594000000E+02  0.51100000000E-03 0. -1.
    9900012    2    1    2    0    0 -0.20887619163E+02 -0.24308935059E+02  0.25018934056E+02  0.50528880244E+02  0.30000061990E+02 0.  0.
         12    1    1    2    0    0  0.20887619163E+02  0.24308935059E+02 -0.25018934056E+02  0.40659119756E+02  0.00000000000E+00 0. -1.
         11    1    3    3    0    0 -0.39641569039E+01 -0.12273778875E+02  0.19826230299E+02  0.23652475472E+02  0.51100000000E-03 0. -1.
        -11    1    3    3    0    0 -0.11081232146E+02 -0.14228479739E+02  0.83603491134E+01  0.19878097975E+02  0.51100000000E-03 0.  1.
        -12    1    3    3    0    0 -0.58422301140E+01  0.21933235549E+01 -0.31676453562E+01  0.69983067969E+01  0.00000000000E+00 0.  1.
</event>
<event>
 7    1  0.6462830E-013  0.5052886E+02  0.7816164E-02  0.1300439E+00
        -11   -1    0    0    0    0  0.00000000000E+00  0.00000000000E+00  0.45593999997E+02  0.45594000000E+02  0.51100000000E-03 0.  1.
         11   -1    0    0    0    0 -0.00000000000E+00 -0.00000000000E+00 -0.45593999997E+02  0.45594000000E+02  0.51100000000E-03 0. -1.
    9900012    2    1    2    0    0  0.30606816324E+02 -0.13038898161E+02  0.23374679583E+02  0.50528859375E+02  0.29999998557E+02 0.  0.
         12    1    1    2    0    0 -0.30606816324E+02  0.13038898161E+02 -0.23374679583E+02  0.40659140625E+02  0.00000000000E+00 0. -1.
         11    1    3    3    0    0  0.15982872702E+02 -0.14320520055E+02  0.26920551872E+02  0.34427396471E+02  0.51100000000E-03 0.  1.
        -11    1    3    3    0    0  0.74291267746E+01  0.82856535988E+00  0.10551152476E+01  0.75492856374E+01  0.51100000000E-03 0. -1.
        -12    1    3    3    0    0  0.71948168470E+01  0.45305653462E+00 -0.46009875361E+01  0.85521772662E+01  0.00000000000E+00 0.  1.
</event>
<event>
 7    1  0.6462830E-013  0.5052885E+02  0.7816164E-02  0.1300439E+00
        -11   -1    0    0    0    0  0.00000000000E+00  0.00000000000E+00  0.45593999997E+02  0.45594000000E+02  0.51100000000E-03 0. -1.
         11   -1    0    0    0    0 -0.00000000000E+00 -0.00000000000E+00 -0.45593999997E+02  0.45594000000E+02  0.51100000000E-03 0.  1.
    9900012    2    1    2    0    0 -0.15492772246E+02 -0.19071950357E+02  0.32394457064E+02  0.50528854279E+02  0.29999983065E+02 0.  0.
         12    1    1    2    0    0  0.15492772246E+02  0.19071950357E+02 -0.32394457064E+02  0.40659145721E+02  0.00000000000E+00 0. -1.
         11    1    3    3    0    0 -0.82649931195E+01 -0.33865126843E+01  0.16446127929E+00  0.89333995321E+01  0.51100000000E-03 0. -1.
        -11    1    3    3    0    0 -0.20805820997E+01 -0.14706984128E+02  0.81306643996E+01  0.16933160008E+02  0.51100000000E-03 0.  1.
         12    1    3    3    0    0 -0.51471970272E+01 -0.97845354538E+00  0.24099331385E+02  0.24662294739E+02  0.00000000000E+00 0. -1.
</event>
<event>
 7    1  0.6462830E-013  0.5052886E+02  0.7816164E-02  0.1300439E+00
        -11   -1    0    0    0    0  0.00000000000E+00  0.00000000000E+00  0.45593999997E+02  0.45594000000E+02  0.51100000000E-03 0. -1.
         11   -1    0    0    0    0 -0.00000000000E+00 -0.00000000000E+00 -0.45593999997E+02  0.45594000000E+02  0.51100000000E-03 0.  1.
    9900012    2    1    2    0    0 -0.25099082599E+02 -0.13366427245E+00 -0.31987244623E+02  0.50528860412E+02  0.30000001708E+02 0.  0.
         12    1    1    2    0    0  0.25099082599E+02  0.13366427245E+00  0.31987244623E+02  0.40659139588E+02  0.00000000000E+00 0. -1.
         11    1    3    3    0    0 -0.20068560251E+02 -0.25119677407E+00 -0.11611792098E+02  0.23187150027E+02  0.51100000000E-03 0. -1.
        -11    1    3    3    0    0 -0.82842725522E+01  0.57935435445E+01 -0.17467976633E+02  0.20182282488E+02  0.51100000000E-03 0.  1.
         12    1    3    3    0    0  0.32537502043E+01 -0.56760110429E+01 -0.29074758926E+01  0.71594278973E+01  0.00000000000E+00 0. -1.
</event>
<event>
 7    1  0.6462830E-013  0.5052884E+02  0.7816164E-02  0.1300439E+00
        -11   -1    0    0    0    0  0.00000000000E+00  0.00000000000E+00  0.45593999997E+02  0.45594000000E+02  0.51100000000E-03 0.  1.
         11   -1    0    0    0    0 -0.00000000000E+00 -0.00000000000E+00 -0.45593999997E+02  0.45594000000E+02  0.51100000000E-03 0. -1.
    9900012    2    1    2    0    0  0.49540216086E+01 -0.27961214201E+02  0.29099746263E+02  0.50528842824E+02  0.29999948248E+02 0.  0.
         12    1    1    2    0    0 -0.49540216086E+01  0.27961214201E+02 -0.29099746263E+02  0.40659157176E+02  0.00000000000E+00 0. -1.
         11    1    3    3    0    0  0.68989852761E+01 -0.48480687924E+00  0.51572586608E+00  0.69352007167E+01  0.51100000000E-03 0. -1.
        -11    1    3    3    0    0 -0.68187732347E+01 -0.58290545014E+01  0.15288562024E+02  0.17726073277E+02  0.51100000000E-03 0.  1.
        -12    1    3    3    0    0  0.48738095672E+01 -0.21647352820E+02  0.13295458373E+02  0.25867568830E+02  0.00000000000E+00 0.  1.
</event>
<event>
 7    1  0.6462830E-013  0.5052886E+02  0.7816164E-02  0.1300439E+00
        -11   -1    0    0    0    0  0.00000000000E+00  0.00000000000E+00  0.45593999997E+02  0.45594000000E+02  0.51100000000E-03 0.  1.
         11   -1    0    0    0    0 -0.00000000000E+00 -0.00000000000E+00 -0.45593999997E+02  0.45594000000E+02  0.51100000000E-03 0. -1.
    9900012    2    1    2    0    0 -0.81387237435E+01  0.32736665668E+01  0.39701512795E+02  0.50528857914E+02  0.29999994117E+02 0.  0.
         12    1    1    2    0    0  0.81387237435E+01 -0.32736665668E+01 -0.39701512795E+02  0.40659142086E+02  0.00000000000E+00 0. -1.
         11    1    3    3    0    0  0.37499639882E+01  0.42990315571E+01  0.93321048268E+00  0.57805522494E+01  0.51100000000E-03 0. -1.
        -11    1    3    3    0    0 -0.76559346777E+01  0.24224338215E+01  0.30099575804E+01  0.85756262923E+01  0.51100000000E-03 0.  1.
        -12    1    3    3    0    0 -0.42327530540E+01 -0.34477988118E+01  0.35758344731E+02  0.36172679373E+02  0.00000000000E+00 0.  1.
</event>
<event>
 7    1  0.6462830E-013  0.5052884E+02  0.7816164E-02  0.1300439E+00
        -11   -1    0    0    0    0  0.00000000000E+00  0.00000000000E+00  0.45593999997E+02  0.45594000000E+02  0.51100000000E-03 0.  1.
         11   -1    0    0    0    0 -0.00000000000E+00 -0.00000000000E+00 -0.45593999997E+02  0.45594000000E+02  0.51100000000E-03 0. -1.
    9900012    2    1    2    0    0  0.35988198784E+02 -0.17664736861E+02 -0.67803777704E+01  0.50528844785E+02  0.29999954209E+02 0.  0.
         12    1    1    2    0    0 -0.35988198784E+02  0.17664736861E+02  0.67803777704E+01  0.40659155215E+02  0.00000000000E+00 0. -1.
         11    1    3    3    0    0  0.32113989342E+01 -0.17506949621E+01  0.57661830673E+01  0.68283880522E+01  0.51100000000E-03 0. -1.
        -11    1    3    3    0    0  0.28077844387E+01 -0.83886246708E+01 -0.89642745161E+01  0.12594081752E+02  0.51100000000E-03 0.  1.
        -12    1    3    3    0    0  0.29969015411E+02 -0.75254172277E+01 -0.35822863216E+01  0.31106374981E+02  0.00000000000E+00 0.  1.
</event>
<event>
 7    1  0.6462830E-013  0.5052886E+02  0.7816164E-02  0.1300439E+00
        -11   -1    0    0    0    0  0.00000000000E+00  0.00000000000E+00  0.45593999997E+02  0.45594000000E+02  0.51100000000E-03 0.  1.
         11   -1    0    0    0    0 -0.00000000000E+00 -0.00000000000E+00 -0.45593999997E+02  0.45594000000E+02  0.51100000000E-03 0. -1.
    9900012    2    1    2    0    0  0.21659635020E+02  0.26743608879E+02  0.21651909641E+02  0.50528860853E+02  0.30000003049E+02 0.  0.
         12    1    1    2    0    0 -0.21659635020E+02 -0.26743608879E+02 -0.21651909641E+02  0.40659139147E+02  0.00000000000E+00 0. -1.
         11    1    3    3    0    0  0.11243525637E+02  0.46630626017E+01  0.18303252936E+01  0.12308985032E+02  0.51100000000E-03 0.  1.
        -11    1    3    3    0    0  0.53404597645E+01  0.28454785550E-01  0.13809437330E+02  0.14806143313E+02  0.51100000000E-03 0. -1.
        -12    1    3    3    0    0  0.50756496184E+01  0.22052091492E+02  0.60121470173E+01  0.23413732508E+02  0.00000000000E+00 0.  1.
</event>
<event>
 7    1  0.6462830E-013  0.5052882E+02  0.7816164E-02  0.1300439E+00
        -11   -1    0    0    0    0  0.00000000000E+00  0.00000000000E+00  0.45593999997E+02  0.45594000000E+02  0.51100000000E-03 0.  1.
         11   -1    0    0    0    0 -0.00000000000E+00 -0.00000000000E+00 -0.45593999997E+02  0.45594000000E+02  0.51100000000E-03 0. -1.
    9900012    2    1    2    0    0 -0.39244484559E+02  0.10329310874E+02 -0.25187875143E+01  0.50528824874E+02  0.29999893686E+02 0.  0.
         12    1    1    2    0    0  0.39244484559E+02 -0.10329310874E+02  0.25187875143E+01  0.40659175126E+02  0.00000000000E+00 0. -1.
         11    1    3    3    0    0 -0.16068828606E+02 -0.66477273423E+01  0.87537411051E+01  0.19468629001E+02  0.51100000000E-03 0. -1.
        -11    1    3    3    0    0 -0.11908538163E+02  0.94178823780E+01 -0.41656243559E+01  0.15743640500E+02  0.51100000000E-03 0.  1.
        -12    1    3    3    0    0 -0.11267117791E+02  0.75591558379E+01 -0.71069042634E+01  0.15316555373E+02  0.00000000000E+00 0.  1.
</event>
<event>
 7    1  0.6462830E-013  0.5052890E+02  0.7816164E-02  0.1300439E+00
        -11   -1    0    0    0    0  0.00000000000E+00  0.00000000000E+00  0.45593999997E+02  0.45594000000E+02  0.51100000000E-03 0. -1.
         11   -1    0    0    0    0 -0.00000000000E+00 -0.00000000000E+00 -0.45593999997E+02  0.45594000000E+02  0.51100000000E-03 0.  1.
    9900012    2    1    2    0    0  0.28886479173E+02  0.28438110779E+02 -0.31634722127E+01  0.50528900402E+02  0.30000123262E+02 0.  0.
         12    1    1    2    0    0 -0.28886479173E+02 -0.28438110779E+02  0.31634722127E+01  0.40659099598E+02  0.00000000000E+00 0. -1.
         11    1    3    3    0    0  0.28611924580E+01  0.73466163814E+01  0.86485753384E+01  0.11702865042E+02  0.51100000000E-03 0. -1.
        -11    1    3    3    0    0  0.49052995856E+00  0.73985610289E+01 -0.53399170262E+01  0.91375072666E+01  0.51100000000E-03 0.  1.
        -12    1    3    3    0    0  0.25534756756E+02  0.13692933369E+02 -0.64721305249E+01  0.29688528094E+02  0.00000000000E+00 0.  1.
</event>
<event>
 7    1  0.6462830E-013  0.5052886E+02  0.7816164E-02  0.1300439E+00
        -11   -1    0    0    0    0  0.00000000000E+00  0.00000000000E+00  0.45593999997E+02  0.45594000000E+02  0.51100000000E-03 0.  1.
         11   -1    0    0    0    0 -0.00000000000E+00 -0.00000000000E+00 -0.45593999997E+02  0.45594000000E+02  0.51100000000E-03 0. -1.
    9900012    2    1    2    0    0  0.68122834849E+01 -0.13705781316E+02  0.37668420332E+02  0.50528861568E+02  0.30000005222E+02 0.  0.
         12    1    1    2    0    0 -0.68122834849E+01  0.13705781316E+02 -0.37668420332E+02  0.40659138432E+02  0.00000000000E+00 0. -1.
         11    1    3    3    0    0  0.64963760653E+01 -0.19241560763E+01  0.73550678568E+01  0.10000115101E+02  0.51100000000E-03 0.  1.
        -11    1    3    3    0    0 -0.12443297631E+01  0.36316270762E+01 -0.22630289878E+01  0.44562733579E+01  0.51100000000E-03 0. -1.
        -12    1    3    3    0    0  0.15602371827E+01 -0.15413252315E+02  0.32576381463E+02  0.36072473109E+02  0.00000000000E+00 0.  1.
</event>
<event>
 7    1  0.6462830E-013  0.5052886E+02  0.7816164E-02  0.1300439E+00
        -11   -1    0    0    0    0  0.00000000000E+00  0.00000000000E+00  0.45593999997E+02  0.45594000000E+02  0.51100000000E-03 0.  1.
         11   -1    0    0    0    0 -0.00000000000E+00 -0.00000000000E+00 -0.45593999997E+02  0.45594000000E+02  0.51100000000E-03 0. -1.
    9900012    2    1    2    0    0 -0.40617656550E+02 -0.23171043203E+00 -0.18214558836E+01  0.50528863083E+02  0.30000009827E+02 0.  0.
         12    1    1    2    0    0  0.40617656550E+02  0.23171043203E+00  0.18214558836E+01  0.40659136917E+02  0.00000000000E+00 0. -1.
         11    1    3    3    0    0 -0.73832195827E-01  0.59541086195E+01  0.43015318537E+01  0.73457496006E+01  0.51100000000E-03 0. -1.
        -11    1    3    3    0    0 -0.25305584522E+02 -0.65705597704E+01  0.14050680676E+01  0.26182419297E+02  0.51100000000E-03 0.  1.
        -12    1    3    3    0    0 -0.15238239832E+02  0.38474071885E+00 -0.75280558049E+01  0.17000694186E+02  0.00000000000E+00 0.  1.
</event>
<event>
 7    1  0.6462830E-013  0.5052887E+02  0.7816164E-02  0.1300439E+00
        -11   -1    0    0    0    0  0.00000000000E+00  0.00000000000E+00  0.45593999997E+02  0.45594000000E+02  0.51100000000E-03 0. -1.
         11   -1    0    0    0    0 -0.00000000000E+00 -0.00000000000E+00 -0.45593999997E+02  0.45594000000E+02  0.51100000000E-03 0.  1.
    9900012    2    1    2    0    0  0.16086993861E+02 -0.28696885237E+02 -0.23892723711E+02  0.50528870150E+02  0.30000031309E+02 0.  0.
         12    1    1    2    0    0 -0.16086993861E+02  0.28696885237E+02  0.23892723711E+02  0.40659129850E+02  0.00000000000E+00 0. -1.
         11    1    3    3    0    0  0.84048133496E+00 -0.91690229560E+01  0.29393727371E+01  0.96652627067E+01  0.51100000000E-03 0. -1.
        -11    1    3    3    0    0  0.13173319073E+02 -0.15441484288E+02 -0.85645756895E+01  0.22030155002E+02  0.51100000000E-03 0.  1.
         12    1    3    3    0    0  0.20731934535E+01 -0.40863779931E+01 -0.18267520759E+02  0.18833452442E+02  0.00000000000E+00 0. -1.
</event>
<event>
 7    1  0.6462830E-013  0.5052884E+02  0.7816164E-02  0.1300439E+00
        -11   -1    0    0    0    0  0.00000000000E+00  0.00000000000E+00  0.45593999997E+02  0.45594000000E+02  0.51100000000E-03 0.  1.
         11   -1    0    0    0    0 -0.00000000000E+00 -0.00000000000E+00 -0.45593999997E+02  0.45594000000E+02  0.51100000000E-03 0. -1.
    9900012    2    1    2    0    0 -0.13446587431E+02  0.36534321601E+02 -0.11730296402E+02  0.50528840859E+02  0.29999942276E+02 0.  0.
         12    1    1    2    0    0  0.13446587431E+02 -0.36534321601E+02  0.11730296402E+02  0.40659159141E+02  0.00000000000E+00 0. -1.
         11    1    3    3    0    0  0.35161078155E+01  0.36537710738E+01 -0.84726776874E+01  0.98741746331E+01  0.51100000000E-03 0. -1.
        -11    1    3    3    0    0 -0.12384716249E+02  0.74333818274E+01 -0.32206822206E+01  0.14798957943E+02  0.51100000000E-03 0.  1.
         12    1    3    3    0    0 -0.45779789971E+01  0.25447168700E+02 -0.36936493511E-01  0.25855708283E+02  0.00000000000E+00 0. -1.
</event>
<event>
 7    1  0.6462830E-013  0.5052885E+02  0.7816164E-02  0.1300439E+00
        -11   -1    0    0    0    0  0.00000000000E+00  0.00000000000E+00  0.45593999997E+02  0.45594000000E+02  0.51100000000E-03 0.  1.
         11   -1    0    0    0    0 -0.00000000000E+00 -0.00000000000E+00 -0.45593999997E+02  0.45594000000E+02  0.51100000000E-03 0. -1.
    9900012    2    1    2    0    0  0.33930438810E+01 -0.37968567990E+02  0.14143591411E+02  0.50528854903E+02  0.29999984963E+02 0.  0.
         12    1    1    2    0    0 -0.33930438810E+01  0.37968567990E+02 -0.14143591411E+02  0.40659145097E+02  0.00000000000E+00 0. -1.
         11    1    3    3    0    0  0.61064029774E+00 -0.82996784773E+01  0.12148500947E+02  0.14725611021E+02  0.51100000000E-03 0. -1.
        -11    1    3    3    0    0 -0.75219514280E+01 -0.10488624167E+02  0.49642251224E+01  0.13828757049E+02  0.51100000000E-03 0.  1.
         12    1    3    3    0    0  0.10304355011E+02 -0.19180265346E+02 -0.29691346585E+01  0.21974486833E+02  0.00000000000E+00 0. -1.
</event>
<event>
 7    1  0.6462830E-013  0.5052883E+02  0.7816164E-02  0.1300439E+00
        -11   -1    0    0    0    0  0.00000000000E+00  0.00000000000E+00  0.45593999997E+02  0.45594000000E+02  0.51100000000E-03 0. -1.
         11   -1    0    0    0    0 -0.00000000000E+00 -0.00000000000E+00 -0.45593999997E+02  0.45594000000E+02  0.51100000000E-03 0.  1.
    9900012    2    1    2    0    0 -0.31512843674E+02 -0.57779873841E+01 -0.25034445646E+02  0.50528832234E+02  0.29999916058E+02 0.  0.
         12    1    1    2    0    0  0.31512843674E+02  0.57779873841E+01  0.25034445646E+02  0.40659167766E+02  0.00000000000E+00 0. -1.
         11    1    3    3    0    0  0.22063580868E+01  0.22446893713E+01 -0.11788775277E+02  0.12201715829E+02  0.51100000000E-03 0. -1.
        -11    1    3    3    0    0 -0.80653553648E+01 -0.62876184432E+01 -0.31101026355E+01  0.10689099191E+02  0.51100000000E-03 0.  1.
        -12    1    3    3    0    0 -0.25653846396E+02 -0.17350583122E+01 -0.10135567734E+02  0.27638017214E+02  0.00000000000E+00 0.  1.
</event>
<event>
 7    1  0.6462830E-013  0.5052886E+02  0.7816164E-02  0.1300439E+00
        -11   -1    0    0    0    0  0.00000000000E+00  0.00000000000E+00  0.45593999997E+02  0.45594000000E+02  0.51100000000E-03 0. -1.
         11   -1    0    0    0    0 -0.00000000000E+00 -0.00000000000E+00 -0.45593999997E+02  0.45594000000E+02  0.51100000000E-03 0.  1.
    9900012    2    1    2    0    0  0.27905392483E+02 -0.27929996646E+02 -0.97144300463E+01  0.50528858428E+02  0.29999995677E+02 0.  0.
         12    1    1    2    0    0 -0.27905392483E+02  0.27929996646E+02  0.97144300463E+01  0.40659141572E+02  0.00000000000E+00 0. -1.
         11    1    3    3    0    0  0.21543242777E+02 -0.23834161315E+02  0.25443125759E+01  0.32228125631E+02  0.51100000000E-03 0. -1.
        -11    1    3    3    0    0  0.65060355574E+01 -0.58229320358E+00 -0.11292722713E+01  0.66289380879E+01  0.51100000000E-03 0.  1.
        -12    1    3    3    0    0 -0.14388585215E+00 -0.35135421273E+01 -0.11129470351E+02  0.11671794708E+02  0.00000000000E+00 0.  1.
</event>
<event>
 7    1  0.6462830E-013  0.5052886E+02  0.7816164E-02  0.1300439E+00
        -11   -1    0    0    0    0  0.00000000000E+00  0.00000000000E+00  0.45593999997E+02  0.45594000000E+02  0.51100000000E-03 0. -1.
         11   -1    0    0    0    0 -0.00000000000E+00 -0.00000000000E+00 -0.45593999997E+02  0.45594000000E+02  0.51100000000E-03 0.  1.
    9900012    2    1    2    0    0  0.67301525697E+01  0.16771990113E+02 -0.36422124945E+02  0.50528858451E+02  0.29999995748E+02 0.  0.
         12    1    1    2    0    0 -0.67301525697E+01 -0.16771990113E+02  0.36422124945E+02  0.40659141549E+02  0.00000000000E+00 0. -1.
         11    1    3    3    0    0  0.28435463563E+01  0.12958800961E+01 -0.14847602428E+02  0.15172882364E+02  0.51100000000E-03 0. -1.
        -11    1    3    3    0    0 -0.82756313614E+01  0.39045415436E+00 -0.91185796648E+01  0.12320187671E+02  0.51100000000E-03 0.  1.
         12    1    3    3    0    0  0.12162237575E+02  0.15085655862E+02 -0.12455942853E+02  0.23035788416E+02  0.00000000000E+00 0. -1.
</event>
<event>
 7    1  0.6462830E-013  0.5052887E+02  0.7816164E-02  0.1300439E+00
        -11   -1    0    0    0    0  0.00000000000E+00  0.00000000000E+00  0.45593999997E+02  0.45594000000E+02  0.51100000000E-03 0. -1.
         11   -1    0    0    0    0 -0.00000000000E+00 -0.00000000000E+00 -0.45593999997E+02  0.45594000000E+02  0.51100000000E-03 0.  1.
    9900012    2    1    2    0    0  0.21589401751E+02 -0.28683931796E+02 -0.19086510088E+02  0.50528867218E+02  0.30000022397E+02 0.  0.
         12    1    1    2    0    0 -0.21589401751E+02  0.28683931796E+02  0.19086510088E+02  0.40659132782E+02  0.00000000000E+00 0. -1.
         11    1    3    3    0    0  0.14400212368E+02 -0.26996200095E+02 -0.88165253507E+01  0.31841671679E+02  0.51100000000E-03 0.  1.
        -11    1    3    3    0    0 -0.20277256850E+01 -0.36651638855E+01  0.67455637609E+00  0.42426553392E+01  0.51100000000E-03 0. -1.
        -12    1    3    3    0    0  0.92169150681E+01  0.19774321844E+01 -0.10944541113E+02  0.14444540200E+02  0.00000000000E+00 0.  1.
</event>
<event>
 7    1  0.6462830E-013  0.5052885E+02  0.7816164E-02  0.1300439E+00
        -11   -1    0    0    0    0  0.00000000000E+00  0.00000000000E+00  0.45593999997E+02  0.45594000000E+02  0.51100000000E-03 0.  1.
         11   -1    0    0    0    0 -0.00000000000E+00 -0.00000000000E+00 -0.45593999997E+02  0.45594000000E+02  0.51100000000E-03 0. -1.
    9900012    2    1    2    0    0 -0.13060990230E+02 -0.30634506463E+02  0.23326043525E+02  0.50528846559E+02  0.29999959602E+02 0.  0.
         12    1    1    2    0    0  0.13060990230E+02  0.30634506463E+02 -0.23326043525E+02  0.40659153441E+02  0.00000000000E+00 0. -1.
         11    1    3    3    0    0 -0.25558096052E+01 -0.24921707999E+02  0.13726091087E+02  0.28566226022E+02  0.51100000000E-03 0. -1.
        -11    1    3    3    0    0 -0.95699470899E+01 -0.74556654123E+01 -0.30205223339E-01  0.12131436298E+02  0.51100000000E-03 0.  1.
        -12    1    3    3    0    0 -0.93523353484E+00  0.17428669488E+01  0.96301576613E+01  0.98311842393E+01  0.00000000000E+00 0.  1.
</event>
<event>
 7    1  0.6462830E-013  0.5052885E+02  0.7816164E-02  0.1300439E+00
        -11   -1    0    0    0    0  0.00000000000E+00  0.00000000000E+00  0.45593999997E+02  0.45594000000E+02  0.51100000000E-03 0.  1.
         11   -1    0    0    0    0 -0.00000000000E+00 -0.00000000000E+00 -0.45593999997E+02  0.45594000000E+02  0.51100000000E-03 0. -1.
    9900012    2    1    2    0    0 -0.61528156046E+01 -0.31657001524E+02  0.24761729371E+02  0.50528854328E+02  0.29999983216E+02 0.  0.
         12    1    1    2    0    0  0.61528156046E+01  0.31657001524E+02 -0.24761729371E+02  0.40659145672E+02  0.00000000000E+00 0. -1.
         11    1    3    3    0    0 -0.13183490523E+02 -0.10193360922E+02  0.12437191604E+02  0.20794055990E+02  0.51100000000E-03 0. -1.
        -11    1    3    3    0    0  0.16834652427E+01 -0.18241023135E+01  0.87164800770E+01  0.90630254147E+01  0.51100000000E-03 0.  1.
         12    1    3    3    0    0  0.53472096759E+01 -0.19639538288E+02  0.36080576896E+01  0.20671772923E+02  0.00000000000E+00 0. -1.
</event>
<event>
 7    1  0.6462830E-013  0.5052886E+02  0.7816164E-02  0.1300439E+00
        -11   -1    0    0    0    0  0.00000000000E+00  0.00000000000E+00  0.45593999997E+02  0.45594000000E+02  0.51100000000E-03 0.  1.
         11   -1    0    0    0    0 -0.00000000000E+00 -0.00000000000E+00 -0.45593999997E+02  0.45594000000E+02  0.51100000000E-03 0. -1.
    9900012    2    1    2    0    0 -0.31204815163E+02 -0.25985569311E+02 -0.20433548513E+01  0.50528860796E+02  0.30000002875E+02 0.  0.
         12    1    1    2    0    0  0.31204815163E+02  0.25985569311E+02  0.20433548513E+01  0.40659139204E+02  0.00000000000E+00 0. -1.
         11    1    3    3    0    0  0.38502254325E+00  0.33404175009E+01  0.19632487906E+01  0.38937099936E+01  0.51100000000E-03 0. -1.
        -11    1    3    3    0    0 -0.10749714758E+02 -0.40190160185E+01  0.51764517332E+01  0.12589857424E+02  0.51100000000E-03 0.  1.
         12    1    3    3    0    0 -0.20840122948E+02 -0.25306970793E+02 -0.91830553751E+01  0.34045293379E+02  0.00000000000E+00 0. -1.
</event>
<event>
 7    1  0.6462830E-013  0.5052886E+02  0.7816164E-02  0.1300439E+00
        -11   -1    0    0    0    0  0.00000000000E+00  0.00000000000E+00  0.45593999997E+02  0.45594000000E+02  0.51100000000E-03 0.  1.
         11   -1    0    0    0    0 -0.00000000000E+00 -0.00000000000E+00 -0.45593999997E+02  0.45594000000E+02  0.51100000000E-03 0. -1.
    9900012    2    1    2    0    0 -0.37393545585E+02 -0.13893549974E+02  0.78649816835E+01  0.50528856881E+02  0.29999990974E+02 0.  0.
         12    1    1    2    0    0  0.37393545585E+02  0.13893549974E+02 -0.78649816835E+01  0.40659143119E+02  0.00000000000E+00 0. -1.
         11    1    3    3    0    0 -0.27490043915E+02 -0.62934839182E+01  0.13448997745E+02  0.31243975338E+02  0.51100000000E-03 0. -1.
        -11    1    3    3    0    0 -0.11130788572E+02 -0.42195921090E+00 -0.39764688855E+01  0.11827290851E+02  0.51100000000E-03 0.  1.
         12    1    3    3    0    0  0.12272869015E+01 -0.71781068448E+01 -0.16075471759E+01  0.74575906925E+01  0.00000000000E+00 0. -1.
</event>
<event>
 7    1  0.6462830E-013  0.5052888E+02  0.7816164E-02  0.1300439E+00
        -11   -1    0    0    0    0  0.00000000000E+00  0.00000000000E+00  0.45593999997E+02  0.45594000000E+02  0.51100000000E-03 0. -1.
         11   -1    0    0    0    0 -0.00000000000E+00 -0.00000000000E+00 -0.45593999997E+02  0.45594000000E+02  0.51100000000E-03 0.  1.
    9900012    2    1    2    0    0  0.37032506229E+02  0.32633238118E+01 -0.16465368496E+02  0.50528878518E+02  0.30000056745E+02 0.  0.
         12    1    1    2    0    0 -0.37032506229E+02 -0.32633238118E+01  0.16465368496E+02  0.40659121482E+02  0.00000000000E+00 0. -1.
         11    1    3    3    0    0  0.25510038285E+02  0.43637740282E+01 -0.27859066549E+01  0.26030095145E+02  0.51100000000E-03 0. -1.
        -11    1    3    3    0    0  0.14026001174E+02 -0.46336957681E+01 -0.65530823956E+01  0.16159911341E+02  0.51100000000E-03 0.  1.
         12    1    3    3    0    0 -0.25035332305E+01  0.35332455517E+01 -0.71263794459E+01  0.83388720323E+01  0.00000000000E+00 0. -1.
</event>
<event>
 7    1  0.6462830E-013  0.5052887E+02  0.7816164E-02  0.1300439E+00
        -11   -1    0    0    0    0  0.00000000000E+00  0.00000000000E+00  0.45593999997E+02  0.45594000000E+02  0.51100000000E-03 0. -1.
         11   -1    0    0    0    0 -0.00000000000E+00 -0.00000000000E+00 -0.45593999997E+02  0.45594000000E+02  0.51100000000E-03 0.  1.
    9900012    2    1    2    0    0  0.37634724084E+02  0.30789435053E+01 -0.15076893214E+02  0.50528867459E+02  0.30000023129E+02 0.  0.
         12    1    1    2    0    0 -0.37634724084E+02 -0.30789435053E+01  0.15076893214E+02  0.40659132541E+02  0.00000000000E+00 0. -1.
         11    1    3    3    0    0  0.35319120665E+02  0.27750815790E+01 -0.98736498430E+01  0.36778122896E+02  0.51100000000E-03 0. -1.
        -11    1    3    3    0    0  0.45306684020E+01  0.28422179148E+01  0.20701258841E+01  0.57350309748E+01  0.51100000000E-03 0.  1.
         12    1    3    3    0    0 -0.22150649825E+01 -0.25383559885E+01 -0.72733692554E+01  0.80157135881E+01  0.00000000000E+00 0. -1.
</event>
<event>
 7    1  0.6462830E-013  0.5052886E+02  0.7816164E-02  0.1300439E+00
        -11   -1    0    0    0    0  0.00000000000E+00  0.00000000000E+00  0.45593999997E+02  0.45594000000E+02  0.51100000000E-03 0. -1.
         11   -1    0    0    0    0 -0.00000000000E+00 -0.00000000000E+00 -0.45593999997E+02  0.45594000000E+02  0.51100000000E-03 0.  1.
    9900012    2    1    2    0    0 -0.12717838729E+01  0.76881585889E+01 -0.39905393330E+02  0.50528860394E+02  0.30000001654E+02 0.  0.
         12    1    1    2    0    0  0.12717838729E+01 -0.76881585889E+01  0.39905393330E+02  0.40659139606E+02  0.00000000000E+00 0. -1.
         11    1    3    3    0    0  0.52468665002E+01 -0.85949053050E+00 -0.74035346484E+01  0.91148591648E+01  0.51100000000E-03 0. -1.
        -11    1    3    3    0    0 -0.11842882772E+02  0.10377405771E+02 -0.32118980996E+02  0.35771124715E+02  0.51100000000E-03 0.  1.
         12    1    3    3    0    0  0.53242323984E+01 -0.18297566511E+01 -0.38287768472E+00  0.56428765144E+01  0.00000000000E+00 0. -1.
</event>
<event>
 7    1  0.6462830E-013  0.5052886E+02  0.7816164E-02  0.1300439E+00
        -11   -1    0    0    0    0  0.00000000000E+00  0.00000000000E+00  0.45593999997E+02  0.45594000000E+02  0.51100000000E-03 0. -1.
         11   -1    0    0    0    0 -0.00000000000E+00 -0.00000000000E+00 -0.45593999997E+02  0.45594000000E+02  0.51100000000E-03 0.  1.
    9900012    2    1    2    0    0 -0.29503029670E+02  0.26961961928E+02 -0.74692137406E+01  0.50528864438E+02  0.30000013947E+02 0.  0.
         12    1    1    2    0    0  0.29503029670E+02 -0.26961961928E+02  0.74692137406E+01  0.40659135562E+02  0.00000000000E+00 0. -1.
         11    1    3    3    0    0  0.46732834083E-01  0.45821970706E+01  0.19885556406E+01  0.49953045702E+01  0.51100000000E-03 0. -1.
        -11    1    3    3    0    0 -0.23308747301E+01  0.14549157559E+02  0.22137797980E+01  0.14900059863E+02  0.51100000000E-03 0.  1.
         12    1    3    3    0    0 -0.27218887774E+02  0.78306072991E+01 -0.11671549179E+02  0.30633500005E+02  0.00000000000E+00 0. -1.
</event>
<event>
 7    1  0.6462830E-013  0.5052887E+02  0.7816164E-02  0.1300439E+00
        -11   -1    0    0    0    0  0.00000000000E+00  0.00000000000E+00  0.45593999997E+02  0.45594000000E+02  0.51100000000E-03 0. -1.
         11   -1    0    0    0    0 -0.00000000000E+00 -0.00000000000E+00 -0.45593999997E+02  0.45594000000E+02  0.51100000000E-03 0.  1.
    9900012    2    1    2    0    0 -0.60076967101E+01 -0.27991486220E+02 -0.28871256912E+02  0.50528865771E+02  0.30000017998E+02 0.  0.
         12    1    1    2    0    0  0.60076967101E+01  0.27991486220E+02  0.28871256912E+02  0.40659134229E+02  0.00000000000E+00 0. -1.
         11    1    3    3    0    0 -0.29789857274E+01 -0.95748793845E+01 -0.10113297438E+01  0.10078465126E+02  0.51100000000E-03 0. -1.
        -11    1    3    3    0    0 -0.12178763122E+02 -0.54359014806E+01 -0.14456741830E+02  0.19668977621E+02  0.51100000000E-03 0.  1.
        -12    1    3    3    0    0  0.91500521388E+01 -0.12980705355E+02 -0.13403185338E+02  0.20781423023E+02  0.00000000000E+00 0.  1.
</event>
<event>
 7    1  0.6462830E-013  0.5052884E+02  0.7816164E-02  0.1300439E+00
        -11   -1    0    0    0    0  0.00000000000E+00  0.00000000000E+00  0.45593999997E+02  0.45594000000E+02  0.51100000000E-03 0.  1.
         11   -1    0    0    0    0 -0.00000000000E+00 -0.00000000000E+00 -0.45593999997E+02  0.45594000000E+02  0.51100000000E-03 0. -1.
    9900012    2    1    2    0    0 -0.34417370048E+02 -0.11835269529E+02  0.18125623348E+02  0.50528841283E+02  0.29999943563E+02 0.  0.
         12    1    1    2    0    0  0.34417370048E+02  0.11835269529E+02 -0.18125623348E+02  0.40659158717E+02  0.00000000000E+00 0. -1.
         11    1    3    3    0    0 -0.62081834514E+01  0.49188513990E+01  0.31914253268E+01  0.85394283608E+01  0.51100000000E-03 0. -1.
        -11    1    3    3    0    0 -0.27065303317E+02 -0.51116294071E+01  0.10651915814E+02  0.29531723783E+02  0.51100000000E-03 0.  1.
        -12    1    3    3    0    0 -0.11438832797E+01 -0.11642491521E+02  0.42822822078E+01  0.12457689139E+02  0.00000000000E+00 0.  1.
</event>
<event>
 7    1  0.6462830E-013  0.5052886E+02  0.7816164E-02  0.1300439E+00
        -11   -1    0    0    0    0  0.00000000000E+00  0.00000000000E+00  0.45593999997E+02  0.45594000000E+02  0.51100000000E-03 0. -1.
         11   -1    0    0    0    0 -0.00000000000E+00 -0.00000000000E+00 -0.45593999997E+02  0.45594000000E+02  0.51100000000E-03 0.  1.
    9900012    2    1    2    0    0 -0.91555743624E+01  0.11923599279E+02 -0.37777888310E+02  0.50528860722E+02  0.30000002651E+02 0.  0.
         12    1    1    2    0    0  0.91555743624E+01 -0.11923599279E+02  0.37777888310E+02  0.40659139278E+02  0.00000000000E+00 0. -1.
         11    1    3    3    0    0  0.12763341151E+01  0.88527995547E+01 -0.21793001822E+02  0.23557079985E+02  0.51100000000E-03 0. -1.
        -11    1    3    3    0    0 -0.12842002121E+02  0.76316037113E+01 -0.15894301632E+02  0.21812547267E+02  0.51100000000E-03 0.  1.
         12    1    3    3    0    0  0.24100936434E+01 -0.45608039872E+01 -0.90584855966E-01  0.51592334698E+01  0.00000000000E+00 0. -1.
</event>
<event>
 7    1  0.6462830E-013  0.5052886E+02  0.7816164E-02  0.1300439E+00
        -11   -1    0    0    0    0  0.00000000000E+00  0.00000000000E+00  0.45593999997E+02  0.45594000000E+02  0.51100000000E-03 0.  1.
         11   -1    0    0    0    0 -0.00000000000E+00 -0.00000000000E+00 -0.45593999997E+02  0.45594000000E+02  0.51100000000E-03 0. -1.
    9900012    2    1    2    0    0  0.10833878424E+02 -0.21064945645E+02  0.33046342481E+02  0.50528860706E+02  0.30000002602E+02 0.  0.
         12    1    1    2    0    0 -0.10833878424E+02  0.21064945645E+02 -0.33046342481E+02  0.40659139294E+02  0.00000000000E+00 0. -1.
         11    1    3    3    0    0 -0.23393860162E+01 -0.10373458037E+01 -0.33711589987E+01  0.42324374189E+01  0.51100000000E-03 0. -1.
        -11    1    3    3    0    0  0.19945095412E+01  0.21216306946E+01  0.83093429358E+01  0.88048035412E+01  0.51100000000E-03 0.  1.
        -12    1    3    3    0    0  0.11178754899E+02 -0.22149230536E+02  0.28108158544E+02  0.37491619746E+02  0.00000000000E+00 0.  1.
</event>
<event>
 7    1  0.6462830E-013  0.5052886E+02  0.7816164E-02  0.1300439E+00
        -11   -1    0    0    0    0  0.00000000000E+00  0.00000000000E+00  0.45593999997E+02  0.45594000000E+02  0.51100000000E-03 0.  1.
         11   -1    0    0    0    0 -0.00000000000E+00 -0.00000000000E+00 -0.45593999997E+02  0.45594000000E+02  0.51100000000E-03 0. -1.
    9900012    2    1    2    0    0  0.83197788913E+01 -0.19605342213E+02  0.34634913770E+02  0.50528863070E+02  0.30000009787E+02 0.  0.
         12    1    1    2    0    0 -0.83197788913E+01  0.19605342213E+02 -0.34634913770E+02  0.40659136930E+02  0.00000000000E+00 0. -1.
         11    1    3    3    0    0 -0.50149445021E+01 -0.51451013431E+01  0.48267222158E+00  0.72010213806E+01  0.51100000000E-03 0. -1.
        -11    1    3    3    0    0  0.71182661954E+01  0.32956669699E+01  0.10484105035E+02  0.13093799794E+02  0.51100000000E-03 0.  1.
         12    1    3    3    0    0  0.62164571980E+01 -0.17755907839E+02  0.23668136514E+02  0.30234041895E+02  0.00000000000E+00 0. -1.
</event>
<event>
 7    1  0.6462830E-013  0.5052886E+02  0.7816164E-02  0.1300439E+00
        -11   -1    0    0    0    0  0.00000000000E+00  0.00000000000E+00  0.45593999997E+02  0.45594000000E+02  0.51100000000E-03 0. -1.
         11   -1    0    0    0    0 -0.00000000000E+00 -0.00000000000E+00 -0.45593999997E+02  0.45594000000E+02  0.51100000000E-03 0.  1.
    9900012    2    1    2    0    0 -0.27331136780E+02 -0.14401837418E+02 -0.26434102340E+02  0.50528859265E+02  0.29999998223E+02 0.  0.
         12    1    1    2    0    0  0.27331136780E+02  0.14401837418E+02  0.26434102340E+02  0.40659140735E+02  0.00000000000E+00 0. -1.
         11    1    3    3    0    0  0.67414200921E+00 -0.49980519827E+01  0.21459854404E+01  0.54808981784E+01  0.51100000000E-03 0. -1.
        -11    1    3    3    0    0 -0.21550866602E+00 -0.20920452121E+01 -0.11348722180E+02  0.11541949252E+02  0.51100000000E-03 0.  1.
        -12    1    3    3    0    0 -0.27789770124E+02 -0.73117402233E+01 -0.17231365601E+02  0.33506011835E+02  0.00000000000E+00 0.  1.
</event>
<event>
 7    1  0.6462830E-013  0.5052886E+02  0.7816164E-02  0.1300439E+00
        -11   -1    0    0    0    0  0.00000000000E+00  0.00000000000E+00  0.45593999997E+02  0.45594000000E+02  0.51100000000E-03 0.  1.
         11   -1    0    0    0    0 -0.00000000000E+00 -0.00000000000E+00 -0.45593999997E+02  0.45594000000E+02  0.51100000000E-03 0. -1.
    9900012    2    1    2    0    0 -0.57929119994E+01 -0.20041495043E+02  0.34899090144E+02  0.50528857783E+02  0.29999993716E+02 0.  0.
         12    1    1    2    0    0  0.57929119994E+01  0.20041495043E+02 -0.34899090144E+02  0.40659142217E+02  0.00000000000E+00 0. -1.
         11    1    3    3    0    0 -0.55613937198E+01 -0.31059569523E+01  0.26728376781E+02  0.27476939319E+02  0.51100000000E-03 0.  1.
        -11    1    3    3    0    0  0.33286635882E+01 -0.54006456298E+01 -0.26166971120E+01  0.68625125529E+01  0.51100000000E-03 0. -1.
        -12    1    3    3    0    0 -0.35601818678E+01 -0.11534892460E+02  0.10787410475E+02  0.16189405911E+02  0.00000000000E+00 0.  1.
</event>
<event>
 7    1  0.6462830E-013  0.5052886E+02  0.7816164E-02  0.1300439E+00
        -11   -1    0    0    0    0  0.00000000000E+00  0.00000000000E+00  0.45593999997E+02  0.45594000000E+02  0.51100000000E-03 0.  1.
         11   -1    0    0    0    0 -0.00000000000E+00 -0.00000000000E+00 -0.45593999997E+02  0.45594000000E+02  0.51100000000E-03 0. -1.
    9900012    2    1    2    0    0  0.39922793319E+02 -0.64627991905E+01  0.41914616458E+01  0.50528861415E+02  0.30000004757E+02 0.  0.
         12    1    1    2    0    0 -0.39922793319E+02  0.64627991905E+01 -0.41914616458E+01  0.40659138585E+02  0.00000000000E+00 0. -1.
         11    1    3    3    0    0  0.30356777375E+02 -0.29933982618E+01 -0.81350025174E+01  0.31570122457E+02  0.51100000000E-03 0.  1.
        -11    1    3    3    0    0 -0.11149129229E+01  0.18438868094E+01  0.61374463258E+00  0.22404535538E+01  0.51100000000E-03 0. -1.
        -12    1    3    3    0    0  0.10680928867E+02 -0.53132877380E+01  0.11712719531E+02  0.16718285404E+02  0.00000000000E+00 0.  1.
</event>
<event>
 7    1  0.6462830E-013  0.5052886E+02  0.7816164E-02  0.1300439E+00
        -11   -1    0    0    0    0  0.00000000000E+00  0.00000000000E+00  0.45593999997E+02  0.45594000000E+02  0.51100000000E-03 0.  1.
         11   -1    0    0    0    0 -0.00000000000E+00 -0.00000000000E+00 -0.45593999997E+02  0.45594000000E+02  0.51100000000E-03 0. -1.
    9900012    2    1    2    0    0  0.28903491977E+02 -0.26143857351E+02 -0.11586734003E+02  0.50528861661E+02  0.30000005505E+02 0.  0.
         12    1    1    2    0    0 -0.28903491977E+02  0.26143857351E+02  0.11586734003E+02  0.40659138339E+02  0.00000000000E+00 0. -1.
         11    1    3    3    0    0 -0.49435507832E+01 -0.28526223237E+01  0.41259559527E+00  0.57224456183E+01  0.51100000000E-03 0. -1.
        -11    1    3    3    0    0  0.78494247767E+01  0.74345900579E-01 -0.71869095084E-03  0.78497769023E+01  0.51100000000E-03 0.  1.
         12    1    3    3    0    0  0.25997617983E+02 -0.23365580927E+02 -0.11998610907E+02  0.36956639141E+02  0.00000000000E+00 0. -1.
</event>
<event>
 7    1  0.6462830E-013  0.5052886E+02  0.7816164E-02  0.1300439E+00
        -11   -1    0    0    0    0  0.00000000000E+00  0.00000000000E+00  0.45593999997E+02  0.45594000000E+02  0.51100000000E-03 0.  1.
         11   -1    0    0    0    0 -0.00000000000E+00 -0.00000000000E+00 -0.45593999997E+02  0.45594000000E+02  0.51100000000E-03 0. -1.
    9900012    2    1    2    0    0  0.19442473436E+02 -0.99998089570E+01  0.34280600867E+02  0.50528861442E+02  0.30000004838E+02 0.  0.
         12    1    1    2    0    0 -0.19442473436E+02  0.99998089570E+01 -0.34280600867E+02  0.40659138558E+02  0.00000000000E+00 0. -1.
         11    1    3    3    0    0  0.77674522767E+01 -0.36212855494E+01  0.16006988761E+01  0.87183290288E+01  0.51100000000E-03 0. -1.
        -11    1    3    3    0    0  0.84343315177E+01 -0.46872787899E+01  0.75689499296E+00  0.96789163079E+01  0.51100000000E-03 0.  1.
        -12    1    3    3    0    0  0.32406896416E+01 -0.16912446177E+01  0.31923006998E+02  0.32131616105E+02  0.00000000000E+00 0.  1.
</event>
<event>
 7    1  0.6462830E-013  0.5052883E+02  0.7816164E-02  0.1300439E+00
        -11   -1    0    0    0    0  0.00000000000E+00  0.00000000000E+00  0.45593999997E+02  0.45594000000E+02  0.51100000000E-03 0. -1.
         11   -1    0    0    0    0 -0.00000000000E+00 -0.00000000000E+00 -0.45593999997E+02  0.45594000000E+02  0.51100000000E-03 0.  1.
    9900012    2    1    2    0    0 -0.38445808623E+02 -0.10583355813E+01 -0.13189697487E+02  0.50528826439E+02  0.29999898444E+02 0.  0.
         12    1    1    2    0    0  0.38445808623E+02  0.10583355813E+01  0.13189697487E+02  0.40659173561E+02  0.00000000000E+00 0. -1.
         11    1    3    3    0    0 -0.27459328846E+02 -0.11148082927E+01 -0.14366250061E+02  0.31010428557E+02  0.51100000000E-03 0. -1.
        -11    1    3    3    0    0 -0.86702641315E+01 -0.47321137844E+01 -0.52418288946E+01  0.11182269510E+02  0.51100000000E-03 0.  1.
         12    1    3    3    0    0 -0.23162156450E+01  0.47885864958E+01  0.64183814691E+01  0.83361283714E+01  0.00000000000E+00 0. -1.
</event>
<event>
 7    1  0.6462830E-013  0.5052887E+02  0.7816164E-02  0.1300439E+00
        -11   -1    0    0    0    0  0.00000000000E+00  0.00000000000E+00  0.45593999997E+02  0.45594000000E+02  0.51100000000E-03 0.  1.
         11   -1    0    0    0    0 -0.00000000000E+00 -0.00000000000E+00 -0.45593999997E+02  0.45594000000E+02  0.51100000000E-03 0. -1.
    9900012    2    1    2    0    0  0.22558846188E+02 -0.19934492002E+02  0.27329098027E+02  0.50528866811E+02  0.30000021159E+02 0.  0.
         12    1    1    2    0    0 -0.22558846188E+02  0.19934492002E+02 -0.27329098027E+02  0.40659133189E+02  0.00000000000E+00 0. -1.
         11    1    3    3    0    0  0.16521288822E+02 -0.96971475094E+01  0.16332412585E+02  0.25174100883E+02  0.51100000000E-03 0.  1.
        -11    1    3    3    0    0  0.78068389998E+01 -0.15268956869E+02  0.10224135130E+02  0.19965488185E+02  0.51100000000E-03 0. -1.
         12    1    3    3    0    0 -0.17692816346E+01  0.50316123764E+01  0.77255031286E+00  0.53892777433E+01  0.00000000000E+00 0. -1.
</event>
<event>
 7    1  0.6462830E-013  0.5052890E+02  0.7816164E-02  0.1300439E+00
        -11   -1    0    0    0    0  0.00000000000E+00  0.00000000000E+00  0.45593999997E+02  0.45594000000E+02  0.51100000000E-03 0.  1.
         11   -1    0    0    0    0 -0.00000000000E+00 -0.00000000000E+00 -0.45593999997E+02  0.45594000000E+02  0.51100000000E-03 0. -1.
    9900012    2    1    2    0    0  0.63715363218E+00 -0.15527741942E+02  0.37571877194E+02  0.50528896586E+02  0.30000111664E+02 0.  0.
         12    1    1    2    0    0 -0.63715363218E+00  0.15527741942E+02 -0.37571877194E+02  0.40659103414E+02  0.00000000000E+00 0. -1.
         11    1    3    3    0    0 -0.19166464799E+01 -0.84487298666E+00 -0.23050628964E+01  0.31145881445E+01  0.51100000000E-03 0. -1.
        -11    1    3    3    0    0 -0.75799574281E+01 -0.10830713346E+02  0.29853111037E+02  0.32649170664E+02  0.51100000000E-03 0.  1.
        -12    1    3    3    0    0  0.10133757540E+02 -0.38521556087E+01  0.10023829053E+02  0.14765137778E+02  0.00000000000E+00 0.  1.
</event>
<event>
 7    1  0.6462830E-013  0.5052885E+02  0.7816164E-02  0.1300439E+00
        -11   -1    0    0    0    0  0.00000000000E+00  0.00000000000E+00  0.45593999997E+02  0.45594000000E+02  0.51100000000E-03 0.  1.
         11   -1    0    0    0    0 -0.00000000000E+00 -0.00000000000E+00 -0.45593999997E+02  0.45594000000E+02  0.51100000000E-03 0. -1.
    9900012    2    1    2    0    0  0.27800123093E+01  0.36546610479E+02  0.17600650533E+02  0.50528854594E+02  0.29999984025E+02 0.  0.
         12    1    1    2    0    0 -0.27800123093E+01 -0.36546610479E+02 -0.17600650533E+02  0.40659145406E+02  0.00000000000E+00 0. -1.
         11    1    3    3    0    0  0.14215048260E+01 -0.11665379285E+01  0.11321002662E+01  0.21594300134E+01  0.51100000000E-03 0. -1.
        -11    1    3    3    0    0 -0.94917702410E+01  0.20031529033E+02  0.16484389899E+02  0.27624101222E+02  0.51100000000E-03 0.  1.
         12    1    3    3    0    0  0.10850277724E+02  0.17681619374E+02 -0.15839632112E-01  0.20745323360E+02  0.00000000000E+00 0. -1.
</event>
<event>
 7    1  0.6462830E-013  0.5052886E+02  0.7816164E-02  0.1300439E+00
        -11   -1    0    0    0    0  0.00000000000E+00  0.00000000000E+00  0.45593999997E+02  0.45594000000E+02  0.51100000000E-03 0.  1.
         11   -1    0    0    0    0 -0.00000000000E+00 -0.00000000000E+00 -0.45593999997E+02  0.45594000000E+02  0.51100000000E-03 0. -1.
    9900012    2    1    2    0    0 -0.18086983180E+02  0.75569983263E+01  0.35621885919E+02  0.50528856617E+02  0.29999990172E+02 0.  0.
         12    1    1    2    0    0  0.18086983180E+02 -0.75569983263E+01 -0.35621885919E+02  0.40659143383E+02  0.00000000000E+00 0. -1.
         11    1    3    3    0    0  0.29510234249E+01  0.64878234129E+01  0.14652691814E+02  0.16294225037E+02  0.51100000000E-03 0. -1.
        -11    1    3    3    0    0 -0.87774157634E+01  0.88787522822E+01  0.87686452388E+01  0.15256618536E+02  0.51100000000E-03 0.  1.
         12    1    3    3    0    0 -0.12260590841E+02 -0.78095773689E+01  0.12200548866E+02  0.18978013044E+02  0.00000000000E+00 0. -1.
</event>
<event>
 7    1  0.6462830E-013  0.5052886E+02  0.7816164E-02  0.1300439E+00
        -11   -1    0    0    0    0  0.00000000000E+00  0.00000000000E+00  0.45593999997E+02  0.45594000000E+02  0.51100000000E-03 0.  1.
         11   -1    0    0    0    0 -0.00000000000E+00 -0.00000000000E+00 -0.45593999997E+02  0.45594000000E+02  0.51100000000E-03 0. -1.
    9900012    2    1    2    0    0  0.31280659147E+02 -0.24669028104E+01  0.25857311231E+02  0.50528858467E+02  0.29999995797E+02 0.  0.
         12    1    1    2    0    0 -0.31280659147E+02  0.24669028104E+01 -0.25857311231E+02  0.40659141533E+02  0.00000000000E+00 0. -1.
         11    1    3    3    0    0  0.67609718417E+01  0.41922087829E+01  0.35957699602E+01  0.87301154971E+01  0.51100000000E-03 0. -1.
        -11    1    3    3    0    0  0.22510270415E+02  0.49584388494E+01  0.18059908775E+02  0.29282395653E+02  0.51100000000E-03 0.  1.
         12    1    3    3    0    0  0.20094168901E+01 -0.11617550443E+02  0.42016324951E+01  0.12516347317E+02  0.00000000000E+00 0. -1.
</event>
<event>
 7    1  0.6462830E-013  0.5052888E+02  0.7816164E-02  0.1300439E+00
        -11   -1    0    0    0    0  0.00000000000E+00  0.00000000000E+00  0.45593999997E+02  0.45594000000E+02  0.51100000000E-03 0.  1.
         11   -1    0    0    0    0 -0.00000000000E+00 -0.00000000000E+00 -0.45593999997E+02  0.45594000000E+02  0.51100000000E-03 0. -1.
    9900012    2    1    2    0    0 -0.36934957161E+02  0.96460477517E+01 -0.13997397549E+02  0.50528875122E+02  0.30000046421E+02 0.  0.
         12    1    1    2    0    0  0.36934957161E+02 -0.96460477517E+01  0.13997397549E+02  0.40659124878E+02  0.00000000000E+00 0. -1.
         11    1    3    3    0    0 -0.17277544804E+02 -0.69279186940E+01 -0.13299161200E+01  0.18662215545E+02  0.51100000000E-03 0. -1.
        -11    1    3    3    0    0 -0.14504677281E+02  0.37923193655E+01 -0.37572268516E+01  0.15455876004E+02  0.51100000000E-03 0.  1.
        -12    1    3    3    0    0 -0.51527350758E+01  0.12781647080E+02 -0.89102545776E+01  0.16410783573E+02  0.00000000000E+00 0.  1.
</event>
<event>
 7    1  0.6462830E-013  0.5052886E+02  0.7816164E-02  0.1300439E+00
        -11   -1    0    0    0    0  0.00000000000E+00  0.00000000000E+00  0.45593999997E+02  0.45594000000E+02  0.51100000000E-03 0.  1.
         11   -1    0    0    0    0 -0.00000000000E+00 -0.00000000000E+00 -0.45593999997E+02  0.45594000000E+02  0.51100000000E-03 0. -1.
    9900012    2    1    2    0    0 -0.61905922921E+01 -0.35857886288E+01  0.40024800307E+02  0.50528856469E+02  0.29999989724E+02 0.  0.
         12    1    1    2    0    0  0.61905922921E+01  0.35857886288E+01 -0.40024800307E+02  0.40659143531E+02  0.00000000000E+00 0. -1.
         11    1    3    3    0    0 -0.12917043795E+02  0.62802643871E+01  0.25804275137E+02  0.29532225733E+02  0.51100000000E-03 0.  1.
        -11    1    3    3    0    0  0.46903369402E+01 -0.15024236932E+00  0.80210132992E+01  0.92929267720E+01  0.51100000000E-03 0. -1.
        -12    1    3    3    0    0  0.20361145624E+01 -0.97158106466E+01  0.61995118714E+01  0.11703703964E+02  0.00000000000E+00 0.  1.
</event>
<event>
 7    1  0.6462830E-013  0.5052888E+02  0.7816164E-02  0.1300439E+00
        -11   -1    0    0    0    0  0.00000000000E+00  0.00000000000E+00  0.45593999997E+02  0.45594000000E+02  0.51100000000E-03 0. -1.
         11   -1    0    0    0    0 -0.00000000000E+00 -0.00000000000E+00 -0.45593999997E+02  0.45594000000E+02  0.51100000000E-03 0.  1.
    9900012    2    1    2    0    0  0.34599935540E+02  0.20815185573E+02  0.47683144251E+01  0.50528876641E+02  0.30000051039E+02 0.  0.
         12    1    1    2    0    0 -0.34599935540E+02 -0.20815185573E+02 -0.47683144251E+01  0.40659123359E+02  0.00000000000E+00 0. -1.
         11    1    3    3    0    0 -0.22475910360E+01  0.83941487043E+00 -0.12887321761E+01  0.27234378408E+01  0.51100000000E-03 0. -1.
        -11    1    3    3    0    0  0.23855660053E+02  0.20884786153E+02 -0.31410684187E+01  0.31861153782E+02  0.51100000000E-03 0.  1.
         12    1    3    3    0    0  0.12991866523E+02 -0.90901545010E+00  0.91981150199E+01  0.15944285019E+02  0.00000000000E+00 0. -1.
</event>
<event>
 7    1  0.6462830E-013  0.5052886E+02  0.7816164E-02  0.1300439E+00
        -11   -1    0    0    0    0  0.00000000000E+00  0.00000000000E+00  0.45593999997E+02  0.45594000000E+02  0.51100000000E-03 0.  1.
         11   -1    0    0    0    0 -0.00000000000E+00 -0.00000000000E+00 -0.45593999997E+02  0.45594000000E+02  0.51100000000E-03 0. -1.
    9900012    2    1    2    0    0 -0.17846406091E+01  0.40385445065E+02  0.43584960338E+01  0.50528860771E+02  0.30000002799E+02 0.  0.
         12    1    1    2    0    0  0.17846406091E+01 -0.40385445065E+02 -0.43584960338E+01  0.40659139229E+02  0.00000000000E+00 0. -1.
         11    1    3    3    0    0  0.71195122074E+01  0.64392755196E+01  0.71673628400E+01  0.11980100735E+02  0.51100000000E-03 0. -1.
        -11    1    3    3    0    0  0.22795849900E+01  0.12858632406E+02 -0.61705211521E+01  0.14443554501E+02  0.51100000000E-03 0.  1.
         12    1    3    3    0    0 -0.11183737806E+02  0.21087537139E+02  0.33616543460E+01  0.24105205534E+02  0.00000000000E+00 0. -1.
</event>
<event>
 7    1  0.6462830E-013  0.5052886E+02  0.7816164E-02  0.1300439E+00
        -11   -1    0    0    0    0  0.00000000000E+00  0.00000000000E+00  0.45593999997E+02  0.45594000000E+02  0.51100000000E-03 0.  1.
         11   -1    0    0    0    0 -0.00000000000E+00 -0.00000000000E+00 -0.45593999997E+02  0.45594000000E+02  0.51100000000E-03 0. -1.
    9900012    2    1    2    0    0 -0.21162230499E+02  0.14080388749E+02  0.31734335419E+02  0.50528863370E+02  0.30000010699E+02 0.  0.
         12    1    1    2    0    0  0.21162230499E+02 -0.14080388749E+02 -0.31734335419E+02  0.40659136630E+02  0.00000000000E+00 0. -1.
         11    1    3    3    0    0 -0.34206444573E+01 -0.40406490057E+01  0.39443432303E+01  0.66019312833E+01  0.51100000000E-03 0. -1.
        -11    1    3    3    0    0 -0.19875880842E+02  0.98646808376E+01  0.10288666266E+02  0.24458520419E+02  0.51100000000E-03 0.  1.
         12    1    3    3    0    0  0.21342947996E+01  0.82563569168E+01  0.17501325922E+02  0.19468411668E+02  0.00000000000E+00 0. -1.
</event>
<event>
 7    1  0.6462830E-013  0.5052886E+02  0.7816164E-02  0.1300439E+00
        -11   -1    0    0    0    0  0.00000000000E+00  0.00000000000E+00  0.45593999997E+02  0.45594000000E+02  0.51100000000E-03 0. -1.
         11   -1    0    0    0    0 -0.00000000000E+00 -0.00000000000E+00 -0.45593999997E+02  0.45594000000E+02  0.51100000000E-03 0.  1.
    9900012    2    1    2    0    0  0.33697561234E+02 -0.35001106863E+01 -0.22480858756E+02  0.50528863040E+02  0.30000009697E+02 0.  0.
         12    1    1    2    0    0 -0.33697561234E+02  0.35001106863E+01  0.22480858756E+02  0.40659136960E+02  0.00000000000E+00 0. -1.
         11    1    3    3    0    0  0.17245310253E+02 -0.22079459005E+01 -0.19127844276E+01  0.17490983259E+02  0.51100000000E-03 0. -1.
        -11    1    3    3    0    0  0.21093855888E+02 -0.13139848071E+01 -0.15836465735E+02  0.26409675491E+02  0.51100000000E-03 0.  1.
         12    1    3    3    0    0 -0.46416049076E+01  0.21820021385E-01 -0.47316085936E+01  0.66282042904E+01  0.00000000000E+00 0. -1.
</event>
<event>
 7    1  0.6462830E-013  0.5052886E+02  0.7816164E-02  0.1300439E+00
        -11   -1    0    0    0    0  0.00000000000E+00  0.00000000000E+00  0.45593999997E+02  0.45594000000E+02  0.51100000000E-03 0. -1.
         11   -1    0    0    0    0 -0.00000000000E+00 -0.00000000000E+00 -0.45593999997E+02  0.45594000000E+02  0.51100000000E-03 0.  1.
    9900012    2    1    2    0    0 -0.39173925845E+02 -0.10604591889E+02  0.24722070423E+01  0.50528860279E+02  0.30000001303E+02 0.  0.
         12    1    1    2    0    0  0.39173925845E+02  0.10604591889E+02 -0.24722070423E+01  0.40659139721E+02  0.00000000000E+00 0. -1.
         11    1    3    3    0    0 -0.20601621457E+02 -0.10513856291E+02  0.16263016928E+01  0.23186479643E+02  0.51100000000E-03 0. -1.
        -11    1    3    3    0    0 -0.13288016836E+02 -0.44659079660E+01 -0.80057725607E+01  0.16143361482E+02  0.51100000000E-03 0.  1.
        -12    1    3    3    0    0 -0.52842875520E+01  0.43751723678E+01  0.88516779102E+01  0.11199019154E+02  0.00000000000E+00 0.  1.
</event>
<event>
 7    1  0.6462830E-013  0.5052886E+02  0.7816164E-02  0.1300439E+00
        -11   -1    0    0    0    0  0.00000000000E+00  0.00000000000E+00  0.45593999997E+02  0.45594000000E+02  0.51100000000E-03 0.  1.
         11   -1    0    0    0    0 -0.00000000000E+00 -0.00000000000E+00 -0.45593999997E+02  0.45594000000E+02  0.51100000000E-03 0. -1.
    9900012    2    1    2    0    0  0.25013298287E+02 -0.12539997594E+02  0.29499989005E+02  0.50528856106E+02  0.29999988621E+02 0.  0.
         12    1    1    2    0    0 -0.25013298287E+02  0.12539997594E+02 -0.29499989005E+02  0.40659143894E+02  0.00000000000E+00 0. -1.
         11    1    3    3    0    0  0.17623919085E+02  0.43640690425E+01  0.63497131640E+01  0.19234512732E+02  0.51100000000E-03 0. -1.
        -11    1    3    3    0    0 -0.38140877807E-01 -0.61786088643E+01  0.20938569064E+01  0.65238714909E+01  0.51100000000E-03 0.  1.
        -12    1    3    3    0    0  0.74275200799E+01 -0.10725457772E+02  0.21056418935E+02  0.24770471883E+02  0.00000000000E+00 0.  1.
</event>
<event>
 7    1  0.6462830E-013  0.5052886E+02  0.7816164E-02  0.1300439E+00
        -11   -1    0    0    0    0  0.00000000000E+00  0.00000000000E+00  0.45593999997E+02  0.45594000000E+02  0.51100000000E-03 0.  1.
         11   -1    0    0    0    0 -0.00000000000E+00 -0.00000000000E+00 -0.45593999997E+02  0.45594000000E+02  0.51100000000E-03 0. -1.
    9900012    2    1    2    0    0 -0.39029682958E+02 -0.21349738693E+01  0.11193358113E+02  0.50528861653E+02  0.30000005481E+02 0.  0.
         12    1    1    2    0    0  0.39029682958E+02  0.21349738693E+01 -0.11193358113E+02  0.40659138347E+02  0.00000000000E+00 0. -1.
         11    1    3    3    0    0 -0.38478662806E+01  0.54394369015E+01  0.41104772047E+01  0.78287656645E+01  0.51100000000E-03 0. -1.
        -11    1    3    3    0    0 -0.18585043044E+02 -0.55081855955E+01  0.14694778623E+02  0.24324482575E+02  0.51100000000E-03 0.  1.
         12    1    3    3    0    0 -0.16596773633E+02 -0.20662251753E+01 -0.76118977143E+01  0.18375613414E+02  0.00000000000E+00 0. -1.
</event>
<event>
 7    1  0.6462830E-013  0.5052887E+02  0.7816164E-02  0.1300439E+00
        -11   -1    0    0    0    0  0.00000000000E+00  0.00000000000E+00  0.45593999997E+02  0.45594000000E+02  0.51100000000E-03 0.  1.
         11   -1    0    0    0    0 -0.00000000000E+00 -0.00000000000E+00 -0.45593999997E+02  0.45594000000E+02  0.51100000000E-03 0. -1.
    9900012    2    1    2    0    0 -0.30341366185E+02 -0.25329882135E+02  0.95374927625E+01  0.50528865735E+02  0.30000017889E+02 0.  0.
         12    1    1    2    0    0  0.30341366185E+02  0.25329882135E+02 -0.95374927625E+01  0.40659134265E+02  0.00000000000E+00 0. -1.
         11    1    3    3    0    0 -0.10771210637E+02 -0.18209780082E+00 -0.17640869055E+01  0.10916232916E+02  0.51100000000E-03 0. -1.
        -11    1    3    3    0    0 -0.29323770695E+01 -0.42376571827E+01  0.11810783333E+02  0.12886084622E+02  0.51100000000E-03 0.  1.
         12    1    3    3    0    0 -0.16637778479E+02 -0.20910127152E+02 -0.50920366527E+00  0.26726548198E+02  0.00000000000E+00 0. -1.
</event>
<event>
 7    1  0.6462830E-013  0.5052887E+02  0.7816164E-02  0.1300439E+00
        -11   -1    0    0    0    0  0.00000000000E+00  0.00000000000E+00  0.45593999997E+02  0.45594000000E+02  0.51100000000E-03 0.  1.
         11   -1    0    0    0    0 -0.00000000000E+00 -0.00000000000E+00 -0.45593999997E+02  0.45594000000E+02  0.51100000000E-03 0. -1.
    9900012    2    1    2    0    0  0.69314916260E+01  0.24771976010E+02  0.31487596829E+02  0.50528866639E+02  0.30000020637E+02 0.  0.
         12    1    1    2    0    0 -0.69314916260E+01 -0.24771976010E+02 -0.31487596829E+02  0.40659133361E+02  0.00000000000E+00 0. -1.
         11    1    3    3    0    0 -0.10590465815E+01 -0.85361451279E+00  0.24449780344E+01  0.27978840662E+01  0.51100000000E-03 0. -1.
        -11    1    3    3    0    0  0.85266080566E+01  0.17633437700E+02  0.33319864838E+02  0.38650414786E+02  0.51100000000E-03 0.  1.
         12    1    3    3    0    0 -0.53606984900E+00  0.79921528223E+01 -0.42772460435E+01  0.90805677870E+01  0.00000000000E+00 0. -1.
</event>
<event>
 7    1  0.6462830E-013  0.5052886E+02  0.7816164E-02  0.1300439E+00
        -11   -1    0    0    0    0  0.00000000000E+00  0.00000000000E+00  0.45593999997E+02  0.45594000000E+02  0.51100000000E-03 0. -1.
         11   -1    0    0    0    0 -0.00000000000E+00 -0.00000000000E+00 -0.45593999997E+02  0.45594000000E+02  0.51100000000E-03 0.  1.
    9900012    2    1    2    0    0  0.43187204549E+01 -0.26445314588E+02 -0.30580377575E+02  0.50528862004E+02  0.30000006546E+02 0.  0.
         12    1    1    2    0    0 -0.43187204549E+01  0.26445314588E+02  0.30580377575E+02  0.40659137996E+02  0.00000000000E+00 0. -1.
         11    1    3    3    0    0  0.15845582269E+01 -0.14891937886E+02 -0.84133734967E+00  0.14999616248E+02  0.51100000000E-03 0. -1.
        -11    1    3    3    0    0  0.24797300046E+01 -0.12965206133E+02 -0.12335965002E+02  0.18067143210E+02  0.51100000000E-03 0.  1.
         12    1    3    3    0    0  0.25443222333E+00  0.14118294320E+01 -0.17403075223E+02  0.17462102546E+02  0.00000000000E+00 0. -1.
</event>
<event>
 7    1  0.6462830E-013  0.5052886E+02  0.7816164E-02  0.1300439E+00
        -11   -1    0    0    0    0  0.00000000000E+00  0.00000000000E+00  0.45593999997E+02  0.45594000000E+02  0.51100000000E-03 0.  1.
         11   -1    0    0    0    0 -0.00000000000E+00 -0.00000000000E+00 -0.45593999997E+02  0.45594000000E+02  0.51100000000E-03 0. -1.
    9900012    2    1    2    0    0  0.10179891976E+02 -0.38523810325E+02 -0.80901957336E+01  0.50528862901E+02  0.30000009275E+02 0.  0.
         12    1    1    2    0    0 -0.10179891976E+02  0.38523810325E+02  0.80901957336E+01  0.40659137099E+02  0.00000000000E+00 0. -1.
         11    1    3    3    0    0  0.45267461331E+01 -0.17976085982E+02 -0.15963283611E+02  0.24463391459E+02  0.51100000000E-03 0. -1.
        -11    1    3    3    0    0 -0.19676841262E+01 -0.11596692980E+02 -0.26882534090E+00  0.11765514703E+02  0.51100000000E-03 0.  1.
         12    1    3    3    0    0  0.76208299692E+01 -0.89510313629E+01  0.81419132187E+01  0.14299956739E+02  0.00000000000E+00 0. -1.
</event>
<event>
 7    1  0.6462830E-013  0.5052886E+02  0.7816164E-02  0.1300439E+00
        -11   -1    0    0    0    0  0.00000000000E+00  0.00000000000E+00  0.45593999997E+02  0.45594000000E+02  0.51100000000E-03 0.  1.
         11   -1    0    0    0    0 -0.00000000000E+00 -0.00000000000E+00 -0.45593999997E+02  0.45594000000E+02  0.51100000000E-03 0. -1.
    9900012    2    1    2    0    0 -0.30439018781E+02 -0.17187134493E+02 -0.20766182183E+02  0.50528858606E+02  0.29999996218E+02 0.  0.
         12    1    1    2    0    0  0.30439018781E+02  0.17187134493E+02  0.20766182183E+02  0.40659141394E+02  0.00000000000E+00 0. -1.
         11    1    3    3    0    0  0.41552408048E+01 -0.35838342520E+01 -0.35296944409E+00  0.54985890718E+01  0.51100000000E-03 0. -1.
        -11    1    3    3    0    0 -0.15137354629E+02  0.59807926688E+00 -0.33622240114E+01  0.15517788327E+02  0.51100000000E-03 0.  1.
        -12    1    3    3    0    0 -0.19456904956E+02 -0.14201379508E+02 -0.17050988728E+02  0.29512481207E+02  0.00000000000E+00 0.  1.
</event>
<event>
 7    1  0.6462830E-013  0.5052887E+02  0.7816164E-02  0.1300439E+00
        -11   -1    0    0    0    0  0.00000000000E+00  0.00000000000E+00  0.45593999997E+02  0.45594000000E+02  0.51100000000E-03 0. -1.
         11   -1    0    0    0    0 -0.00000000000E+00 -0.00000000000E+00 -0.45593999997E+02  0.45594000000E+02  0.51100000000E-03 0.  1.
    9900012    2    1    2    0    0  0.69425501553E+01 -0.39930283416E+02  0.32463133353E+01  0.50528867119E+02  0.30000022095E+02 0.  0.
         12    1    1    2    0    0 -0.69425501553E+01  0.39930283416E+02 -0.32463133353E+01  0.40659132881E+02  0.00000000000E+00 0. -1.
         11    1    3    3    0    0  0.77726598381E+01 -0.41156803714E+00  0.44856334005E+01  0.89835703634E+01  0.51100000000E-03 0. -1.
        -11    1    3    3    0    0  0.40256737665E+00 -0.53697020236E+01 -0.47680049868E+01  0.71923314808E+01  0.51100000000E-03 0.  1.
        -12    1    3    3    0    0 -0.12326770595E+01 -0.34149013356E+02  0.35286849215E+01  0.34352965275E+02  0.00000000000E+00 0.  1.
</event>
<event>
 7    1  0.6462830E-013  0.5052886E+02  0.7816164E-02  0.1300439E+00
        -11   -1    0    0    0    0  0.00000000000E+00  0.00000000000E+00  0.45593999997E+02  0.45594000000E+02  0.51100000000E-03 0. -1.
         11   -1    0    0    0    0 -0.00000000000E+00 -0.00000000000E+00 -0.45593999997E+02  0.45594000000E+02  0.51100000000E-03 0.  1.
    9900012    2    1    2    0    0  0.63677213201E+01 -0.39914313203E+02 -0.44119406288E+01  0.50528862117E+02  0.30000006892E+02 0.  0.
         12    1    1    2    0    0 -0.63677213201E+01  0.39914313203E+02  0.44119406288E+01  0.40659137883E+02  0.00000000000E+00 0. -1.
         11    1    3    3    0    0  0.49099159854E+01 -0.20237551596E+02 -0.50309036725E+01  0.21423719602E+02  0.51100000000E-03 0. -1.
        -11    1    3    3    0    0  0.92581905773E+01 -0.64900850870E+01 -0.55421598495E+01  0.12591696997E+02  0.51100000000E-03 0.  1.
         12    1    3    3    0    0 -0.78003852425E+01 -0.13186676520E+02  0.61611228933E+01  0.16513445518E+02  0.00000000000E+00 0. -1.
</event>
<event>
 7    1  0.6462830E-013  0.5052885E+02  0.7816164E-02  0.1300439E+00
        -11   -1    0    0    0    0  0.00000000000E+00  0.00000000000E+00  0.45593999997E+02  0.45594000000E+02  0.51100000000E-03 0.  1.
         11   -1    0    0    0    0 -0.00000000000E+00 -0.00000000000E+00 -0.45593999997E+02  0.45594000000E+02  0.51100000000E-03 0. -1.
    9900012    2    1    2    0    0 -0.76245819150E+01  0.35280266633E+01  0.39781722594E+02  0.50528847598E+02  0.29999962759E+02 0.  0.
         12    1    1    2    0    0  0.76245819150E+01 -0.35280266633E+01 -0.39781722594E+02  0.40659152402E+02  0.00000000000E+00 0. -1.
         11    1    3    3    0    0 -0.15627892848E+02  0.58904503381E+01  0.27810410839E+02  0.32439904306E+02  0.51100000000E-03 0. -1.
        -11    1    3    3    0    0  0.13004011018E+01  0.27138676591E+01  0.84559244919E+01  0.89754543044E+01  0.51100000000E-03 0.  1.
         12    1    3    3    0    0  0.67029098318E+01 -0.50762913339E+01  0.35153872626E+01  0.91134889875E+01  0.00000000000E+00 0. -1.
</event>
<event>
 7    1  0.6462830E-013  0.5052885E+02  0.7816164E-02  0.1300439E+00
        -11   -1    0    0    0    0  0.00000000000E+00  0.00000000000E+00  0.45593999997E+02  0.45594000000E+02  0.51100000000E-03 0.  1.
         11   -1    0    0    0    0 -0.00000000000E+00 -0.00000000000E+00 -0.45593999997E+02  0.45594000000E+02  0.51100000000E-03 0. -1.
    9900012    2    1    2    0    0 -0.27233273924E+02 -0.29832147855E+02  0.46430404429E+01  0.50528854918E+02  0.29999985009E+02 0.  0.
         12    1    1    2    0    0  0.27233273924E+02  0.29832147855E+02 -0.46430404429E+01  0.40659145082E+02  0.00000000000E+00 0. -1.
         11    1    3    3    0    0  0.22241993113E+00  0.23813989780E+01  0.26969419355E+01  0.36047229828E+01  0.51100000000E-03 0. -1.
        -11    1    3    3    0    0 -0.50124521735E+01 -0.21382434269E+02  0.72065655420E+00  0.21973905393E+02  0.51100000000E-03 0.  1.
        -12    1    3    3    0    0 -0.22443241681E+02 -0.10831112563E+02  0.12254419532E+01  0.24950226542E+02  0.00000000000E+00 0.  1.
</event>
<event>
 7    1  0.6462830E-013  0.5052886E+02  0.7816164E-02  0.1300439E+00
        -11   -1    0    0    0    0  0.00000000000E+00  0.00000000000E+00  0.45593999997E+02  0.45594000000E+02  0.51100000000E-03 0. -1.
         11   -1    0    0    0    0 -0.00000000000E+00 -0.00000000000E+00 -0.45593999997E+02  0.45594000000E+02  0.51100000000E-03 0.  1.
    9900012    2    1    2    0    0  0.29049693147E+02  0.16078096762E+02 -0.23468610817E+02  0.50528861284E+02  0.30000004360E+02 0.  0.
         12    1    1    2    0    0 -0.29049693147E+02 -0.16078096762E+02  0.23468610817E+02  0.40659138716E+02  0.00000000000E+00 0. -1.
         11    1    3    3    0    0  0.79090686374E+01  0.76302118546E+01  0.11904206838E+01  0.11053985766E+02  0.51100000000E-03 0. -1.
        -11    1    3    3    0    0  0.22222583731E+02  0.11836291835E+02 -0.15299166868E+02  0.29461933732E+02  0.51100000000E-03 0.  1.
         12    1    3    3    0    0 -0.10819592222E+01 -0.33884069275E+01 -0.93598646329E+01  0.10012941786E+02  0.00000000000E+00 0. -1.
</event>
<event>
 7    1  0.6462830E-013  0.5052886E+02  0.7816164E-02  0.1300439E+00
        -11   -1    0    0    0    0  0.00000000000E+00  0.00000000000E+00  0.45593999997E+02  0.45594000000E+02  0.51100000000E-03 0.  1.
         11   -1    0    0    0    0 -0.00000000000E+00 -0.00000000000E+00 -0.45593999997E+02  0.45594000000E+02  0.51100000000E-03 0. -1.
    9900012    2    1    2    0    0  0.35355878579E+02 -0.15517181940E+02  0.12741450709E+02  0.50528860171E+02  0.30000000976E+02 0.  0.
         12    1    1    2    0    0 -0.35355878579E+02  0.15517181940E+02 -0.12741450709E+02  0.40659139829E+02  0.00000000000E+00 0. -1.
         11    1    3    3    0    0  0.20676404981E+02 -0.78326239832E+01  0.12644997028E+02  0.25470761109E+02  0.51100000000E-03 0.  1.
        -11    1    3    3    0    0  0.18960559433E+01  0.55596833536E+01 -0.26552281057E+01  0.64463434354E+01  0.51100000000E-03 0. -1.
        -12    1    3    3    0    0  0.12783417655E+02 -0.13244241311E+02  0.27516817869E+01  0.18611755626E+02  0.00000000000E+00 0.  1.
</event>
<event>
 7    1  0.6462830E-013  0.5052887E+02  0.7816164E-02  0.1300439E+00
        -11   -1    0    0    0    0  0.00000000000E+00  0.00000000000E+00  0.45593999997E+02  0.45594000000E+02  0.51100000000E-03 0.  1.
         11   -1    0    0    0    0 -0.00000000000E+00 -0.00000000000E+00 -0.45593999997E+02  0.45594000000E+02  0.51100000000E-03 0. -1.
    9900012    2    1    2    0    0  0.74539923508E+01 -0.38772975073E+02  0.97087177408E+01  0.50528870666E+02  0.30000032877E+02 0.  0.
         12    1    1    2    0    0 -0.74539923508E+01  0.38772975073E+02 -0.97087177408E+01  0.40659129334E+02  0.00000000000E+00 0. -1.
         11    1    3    3    0    0 -0.24542882772E+01 -0.56552678125E+01  0.85821269993E+00  0.62243163703E+01  0.51100000000E-03 0.  1.
        -11    1    3    3    0    0  0.18670061435E+02 -0.24832432407E+02  0.86275780258E+01  0.32243696998E+02  0.51100000000E-03 0. -1.
         12    1    3    3    0    0 -0.87617808069E+01 -0.82852748539E+01  0.22292701504E+00  0.12060857298E+02  0.00000000000E+00 0. -1.
</event>
<event>
 7    1  0.6462830E-013  0.5052886E+02  0.7816164E-02  0.1300439E+00
        -11   -1    0    0    0    0  0.00000000000E+00  0.00000000000E+00  0.45593999997E+02  0.45594000000E+02  0.51100000000E-03 0.  1.
         11   -1    0    0    0    0 -0.00000000000E+00 -0.00000000000E+00 -0.45593999997E+02  0.45594000000E+02  0.51100000000E-03 0. -1.
    9900012    2    1    2    0    0  0.15397136335E+02  0.26759434777E+02  0.26458007815E+02  0.50528864071E+02  0.30000012831E+02 0.  0.
         12    1    1    2    0    0 -0.15397136335E+02 -0.26759434777E+02 -0.26458007815E+02  0.40659135929E+02  0.00000000000E+00 0. -1.
         11    1    3    3    0    0  0.33419243335E+01 -0.27537367346E+01 -0.25028216678E+00  0.43375299052E+01  0.51100000000E-03 0. -1.
        -11    1    3    3    0    0  0.14986634375E+02  0.13152085876E+02  0.89129690119E+01  0.21840732352E+02  0.51100000000E-03 0.  1.
        -12    1    3    3    0    0 -0.29314223734E+01  0.16361085636E+02  0.17795320970E+02  0.24350601814E+02  0.00000000000E+00 0.  1.
</event>
<event>
 7    1  0.6462830E-013  0.5052886E+02  0.7816164E-02  0.1300439E+00
        -11   -1    0    0    0    0  0.00000000000E+00  0.00000000000E+00  0.45593999997E+02  0.45594000000E+02  0.51100000000E-03 0. -1.
         11   -1    0    0    0    0 -0.00000000000E+00 -0.00000000000E+00 -0.45593999997E+02  0.45594000000E+02  0.51100000000E-03 0.  1.
    9900012    2    1    2    0    0  0.31340221500E+02 -0.25809878102E+02 -0.21923191835E+01  0.50528861363E+02  0.30000004599E+02 0.  0.
         12    1    1    2    0    0 -0.31340221500E+02  0.25809878102E+02  0.21923191835E+01  0.40659138637E+02  0.00000000000E+00 0. -1.
         11    1    3    3    0    0  0.13073688229E+02 -0.14689657568E+02  0.81366227771E+00  0.19681702415E+02  0.51100000000E-03 0.  1.
        -11    1    3    3    0    0 -0.17029575546E+01 -0.10574321640E+02 -0.14744961791E+01  0.10811590162E+02  0.51100000000E-03 0. -1.
         12    1    3    3    0    0  0.19969490825E+02 -0.54589889313E+00 -0.15314852820E+01  0.20035568786E+02  0.00000000000E+00 0. -1.
</event>
<event>
 7    1 -0.6462830E-013  0.5052886E+02  0.7816164E-02  0.1300439E+00
        -11   -1    0    0    0    0  0.00000000000E+00  0.00000000000E+00  0.45593999997E+02  0.45594000000E+02  0.51100000000E-03 0.  1.
         11   -1    0    0    0    0 -0.00000000000E+00 -0.00000000000E+00 -0.45593999997E+02  0.45594000000E+02  0.51100000000E-03 0. -1.
    9900012    2    1    2    0    0  0.34194925749E+02  0.77116472277E+01  0.20601051840E+02  0.50528858508E+02  0.29999995921E+02 0.  0.
         12    1    1    2    0    0 -0.34194925749E+02 -0.77116472277E+01 -0.20601051840E+02  0.40659141492E+02  0.00000000000E+00 0. -1.
         11    1    3    3    0    0  0.36144950436E+01 -0.50072519778E+01  0.16911354936E+01  0.64028967123E+01  0.51100000000E-03 0. -1.
        -11    1    3    3    0    0  0.19829585907E+02 -0.31258007643E+01  0.13627433264E+02  0.24262935628E+02  0.51100000000E-03 0.  1.
         12    1    3    3    0    0  0.10750844798E+02  0.15844699970E+02  0.52824830824E+01  0.19863026167E+02  0.00000000000E+00 0. -1.
</event>
<event>
 7    1  0.6462830E-013  0.5052878E+02  0.7816164E-02  0.1300439E+00
        -11   -1    0    0    0    0  0.00000000000E+00  0.00000000000E+00  0.45593999997E+02  0.45594000000E+02  0.51100000000E-03 0. -1.
         11   -1    0    0    0    0 -0.00000000000E+00 -0.00000000000E+00 -0.45593999997E+02  0.45594000000E+02  0.51100000000E-03 0.  1.
    9900012    2    1    2    0    0 -0.37534341253E+02  0.10921649182E+02  0.11183144930E+02  0.50528783030E+02  0.29999766496E+02 0.  0.
         12    1    1    2    0    0  0.37534341253E+02 -0.10921649182E+02 -0.11183144930E+02  0.40659216970E+02  0.00000000000E+00 0. -1.
         11    1    3    3    0    0 -0.32997273596E+02  0.18237705716E+02  0.97199866336E+01  0.38934716064E+02  0.51100000000E-03 0.  1.
        -11    1    3    3    0    0  0.59092561659E+00 -0.26870920568E+01 -0.24244333580E+01  0.36670879693E+01  0.51100000000E-03 0. -1.
        -12    1    3    3    0    0 -0.51279932733E+01 -0.46289644776E+01  0.38875916542E+01  0.79269789968E+01  0.00000000000E+00 0.  1.
</event>
<event>
 7    1  0.6462830E-013  0.5052887E+02  0.7816164E-02  0.1300439E+00
        -11   -1    0    0    0    0  0.00000000000E+00  0.00000000000E+00  0.45593999997E+02  0.45594000000E+02  0.51100000000E-03 0.  1.
         11   -1    0    0    0    0 -0.00000000000E+00 -0.00000000000E+00 -0.45593999997E+02  0.45594000000E+02  0.51100000000E-03 0. -1.
    9900012    2    1    2    0    0 -0.32309886113E+02 -0.19208736400E+02 -0.15500352375E+02  0.50528865498E+02  0.30000017168E+02 0.  0.
         12    1    1    2    0    0  0.32309886113E+02  0.19208736400E+02  0.15500352375E+02  0.40659134502E+02  0.00000000000E+00 0. -1.
         11    1    3    3    0    0 -0.28914713426E+00 -0.29507517475E+01 -0.34233424928E+01  0.45287764379E+01  0.51100000000E-03 0.  1.
        -11    1    3    3    0    0  0.23101742782E+01 -0.55702146427E+01  0.33225784887E+01  0.68850362698E+01  0.51100000000E-03 0. -1.
        -12    1    3    3    0    0 -0.34330913257E+02 -0.10687770009E+02 -0.15399588371E+02  0.39115052791E+02  0.00000000000E+00 0.  1.
</event>
<event>
 7    1  0.6462830E-013  0.5052886E+02  0.7816164E-02  0.1300439E+00
        -11   -1    0    0    0    0  0.00000000000E+00  0.00000000000E+00  0.45593999997E+02  0.45594000000E+02  0.51100000000E-03 0.  1.
         11   -1    0    0    0    0 -0.00000000000E+00 -0.00000000000E+00 -0.45593999997E+02  0.45594000000E+02  0.51100000000E-03 0. -1.
    9900012    2    1    2    0    0 -0.28068843504E+02 -0.15960159504E+02 -0.24709898812E+02  0.50528858761E+02  0.29999996689E+02 0.  0.
         12    1    1    2    0    0  0.28068843504E+02  0.15960159504E+02  0.24709898812E+02  0.40659141239E+02  0.00000000000E+00 0. -1.
         11    1    3    3    0    0 -0.19122083408E+02 -0.10427866381E+02 -0.14495877694E+02  0.26163427556E+02  0.51100000000E-03 0. -1.
        -11    1    3    3    0    0 -0.67000917684E+01 -0.12010210667E+02 -0.23840932019E+01  0.13957803932E+02  0.51100000000E-03 0.  1.
         12    1    3    3    0    0 -0.22466683279E+01  0.64779175429E+01 -0.78299279154E+01  0.10407627272E+02  0.00000000000E+00 0. -1.
</event>
<event>
 7    1  0.6462830E-013  0.5052885E+02  0.7816164E-02  0.1300439E+00
        -11   -1    0    0    0    0  0.00000000000E+00  0.00000000000E+00  0.45593999997E+02  0.45594000000E+02  0.51100000000E-03 0.  1.
         11   -1    0    0    0    0 -0.00000000000E+00 -0.00000000000E+00 -0.45593999997E+02  0.45594000000E+02  0.51100000000E-03 0. -1.
    9900012    2    1    2    0    0 -0.33204867958E+02  0.21381808340E+02  0.96654726517E+01  0.50528851637E+02  0.29999975036E+02 0.  0.
         12    1    1    2    0    0  0.33204867958E+02 -0.21381808340E+02 -0.96654726517E+01  0.40659148363E+02  0.00000000000E+00 0. -1.
         11    1    3    3    0    0 -0.23534554980E+01  0.33353733766E+01  0.10316262892E+02  0.11094536884E+02  0.51100000000E-03 0. -1.
        -11    1    3    3    0    0 -0.21539292949E+02  0.90557356999E+01  0.70084379494E+01  0.24393968365E+02  0.51100000000E-03 0.  1.
         12    1    3    3    0    0 -0.93121195111E+01  0.89906992633E+01 -0.76592281899E+01  0.15040346389E+02  0.00000000000E+00 0. -1.
</event>
<event>
 7    1  0.6462830E-013  0.5052886E+02  0.7816164E-02  0.1300439E+00
        -11   -1    0    0    0    0  0.00000000000E+00  0.00000000000E+00  0.45593999997E+02  0.45594000000E+02  0.51100000000E-03 0.  1.
         11   -1    0    0    0    0 -0.00000000000E+00 -0.00000000000E+00 -0.45593999997E+02  0.45594000000E+02  0.51100000000E-03 0. -1.
    9900012    2    1    2    0    0 -0.32593741825E+02 -0.17610705505E+02  0.16753406438E+02  0.50528861030E+02  0.30000003587E+02 0.  0.
         12    1    1    2    0    0  0.32593741825E+02  0.17610705505E+02 -0.16753406438E+02  0.40659138970E+02  0.00000000000E+00 0. -1.
         11    1    3    3    0    0 -0.11003850108E+01  0.50155667399E+01 -0.17211241057E+01  0.54156278807E+01  0.51100000000E-03 0. -1.
        -11    1    3    3    0    0 -0.27039320095E+01 -0.30365775218E+01  0.76226536086E+01  0.86392649952E+01  0.51100000000E-03 0.  1.
         12    1    3    3    0    0 -0.28789424804E+02 -0.19589694723E+02  0.10851876935E+02  0.36473968154E+02  0.00000000000E+00 0. -1.
</event>
<event>
 7    1  0.6462830E-013  0.5052887E+02  0.7816164E-02  0.1300439E+00
        -11   -1    0    0    0    0  0.00000000000E+00  0.00000000000E+00  0.45593999997E+02  0.45594000000E+02  0.51100000000E-03 0.  1.
         11   -1    0    0    0    0 -0.00000000000E+00 -0.00000000000E+00 -0.45593999997E+02  0.45594000000E+02  0.51100000000E-03 0. -1.
    9900012    2    1    2    0    0  0.28237820881E+02 -0.11362130787E+02  0.26957231130E+02  0.50528869976E+02  0.30000030778E+02 0.  0.
         12    1    1    2    0    0 -0.28237820881E+02  0.11362130787E+02 -0.26957231130E+02  0.40659130024E+02  0.00000000000E+00 0. -1.
         11    1    3    3    0    0  0.13426031068E+02 -0.13383181548E+02  0.26188598275E+02  0.32329716028E+02  0.51100000000E-03 0.  1.
        -11    1    3    3    0    0  0.85838121794E+00 -0.15603156983E+01 -0.28365115315E+01  0.33492090594E+01  0.51100000000E-03 0. -1.
        -12    1    3    3    0    0  0.13953408595E+02  0.35813664592E+01  0.36051443864E+01  0.14849944888E+02  0.00000000000E+00 0.  1.
</event>
<event>
 7    1  0.6462830E-013  0.5052885E+02  0.7816164E-02  0.1300439E+00
        -11   -1    0    0    0    0  0.00000000000E+00  0.00000000000E+00  0.45593999997E+02  0.45594000000E+02  0.51100000000E-03 0.  1.
         11   -1    0    0    0    0 -0.00000000000E+00 -0.00000000000E+00 -0.45593999997E+02  0.45594000000E+02  0.51100000000E-03 0. -1.
    9900012    2    1    2    0    0 -0.34244438818E+02 -0.69787741179E+01  0.20779347082E+02  0.50528854125E+02  0.29999982598E+02 0.  0.
         12    1    1    2    0    0  0.34244438818E+02  0.69787741179E+01 -0.20779347082E+02  0.40659145875E+02  0.00000000000E+00 0. -1.
         11    1    3    3    0    0 -0.15450819017E+02 -0.50282392738E+01  0.14744946512E+01  0.16315181067E+02  0.51100000000E-03 0. -1.
        -11    1    3    3    0    0 -0.73101364793E+01 -0.99530961096E+01  0.15286496359E+02  0.19651442408E+02  0.51100000000E-03 0.  1.
         12    1    3    3    0    0 -0.11483483321E+02  0.80025612656E+01  0.40183560714E+01  0.14562230650E+02  0.00000000000E+00 0. -1.
</event>
<event>
 7    1  0.6462830E-013  0.5052884E+02  0.7816164E-02  0.1300439E+00
        -11   -1    0    0    0    0  0.00000000000E+00  0.00000000000E+00  0.45593999997E+02  0.45594000000E+02  0.51100000000E-03 0. -1.
         11   -1    0    0    0    0 -0.00000000000E+00 -0.00000000000E+00 -0.45593999997E+02  0.45594000000E+02  0.51100000000E-03 0.  1.
    9900012    2    1    2    0    0 -0.29031449861E+02 -0.80262691561E+01 -0.27311553482E+02  0.50528843206E+02  0.29999949410E+02 0.  0.
         12    1    1    2    0    0  0.29031449861E+02  0.80262691561E+01  0.27311553482E+02  0.40659156794E+02  0.00000000000E+00 0. -1.
         11    1    3    3    0    0  0.27639736998E+00  0.15175564152E+01  0.26605350007E+01  0.30753568461E+01  0.51100000000E-03 0.  1.
        -11    1    3    3    0    0 -0.10618530050E+01  0.48583826276E+01 -0.28635078505E+01  0.57385617564E+01  0.51100000000E-03 0. -1.
        -12    1    3    3    0    0 -0.28245994226E+02 -0.14402208199E+02 -0.27108580632E+02  0.41714924604E+02  0.00000000000E+00 0.  1.
</event>
<event>
 7    1  0.6462830E-013  0.5052882E+02  0.7816164E-02  0.1300439E+00
        -11   -1    0    0    0    0  0.00000000000E+00  0.00000000000E+00  0.45593999997E+02  0.45594000000E+02  0.51100000000E-03 0. -1.
         11   -1    0    0    0    0 -0.00000000000E+00 -0.00000000000E+00 -0.45593999997E+02  0.45594000000E+02  0.51100000000E-03 0.  1.
    9900012    2    1    2    0    0 -0.11996233611E+02  0.33536052596E+02 -0.19611024483E+02  0.50528822366E+02  0.29999886064E+02 0.  0.
         12    1    1    2    0    0  0.11996233611E+02 -0.33536052596E+02  0.19611024483E+02  0.40659177634E+02  0.00000000000E+00 0. -1.
         11    1    3    3    0    0  0.24192512068E+01  0.26953113506E+00  0.55008506231E+00  0.24955995815E+01  0.51100000000E-03 0. -1.
        -11    1    3    3    0    0 -0.54514656144E+01  0.20814981764E+02  0.14090721783E+01  0.21563103391E+02  0.51100000000E-03 0.  1.
         12    1    3    3    0    0 -0.89640192039E+01  0.12451539696E+02 -0.21570181724E+02  0.26470119393E+02  0.00000000000E+00 0. -1.
</event>
<event>
 7    1  0.6462830E-013  0.5052887E+02  0.7816164E-02  0.1300439E+00
        -11   -1    0    0    0    0  0.00000000000E+00  0.00000000000E+00  0.45593999997E+02  0.45594000000E+02  0.51100000000E-03 0.  1.
         11   -1    0    0    0    0 -0.00000000000E+00 -0.00000000000E+00 -0.45593999997E+02  0.45594000000E+02  0.51100000000E-03 0. -1.
    9900012    2    1    2    0    0  0.37835409068E+01  0.21936358980E+02  0.34024199128E+02  0.50528866298E+02  0.30000019601E+02 0.  0.
         12    1    1    2    0    0 -0.37835409068E+01 -0.21936358980E+02 -0.34024199128E+02  0.40659133702E+02  0.00000000000E+00 0. -1.
         11    1    3    3    0    0 -0.16017380257E+00  0.11138590677E+01 -0.14045044714E+01  0.17997140720E+01  0.51100000000E-03 0. -1.
        -11    1    3    3    0    0 -0.10245031733E+02  0.91528459728E+01  0.22138416771E+02  0.26054649527E+02  0.51100000000E-03 0.  1.
         12    1    3    3    0    0  0.14188746443E+02  0.11669653939E+02  0.13290286828E+02  0.22674502699E+02  0.00000000000E+00 0. -1.
</event>
<event>
 7    1  0.6462830E-013  0.5052886E+02  0.7816164E-02  0.1300439E+00
        -11   -1    0    0    0    0  0.00000000000E+00  0.00000000000E+00  0.45593999997E+02  0.45594000000E+02  0.51100000000E-03 0.  1.
         11   -1    0    0    0    0 -0.00000000000E+00 -0.00000000000E+00 -0.45593999997E+02  0.45594000000E+02  0.51100000000E-03 0. -1.
    9900012    2    1    2    0    0  0.13924814165E+01 -0.34224976910E+02  0.21906110252E+02  0.50528859387E+02  0.29999998593E+02 0.  0.
         12    1    1    2    0    0 -0.13924814165E+01  0.34224976910E+02 -0.21906110252E+02  0.40659140613E+02  0.00000000000E+00 0. -1.
         11    1    3    3    0    0  0.99068291149E+00 -0.25849323633E+02  0.43673024496E+01  0.26234372793E+02  0.51100000000E-03 0. -1.
        -11    1    3    3    0    0  0.42492994345E+01 -0.11093147705E+02  0.14237383717E+02  0.18542318276E+02  0.51100000000E-03 0.  1.
        -12    1    3    3    0    0 -0.38475009295E+01  0.27174944275E+01  0.33014240856E+01  0.57521683180E+01  0.00000000000E+00 0.  1.
</event>
<event>
 7    1  0.6462830E-013  0.5052886E+02  0.7816164E-02  0.1300439E+00
        -11   -1    0    0    0    0  0.00000000000E+00  0.00000000000E+00  0.45593999997E+02  0.45594000000E+02  0.51100000000E-03 0.  1.
         11   -1    0    0    0    0 -0.00000000000E+00 -0.00000000000E+00 -0.45593999997E+02  0.45594000000E+02  0.51100000000E-03 0. -1.
    9900012    2    1    2    0    0 -0.33559787195E+01 -0.30805275547E+02  0.26323717074E+02  0.50528859881E+02  0.30000000093E+02 0.  0.
         12    1    1    2    0    0  0.33559787195E+01  0.30805275547E+02 -0.26323717074E+02  0.40659140119E+02  0.00000000000E+00 0. -1.
         11    1    3    3    0    0  0.53897713741E+01 -0.22799711290E+01  0.12893486190E+02  0.14159445264E+02  0.51100000000E-03 0. -1.
        -11    1    3    3    0    0 -0.61035392676E+01 -0.13743007482E+01  0.43445371562E+01  0.76168824003E+01  0.51100000000E-03 0.  1.
        -12    1    3    3    0    0 -0.26422108260E+01 -0.27151003669E+02  0.90856937280E+01  0.28752532216E+02  0.00000000000E+00 0.  1.
</event>
<event>
 7    1  0.6462830E-013  0.5052886E+02  0.7816164E-02  0.1300439E+00
        -11   -1    0    0    0    0  0.00000000000E+00  0.00000000000E+00  0.45593999997E+02  0.45594000000E+02  0.51100000000E-03 0.  1.
         11   -1    0    0    0    0 -0.00000000000E+00 -0.00000000000E+00 -0.45593999997E+02  0.45594000000E+02  0.51100000000E-03 0. -1.
    9900012    2    1    2    0    0  0.20468648808E+02  0.16937480037E+02  0.30778595074E+02  0.50528859223E+02  0.29999998094E+02 0.  0.
         12    1    1    2    0    0 -0.20468648808E+02 -0.16937480037E+02 -0.30778595074E+02  0.40659140777E+02  0.00000000000E+00 0. -1.
         11    1    3    3    0    0  0.70192330844E+01  0.68783089060E+01  0.25208750226E+00  0.98307840415E+01  0.51100000000E-03 0. -1.
        -11    1    3    3    0    0  0.40004770074E+01  0.14568321705E+02  0.11519904736E+02  0.18998632029E+02  0.51100000000E-03 0.  1.
         12    1    3    3    0    0  0.94489387160E+01 -0.45091505744E+01  0.19006602835E+02  0.21699443152E+02  0.00000000000E+00 0. -1.
</event>
<event>
 7    1  0.6462830E-013  0.5052886E+02  0.7816164E-02  0.1300439E+00
        -11   -1    0    0    0    0  0.00000000000E+00  0.00000000000E+00  0.45593999997E+02  0.45594000000E+02  0.51100000000E-03 0. -1.
         11   -1    0    0    0    0 -0.00000000000E+00 -0.00000000000E+00 -0.45593999997E+02  0.45594000000E+02  0.51100000000E-03 0.  1.
    9900012    2    1    2    0    0  0.10368282932E+02  0.22317291028E+02 -0.32366699585E+02  0.50528855741E+02  0.29999987511E+02 0.  0.
         12    1    1    2    0    0 -0.10368282932E+02 -0.22317291028E+02  0.32366699585E+02  0.40659144259E+02  0.00000000000E+00 0. -1.
         11    1    3    3    0    0 -0.59367214656E+00 -0.17943712850E+01 -0.25185193752E+01  0.31488339160E+01  0.51100000000E-03 0. -1.
        -11    1    3    3    0    0 -0.38928302418E+01  0.17451925912E+02 -0.24323701210E+02  0.30188843736E+02  0.51100000000E-03 0.  1.
        -12    1    3    3    0    0  0.14854785321E+02  0.66597364018E+01 -0.55244789998E+01  0.17191178089E+02  0.00000000000E+00 0.  1.
</event>
<event>
 7    1  0.6462830E-013  0.5052888E+02  0.7816164E-02  0.1300439E+00
        -11   -1    0    0    0    0  0.00000000000E+00  0.00000000000E+00  0.45593999997E+02  0.45594000000E+02  0.51100000000E-03 0. -1.
         11   -1    0    0    0    0 -0.00000000000E+00 -0.00000000000E+00 -0.45593999997E+02  0.45594000000E+02  0.51100000000E-03 0.  1.
    9900012    2    1    2    0    0  0.11900944993E+02  0.22654446653E+02 -0.31596010761E+02  0.50528876290E+02  0.30000049970E+02 0.  0.
         12    1    1    2    0    0 -0.11900944993E+02 -0.22654446653E+02  0.31596010761E+02  0.40659123710E+02  0.00000000000E+00 0. -1.
         11    1    3    3    0    0  0.88863165335E+01 -0.33128148605E+01 -0.58765097631E+01  0.11156824418E+02  0.51100000000E-03 0. -1.
        -11    1    3    3    0    0 -0.12539240517E+01  0.10736331284E+01 -0.88426020360E+01  0.89953668435E+01  0.51100000000E-03 0.  1.
         12    1    3    3    0    0  0.42685525111E+01  0.24893628385E+02 -0.16876898962E+02  0.30376685028E+02  0.00000000000E+00 0. -1.
</event>
<event>
 7    1  0.6462830E-013  0.5052886E+02  0.7816164E-02  0.1300439E+00
        -11   -1    0    0    0    0  0.00000000000E+00  0.00000000000E+00  0.45593999997E+02  0.45594000000E+02  0.51100000000E-03 0. -1.
         11   -1    0    0    0    0 -0.00000000000E+00 -0.00000000000E+00 -0.45593999997E+02  0.45594000000E+02  0.51100000000E-03 0.  1.
    9900012    2    1    2    0    0  0.33680618599E+02 -0.21861999818E+02 -0.63901841273E+01  0.50528861317E+02  0.30000004460E+02 0.  0.
         12    1    1    2    0    0 -0.33680618599E+02  0.21861999818E+02  0.63901841273E+01  0.40659138683E+02  0.00000000000E+00 0. -1.
         11    1    3    3    0    0  0.70447104428E+01  0.31717182366E+01 -0.83305044535E+01  0.11361560038E+02  0.51100000000E-03 0. -1.
        -11    1    3    3    0    0  0.10848975955E+02 -0.17568955615E+01  0.30954351145E+00  0.10994670469E+02  0.51100000000E-03 0.  1.
         12    1    3    3    0    0  0.15786932201E+02 -0.23276822493E+02  0.16307768148E+01  0.28172630809E+02  0.00000000000E+00 0. -1.
</event>
<event>
 7    1  0.6462830E-013  0.5052886E+02  0.7816164E-02  0.1300439E+00
        -11   -1    0    0    0    0  0.00000000000E+00  0.00000000000E+00  0.45593999997E+02  0.45594000000E+02  0.51100000000E-03 0.  1.
         11   -1    0    0    0    0 -0.00000000000E+00 -0.00000000000E+00 -0.45593999997E+02  0.45594000000E+02  0.51100000000E-03 0. -1.
    9900012    2    1    2    0    0 -0.22744177880E+02  0.18959087815E+02  0.27864331326E+02  0.50528860825E+02  0.30000002965E+02 0.  0.
         12    1    1    2    0    0  0.22744177880E+02 -0.18959087815E+02 -0.27864331326E+02  0.40659139175E+02  0.00000000000E+00 0. -1.
         11    1    3    3    0    0 -0.17511645354E+01  0.25147123021E+01  0.16037888547E+02  0.16328019614E+02  0.51100000000E-03 0. -1.
        -11    1    3    3    0    0 -0.41952046366E+01  0.99433188717E+01 -0.26265721074E+01  0.11107124444E+02  0.51100000000E-03 0.  1.
        -12    1    3    3    0    0 -0.16797808708E+02  0.65010566410E+01  0.14453014885E+02  0.23093716767E+02  0.00000000000E+00 0.  1.
</event>
<event>
 7    1  0.6472680E-013  0.5052885E+02  0.7816164E-02  0.1300439E+00
        -11   -1    0    0    0    0  0.00000000000E+00  0.00000000000E+00  0.45593999997E+02  0.45594000000E+02  0.51100000000E-03 0.  1.
         11   -1    0    0    0    0 -0.00000000000E+00 -0.00000000000E+00 -0.45593999997E+02  0.45594000000E+02  0.51100000000E-03 0. -1.
    9900012    2    1    2    0    0 -0.20323878501E+02  0.35057031760E+02 -0.33333174586E+01  0.50528849512E+02  0.29999968576E+02 0.  0.
         12    1    1    2    0    0  0.20323878501E+02 -0.35057031760E+02  0.33333174586E+01  0.40659150488E+02  0.00000000000E+00 0. -1.
         11    1    3    3    0    0 -0.12216851608E+02  0.29338569373E+01  0.12981142699E+01  0.12631075990E+02  0.51100000000E-03 0. -1.
        -11    1    3    3    0    0 -0.11405875022E+02  0.31211951837E+02 -0.66991636434E+01  0.33899243594E+02  0.51100000000E-03 0.  1.
         12    1    3    3    0    0  0.32988481292E+01  0.91122298631E+00  0.20677319148E+01  0.39985299276E+01  0.00000000000E+00 0. -1.
</event>
<event>
 7    1  0.6462830E-013  0.5052880E+02  0.7816164E-02  0.1300439E+00
        -11   -1    0    0    0    0  0.00000000000E+00  0.00000000000E+00  0.45593999997E+02  0.45594000000E+02  0.51100000000E-03 0.  1.
         11   -1    0    0    0    0 -0.00000000000E+00 -0.00000000000E+00 -0.45593999997E+02  0.45594000000E+02  0.51100000000E-03 0. -1.
    9900012    2    1    2    0    0 -0.27322729904E+02 -0.12089886913E+01  0.30086169025E+02  0.50528796987E+02  0.29999808920E+02 0.  0.
         12    1    1    2    0    0  0.27322729904E+02  0.12089886913E+01 -0.30086169025E+02  0.40659203013E+02  0.00000000000E+00 0. -1.
         11    1    3    3    0    0 -0.84002393563E+01  0.10172396441E+02  0.29254351747E+01  0.13512950892E+02  0.51100000000E-03 0. -1.
        -11    1    3    3    0    0 -0.40628745746E+01 -0.49128218936E+01  0.16311616332E+02  0.17513183502E+02  0.51100000000E-03 0.  1.
        -12    1    3    3    0    0 -0.14859615974E+02 -0.64685632387E+01  0.10849117518E+02  0.19502662592E+02  0.00000000000E+00 0.  1.
</event>
<event>
 7    1  0.6462830E-013  0.5052887E+02  0.7816164E-02  0.1300439E+00
        -11   -1    0    0    0    0  0.00000000000E+00  0.00000000000E+00  0.45593999997E+02  0.45594000000E+02  0.51100000000E-03 0.  1.
         11   -1    0    0    0    0 -0.00000000000E+00 -0.00000000000E+00 -0.45593999997E+02  0.45594000000E+02  0.51100000000E-03 0. -1.
    9900012    2    1    2    0    0 -0.59705078403E+01  0.11456614287E+02  0.38552090791E+02  0.50528872130E+02  0.30000037326E+02 0.  0.
         12    1    1    2    0    0  0.59705078403E+01 -0.11456614287E+02 -0.38552090791E+02  0.40659127870E+02  0.00000000000E+00 0. -1.
         11    1    3    3    0    0  0.80420236734E+01 -0.86318565123E-01  0.12071360911E+02  0.14505149091E+02  0.51100000000E-03 0. -1.
        -11    1    3    3    0    0 -0.56611779584E+01 -0.19817442584E+01  0.11326228303E+01  0.61040217004E+01  0.51100000000E-03 0.  1.
        -12    1    3    3    0    0 -0.83513535553E+01  0.13524677111E+02  0.25348107050E+02  0.29919701339E+02  0.00000000000E+00 0.  1.
</event>
<event>
 7    1  0.6462830E-013  0.5052881E+02  0.7816164E-02  0.1300439E+00
        -11   -1    0    0    0    0  0.00000000000E+00  0.00000000000E+00  0.45593999997E+02  0.45594000000E+02  0.51100000000E-03 0.  1.
         11   -1    0    0    0    0 -0.00000000000E+00 -0.00000000000E+00 -0.45593999997E+02  0.45594000000E+02  0.51100000000E-03 0. -1.
    9900012    2    1    2    0    0 -0.25569974229E+02  0.29882652625E+02  0.10313755145E+02  0.50528806019E+02  0.29999836376E+02 0.  0.
         12    1    1    2    0    0  0.25569974229E+02 -0.29882652625E+02 -0.10313755145E+02  0.40659193981E+02  0.00000000000E+00 0. -1.
         11    1    3    3    0    0 -0.12483323886E+02  0.53170572129E+01  0.16964514586E+01  0.13674151544E+02  0.51100000000E-03 0. -1.
        -11    1    3    3    0    0 -0.12402355734E+02  0.28179247013E+02  0.10741057067E+02  0.32607647832E+02  0.51100000000E-03 0.  1.
        -12    1    3    3    0    0 -0.68429460946E+00 -0.36136516008E+01 -0.21237533807E+01  0.42470066431E+01  0.00000000000E+00 0.  1.
</event>
<event>
 7    1  0.6462830E-013  0.5052886E+02  0.7816164E-02  0.1300439E+00
        -11   -1    0    0    0    0  0.00000000000E+00  0.00000000000E+00  0.45593999997E+02  0.45594000000E+02  0.51100000000E-03 0.  1.
         11   -1    0    0    0    0 -0.00000000000E+00 -0.00000000000E+00 -0.45593999997E+02  0.45594000000E+02  0.51100000000E-03 0. -1.
    9900012    2    1    2    0    0 -0.23404371894E+02 -0.29077983560E+02  0.16120536930E+02  0.50528862495E+02  0.30000008041E+02 0.  0.
         12    1    1    2    0    0  0.23404371894E+02  0.29077983560E+02 -0.16120536930E+02  0.40659137505E+02  0.00000000000E+00 0. -1.
         11    1    3    3    0    0 -0.20015809553E+01 -0.20427999305E+02  0.10523640762E+02  0.23066349886E+02  0.51100000000E-03 0. -1.
        -11    1    3    3    0    0 -0.89745855366E-01 -0.46155979073E+01 -0.11283379527E+01  0.47523620608E+01  0.51100000000E-03 0.  1.
         12    1    3    3    0    0 -0.21313045084E+02 -0.40343863476E+01  0.67252341211E+01  0.22710150548E+02  0.00000000000E+00 0. -1.
</event>
<event>
 7    1  0.6462830E-013  0.5052888E+02  0.7816164E-02  0.1300439E+00
        -11   -1    0    0    0    0  0.00000000000E+00  0.00000000000E+00  0.45593999997E+02  0.45594000000E+02  0.51100000000E-03 0.  1.
         11   -1    0    0    0    0 -0.00000000000E+00 -0.00000000000E+00 -0.45593999997E+02  0.45594000000E+02  0.51100000000E-03 0. -1.
    9900012    2    1    2    0    0  0.18495683653E+02 -0.34965532963E+02  0.94066576586E+01  0.50528880267E+02  0.30000062059E+02 0.  0.
         12    1    1    2    0    0 -0.18495683653E+02  0.34965532963E+02 -0.94066576586E+01  0.40659119733E+02  0.00000000000E+00 0. -1.
         11    1    3    3    0    0  0.16148867730E+01 -0.51184098492E+01 -0.43250443464E+01  0.68928939883E+01  0.51100000000E-03 0. -1.
        -11    1    3    3    0    0  0.31125808732E+01 -0.26979020341E+02  0.11044133346E+02  0.29317717849E+02  0.51100000000E-03 0.  1.
         12    1    3    3    0    0  0.13768216007E+02 -0.28681027726E+01  0.26875686588E+01  0.14318268429E+02  0.00000000000E+00 0. -1.
</event>
<event>
 7    1  0.6462830E-013  0.5052886E+02  0.7816164E-02  0.1300439E+00
        -11   -1    0    0    0    0  0.00000000000E+00  0.00000000000E+00  0.45593999997E+02  0.45594000000E+02  0.51100000000E-03 0. -1.
         11   -1    0    0    0    0 -0.00000000000E+00 -0.00000000000E+00 -0.45593999997E+02  0.45594000000E+02  0.51100000000E-03 0.  1.
    9900012    2    1    2    0    0  0.26058252150E+02  0.31151581053E+02  0.19267582538E+01  0.50528857060E+02  0.29999991520E+02 0.  0.
         12    1    1    2    0    0 -0.26058252150E+02 -0.31151581053E+02 -0.19267582538E+01  0.40659142940E+02  0.00000000000E+00 0. -1.
         11    1    3    3    0    0 -0.55756155477E+01  0.36196086784E+01 -0.17522274473E+01  0.68745441310E+01  0.51100000000E-03 0. -1.
        -11    1    3    3    0    0  0.72846297251E+01  0.13495249791E+02  0.22530132944E+00  0.15337482130E+02  0.51100000000E-03 0.  1.
        -12    1    3    3    0    0  0.24349237973E+02  0.14036722584E+02  0.34536843716E+01  0.28316830799E+02  0.00000000000E+00 0.  1.
</event>
<event>
 7    1  0.6462830E-013  0.5052885E+02  0.7816164E-02  0.1300439E+00
        -11   -1    0    0    0    0  0.00000000000E+00  0.00000000000E+00  0.45593999997E+02  0.45594000000E+02  0.51100000000E-03 0.  1.
         11   -1    0    0    0    0 -0.00000000000E+00 -0.00000000000E+00 -0.45593999997E+02  0.45594000000E+02  0.51100000000E-03 0. -1.
    9900012    2    1    2    0    0  0.11560619375E+02  0.32999996390E+02  0.20748954789E+02  0.50528845965E+02  0.29999957794E+02 0.  0.
         12    1    1    2    0    0 -0.11560619375E+02 -0.32999996390E+02 -0.20748954789E+02  0.40659154035E+02  0.00000000000E+00 0. -1.
         11    1    3    3    0    0 -0.13546104820E+01  0.63888854632E+01  0.76357095354E-02  0.65309176679E+01  0.51100000000E-03 0. -1.
        -11    1    3    3    0    0  0.19610562504E+01  0.25136689207E+02  0.21191253709E+02  0.32935818191E+02  0.51100000000E-03 0.  1.
         12    1    3    3    0    0  0.10954173607E+02  0.14744217190E+01 -0.44993462951E+00  0.11062110105E+02  0.00000000000E+00 0. -1.
</event>
<event>
 7    1  0.6462830E-013  0.5052888E+02  0.7816164E-02  0.1300439E+00
        -11   -1    0    0    0    0  0.00000000000E+00  0.00000000000E+00  0.45593999997E+02  0.45594000000E+02  0.51100000000E-03 0.  1.
         11   -1    0    0    0    0 -0.00000000000E+00 -0.00000000000E+00 -0.45593999997E+02  0.45594000000E+02  0.51100000000E-03 0. -1.
    9900012    2    1    2    0    0  0.30317167353E+02  0.21201024490E+02  0.16868616049E+02  0.50528877000E+02  0.30000052129E+02 0.  0.
         12    1    1    2    0    0 -0.30317167353E+02 -0.21201024490E+02 -0.16868616049E+02  0.40659123000E+02  0.00000000000E+00 0. -1.
         11    1    3    3    0    0 -0.48320471945E+00 -0.35008429960E+01  0.10904893365E+00  0.35357149792E+01  0.51100000000E-03 0. -1.
        -11    1    3    3    0    0  0.24075103386E+02  0.71799322861E+01  0.10131694947E+02  0.27088988048E+02  0.51100000000E-03 0.  1.
         12    1    3    3    0    0  0.67252686859E+01  0.17521935200E+02  0.66278721683E+01  0.19904173973E+02  0.00000000000E+00 0. -1.
</event>
<event>
 7    1  0.6462830E-013  0.5052887E+02  0.7816164E-02  0.1300439E+00
        -11   -1    0    0    0    0  0.00000000000E+00  0.00000000000E+00  0.45593999997E+02  0.45594000000E+02  0.51100000000E-03 0.  1.
         11   -1    0    0    0    0 -0.00000000000E+00 -0.00000000000E+00 -0.45593999997E+02  0.45594000000E+02  0.51100000000E-03 0. -1.
    9900012    2    1    2    0    0  0.92743502794E+01  0.33163211983E+02 -0.21618345419E+02  0.50528867437E+02  0.30000023061E+02 0.  0.
         12    1    1    2    0    0 -0.92743502794E+01 -0.33163211983E+02  0.21618345419E+02  0.40659132563E+02  0.00000000000E+00 0. -1.
         11    1    3    3    0    0  0.54142216546E+01  0.10463229755E+02 -0.30096352097E+01  0.12159394615E+02  0.51100000000E-03 0.  1.
        -11    1    3    3    0    0 -0.57974434713E+01  0.17386424782E+02 -0.20007443674E+01  0.18436406803E+02  0.51100000000E-03 0. -1.
         12    1    3    3    0    0  0.96575720961E+01  0.53135574454E+01 -0.16607965842E+02  0.19933066019E+02  0.00000000000E+00 0. -1.
</event>
<event>
 7    1  0.6462830E-013  0.5052885E+02  0.7816164E-02  0.1300439E+00
        -11   -1    0    0    0    0  0.00000000000E+00  0.00000000000E+00  0.45593999997E+02  0.45594000000E+02  0.51100000000E-03 0.  1.
         11   -1    0    0    0    0 -0.00000000000E+00 -0.00000000000E+00 -0.45593999997E+02  0.45594000000E+02  0.51100000000E-03 0. -1.
    9900012    2    1    2    0    0  0.35346773893E+02  0.51151235992E+01  0.19432119579E+02  0.50528853607E+02  0.29999981023E+02 0.  0.
         12    1    1    2    0    0 -0.35346773893E+02 -0.51151235992E+01 -0.19432119579E+02  0.40659146393E+02  0.00000000000E+00 0. -1.
         11    1    3    3    0    0 -0.19972914911E+01  0.27562975451E+01 -0.79181028159E+00  0.34947551045E+01  0.51100000000E-03 0. -1.
        -11    1    3    3    0    0  0.19612257065E+02  0.11251948470E+02  0.10120722624E+02  0.24772484701E+02  0.51100000000E-03 0.  1.
         12    1    3    3    0    0  0.17731808319E+02 -0.88931224156E+01  0.10103207237E+02  0.22261613801E+02  0.00000000000E+00 0. -1.
</event>
<event>
 7    1  0.6462830E-013  0.5052886E+02  0.7816164E-02  0.1300439E+00
        -11   -1    0    0    0    0  0.00000000000E+00  0.00000000000E+00  0.45593999997E+02  0.45594000000E+02  0.51100000000E-03 0. -1.
         11   -1    0    0    0    0 -0.00000000000E+00 -0.00000000000E+00 -0.45593999997E+02  0.45594000000E+02  0.51100000000E-03 0.  1.
    9900012    2    1    2    0    0 -0.32129449875E+02  0.14765950248E+02 -0.20070646504E+02  0.50528859735E+02  0.29999999651E+02 0.  0.
         12    1    1    2    0    0  0.32129449875E+02 -0.14765950248E+02  0.20070646504E+02  0.40659140265E+02  0.00000000000E+00 0. -1.
         11    1    3    3    0    0  0.28476895717E+00 -0.18565729853E+01 -0.60099397529E+01  0.62966127960E+01  0.51100000000E-03 0. -1.
        -11    1    3    3    0    0 -0.18648664474E+02  0.13340924767E+02 -0.18434111024E+02  0.29420561004E+02  0.51100000000E-03 0.  1.
        -12    1    3    3    0    0 -0.13765554359E+02  0.32815984658E+01  0.43734042732E+01  0.14811685935E+02  0.00000000000E+00 0.  1.
</event>
<event>
 7    1  0.6462830E-013  0.5052884E+02  0.7816164E-02  0.1300439E+00
        -11   -1    0    0    0    0  0.00000000000E+00  0.00000000000E+00  0.45593999997E+02  0.45594000000E+02  0.51100000000E-03 0. -1.
         11   -1    0    0    0    0 -0.00000000000E+00 -0.00000000000E+00 -0.45593999997E+02  0.45594000000E+02  0.51100000000E-03 0.  1.
    9900012    2    1    2    0    0  0.21786885930E+02  0.27672398812E+02 -0.20315937400E+02  0.50528839077E+02  0.29999936858E+02 0.  0.
         12    1    1    2    0    0 -0.21786885930E+02 -0.27672398812E+02  0.20315937400E+02  0.40659160923E+02  0.00000000000E+00 0. -1.
         11    1    3    3    0    0 -0.18177683179E+01 -0.12550851975E+01 -0.53691806520E+01  0.58058265256E+01  0.51100000000E-03 0. -1.
        -11    1    3    3    0    0  0.22209276369E+02  0.13877862254E+02 -0.13704838443E+02  0.29557902743E+02  0.51100000000E-03 0.  1.
         12    1    3    3    0    0  0.13953778791E+01  0.15049621756E+02 -0.12419183047E+01  0.15165109808E+02  0.00000000000E+00 0. -1.
</event>
<event>
 7    1  0.6462830E-013  0.5052886E+02  0.7816164E-02  0.1300439E+00
        -11   -1    0    0    0    0  0.00000000000E+00  0.00000000000E+00  0.45593999997E+02  0.45594000000E+02  0.51100000000E-03 0.  1.
         11   -1    0    0    0    0 -0.00000000000E+00 -0.00000000000E+00 -0.45593999997E+02  0.45594000000E+02  0.51100000000E-03 0. -1.
    9900012    2    1    2    0    0  0.24153380052E+02  0.19279111254E+02  0.26421497200E+02  0.50528863106E+02  0.30000009897E+02 0.  0.
         12    1    1    2    0    0 -0.24153380052E+02 -0.19279111254E+02 -0.26421497200E+02  0.40659136894E+02  0.00000000000E+00 0. -1.
         11    1    3    3    0    0  0.23901900876E+01  0.12212671178E+02  0.48383543488E+01  0.13351854516E+02  0.51100000000E-03 0. -1.
        -11    1    3    3    0    0 -0.89505972485E+00 -0.38490896219E+01  0.71764649643E+01  0.81925742275E+01  0.51100000000E-03 0.  1.
         12    1    3    3    0    0  0.22658249689E+02  0.10915529698E+02  0.14406677887E+02  0.28984434362E+02  0.00000000000E+00 0. -1.
</event>
<event>
 7    1  0.6462830E-013  0.5052886E+02  0.7816164E-02  0.1300439E+00
        -11   -1    0    0    0    0  0.00000000000E+00  0.00000000000E+00  0.45593999997E+02  0.45594000000E+02  0.51100000000E-03 0. -1.
         11   -1    0    0    0    0 -0.00000000000E+00 -0.00000000000E+00 -0.45593999997E+02  0.45594000000E+02  0.51100000000E-03 0.  1.
    9900012    2    1    2    0    0 -0.24308652025E+02 -0.64293395354E+01 -0.31951821250E+02  0.50528857715E+02  0.29999993512E+02 0.  0.
         12    1    1    2    0    0  0.24308652025E+02  0.64293395354E+01  0.31951821250E+02  0.40659142285E+02  0.00000000000E+00 0. -1.
         11    1    3    3    0    0 -0.39814505818E+01  0.24468018197E+01  0.20955416763E+01  0.51215313197E+01  0.51100000000E-03 0. -1.
        -11    1    3    3    0    0 -0.15285476512E+02 -0.58143587482E+01 -0.71116995192E+01  0.17833362840E+02  0.51100000000E-03 0.  1.
         12    1    3    3    0    0 -0.50417249307E+01 -0.30617826069E+01 -0.26935663407E+02  0.27573963556E+02  0.00000000000E+00 0. -1.
</event>
<event>
 7    1  0.6462830E-013  0.5052886E+02  0.7816164E-02  0.1300439E+00
        -11   -1    0    0    0    0  0.00000000000E+00  0.00000000000E+00  0.45593999997E+02  0.45594000000E+02  0.51100000000E-03 0. -1.
         11   -1    0    0    0    0 -0.00000000000E+00 -0.00000000000E+00 -0.45593999997E+02  0.45594000000E+02  0.51100000000E-03 0.  1.
    9900012    2    1    2    0    0 -0.14480396494E+02 -0.30394074318E+02 -0.22796571658E+02  0.50528864303E+02  0.30000013537E+02 0.  0.
         12    1    1    2    0    0  0.14480396494E+02  0.30394074318E+02  0.22796571658E+02  0.40659135697E+02  0.00000000000E+00 0. -1.
         11    1    3    3    0    0 -0.14204198806E+02 -0.44326267352E+01 -0.99146899441E+01  0.17880394863E+02  0.51100000000E-03 0.  1.
        -11    1    3    3    0    0 -0.76135492924E+01 -0.12981159645E+02 -0.56283077096E+01  0.16067186639E+02  0.51100000000E-03 0. -1.
        -12    1    3    3    0    0  0.73373516050E+01 -0.12980287938E+02 -0.72535740041E+01  0.16581282802E+02  0.00000000000E+00 0.  1.
</event>
<event>
 7    1  0.6462830E-013  0.5052884E+02  0.7816164E-02  0.1300439E+00
        -11   -1    0    0    0    0  0.00000000000E+00  0.00000000000E+00  0.45593999997E+02  0.45594000000E+02  0.51100000000E-03 0. -1.
         11   -1    0    0    0    0 -0.00000000000E+00 -0.00000000000E+00 -0.45593999997E+02  0.45594000000E+02  0.51100000000E-03 0.  1.
    9900012    2    1    2    0    0 -0.33188376917E+02 -0.19607785796E+02 -0.12931870177E+02  0.50528844912E+02  0.29999954594E+02 0.  0.
         12    1    1    2    0    0  0.33188376917E+02  0.19607785796E+02  0.12931870177E+02  0.40659155088E+02  0.00000000000E+00 0. -1.
         11    1    3    3    0    0 -0.12727482618E+02  0.12178529463E+01 -0.68238710467E+01  0.14492660070E+02  0.51100000000E-03 0.  1.
        -11    1    3    3    0    0  0.36234835387E+01 -0.42740439397E+00  0.78118022174E+00  0.37312933778E+01  0.51100000000E-03 0. -1.
        -12    1    3    3    0    0 -0.24084377837E+02 -0.20398234349E+02 -0.68891793517E+01  0.32304891464E+02  0.00000000000E+00 0.  1.
</event>
<event>
 7    1  0.6462830E-013  0.5052885E+02  0.7816164E-02  0.1300439E+00
        -11   -1    0    0    0    0  0.00000000000E+00  0.00000000000E+00  0.45593999997E+02  0.45594000000E+02  0.51100000000E-03 0. -1.
         11   -1    0    0    0    0 -0.00000000000E+00 -0.00000000000E+00 -0.45593999997E+02  0.45594000000E+02  0.51100000000E-03 0.  1.
    9900012    2    1    2    0    0 -0.13750963774E+02  0.13582773949E+01 -0.38239146115E+02  0.50528853209E+02  0.29999979815E+02 0.  0.
         12    1    1    2    0    0  0.13750963774E+02 -0.13582773949E+01  0.38239146115E+02  0.40659146791E+02  0.00000000000E+00 0. -1.
         11    1    3    3    0    0  0.63151653211E+01  0.14683901201E+01 -0.86755144568E+01  0.10830606351E+02  0.51100000000E-03 0. -1.
        -11    1    3    3    0    0 -0.51179856505E+01 -0.94988704543E+00  0.13259430363E+01  0.53716094157E+01  0.51100000000E-03 0.  1.
        -12    1    3    3    0    0 -0.14948143444E+02  0.83977432024E+00 -0.30889574694E+02  0.34326637443E+02  0.00000000000E+00 0.  1.
</event>
<event>
 7    1  0.6462830E-013  0.5052887E+02  0.7816164E-02  0.1300439E+00
        -11   -1    0    0    0    0  0.00000000000E+00  0.00000000000E+00  0.45593999997E+02  0.45594000000E+02  0.51100000000E-03 0.  1.
         11   -1    0    0    0    0 -0.00000000000E+00 -0.00000000000E+00 -0.45593999997E+02  0.45594000000E+02  0.51100000000E-03 0. -1.
    9900012    2    1    2    0    0 -0.22607817662E+02 -0.80966817754E+01  0.32809991642E+02  0.50528865396E+02  0.30000016857E+02 0.  0.
         12    1    1    2    0    0  0.22607817662E+02  0.80966817754E+01 -0.32809991642E+02  0.40659134604E+02  0.00000000000E+00 0. -1.
         11    1    3    3    0    0  0.33245571113E+01 -0.18584928222E+00  0.15749425371E+02  0.16097565646E+02  0.51100000000E-03 0. -1.
        -11    1    3    3    0    0 -0.66033337537E+01  0.26046032463E+01  0.78320903712E+01  0.10570223015E+02  0.51100000000E-03 0.  1.
        -12    1    3    3    0    0 -0.19329041020E+02 -0.10515435739E+02  0.92284758994E+01  0.23861076735E+02  0.00000000000E+00 0.  1.
</event>
<event>
 7    1  0.6462830E-013  0.5052887E+02  0.7816164E-02  0.1300439E+00
        -11   -1    0    0    0    0  0.00000000000E+00  0.00000000000E+00  0.45593999997E+02  0.45594000000E+02  0.51100000000E-03 0. -1.
         11   -1    0    0    0    0 -0.00000000000E+00 -0.00000000000E+00 -0.45593999997E+02  0.45594000000E+02  0.51100000000E-03 0.  1.
    9900012    2    1    2    0    0 -0.86340182607E+00 -0.87839662381E+01 -0.39689566807E+02  0.50528865246E+02  0.30000016402E+02 0.  0.
         12    1    1    2    0    0  0.86340182607E+00  0.87839662381E+01  0.39689566807E+02  0.40659134754E+02  0.00000000000E+00 0. -1.
         11    1    3    3    0    0  0.22519435802E+01  0.72476714855E+01 -0.79080544371E+01  0.10960716997E+02  0.51100000000E-03 0. -1.
        -11    1    3    3    0    0  0.44706936727E+01 -0.74502155390E+01 -0.40936471751E+01  0.96047259695E+01  0.51100000000E-03 0.  1.
        -12    1    3    3    0    0 -0.75860390790E+01 -0.85814221846E+01 -0.27687865195E+02  0.29963422279E+02  0.00000000000E+00 0.  1.
</event>
<event>
 7    1  0.6462830E-013  0.5052888E+02  0.7816164E-02  0.1300439E+00
        -11   -1    0    0    0    0  0.00000000000E+00  0.00000000000E+00  0.45593999997E+02  0.45594000000E+02  0.51100000000E-03 0. -1.
         11   -1    0    0    0    0 -0.00000000000E+00 -0.00000000000E+00 -0.45593999997E+02  0.45594000000E+02  0.51100000000E-03 0.  1.
    9900012    2    1    2    0    0  0.30283521693E+02 -0.21570295458E+02 -0.16455831424E+02  0.50528883923E+02  0.30000073173E+02 0.  0.
         12    1    1    2    0    0 -0.30283521693E+02  0.21570295458E+02  0.16455831424E+02  0.40659116077E+02  0.00000000000E+00 0. -1.
         11    1    3    3    0    0 -0.12300901095E+01 -0.40375346798E+01  0.16909533472E+01  0.45468815084E+01  0.51100000000E-03 0. -1.
        -11    1    3    3    0    0  0.19062897631E+02 -0.20251085608E+02 -0.61587054980E+01  0.28485613704E+02  0.51100000000E-03 0.  1.
         12    1    3    3    0    0  0.12450714172E+02  0.27183248302E+01 -0.11988079273E+02  0.17496388711E+02  0.00000000000E+00 0. -1.
</event>
<event>
 7    1  0.6462830E-013  0.5052884E+02  0.7816164E-02  0.1300439E+00
        -11   -1    0    0    0    0  0.00000000000E+00  0.00000000000E+00  0.45593999997E+02  0.45594000000E+02  0.51100000000E-03 0. -1.
         11   -1    0    0    0    0 -0.00000000000E+00 -0.00000000000E+00 -0.45593999997E+02  0.45594000000E+02  0.51100000000E-03 0.  1.
    9900012    2    1    2    0    0 -0.15964536102E+02  0.34943568192E+02 -0.13313451635E+02  0.50528839097E+02  0.29999936919E+02 0.  0.
         12    1    1    2    0    0  0.15964536102E+02 -0.34943568192E+02  0.13313451635E+02  0.40659160903E+02  0.00000000000E+00 0. -1.
         11    1    3    3    0    0 -0.67661225631E+01  0.21829184741E+01  0.62819548479E+01  0.94872812004E+01  0.51100000000E-03 0. -1.
        -11    1    3    3    0    0 -0.73424294018E+01  0.67218602672E+01 -0.52174118293E+01  0.11239041838E+02  0.51100000000E-03 0.  1.
        -12    1    3    3    0    0 -0.18559841366E+01  0.26038789450E+02 -0.14377994654E+02  0.29802516059E+02  0.00000000000E+00 0.  1.
</event>
<event>
 7    1  0.7389394E-013  0.5052886E+02  0.7816164E-02  0.1300439E+00
        -11   -1    0    0    0    0  0.00000000000E+00  0.00000000000E+00  0.45593999997E+02  0.45594000000E+02  0.51100000000E-03 0.  1.
         11   -1    0    0    0    0 -0.00000000000E+00 -0.00000000000E+00 -0.45593999997E+02  0.45594000000E+02  0.51100000000E-03 0. -1.
    9900012    2    1    2    0    0 -0.10298040531E+02  0.28128128139E+02  0.27494079866E+02  0.50528860080E+02  0.30000000699E+02 0.  0.
         12    1    1    2    0    0  0.10298040531E+02 -0.28128128139E+02 -0.27494079866E+02  0.40659139920E+02  0.00000000000E+00 0. -1.
         11    1    3    3    0    0 -0.11914585872E+01  0.45488670288E+01  0.14003306078E+02  0.14771741474E+02  0.51100000000E-03 0. -1.
        -11    1    3    3    0    0 -0.12741820061E+02  0.15721966854E+02  0.16985910511E+02  0.26420737620E+02  0.51100000000E-03 0.  1.
         12    1    3    3    0    0  0.36352381172E+01  0.78572942560E+01 -0.34951367231E+01  0.93363809856E+01  0.00000000000E+00 0. -1.
</event>
<event>
 7    1  0.6462830E-013  0.5052886E+02  0.7816164E-02  0.1300439E+00
        -11   -1    0    0    0    0  0.00000000000E+00  0.00000000000E+00  0.45593999997E+02  0.45594000000E+02  0.51100000000E-03 0.  1.
         11   -1    0    0    0    0 -0.00000000000E+00 -0.00000000000E+00 -0.45593999997E+02  0.45594000000E+02  0.51100000000E-03 0. -1.
    9900012    2    1    2    0    0  0.10844256668E+00  0.36263154052E+02  0.18388524397E+02  0.50528856734E+02  0.29999990529E+02 0.  0.
         12    1    1    2    0    0 -0.10844256668E+00 -0.36263154052E+02 -0.18388524397E+02  0.40659143266E+02  0.00000000000E+00 0. -1.
         11    1    3    3    0    0  0.56927561745E+01  0.59730175361E+01  0.91264482271E+01  0.12303514492E+02  0.51100000000E-03 0. -1.
        -11    1    3    3    0    0  0.73112147780E+00  0.11442015490E+02 -0.62068108623E+01  0.13037590208E+02  0.51100000000E-03 0.  1.
         12    1    3    3    0    0 -0.63154350857E+01  0.18848121027E+02  0.15468887032E+02  0.25187752035E+02  0.00000000000E+00 0. -1.
</event>
<event>
 7    1  0.6462830E-013  0.5052886E+02  0.7816164E-02  0.1300439E+00
        -11   -1    0    0    0    0  0.00000000000E+00  0.00000000000E+00  0.45593999997E+02  0.45594000000E+02  0.51100000000E-03 0. -1.
         11   -1    0    0    0    0 -0.00000000000E+00 -0.00000000000E+00 -0.45593999997E+02  0.45594000000E+02  0.51100000000E-03 0.  1.
    9900012    2    1    2    0    0 -0.20633028738E+02 -0.18836432111E+02 -0.29540360554E+02  0.50528856487E+02  0.29999989778E+02 0.  0.
         12    1    1    2    0    0  0.20633028738E+02  0.18836432111E+02  0.29540360554E+02  0.40659143513E+02  0.00000000000E+00 0. -1.
         11    1    3    3    0    0 -0.17654861401E+01  0.30360968047E+01  0.12354090328E+01  0.37230445683E+01  0.51100000000E-03 0. -1.
        -11    1    3    3    0    0 -0.10831124210E+02 -0.10395789353E+02 -0.24595820224E+01  0.15212995494E+02  0.51100000000E-03 0.  1.
         12    1    3    3    0    0 -0.80364183883E+01 -0.11476739563E+02 -0.28316187564E+02  0.31592816425E+02  0.00000000000E+00 0. -1.
</event>
<event>
 7    1  0.6462830E-013  0.5052884E+02  0.7816164E-02  0.1300439E+00
        -11   -1    0    0    0    0  0.00000000000E+00  0.00000000000E+00  0.45593999997E+02  0.45594000000E+02  0.51100000000E-03 0. -1.
         11   -1    0    0    0    0 -0.00000000000E+00 -0.00000000000E+00 -0.45593999997E+02  0.45594000000E+02  0.51100000000E-03 0.  1.
    9900012    2    1    2    0    0 -0.25651112404E+02 -0.18123275957E+02 -0.25821201287E+02  0.50528841931E+02  0.29999945534E+02 0.  0.
         12    1    1    2    0    0  0.25651112404E+02  0.18123275957E+02  0.25821201287E+02  0.40659158069E+02  0.00000000000E+00 0. -1.
         11    1    3    3    0    0  0.51653152385E+01 -0.90997446495E+01 -0.44571895635E+01  0.11373318481E+02  0.51100000000E-03 0. -1.
        -11    1    3    3    0    0 -0.31554987484E+01  0.15669520676E+00 -0.44533093900E+01  0.54601914365E+01  0.51100000000E-03 0.  1.
         12    1    3    3    0    0 -0.27660928894E+02 -0.91802265141E+01 -0.16910702333E+02  0.33695332014E+02  0.00000000000E+00 0. -1.
</event>
<event>
 7    1  0.6462830E-013  0.5052887E+02  0.7816164E-02  0.1300439E+00
        -11   -1    0    0    0    0  0.00000000000E+00  0.00000000000E+00  0.45593999997E+02  0.45594000000E+02  0.51100000000E-03 0. -1.
         11   -1    0    0    0    0 -0.00000000000E+00 -0.00000000000E+00 -0.45593999997E+02  0.45594000000E+02  0.51100000000E-03 0.  1.
    9900012    2    1    2    0    0  0.92625026090E+01  0.34727152820E+02 -0.19010418214E+02  0.50528866976E+02  0.30000021660E+02 0.  0.
         12    1    1    2    0    0 -0.92625026090E+01 -0.34727152820E+02  0.19010418214E+02  0.40659133024E+02  0.00000000000E+00 0. -1.
         11    1    3    3    0    0  0.21874055660E+01  0.37420895616E+01  0.24939059112E+01  0.50007543784E+01  0.51100000000E-03 0. -1.
        -11    1    3    3    0    0  0.62563545104E+01  0.62411056727E+01 -0.18610527118E+02  0.20602065228E+02  0.51100000000E-03 0.  1.
         12    1    3    3    0    0  0.81874253258E+00  0.24743957586E+02 -0.28937970067E+01  0.24926047370E+02  0.00000000000E+00 0. -1.
</event>
<event>
 7    1  0.6462830E-013  0.5052886E+02  0.7816164E-02  0.1300439E+00
        -11   -1    0    0    0    0  0.00000000000E+00  0.00000000000E+00  0.45593999997E+02  0.45594000000E+02  0.51100000000E-03 0. -1.
         11   -1    0    0    0    0 -0.00000000000E+00 -0.00000000000E+00 -0.45593999997E+02  0.45594000000E+02  0.51100000000E-03 0.  1.
    9900012    2    1    2    0    0  0.34609229817E+02  0.13999296910E+02  0.16105494438E+02  0.50528855228E+02  0.29999985952E+02 0.  0.
         12    1    1    2    0    0 -0.34609229817E+02 -0.13999296910E+02 -0.16105494438E+02  0.40659144772E+02  0.00000000000E+00 0. -1.
         11    1    3    3    0    0  0.26339538830E+01  0.11113691409E+02  0.27012068253E+01  0.11736625085E+02  0.51100000000E-03 0. -1.
        -11    1    3    3    0    0  0.13895469703E+02  0.56564835494E+00 -0.30483735600E+01  0.14237156245E+02  0.51100000000E-03 0.  1.
        -12    1    3    3    0    0  0.18079806231E+02  0.23199571461E+01  0.16452661173E+02  0.24555073899E+02  0.00000000000E+00 0.  1.
</event>
<event>
 7    1  0.6462830E-013  0.5052884E+02  0.7816164E-02  0.1300439E+00
        -11   -1    0    0    0    0  0.00000000000E+00  0.00000000000E+00  0.45593999997E+02  0.45594000000E+02  0.51100000000E-03 0. -1.
         11   -1    0    0    0    0 -0.00000000000E+00 -0.00000000000E+00 -0.45593999997E+02  0.45594000000E+02  0.51100000000E-03 0.  1.
    9900012    2    1    2    0    0  0.11004632975E+02 -0.37219539535E+02 -0.12114932640E+02  0.50528835436E+02  0.29999925792E+02 0.  0.
         12    1    1    2    0    0 -0.11004632975E+02  0.37219539535E+02  0.12114932640E+02  0.40659164564E+02  0.00000000000E+00 0. -1.
         11    1    3    3    0    0  0.38216628711E+01 -0.19362670323E+02 -0.89116044918E+01  0.21654902540E+02  0.51100000000E-03 0. -1.
        -11    1    3    3    0    0  0.13820199907E+02 -0.17125278227E+02 -0.28106520591E+01  0.22184968900E+02  0.51100000000E-03 0.  1.
         12    1    3    3    0    0 -0.66372298031E+01 -0.73159098484E+00 -0.39267608922E+00  0.66889639960E+01  0.00000000000E+00 0. -1.
</event>
<event>
 7    1  0.6462830E-013  0.5052885E+02  0.7816164E-02  0.1300439E+00
        -11   -1    0    0    0    0  0.00000000000E+00  0.00000000000E+00  0.45593999997E+02  0.45594000000E+02  0.51100000000E-03 0.  1.
         11   -1    0    0    0    0 -0.00000000000E+00 -0.00000000000E+00 -0.45593999997E+02  0.45594000000E+02  0.51100000000E-03 0. -1.
    9900012    2    1    2    0    0  0.61168806936E+01 -0.39460280920E+02  0.76574194639E+01  0.50528854995E+02  0.29999985242E+02 0.  0.
         12    1    1    2    0    0 -0.61168806936E+01  0.39460280920E+02 -0.76574194639E+01  0.40659145005E+02  0.00000000000E+00 0. -1.
         11    1    3    3    0    0  0.95069356497E+01 -0.20063350871E+02  0.77331613605E+01  0.23510033145E+02  0.51100000000E-03 0. -1.
        -11    1    3    3    0    0  0.33196062449E+01  0.19890653067E+01 -0.22886442542E+01  0.44960048042E+01  0.51100000000E-03 0.  1.
        -12    1    3    3    0    0 -0.67096612010E+01 -0.21385995356E+02  0.22129023576E+01  0.22522817045E+02  0.00000000000E+00 0.  1.
</event>
<event>
 7    1  0.6462830E-013  0.5052886E+02  0.7816164E-02  0.1300439E+00
        -11   -1    0    0    0    0  0.00000000000E+00  0.00000000000E+00  0.45593999997E+02  0.45594000000E+02  0.51100000000E-03 0.  1.
         11   -1    0    0    0    0 -0.00000000000E+00 -0.00000000000E+00 -0.45593999997E+02  0.45594000000E+02  0.51100000000E-03 0. -1.
    9900012    2    1    2    0    0  0.19727547019E+02  0.13648225578E+02  0.32828581504E+02  0.50528856669E+02  0.29999990332E+02 0.  0.
         12    1    1    2    0    0 -0.19727547019E+02 -0.13648225578E+02 -0.32828581504E+02  0.40659143331E+02  0.00000000000E+00 0. -1.
         11    1    3    3    0    0 -0.15915704574E+01 -0.34097305671E+01 -0.28766880622E+01  0.47365275814E+01  0.51100000000E-03 0. -1.
        -11    1    3    3    0    0  0.78369661461E+01  0.78187491277E+01  0.81212175929E+01  0.13729714190E+02  0.51100000000E-03 0.  1.
        -12    1    3    3    0    0  0.13482151331E+02  0.92392070172E+01  0.27584051973E+02  0.32062614898E+02  0.00000000000E+00 0.  1.
</event>
<event>
 7    1  0.6462830E-013  0.5052886E+02  0.7816164E-02  0.1300439E+00
        -11   -1    0    0    0    0  0.00000000000E+00  0.00000000000E+00  0.45593999997E+02  0.45594000000E+02  0.51100000000E-03 0.  1.
         11   -1    0    0    0    0 -0.00000000000E+00 -0.00000000000E+00 -0.45593999997E+02  0.45594000000E+02  0.51100000000E-03 0. -1.
    9900012    2    1    2    0    0 -0.23285252813E+02 -0.33237283418E+02  0.24991246234E+01  0.50528860419E+02  0.30000001731E+02 0.  0.
         12    1    1    2    0    0  0.23285252813E+02  0.33237283418E+02 -0.24991246234E+01  0.40659139581E+02  0.00000000000E+00 0. -1.
         11    1    3    3    0    0  0.19865607396E+01 -0.17012552507E+01  0.33678076735E+01  0.42641320086E+01  0.51100000000E-03 0. -1.
        -11    1    3    3    0    0 -0.37503611982E+01 -0.21740584256E+02 -0.39712187999E+01  0.22416261774E+02  0.51100000000E-03 0.  1.
        -12    1    3    3    0    0 -0.21521452354E+02 -0.97954439116E+01  0.31025357498E+01  0.23848466637E+02  0.00000000000E+00 0.  1.
</event>
<event>
 7    1  0.6462830E-013  0.5052887E+02  0.7816164E-02  0.1300439E+00
        -11   -1    0    0    0    0  0.00000000000E+00  0.00000000000E+00  0.45593999997E+02  0.45594000000E+02  0.51100000000E-03 0.  1.
         11   -1    0    0    0    0 -0.00000000000E+00 -0.00000000000E+00 -0.45593999997E+02  0.45594000000E+02  0.51100000000E-03 0. -1.
    9900012    2    1    2    0    0 -0.32699927029E+02 -0.84898443129E+01  0.22623052282E+02  0.50528865987E+02  0.30000018654E+02 0.  0.
         12    1    1    2    0    0  0.32699927029E+02  0.84898443129E+01 -0.22623052282E+02  0.40659134013E+02  0.00000000000E+00 0. -1.
         11    1    3    3    0    0 -0.15686106456E+02 -0.20967045987E+01 -0.43898834196E+01  0.16423190391E+02  0.51100000000E-03 0. -1.
        -11    1    3    3    0    0 -0.86440884661E+01 -0.37079518577E+01  0.55706255468E+01  0.10931653198E+02  0.51100000000E-03 0.  1.
         12    1    3    3    0    0 -0.83697321067E+01 -0.26851878565E+01  0.21442310154E+02  0.23174022398E+02  0.00000000000E+00 0. -1.
</event>
<event>
 7    1  0.6462830E-013  0.5052885E+02  0.7816164E-02  0.1300439E+00
        -11   -1    0    0    0    0  0.00000000000E+00  0.00000000000E+00  0.45593999997E+02  0.45594000000E+02  0.51100000000E-03 0.  1.
         11   -1    0    0    0    0 -0.00000000000E+00 -0.00000000000E+00 -0.45593999997E+02  0.45594000000E+02  0.51100000000E-03 0. -1.
    9900012    2    1    2    0    0 -0.39813498529E+02 -0.32816121355E+01  0.75685192027E+01  0.50528854334E+02  0.29999983235E+02 0.  0.
         12    1    1    2    0    0  0.39813498529E+02  0.32816121355E+01 -0.75685192027E+01  0.40659145666E+02  0.00000000000E+00 0. -1.
         11    1    3    3    0    0 -0.11703487971E+02 -0.10537255102E+02 -0.34759091035E+01  0.16127222952E+02  0.51100000000E-03 0. -1.
        -11    1    3    3    0    0 -0.23339758733E+02 -0.16901168639E+00  0.55005516474E+01  0.23979761704E+02  0.51100000000E-03 0.  1.
         12    1    3    3    0    0 -0.47702518248E+01  0.74246546533E+01  0.55438766588E+01  0.10421869679E+02  0.00000000000E+00 0. -1.
</event>
<event>
 7    1  0.6462830E-013  0.5052886E+02  0.7816164E-02  0.1300439E+00
        -11   -1    0    0    0    0  0.00000000000E+00  0.00000000000E+00  0.45593999997E+02  0.45594000000E+02  0.51100000000E-03 0. -1.
         11   -1    0    0    0    0 -0.00000000000E+00 -0.00000000000E+00 -0.45593999997E+02  0.45594000000E+02  0.51100000000E-03 0.  1.
    9900012    2    1    2    0    0 -0.37392015904E+02 -0.15071880656E+01 -0.15897524511E+02  0.50528858902E+02  0.29999997118E+02 0.  0.
         12    1    1    2    0    0  0.37392015904E+02  0.15071880656E+01  0.15897524511E+02  0.40659141098E+02  0.00000000000E+00 0. -1.
         11    1    3    3    0    0 -0.19285216907E+02 -0.79140851020E+01 -0.70707666645E+01  0.22012452740E+02  0.51100000000E-03 0. -1.
        -11    1    3    3    0    0 -0.15300312743E+02  0.74009947621E+01 -0.14348533047E+02  0.22243081944E+02  0.51100000000E-03 0.  1.
        -12    1    3    3    0    0 -0.28064862536E+01 -0.99409772580E+00  0.55217751998E+01  0.62733242175E+01  0.00000000000E+00 0.  1.
</event>
<event>
 7    1  0.6462830E-013  0.5052885E+02  0.7816164E-02  0.1300439E+00
        -11   -1    0    0    0    0  0.00000000000E+00  0.00000000000E+00  0.45593999997E+02  0.45594000000E+02  0.51100000000E-03 0. -1.
         11   -1    0    0    0    0 -0.00000000000E+00 -0.00000000000E+00 -0.45593999997E+02  0.45594000000E+02  0.51100000000E-03 0.  1.
    9900012    2    1    2    0    0  0.34505479569E+02 -0.31739405770E+00 -0.21504354471E+02  0.50528854405E+02  0.29999983450E+02 0.  0.
         12    1    1    2    0    0 -0.34505479569E+02  0.31739405770E+00  0.21504354471E+02  0.40659145595E+02  0.00000000000E+00 0. -1.
         11    1    3    3    0    0  0.88096400847E+00 -0.26939588539E+01 -0.88551507853E+01  0.92976990477E+01  0.51100000000E-03 0. -1.
        -11    1    3    3    0    0  0.24727845479E+02  0.75670466556E+00 -0.18116952817E+02  0.30663706945E+02  0.51100000000E-03 0.  1.
        -12    1    3    3    0    0  0.88966700815E+01  0.16198601306E+01  0.54677491311E+01  0.10567448412E+02  0.00000000000E+00 0.  1.
</event>
<event>
 7    1  0.6462830E-013  0.5052887E+02  0.7816164E-02  0.1300439E+00
        -11   -1    0    0    0    0  0.00000000000E+00  0.00000000000E+00  0.45593999997E+02  0.45594000000E+02  0.51100000000E-03 0. -1.
         11   -1    0    0    0    0 -0.00000000000E+00 -0.00000000000E+00 -0.45593999997E+02  0.45594000000E+02  0.51100000000E-03 0.  1.
    9900012    2    1    2    0    0  0.16819165085E+02 -0.37015436514E+02  0.37171420352E+00  0.50528867866E+02  0.30000024365E+02 0.  0.
         12    1    1    2    0    0 -0.16819165085E+02  0.37015436514E+02 -0.37171420352E+00  0.40659132134E+02  0.00000000000E+00 0. -1.
         11    1    3    3    0    0 -0.80999770833E-01  0.69736210724E-01  0.36553966748E+01  0.36569590117E+01  0.51100000000E-03 0. -1.
        -11    1    3    3    0    0 -0.64452152467E+00 -0.25143782816E+02  0.11994936604E+01  0.25180627625E+02  0.51100000000E-03 0.  1.
        -12    1    3    3    0    0  0.17544686380E+02 -0.11941389909E+02 -0.44831761317E+01  0.21691281229E+02  0.00000000000E+00 0.  1.
</event>
<event>
 7    1  0.6462830E-013  0.5052886E+02  0.7816164E-02  0.1300439E+00
        -11   -1    0    0    0    0  0.00000000000E+00  0.00000000000E+00  0.45593999997E+02  0.45594000000E+02  0.51100000000E-03 0.  1.
         11   -1    0    0    0    0 -0.00000000000E+00 -0.00000000000E+00 -0.45593999997E+02  0.45594000000E+02  0.51100000000E-03 0. -1.
    9900012    2    1    2    0    0 -0.50295886734E+01  0.19774296716E+02  0.35168823941E+02  0.50528858959E+02  0.29999997291E+02 0.  0.
         12    1    1    2    0    0  0.50295886734E+01 -0.19774296716E+02 -0.35168823941E+02  0.40659141041E+02  0.00000000000E+00 0. -1.
         11    1    3    3    0    0 -0.55953074958E+01  0.17136556368E+01  0.10179015299E+01  0.59397142524E+01  0.51100000000E-03 0. -1.
        -11    1    3    3    0    0  0.82552858512E+01  0.81540365901E+00  0.45023322938E+01  0.94385181017E+01  0.51100000000E-03 0.  1.
        -12    1    3    3    0    0 -0.76895670287E+01  0.17245237420E+02  0.29648590117E+02  0.35150626605E+02  0.00000000000E+00 0.  1.
</event>
<event>
 7    1  0.6462830E-013  0.5052885E+02  0.7816164E-02  0.1300439E+00
        -11   -1    0    0    0    0  0.00000000000E+00  0.00000000000E+00  0.45593999997E+02  0.45594000000E+02  0.51100000000E-03 0.  1.
         11   -1    0    0    0    0 -0.00000000000E+00 -0.00000000000E+00 -0.45593999997E+02  0.45594000000E+02  0.51100000000E-03 0. -1.
    9900012    2    1    2    0    0 -0.30440767737E+02 -0.24221364672E+02  0.11825873400E+02  0.50528854305E+02  0.29999983144E+02 0.  0.
         12    1    1    2    0    0  0.30440767737E+02  0.24221364672E+02 -0.11825873400E+02  0.40659145695E+02  0.00000000000E+00 0. -1.
         11    1    3    3    0    0  0.61815738922E+00 -0.63309117981E+01  0.19809045313E+01  0.66623228514E+01  0.51100000000E-03 0. -1.
        -11    1    3    3    0    0 -0.14471087243E+02 -0.16632606490E+02 -0.37739790980E+01  0.22367362007E+02  0.51100000000E-03 0.  1.
        -12    1    3    3    0    0 -0.16587837883E+02 -0.12578463843E+01  0.13618947966E+02  0.21499169446E+02  0.00000000000E+00 0.  1.
</event>
<event>
 7    1  0.6462830E-013  0.5052886E+02  0.7816164E-02  0.1300439E+00
        -11   -1    0    0    0    0  0.00000000000E+00  0.00000000000E+00  0.45593999997E+02  0.45594000000E+02  0.51100000000E-03 0.  1.
         11   -1    0    0    0    0 -0.00000000000E+00 -0.00000000000E+00 -0.45593999997E+02  0.45594000000E+02  0.51100000000E-03 0. -1.
    9900012    2    1    2    0    0 -0.29496737607E+02  0.10873564410E+02  0.25785143090E+02  0.50528861585E+02  0.30000005275E+02 0.  0.
         12    1    1    2    0    0  0.29496737607E+02 -0.10873564410E+02 -0.25785143090E+02  0.40659138415E+02  0.00000000000E+00 0. -1.
         11    1    3    3    0    0 -0.21201552712E+02  0.84355542277E+01  0.13552501484E+02  0.26539304988E+02  0.51100000000E-03 0. -1.
        -11    1    3    3    0    0 -0.69450212153E+01 -0.49570153464E+01  0.13880905282E+02  0.16293705918E+02  0.51100000000E-03 0.  1.
         12    1    3    3    0    0 -0.13501636806E+01  0.73950255288E+01 -0.16482636763E+01  0.76958506796E+01  0.00000000000E+00 0. -1.
</event>
<event>
 7    1  0.6462830E-013  0.5052883E+02  0.7816164E-02  0.1300439E+00
        -11   -1    0    0    0    0  0.00000000000E+00  0.00000000000E+00  0.45593999997E+02  0.45594000000E+02  0.51100000000E-03 0.  1.
         11   -1    0    0    0    0 -0.00000000000E+00 -0.00000000000E+00 -0.45593999997E+02  0.45594000000E+02  0.51100000000E-03 0. -1.
    9900012    2    1    2    0    0 -0.10393079772E+02 -0.18066775341E+02  0.34910514134E+02  0.50528825446E+02  0.29999895424E+02 0.  0.
         12    1    1    2    0    0  0.10393079772E+02  0.18066775341E+02 -0.34910514134E+02  0.40659174554E+02  0.00000000000E+00 0. -1.
         11    1    3    3    0    0 -0.50779819713E+01  0.21947200291E+01  0.20127959973E+02  0.20874325614E+02  0.51100000000E-03 0.  1.
        -11    1    3    3    0    0  0.33154005527E+01  0.35739629440E+00  0.15301582384E+01  0.36689231979E+01  0.51100000000E-03 0. -1.
        -12    1    3    3    0    0 -0.86304983537E+01 -0.20618891664E+02  0.13252395922E+02  0.25985576634E+02  0.00000000000E+00 0.  1.
</event>
<event>
 7    1  0.6462830E-013  0.5052886E+02  0.7816164E-02  0.1300439E+00
        -11   -1    0    0    0    0  0.00000000000E+00  0.00000000000E+00  0.45593999997E+02  0.45594000000E+02  0.51100000000E-03 0.  1.
         11   -1    0    0    0    0 -0.00000000000E+00 -0.00000000000E+00 -0.45593999997E+02  0.45594000000E+02  0.51100000000E-03 0. -1.
    9900012    2    1    2    0    0 -0.34666336348E+02 -0.19230171779E+02  0.90339144426E+01  0.50528855978E+02  0.29999988232E+02 0.  0.
         12    1    1    2    0    0  0.34666336348E+02  0.19230171779E+02 -0.90339144426E+01  0.40659144022E+02  0.00000000000E+00 0. -1.
         11    1    3    3    0    0 -0.19872220874E+02 -0.43323297697E+01  0.14223291406E+02  0.24818869079E+02  0.51100000000E-03 0. -1.
        -11    1    3    3    0    0  0.12338810106E+01  0.51488074577E+00 -0.30997701140E+01  0.33758168717E+01  0.51100000000E-03 0.  1.
        -12    1    3    3    0    0 -0.16027996484E+02 -0.15412722755E+02 -0.20896068497E+01  0.22334170027E+02  0.00000000000E+00 0.  1.
</event>
<event>
 7    1  0.6462830E-013  0.5052883E+02  0.7816164E-02  0.1300439E+00
        -11   -1    0    0    0    0  0.00000000000E+00  0.00000000000E+00  0.45593999997E+02  0.45594000000E+02  0.51100000000E-03 0.  1.
         11   -1    0    0    0    0 -0.00000000000E+00 -0.00000000000E+00 -0.45593999997E+02  0.45594000000E+02  0.51100000000E-03 0. -1.
    9900012    2    1    2    0    0 -0.22476985618E+02 -0.33824326369E+02  0.19666780695E+01  0.50528834251E+02  0.29999922190E+02 0.  0.
         12    1    1    2    0    0  0.22476985618E+02  0.33824326369E+02 -0.19666780695E+01  0.40659165749E+02  0.00000000000E+00 0. -1.
         11    1    3    3    0    0 -0.97892612472E+01  0.32560347377E+01  0.58920673457E+00  0.10333371319E+02  0.51100000000E-03 0. -1.
        -11    1    3    3    0    0 -0.13530431592E+01 -0.50815474431E+01 -0.28583152262E+01  0.59852164873E+01  0.51100000000E-03 0.  1.
        -12    1    3    3    0    0 -0.11334681212E+02 -0.31998813663E+02  0.42357865612E+01  0.34210246445E+02  0.00000000000E+00 0.  1.
</event>
<event>
 7    1  0.6462830E-013  0.5052884E+02  0.7816164E-02  0.1300439E+00
        -11   -1    0    0    0    0  0.00000000000E+00  0.00000000000E+00  0.45593999997E+02  0.45594000000E+02  0.51100000000E-03 0.  1.
         11   -1    0    0    0    0 -0.00000000000E+00 -0.00000000000E+00 -0.45593999997E+02  0.45594000000E+02  0.51100000000E-03 0. -1.
    9900012    2    1    2    0    0 -0.78162009545E+01  0.31717770568E+02  0.24208614869E+02  0.50528843577E+02  0.29999950537E+02 0.  0.
         12    1    1    2    0    0  0.78162009545E+01 -0.31717770568E+02 -0.24208614869E+02  0.40659156423E+02  0.00000000000E+00 0. -1.
         11    1    3    3    0    0 -0.73011248543E+01  0.10496742964E+02  0.11481598176E+01  0.12837690923E+02  0.51100000000E-03 0. -1.
        -11    1    3    3    0    0 -0.70553592295E+01  0.22100441241E+02  0.18442735255E+02  0.29636836552E+02  0.51100000000E-03 0.  1.
        -12    1    3    3    0    0  0.65402831293E+01 -0.87941363702E+00  0.46177197962E+01  0.80543161021E+01  0.00000000000E+00 0.  1.
</event>
<event>
 7    1  0.6462830E-013  0.5052886E+02  0.7816164E-02  0.1300439E+00
        -11   -1    0    0    0    0  0.00000000000E+00  0.00000000000E+00  0.45593999997E+02  0.45594000000E+02  0.51100000000E-03 0. -1.
         11   -1    0    0    0    0 -0.00000000000E+00 -0.00000000000E+00 -0.45593999997E+02  0.45594000000E+02  0.51100000000E-03 0.  1.
    9900012    2    1    2    0    0 -0.29417245867E+02 -0.23484263003E+02 -0.15371432572E+02  0.50528857086E+02  0.29999991599E+02 0.  0.
         12    1    1    2    0    0  0.29417245867E+02  0.23484263003E+02  0.15371432572E+02  0.40659142914E+02  0.00000000000E+00 0. -1.
         11    1    3    3    0    0 -0.71965849389E+01 -0.32030252046E+00 -0.85273390052E+01  0.11162837420E+02  0.51100000000E-03 0.  1.
        -11    1    3    3    0    0 -0.26612358565E+02 -0.20312290301E+02 -0.66080966095E+01  0.34124385807E+02  0.51100000000E-03 0. -1.
         12    1    3    3    0    0  0.43916976364E+01 -0.28516701810E+01 -0.23599695687E+00  0.52416338593E+01  0.00000000000E+00 0. -1.
</event>
<event>
 7    1  0.6462830E-013  0.5052886E+02  0.7816164E-02  0.1300439E+00
        -11   -1    0    0    0    0  0.00000000000E+00  0.00000000000E+00  0.45593999997E+02  0.45594000000E+02  0.51100000000E-03 0.  1.
         11   -1    0    0    0    0 -0.00000000000E+00 -0.00000000000E+00 -0.45593999997E+02  0.45594000000E+02  0.51100000000E-03 0. -1.
    9900012    2    1    2    0    0  0.56738285383E+01  0.68112594899E+01  0.39680976309E+02  0.50528862442E+02  0.30000007878E+02 0.  0.
         12    1    1    2    0    0 -0.56738285383E+01 -0.68112594899E+01 -0.39680976309E+02  0.40659137558E+02  0.00000000000E+00 0. -1.
         11    1    3    3    0    0  0.78272986568E+01 -0.33117478215E+01  0.62776411900E+01  0.10566127818E+02  0.51100000000E-03 0. -1.
        -11    1    3    3    0    0  0.10644823295E+01 -0.31623724944E+01  0.21737116938E+02  0.21991725159E+02  0.51100000000E-03 0.  1.
         12    1    3    3    0    0 -0.32179524481E+01  0.13285379806E+02  0.11666218181E+02  0.17971009465E+02  0.00000000000E+00 0. -1.
</event>
<event>
 7    1  0.6462830E-013  0.5052886E+02  0.7816164E-02  0.1300439E+00
        -11   -1    0    0    0    0  0.00000000000E+00  0.00000000000E+00  0.45593999997E+02  0.45594000000E+02  0.51100000000E-03 0.  1.
         11   -1    0    0    0    0 -0.00000000000E+00 -0.00000000000E+00 -0.45593999997E+02  0.45594000000E+02  0.51100000000E-03 0. -1.
    9900012    2    1    2    0    0  0.79126022489E+00  0.35785767805E+02  0.19285182832E+02  0.50528861458E+02  0.30000004888E+02 0.  0.
         12    1    1    2    0    0 -0.79126022489E+00 -0.35785767805E+02 -0.19285182832E+02  0.40659138542E+02  0.00000000000E+00 0. -1.
         11    1    3    3    0    0 -0.14216736509E+01  0.16073924379E+02 -0.28202964134E+01  0.16381278126E+02  0.51100000000E-03 0. -1.
        -11    1    3    3    0    0 -0.69555499449E+01  0.98197330651E+01  0.71026583603E+01  0.13973352803E+02  0.51100000000E-03 0.  1.
        -12    1    3    3    0    0  0.91684838206E+01  0.98921103606E+01  0.15002820885E+02  0.20174230529E+02  0.00000000000E+00 0.  1.
</event>
<event>
 7    1  0.6462830E-013  0.5052886E+02  0.7816164E-02  0.1300439E+00
        -11   -1    0    0    0    0  0.00000000000E+00  0.00000000000E+00  0.45593999997E+02  0.45594000000E+02  0.51100000000E-03 0. -1.
         11   -1    0    0    0    0 -0.00000000000E+00 -0.00000000000E+00 -0.45593999997E+02  0.45594000000E+02  0.51100000000E-03 0.  1.
    9900012    2    1    2    0    0 -0.17455767710E+02 -0.31580459556E+02 -0.18738639115E+02  0.50528857756E+02  0.29999993637E+02 0.  0.
         12    1    1    2    0    0  0.17455767710E+02  0.31580459556E+02  0.18738639115E+02  0.40659142244E+02  0.00000000000E+00 0. -1.
         11    1    3    3    0    0 -0.49017044074E+01 -0.19828774950E+01  0.97625193037E+00  0.53769487026E+01  0.51100000000E-03 0. -1.
        -11    1    3    3    0    0 -0.10191246150E+02 -0.29303048748E+02 -0.64667199961E+01  0.31691459918E+02  0.51100000000E-03 0.  1.
        -12    1    3    3    0    0 -0.23628171525E+01 -0.29453331306E+00 -0.13248171050E+02  0.13460449135E+02  0.00000000000E+00 0.  1.
</event>
<event>
 7    1  0.6462830E-013  0.5052886E+02  0.7816164E-02  0.1300439E+00
        -11   -1    0    0    0    0  0.00000000000E+00  0.00000000000E+00  0.45593999997E+02  0.45594000000E+02  0.51100000000E-03 0.  1.
         11   -1    0    0    0    0 -0.00000000000E+00 -0.00000000000E+00 -0.45593999997E+02  0.45594000000E+02  0.51100000000E-03 0. -1.
    9900012    2    1    2    0    0  0.34525066136E+02  0.13086637466E+02  0.17027184724E+02  0.50528864600E+02  0.30000014438E+02 0.  0.
         12    1    1    2    0    0 -0.34525066136E+02 -0.13086637466E+02 -0.17027184724E+02  0.40659135400E+02  0.00000000000E+00 0. -1.
         11    1    3    3    0    0  0.19302283680E+01  0.15221185261E+01 -0.33117579113E+01  0.41243626276E+01  0.51100000000E-03 0. -1.
        -11    1    3    3    0    0  0.14389605092E+02  0.13815560084E+02  0.13370397281E+01  0.19992951523E+02  0.51100000000E-03 0.  1.
        -12    1    3    3    0    0  0.18205232676E+02 -0.22510411436E+01  0.19001902907E+02  0.26411550449E+02  0.00000000000E+00 0.  1.
</event>
<event>
 7    1  0.6462830E-013  0.5052886E+02  0.7816164E-02  0.1300439E+00
        -11   -1    0    0    0    0  0.00000000000E+00  0.00000000000E+00  0.45593999997E+02  0.45594000000E+02  0.51100000000E-03 0.  1.
         11   -1    0    0    0    0 -0.00000000000E+00 -0.00000000000E+00 -0.45593999997E+02  0.45594000000E+02  0.51100000000E-03 0. -1.
    9900012    2    1    2    0    0  0.14777125558E+02  0.79721503602E+01  0.37030352043E+02  0.50528860885E+02  0.30000003147E+02 0.  0.
         12    1    1    2    0    0 -0.14777125558E+02 -0.79721503602E+01 -0.37030352043E+02  0.40659139115E+02  0.00000000000E+00 0. -1.
         11    1    3    3    0    0 -0.74389310172E+00  0.66215705694E+01  0.62134709702E+01  0.91107516435E+01  0.51100000000E-03 0. -1.
        -11    1    3    3    0    0  0.36866146124E+00 -0.56490557194E+00 -0.36537467914E+01  0.37154939719E+01  0.51100000000E-03 0.  1.
        -12    1    3    3    0    0  0.15152357199E+02  0.19154853627E+01  0.34470627864E+02  0.37702615270E+02  0.00000000000E+00 0.  1.
</event>
<event>
 7    1  0.6462830E-013  0.5052886E+02  0.7816164E-02  0.1300439E+00
        -11   -1    0    0    0    0  0.00000000000E+00  0.00000000000E+00  0.45593999997E+02  0.45594000000E+02  0.51100000000E-03 0.  1.
         11   -1    0    0    0    0 -0.00000000000E+00 -0.00000000000E+00 -0.45593999997E+02  0.45594000000E+02  0.51100000000E-03 0. -1.
    9900012    2    1    2    0    0  0.20664928726E+00 -0.40617883223E+02  0.18194501516E+01  0.50528861540E+02  0.30000005138E+02 0.  0.
         12    1    1    2    0    0 -0.20664928726E+00  0.40617883223E+02 -0.18194501516E+01  0.40659138460E+02  0.00000000000E+00 0. -1.
         11    1    3    3    0    0 -0.82263505582E+01 -0.26128404468E+01  0.43995052456E+01  0.96879009788E+01  0.51100000000E-03 0. -1.
        -11    1    3    3    0    0 -0.25902893810E+01 -0.13781985129E+02  0.61348612092E+00  0.14036704694E+02  0.51100000000E-03 0.  1.
         12    1    3    3    0    0  0.11023289227E+02 -0.24223057647E+02 -0.31935412150E+01  0.26804255868E+02  0.00000000000E+00 0. -1.
</event>
<event>
 7    1  0.6462830E-013  0.5052888E+02  0.7816164E-02  0.1300439E+00
        -11   -1    0    0    0    0  0.00000000000E+00  0.00000000000E+00  0.45593999997E+02  0.45594000000E+02  0.51100000000E-03 0. -1.
         11   -1    0    0    0    0 -0.00000000000E+00 -0.00000000000E+00 -0.45593999997E+02  0.45594000000E+02  0.51100000000E-03 0.  1.
    9900012    2    1    2    0    0  0.17713055074E+02  0.10310440228E+02 -0.35115620673E+02  0.50528876633E+02  0.30000051013E+02 0.  0.
         12    1    1    2    0    0 -0.17713055074E+02 -0.10310440228E+02  0.35115620673E+02  0.40659123367E+02  0.00000000000E+00 0. -1.
         11    1    3    3    0    0  0.11408588235E+02  0.11966453692E+02 -0.68595338224E+01  0.17899863239E+02  0.51100000000E-03 0. -1.
        -11    1    3    3    0    0  0.60112941050E+01  0.45681138763E+01 -0.23799249235E+02  0.24968131400E+02  0.51100000000E-03 0.  1.
         12    1    3    3    0    0  0.29317273431E+00 -0.62241273396E+01 -0.44568376157E+01  0.76608819939E+01  0.00000000000E+00 0. -1.
</event>
<event>
 7    1  0.6462830E-013  0.5052885E+02  0.7816164E-02  0.1300439E+00
        -11   -1    0    0    0    0  0.00000000000E+00  0.00000000000E+00  0.45593999997E+02  0.45594000000E+02  0.51100000000E-03 0.  1.
         11   -1    0    0    0    0 -0.00000000000E+00 -0.00000000000E+00 -0.45593999997E+02  0.45594000000E+02  0.51100000000E-03 0. -1.
    9900012    2    1    2    0    0  0.34465727694E+02  0.21939270163E+01  0.21458495628E+02  0.50528846838E+02  0.29999960449E+02 0.  0.
         12    1    1    2    0    0 -0.34465727694E+02 -0.21939270163E+01 -0.21458495628E+02  0.40659153162E+02  0.00000000000E+00 0. -1.
         11    1    3    3    0    0  0.28000084889E+00 -0.32741429981E+01 -0.91638411229E+00  0.34114766524E+01  0.51100000000E-03 0. -1.
        -11    1    3    3    0    0  0.28428971889E+02 -0.50845428420E+01  0.19215016611E+02  0.34688267213E+02  0.51100000000E-03 0.  1.
         12    1    3    3    0    0  0.57567549556E+01  0.10552612856E+02  0.31598631287E+01  0.12429102973E+02  0.00000000000E+00 0. -1.
</event>
<event>
 7    1  0.6462830E-013  0.5052886E+02  0.7816164E-02  0.1300439E+00
        -11   -1    0    0    0    0  0.00000000000E+00  0.00000000000E+00  0.45593999997E+02  0.45594000000E+02  0.51100000000E-03 0.  1.
         11   -1    0    0    0    0 -0.00000000000E+00 -0.00000000000E+00 -0.45593999997E+02  0.45594000000E+02  0.51100000000E-03 0. -1.
    9900012    2    1    2    0    0 -0.26915458394E+02  0.75203875777E+01  0.29532486361E+02  0.50528857356E+02  0.29999992418E+02 0.  0.
         12    1    1    2    0    0  0.26915458394E+02 -0.75203875777E+01 -0.29532486361E+02  0.40659142644E+02  0.00000000000E+00 0. -1.
         11    1    3    3    0    0 -0.20762680082E+02 -0.22945402690E+01  0.64938549416E+01  0.21875190320E+02  0.51100000000E-03 0. -1.
        -11    1    3    3    0    0 -0.82975076307E+01  0.52776782063E+01  0.76250193453E+01  0.12443610425E+02  0.51100000000E-03 0.  1.
        -12    1    3    3    0    0  0.21447293190E+01  0.45372496403E+01  0.15413612075E+02  0.16210056611E+02  0.00000000000E+00 0.  1.
</event>
<event>
 7    1  0.6462830E-013  0.5052884E+02  0.7816164E-02  0.1300439E+00
        -11   -1    0    0    0    0  0.00000000000E+00  0.00000000000E+00  0.45593999997E+02  0.45594000000E+02  0.51100000000E-03 0.  1.
         11   -1    0    0    0    0 -0.00000000000E+00 -0.00000000000E+00 -0.45593999997E+02  0.45594000000E+02  0.51100000000E-03 0. -1.
    9900012    2    1    2    0    0  0.24716629470E+02 -0.77393648129E+01  0.31342586455E+02  0.50528840322E+02  0.29999940643E+02 0.  0.
         12    1    1    2    0    0 -0.24716629470E+02  0.77393648129E+01 -0.31342586455E+02  0.40659159678E+02  0.00000000000E+00 0. -1.
         11    1    3    3    0    0 -0.96857481785E+00 -0.67168169737E+01  0.10506291911E+01  0.68671383701E+01  0.51100000000E-03 0. -1.
        -11    1    3    3    0    0  0.10858008960E+02  0.18096013959E+00  0.11217355246E+01  0.10917298018E+02  0.51100000000E-03 0.  1.
         12    1    3    3    0    0  0.14827195327E+02 -0.12035079787E+01  0.29170221739E+02  0.32744403934E+02  0.00000000000E+00 0. -1.
</event>
<event>
 7    1  0.6462830E-013  0.5052885E+02  0.7816164E-02  0.1300439E+00
        -11   -1    0    0    0    0  0.00000000000E+00  0.00000000000E+00  0.45593999997E+02  0.45594000000E+02  0.51100000000E-03 0. -1.
         11   -1    0    0    0    0 -0.00000000000E+00 -0.00000000000E+00 -0.45593999997E+02  0.45594000000E+02  0.51100000000E-03 0.  1.
    9900012    2    1    2    0    0  0.32837073376E+02  0.14450934248E+02 -0.19132788749E+02  0.50528849813E+02  0.29999969492E+02 0.  0.
         12    1    1    2    0    0 -0.32837073376E+02 -0.14450934248E+02  0.19132788749E+02  0.40659150187E+02  0.00000000000E+00 0. -1.
         11    1    3    3    0    0  0.13029733901E+02  0.12901295279E+02 -0.17448690102E+02  0.25311542267E+02  0.51100000000E-03 0. -1.
        -11    1    3    3    0    0 -0.31239811883E-01  0.50209256256E+01 -0.33441686376E+00  0.50321471524E+01  0.51100000000E-03 0.  1.
        -12    1    3    3    0    0  0.19838579288E+02 -0.34712866560E+01 -0.13496817831E+01  0.20185160394E+02  0.00000000000E+00 0.  1.
</event>
<event>
 7    1  0.6462830E-013  0.5052886E+02  0.7816164E-02  0.1300439E+00
        -11   -1    0    0    0    0  0.00000000000E+00  0.00000000000E+00  0.45593999997E+02  0.45594000000E+02  0.51100000000E-03 0.  1.
         11   -1    0    0    0    0 -0.00000000000E+00 -0.00000000000E+00 -0.45593999997E+02  0.45594000000E+02  0.51100000000E-03 0. -1.
    9900012    2    1    2    0    0 -0.24569149217E+02 -0.29419123154E+02  0.13566055301E+02  0.50528858877E+02  0.29999997044E+02 0.  0.
         12    1    1    2    0    0  0.24569149217E+02  0.29419123154E+02 -0.13566055301E+02  0.40659141123E+02  0.00000000000E+00 0. -1.
         11    1    3    3    0    0 -0.14206385597E+02 -0.15805928711E+02  0.20264387433E+01  0.21348424494E+02  0.51100000000E-03 0. -1.
        -11    1    3    3    0    0 -0.10074894238E+02 -0.18482752872E+02  0.12083856644E+02  0.24272108258E+02  0.51100000000E-03 0.  1.
        -12    1    3    3    0    0 -0.28786938186E+00  0.48695584289E+01 -0.54424008686E+00  0.49083261246E+01  0.00000000000E+00 0.  1.
</event>
<event>
 7    1  0.6462830E-013  0.5052886E+02  0.7816164E-02  0.1300439E+00
        -11   -1    0    0    0    0  0.00000000000E+00  0.00000000000E+00  0.45593999997E+02  0.45594000000E+02  0.51100000000E-03 0.  1.
         11   -1    0    0    0    0 -0.00000000000E+00 -0.00000000000E+00 -0.45593999997E+02  0.45594000000E+02  0.51100000000E-03 0. -1.
    9900012    2    1    2    0    0 -0.23697286380E+02 -0.19919533315E+02  0.26359370228E+02  0.50528860953E+02  0.30000003352E+02 0.  0.
         12    1    1    2    0    0  0.23697286380E+02  0.19919533315E+02 -0.26359370228E+02  0.40659139047E+02  0.00000000000E+00 0. -1.
         11    1    3    3    0    0  0.48596616001E+01  0.19328756251E+01  0.60171783825E+01  0.79723744893E+01  0.51100000000E-03 0. -1.
        -11    1    3    3    0    0 -0.20629384752E+01  0.10318497141E+01  0.18924123738E+01  0.29835639491E+01  0.51100000000E-03 0.  1.
        -12    1    3    3    0    0 -0.26494009505E+02 -0.22884258654E+02  0.18449779472E+02  0.39572922514E+02  0.00000000000E+00 0.  1.
</event>
<event>
 7    1  0.6462830E-013  0.5052886E+02  0.7816164E-02  0.1300439E+00
        -11   -1    0    0    0    0  0.00000000000E+00  0.00000000000E+00  0.45593999997E+02  0.45594000000E+02  0.51100000000E-03 0.  1.
         11   -1    0    0    0    0 -0.00000000000E+00 -0.00000000000E+00 -0.45593999997E+02  0.45594000000E+02  0.51100000000E-03 0. -1.
    9900012    2    1    2    0    0  0.30483135586E+02 -0.13946618014E+00  0.26905844706E+02  0.50528862216E+02  0.30000007192E+02 0.  0.
         12    1    1    2    0    0 -0.30483135586E+02  0.13946618014E+00 -0.26905844706E+02  0.40659137784E+02  0.00000000000E+00 0. -1.
         11    1    3    3    0    0 -0.28809174351E+01 -0.13474459542E+00  0.45724685130E+01  0.54060438343E+01  0.51100000000E-03 0. -1.
        -11    1    3    3    0    0  0.16156761288E+02 -0.90127802720E+01  0.16640133973E+02  0.24883030412E+02  0.51100000000E-03 0.  1.
         12    1    3    3    0    0  0.17207291733E+02  0.90080586873E+01  0.56932422197E+01  0.20239787970E+02  0.00000000000E+00 0. -1.
</event>
<event>
 7    1  0.6462830E-013  0.5052886E+02  0.7816164E-02  0.1300439E+00
        -11   -1    0    0    0    0  0.00000000000E+00  0.00000000000E+00  0.45593999997E+02  0.45594000000E+02  0.51100000000E-03 0. -1.
         11   -1    0    0    0    0 -0.00000000000E+00 -0.00000000000E+00 -0.45593999997E+02  0.45594000000E+02  0.51100000000E-03 0.  1.
    9900012    2    1    2    0    0 -0.27781567577E+02  0.20901888745E+02 -0.21082244061E+02  0.50528862469E+02  0.30000007960E+02 0.  0.
         12    1    1    2    0    0  0.27781567577E+02 -0.20901888745E+02  0.21082244061E+02  0.40659137531E+02  0.00000000000E+00 0. -1.
         11    1    3    3    0    0 -0.17926666999E+02  0.34320648396E+01 -0.11862610065E+02  0.21768462890E+02  0.51100000000E-03 0. -1.
        -11    1    3    3    0    0 -0.96092394826E+01  0.19079596618E+00 -0.11218214519E+01  0.96763820804E+01  0.51100000000E-03 0.  1.
         12    1    3    3    0    0 -0.24566109481E+00  0.17279027939E+02 -0.80978125446E+01  0.19084017499E+02  0.00000000000E+00 0. -1.
</event>
<event>
 7    1  0.6462830E-013  0.5052885E+02  0.7816164E-02  0.1300439E+00
        -11   -1    0    0    0    0  0.00000000000E+00  0.00000000000E+00  0.45593999997E+02  0.45594000000E+02  0.51100000000E-03 0.  1.
         11   -1    0    0    0    0 -0.00000000000E+00 -0.00000000000E+00 -0.45593999997E+02  0.45594000000E+02  0.51100000000E-03 0. -1.
    9900012    2    1    2    0    0 -0.10249118319E+02  0.33456494568E+02 -0.20707123983E+02  0.50528850492E+02  0.29999971554E+02 0.  0.
         12    1    1    2    0    0  0.10249118319E+02 -0.33456494568E+02  0.20707123983E+02  0.40659149508E+02  0.00000000000E+00 0. -1.
         11    1    3    3    0    0  0.61458226767E+01  0.24628444899E+02 -0.93089278035E+01  0.27036781828E+02  0.51100000000E-03 0. -1.
        -11    1    3    3    0    0 -0.73923449994E+01  0.85995995761E+01 -0.47326347734E+01  0.12288112533E+02  0.51100000000E-03 0.  1.
        -12    1    3    3    0    0 -0.90025959967E+01  0.22845009338E+00 -0.66655614061E+01  0.11203956131E+02  0.00000000000E+00 0.  1.
</event>
<event>
 7    1  0.6462830E-013  0.5052889E+02  0.7816164E-02  0.1300439E+00
        -11   -1    0    0    0    0  0.00000000000E+00  0.00000000000E+00  0.45593999997E+02  0.45594000000E+02  0.51100000000E-03 0.  1.
         11   -1    0    0    0    0 -0.00000000000E+00 -0.00000000000E+00 -0.45593999997E+02  0.45594000000E+02  0.51100000000E-03 0. -1.
    9900012    2    1    2    0    0 -0.31138404859E+02  0.25366481856E+02 -0.63328073541E+01  0.50528891452E+02  0.30000096057E+02 0.  0.
         12    1    1    2    0    0  0.31138404859E+02 -0.25366481856E+02  0.63328073541E+01  0.40659108548E+02  0.00000000000E+00 0. -1.
         11    1    3    3    0    0 -0.19643253736E+02  0.40060590110E+01  0.28634837718E+01  0.20251060854E+02  0.51100000000E-03 0. -1.
        -11    1    3    3    0    0 -0.67106115259E+01  0.14331991932E+02  0.22868403980E+01  0.15989619728E+02  0.51100000000E-03 0.  1.
         12    1    3    3    0    0 -0.47845395966E+01  0.70284309138E+01 -0.11483131524E+02  0.14288210870E+02  0.00000000000E+00 0. -1.
</event>
<event>
 7    1  0.6462830E-013  0.5052886E+02  0.7816164E-02  0.1300439E+00
        -11   -1    0    0    0    0  0.00000000000E+00  0.00000000000E+00  0.45593999997E+02  0.45594000000E+02  0.51100000000E-03 0.  1.
         11   -1    0    0    0    0 -0.00000000000E+00 -0.00000000000E+00 -0.45593999997E+02  0.45594000000E+02  0.51100000000E-03 0. -1.
    9900012    2    1    2    0    0 -0.38032196812E+02  0.12495967446E+02 -0.71111553396E+01  0.50528859244E+02  0.29999998157E+02 0.  0.
         12    1    1    2    0    0  0.38032196812E+02 -0.12495967446E+02  0.71111553396E+01  0.40659140756E+02  0.00000000000E+00 0. -1.
         11    1    3    3    0    0 -0.26848597959E+02  0.11631344205E+02 -0.21663052747E+01  0.29339874900E+02  0.51100000000E-03 0.  1.
        -11    1    3    3    0    0 -0.13444748535E+02  0.12338769747E+01 -0.92127664508E+01  0.16344992551E+02  0.51100000000E-03 0. -1.
        -12    1    3    3    0    0  0.22611496821E+01 -0.36925373307E+00  0.42679163859E+01  0.48439917921E+01  0.00000000000E+00 0.  1.
</event>
<event>
 7    1  0.6462830E-013  0.5052886E+02  0.7816164E-02  0.1300439E+00
        -11   -1    0    0    0    0  0.00000000000E+00  0.00000000000E+00  0.45593999997E+02  0.45594000000E+02  0.51100000000E-03 0. -1.
         11   -1    0    0    0    0 -0.00000000000E+00 -0.00000000000E+00 -0.45593999997E+02  0.45594000000E+02  0.51100000000E-03 0.  1.
    9900012    2    1    2    0    0  0.17526304095E+00  0.96505187155E+01 -0.39496862475E+02  0.50528863585E+02  0.30000011353E+02 0.  0.
         12    1    1    2    0    0 -0.17526304095E+00 -0.96505187155E+01  0.39496862475E+02  0.40659136415E+02  0.00000000000E+00 0. -1.
         11    1    3    3    0    0  0.12051524190E+01 -0.56271523276E+01 -0.67780562065E+01  0.88915286577E+01  0.51100000000E-03 0. -1.
        -11    1    3    3    0    0  0.46052556501E+01  0.10319510202E+02 -0.32186471974E+02  0.34112602493E+02  0.51100000000E-03 0.  1.
         12    1    3    3    0    0 -0.56351450281E+01  0.49581608406E+01 -0.53233429477E+00  0.75247324345E+01  0.00000000000E+00 0. -1.
</event>
<event>
 7    1  0.6462830E-013  0.5052885E+02  0.7816164E-02  0.1300439E+00
        -11   -1    0    0    0    0  0.00000000000E+00  0.00000000000E+00  0.45593999997E+02  0.45594000000E+02  0.51100000000E-03 0. -1.
         11   -1    0    0    0    0 -0.00000000000E+00 -0.00000000000E+00 -0.45593999997E+02  0.45594000000E+02  0.51100000000E-03 0.  1.
    9900012    2    1    2    0    0  0.29700671532E+02 -0.10041868654E+02 -0.25888164828E+02  0.50528854735E+02  0.29999984452E+02 0.  0.
         12    1    1    2    0    0 -0.29700671532E+02  0.10041868654E+02  0.25888164828E+02  0.40659145265E+02  0.00000000000E+00 0. -1.
         11    1    3    3    0    0  0.11868527018E+02  0.26929346643E+01 -0.54020983143E+01  0.13315273078E+02  0.51100000000E-03 0. -1.
        -11    1    3    3    0    0 -0.23363537982E+01  0.22080163570E+01 -0.90997007209E+01  0.96508258078E+01  0.51100000000E-03 0.  1.
        -12    1    3    3    0    0  0.20168498312E+02 -0.14942819676E+02 -0.11386365793E+02  0.27562755849E+02  0.00000000000E+00 0.  1.
</event>
<event>
 7    1  0.6462830E-013  0.5052885E+02  0.7816164E-02  0.1300439E+00
        -11   -1    0    0    0    0  0.00000000000E+00  0.00000000000E+00  0.45593999997E+02  0.45594000000E+02  0.51100000000E-03 0. -1.
         11   -1    0    0    0    0 -0.00000000000E+00 -0.00000000000E+00 -0.45593999997E+02  0.45594000000E+02  0.51100000000E-03 0.  1.
    9900012    2    1    2    0    0  0.23500428247E+02 -0.67893449111E+01 -0.32477699109E+02  0.50528852548E+02  0.29999977805E+02 0.  0.
         12    1    1    2    0    0 -0.23500428247E+02  0.67893449111E+01  0.32477699109E+02  0.40659147452E+02  0.00000000000E+00 0. -1.
         11    1    3    3    0    0  0.76538137039E+01 -0.65056488645E+01 -0.19865576619E+02  0.22260850523E+02  0.51100000000E-03 0. -1.
        -11    1    3    3    0    0 -0.15053070086E+01 -0.45530872250E+01  0.19892310650E+01  0.51916849827E+01  0.51100000000E-03 0.  1.
        -12    1    3    3    0    0  0.17351921552E+02  0.42693911784E+01 -0.14601353555E+02  0.23076317042E+02  0.00000000000E+00 0.  1.
</event>
<event>
 7    1  0.6462830E-013  0.5052886E+02  0.7816164E-02  0.1300439E+00
        -11   -1    0    0    0    0  0.00000000000E+00  0.00000000000E+00  0.45593999997E+02  0.45594000000E+02  0.51100000000E-03 0.  1.
         11   -1    0    0    0    0 -0.00000000000E+00 -0.00000000000E+00 -0.45593999997E+02  0.45594000000E+02  0.51100000000E-03 0. -1.
    9900012    2    1    2    0    0  0.32153114752E+02  0.10477859953E+02  0.22573382234E+02  0.50528856834E+02  0.29999990834E+02 0.  0.
         12    1    1    2    0    0 -0.32153114752E+02 -0.10477859953E+02 -0.22573382234E+02  0.40659143166E+02  0.00000000000E+00 0. -1.
         11    1    3    3    0    0 -0.42676216814E+00 -0.26986893948E+01  0.56603524690E+01  0.62852717309E+01  0.51100000000E-03 0. -1.
        -11    1    3    3    0    0  0.26810102530E+02  0.34778682735E+00  0.11401217038E+02  0.29135722122E+02  0.51100000000E-03 0.  1.
         12    1    3    3    0    0  0.57697743901E+01  0.12828762521E+02  0.55118127273E+01  0.15107862981E+02  0.00000000000E+00 0. -1.
</event>
<event>
 7    1  0.6462830E-013  0.5052889E+02  0.7816164E-02  0.1300439E+00
        -11   -1    0    0    0    0  0.00000000000E+00  0.00000000000E+00  0.45593999997E+02  0.45594000000E+02  0.51100000000E-03 0.  1.
         11   -1    0    0    0    0 -0.00000000000E+00 -0.00000000000E+00 -0.45593999997E+02  0.45594000000E+02  0.51100000000E-03 0. -1.
    9900012    2    1    2    0    0 -0.37495789561E+00 -0.15342353807E+02  0.37651496129E+02  0.50528885714E+02  0.30000078616E+02 0.  0.
         12    1    1    2    0    0  0.37495789561E+00  0.15342353807E+02 -0.37651496129E+02  0.40659114286E+02  0.00000000000E+00 0. -1.
         11    1    3    3    0    0 -0.94353373946E+01 -0.67683536210E+01  0.26934704529E+02  0.29331118472E+02  0.51100000000E-03 0.  1.
        -11    1    3    3    0    0  0.27231152873E+01  0.71807354458E+00  0.94719107566E+01  0.98817043128E+01  0.51100000000E-03 0. -1.
        -12    1    3    3    0    0  0.63372642117E+01 -0.92920737309E+01  0.12448808437E+01  0.11316062930E+02  0.00000000000E+00 0.  1.
</event>
<event>
 7    1  0.6462830E-013  0.5052886E+02  0.7816164E-02  0.1300439E+00
        -11   -1    0    0    0    0  0.00000000000E+00  0.00000000000E+00  0.45593999997E+02  0.45594000000E+02  0.51100000000E-03 0.  1.
         11   -1    0    0    0    0 -0.00000000000E+00 -0.00000000000E+00 -0.45593999997E+02  0.45594000000E+02  0.51100000000E-03 0. -1.
    9900012    2    1    2    0    0  0.31875410917E+02  0.86641103718E+01  0.23707738298E+02  0.50528862222E+02  0.30000007209E+02 0.  0.
         12    1    1    2    0    0 -0.31875410917E+02 -0.86641103718E+01 -0.23707738298E+02  0.40659137778E+02  0.00000000000E+00 0. -1.
         11    1    3    3    0    0  0.40614231766E+01  0.27848142720E+01  0.10268427166E+01  0.50303831837E+01  0.51100000000E-03 0. -1.
        -11    1    3    3    0    0  0.21082177114E+02 -0.89531882398E+01  0.15746881378E+02  0.27795360133E+02  0.51100000000E-03 0.  1.
        -12    1    3    3    0    0  0.67318106261E+01  0.14832484340E+02  0.69340142036E+01  0.17703118905E+02  0.00000000000E+00 0.  1.
</event>
<event>
 7    1  0.6462830E-013  0.5052885E+02  0.7816164E-02  0.1300439E+00
        -11   -1    0    0    0    0  0.00000000000E+00  0.00000000000E+00  0.45593999997E+02  0.45594000000E+02  0.51100000000E-03 0. -1.
         11   -1    0    0    0    0 -0.00000000000E+00 -0.00000000000E+00 -0.45593999997E+02  0.45594000000E+02  0.51100000000E-03 0.  1.
    9900012    2    1    2    0    0  0.22420745274E+02 -0.17556707371E+02 -0.29021346355E+02  0.50528851748E+02  0.29999975373E+02 0.  0.
         12    1    1    2    0    0 -0.22420745274E+02  0.17556707371E+02  0.29021346355E+02  0.40659148252E+02  0.00000000000E+00 0. -1.
         11    1    3    3    0    0  0.41041249048E+01 -0.56000286259E+01  0.45513681968E+00  0.69578237712E+01  0.51100000000E-03 0. -1.
        -11    1    3    3    0    0  0.98463141488E+01  0.63638101191E+01 -0.86556177458E+01  0.14572841191E+02  0.51100000000E-03 0.  1.
        -12    1    3    3    0    0  0.84703062203E+01 -0.18320488864E+02 -0.20820865429E+02  0.28998186786E+02  0.00000000000E+00 0.  1.
</event>
<event>
 7    1  0.6462830E-013  0.5052886E+02  0.7816164E-02  0.1300439E+00
        -11   -1    0    0    0    0  0.00000000000E+00  0.00000000000E+00  0.45593999997E+02  0.45594000000E+02  0.51100000000E-03 0. -1.
         11   -1    0    0    0    0 -0.00000000000E+00 -0.00000000000E+00 -0.45593999997E+02  0.45594000000E+02  0.51100000000E-03 0.  1.
    9900012    2    1    2    0    0 -0.32412743568E+02 -0.21041302830E+02 -0.12642927801E+02  0.50528855964E+02  0.29999988188E+02 0.  0.
         12    1    1    2    0    0  0.32412743568E+02  0.21041302830E+02  0.12642927801E+02  0.40659144036E+02  0.00000000000E+00 0. -1.
         11    1    3    3    0    0 -0.80169500823E+01 -0.52520262243E+01  0.40055928978E+01  0.10387494539E+02  0.51100000000E-03 0. -1.
        -11    1    3    3    0    0 -0.27177386798E+02 -0.18201498706E+02 -0.15961020690E+02  0.36395866386E+02  0.51100000000E-03 0.  1.
         12    1    3    3    0    0  0.27815933124E+01  0.24122221008E+01 -0.68750000935E+00  0.37454950383E+01  0.00000000000E+00 0. -1.
</event>
<event>
 7    1  0.6462830E-013  0.5052885E+02  0.7816164E-02  0.1300439E+00
        -11   -1    0    0    0    0  0.00000000000E+00  0.00000000000E+00  0.45593999997E+02  0.45594000000E+02  0.51100000000E-03 0.  1.
         11   -1    0    0    0    0 -0.00000000000E+00 -0.00000000000E+00 -0.45593999997E+02  0.45594000000E+02  0.51100000000E-03 0. -1.
    9900012    2    1    2    0    0 -0.54112120231E+01 -0.18947194254E+02  0.35565274895E+02  0.50528853870E+02  0.29999981823E+02 0.  0.
         12    1    1    2    0    0  0.54112120231E+01  0.18947194254E+02 -0.35565274895E+02  0.40659146130E+02  0.00000000000E+00 0. -1.
         11    1    3    3    0    0  0.67876189251E+01 -0.63972333952E+01  0.54759352453E+01  0.10815832509E+02  0.51100000000E-03 0. -1.
        -11    1    3    3    0    0  0.23032870446E+01  0.13010965343E+01  0.13294788191E+02  0.13555418721E+02  0.51100000000E-03 0.  1.
        -12    1    3    3    0    0 -0.14502117993E+02 -0.13851057393E+02  0.16794551459E+02  0.26157602641E+02  0.00000000000E+00 0.  1.
</event>
<event>
 7    1  0.6462830E-013  0.5052886E+02  0.7816164E-02  0.1300439E+00
        -11   -1    0    0    0    0  0.00000000000E+00  0.00000000000E+00  0.45593999997E+02  0.45594000000E+02  0.51100000000E-03 0.  1.
         11   -1    0    0    0    0 -0.00000000000E+00 -0.00000000000E+00 -0.45593999997E+02  0.45594000000E+02  0.51100000000E-03 0. -1.
    9900012    2    1    2    0    0 -0.15769277907E+02 -0.35766249440E+02  0.11192462634E+02  0.50528856569E+02  0.29999990028E+02 0.  0.
         12    1    1    2    0    0  0.15769277907E+02  0.35766249440E+02 -0.11192462634E+02  0.40659143431E+02  0.00000000000E+00 0. -1.
         11    1    3    3    0    0 -0.15172353152E+02 -0.33206200944E+02  0.14487549019E+01  0.36536980887E+02  0.51100000000E-03 0.  1.
        -11    1    3    3    0    0  0.20990117308E+01  0.40256546130E+00 -0.11201941918E+01  0.24130363621E+01  0.51100000000E-03 0. -1.
        -12    1    3    3    0    0 -0.26959364859E+01 -0.29626139571E+01  0.10863901924E+02  0.11578839320E+02  0.00000000000E+00 0.  1.
</event>
<event>
 7    1  0.6462830E-013  0.5052885E+02  0.7816164E-02  0.1300439E+00
        -11   -1    0    0    0    0  0.00000000000E+00  0.00000000000E+00  0.45593999997E+02  0.45594000000E+02  0.51100000000E-03 0.  1.
         11   -1    0    0    0    0 -0.00000000000E+00 -0.00000000000E+00 -0.45593999997E+02  0.45594000000E+02  0.51100000000E-03 0. -1.
    9900012    2    1    2    0    0 -0.27185113841E+02 -0.14716321982E+02  0.26411477477E+02  0.50528847405E+02  0.29999962173E+02 0.  0.
         12    1    1    2    0    0  0.27185113841E+02  0.14716321982E+02 -0.26411477477E+02  0.40659152595E+02  0.00000000000E+00 0. -1.
         11    1    3    3    0    0 -0.64194511019E+01 -0.38214152311E+01 -0.17290931595E+01  0.76682677466E+01  0.51100000000E-03 0. -1.
        -11    1    3    3    0    0 -0.83056283391E+01  0.12837716375E+01 -0.14432551440E+01  0.85272807738E+01  0.51100000000E-03 0.  1.
        -12    1    3    3    0    0 -0.12460034400E+02 -0.12178678389E+02  0.29583825780E+02  0.34333298885E+02  0.00000000000E+00 0.  1.
</event>
<event>
 7    1  0.6462830E-013  0.5052887E+02  0.7816164E-02  0.1300439E+00
        -11   -1    0    0    0    0  0.00000000000E+00  0.00000000000E+00  0.45593999997E+02  0.45594000000E+02  0.51100000000E-03 0. -1.
         11   -1    0    0    0    0 -0.00000000000E+00 -0.00000000000E+00 -0.45593999997E+02  0.45594000000E+02  0.51100000000E-03 0.  1.
    9900012    2    1    2    0    0  0.87790059697E+01  0.32915050356E+02 -0.22196706102E+02  0.50528865141E+02  0.30000016081E+02 0.  0.
         12    1    1    2    0    0 -0.87790059697E+01 -0.32915050356E+02  0.22196706102E+02  0.40659134859E+02  0.00000000000E+00 0. -1.
         11    1    3    3    0    0  0.43941728896E+01  0.10249172425E+01  0.40524646128E+01  0.60647902220E+01  0.51100000000E-03 0. -1.
        -11    1    3    3    0    0  0.27862365397E+01  0.10250574845E+02 -0.18669228307E+02  0.21479699359E+02  0.51100000000E-03 0.  1.
         12    1    3    3    0    0  0.15985965404E+01  0.21639558269E+02 -0.75799424073E+01  0.22984375560E+02  0.00000000000E+00 0. -1.
</event>
<event>
 7    1  0.6462830E-013  0.5052886E+02  0.7816164E-02  0.1300439E+00
        -11   -1    0    0    0    0  0.00000000000E+00  0.00000000000E+00  0.45593999997E+02  0.45594000000E+02  0.51100000000E-03 0.  1.
         11   -1    0    0    0    0 -0.00000000000E+00 -0.00000000000E+00 -0.45593999997E+02  0.45594000000E+02  0.51100000000E-03 0. -1.
    9900012    2    1    2    0    0  0.81710552548E+01 -0.15522078242E+02  0.36680578310E+02  0.50528857337E+02  0.29999992362E+02 0.  0.
         12    1    1    2    0    0 -0.81710552548E+01  0.15522078242E+02 -0.36680578310E+02  0.40659142663E+02  0.00000000000E+00 0. -1.
         11    1    3    3    0    0  0.99387096727E+01  0.22577074747E+01  0.15423131146E+02  0.18486431987E+02  0.51100000000E-03 0. -1.
        -11    1    3    3    0    0  0.69388436662E+01 -0.98573573352E+01  0.89665396268E+01  0.15023777095E+02  0.51100000000E-03 0.  1.
        -12    1    3    3    0    0 -0.87064980841E+01 -0.79224283813E+01  0.12290907537E+02  0.17018648255E+02  0.00000000000E+00 0.  1.
</event>
<event>
 7    1  0.6462830E-013  0.5052886E+02  0.7816164E-02  0.1300439E+00
        -11   -1    0    0    0    0  0.00000000000E+00  0.00000000000E+00  0.45593999997E+02  0.45594000000E+02  0.51100000000E-03 0.  1.
         11   -1    0    0    0    0 -0.00000000000E+00 -0.00000000000E+00 -0.45593999997E+02  0.45594000000E+02  0.51100000000E-03 0. -1.
    9900012    2    1    2    0    0  0.81387089809E+01  0.30982985721E+02  0.25039599167E+02  0.50528861857E+02  0.30000006101E+02 0.  0.
         12    1    1    2    0    0 -0.81387089809E+01 -0.30982985721E+02 -0.25039599167E+02  0.40659138143E+02  0.00000000000E+00 0. -1.
         11    1    3    3    0    0  0.23651922883E+00  0.16156287352E+02  0.79580073539E+01  0.18011425364E+02  0.51100000000E-03 0. -1.
        -11    1    3    3    0    0 -0.39858581781E+01  0.14759986449E+02  0.12602836006E+02  0.19813524196E+02  0.51100000000E-03 0.  1.
        -12    1    3    3    0    0  0.11888047930E+02  0.66711919986E-01  0.44787558070E+01  0.12703912297E+02  0.00000000000E+00 0.  1.
</event>
<event>
 7    1  0.6462830E-013  0.5052886E+02  0.7816164E-02  0.1300439E+00
        -11   -1    0    0    0    0  0.00000000000E+00  0.00000000000E+00  0.45593999997E+02  0.45594000000E+02  0.51100000000E-03 0.  1.
         11   -1    0    0    0    0 -0.00000000000E+00 -0.00000000000E+00 -0.45593999997E+02  0.45594000000E+02  0.51100000000E-03 0. -1.
    9900012    2    1    2    0    0 -0.23989265446E+02 -0.30138976915E+02  0.13012428131E+02  0.50528855002E+02  0.29999985264E+02 0.  0.
         12    1    1    2    0    0  0.23989265446E+02  0.30138976915E+02 -0.13012428131E+02  0.40659144998E+02  0.00000000000E+00 0. -1.
         11    1    3    3    0    0  0.41659284834E+01 -0.30533219401E+01 -0.21682024282E+01  0.56016816251E+01  0.51100000000E-03 0. -1.
        -11    1    3    3    0    0 -0.91454247893E+01 -0.91304215982E+01 -0.27614356832E+01  0.13214723623E+02  0.51100000000E-03 0.  1.
        -12    1    3    3    0    0 -0.19009769140E+02 -0.17955233376E+02  0.17942066242E+02  0.31712449754E+02  0.00000000000E+00 0.  1.
</event>
<event>
 7    1  0.6462830E-013  0.5052885E+02  0.7816164E-02  0.1300439E+00
        -11   -1    0    0    0    0  0.00000000000E+00  0.00000000000E+00  0.45593999997E+02  0.45594000000E+02  0.51100000000E-03 0. -1.
         11   -1    0    0    0    0 -0.00000000000E+00 -0.00000000000E+00 -0.45593999997E+02  0.45594000000E+02  0.51100000000E-03 0.  1.
    9900012    2    1    2    0    0 -0.67081873712E+00 -0.34045090659E+02 -0.22218191742E+02  0.50528852935E+02  0.29999978981E+02 0.  0.
         12    1    1    2    0    0  0.67081873712E+00  0.34045090659E+02  0.22218191742E+02  0.40659147065E+02  0.00000000000E+00 0. -1.
         11    1    3    3    0    0 -0.72213751076E+01 -0.11403514106E+02 -0.86412159332E+01  0.16026821440E+02  0.51100000000E-03 0. -1.
        -11    1    3    3    0    0 -0.44117154829E+01 -0.20298355392E+01  0.31448008256E+01  0.57856061318E+01  0.51100000000E-03 0.  1.
        -12    1    3    3    0    0  0.10962271853E+02 -0.20611741014E+02 -0.16721776634E+02  0.28716425363E+02  0.00000000000E+00 0.  1.
</event>
<event>
 7    1  0.6462830E-013  0.5052886E+02  0.7816164E-02  0.1300439E+00
        -11   -1    0    0    0    0  0.00000000000E+00  0.00000000000E+00  0.45593999997E+02  0.45594000000E+02  0.51100000000E-03 0.  1.
         11   -1    0    0    0    0 -0.00000000000E+00 -0.00000000000E+00 -0.45593999997E+02  0.45594000000E+02  0.51100000000E-03 0. -1.
    9900012    2    1    2    0    0 -0.19112394389E+02  0.16379336328E+01  0.35849675567E+02  0.50528859772E+02  0.29999999763E+02 0.  0.
         12    1    1    2    0    0  0.19112394389E+02 -0.16379336328E+01 -0.35849675567E+02  0.40659140228E+02  0.00000000000E+00 0. -1.
         11    1    3    3    0    0 -0.39474339869E+01 -0.30067287163E+01  0.18182153890E+02  0.18847105163E+02  0.51100000000E-03 0. -1.
        -11    1    3    3    0    0  0.24892106426E+01  0.64544462207E+01  0.10430779260E+02  0.12516277477E+02  0.51100000000E-03 0.  1.
         12    1    3    3    0    0 -0.17654171044E+02 -0.18097838716E+01  0.72367424157E+01  0.19165477132E+02  0.00000000000E+00 0. -1.
</event>
<event>
 7    1  0.6462830E-013  0.5052883E+02  0.7816164E-02  0.1300439E+00
        -11   -1    0    0    0    0  0.00000000000E+00  0.00000000000E+00  0.45593999997E+02  0.45594000000E+02  0.51100000000E-03 0. -1.
         11   -1    0    0    0    0 -0.00000000000E+00 -0.00000000000E+00 -0.45593999997E+02  0.45594000000E+02  0.51100000000E-03 0.  1.
    9900012    2    1    2    0    0  0.90717503561E+01 -0.31457402460E+02  0.24110223855E+02  0.50528834755E+02  0.29999923722E+02 0.  0.
         12    1    1    2    0    0 -0.90717503561E+01  0.31457402460E+02 -0.24110223855E+02  0.40659165245E+02  0.00000000000E+00 0. -1.
         11    1    3    3    0    0  0.55508625054E+01 -0.21553011940E+02  0.66532133389E+01  0.23229499483E+02  0.51100000000E-03 0. -1.
        -11    1    3    3    0    0  0.73518294486E+01 -0.12900522968E+02  0.16751599264E+02  0.22385016580E+02  0.51100000000E-03 0.  1.
         12    1    3    3    0    0 -0.38309415979E+01  0.29961324484E+01  0.70541125200E+00  0.49143186923E+01  0.00000000000E+00 0. -1.
</event>
<event>
 7    1  0.6462830E-013  0.5052872E+02  0.7816164E-02  0.1300439E+00
        -11   -1    0    0    0    0  0.00000000000E+00  0.00000000000E+00  0.45593999997E+02  0.45594000000E+02  0.51100000000E-03 0.  1.
         11   -1    0    0    0    0 -0.00000000000E+00 -0.00000000000E+00 -0.45593999997E+02  0.45594000000E+02  0.51100000000E-03 0. -1.
    9900012    2    1    2    0    0  0.22252618963E+02  0.20517682672E+02  0.27148163677E+02  0.50528718846E+02  0.29999571401E+02 0.  0.
         12    1    1    2    0    0 -0.22252618963E+02 -0.20517682672E+02 -0.27148163677E+02  0.40659281154E+02  0.00000000000E+00 0. -1.
         11    1    3    3    0    0  0.15402400737E+02  0.57118870943E+01  0.56555141878E+01  0.17373670989E+02  0.51100000000E-03 0. -1.
        -11    1    3    3    0    0 -0.23307971099E+01  0.58869132323E+01 -0.17954020926E+01  0.65811725025E+01  0.51100000000E-03 0.  1.
        -12    1    3    3    0    0  0.91810153363E+01  0.89188823458E+01  0.23288051581E+02  0.26573875355E+02  0.00000000000E+00 0.  1.
</event>
<event>
 7    1  0.6462830E-013  0.5052886E+02  0.7816164E-02  0.1300439E+00
        -11   -1    0    0    0    0  0.00000000000E+00  0.00000000000E+00  0.45593999997E+02  0.45594000000E+02  0.51100000000E-03 0. -1.
         11   -1    0    0    0    0 -0.00000000000E+00 -0.00000000000E+00 -0.45593999997E+02  0.45594000000E+02  0.51100000000E-03 0.  1.
    9900012    2    1    2    0    0  0.24687442865E+02 -0.16483896247E+02  0.27784471611E+02  0.50528861625E+02  0.30000005395E+02 0.  0.
         12    1    1    2    0    0 -0.24687442865E+02  0.16483896247E+02 -0.27784471611E+02  0.40659138375E+02  0.00000000000E+00 0. -1.
         11    1    3    3    0    0  0.10077039432E+02  0.44517131846E+01  0.71529242504E+01  0.13135021872E+02  0.51100000000E-03 0. -1.
        -11    1    3    3    0    0  0.13436306410E+02 -0.19293526978E+02  0.23916864736E+02  0.33537902920E+02  0.51100000000E-03 0.  1.
         12    1    3    3    0    0  0.11740970225E+01 -0.16420824539E+01 -0.32853173750E+01  0.38559368328E+01  0.00000000000E+00 0. -1.
</event>
<event>
 7    1  0.6462830E-013  0.5052887E+02  0.7816164E-02  0.1300439E+00
        -11   -1    0    0    0    0  0.00000000000E+00  0.00000000000E+00  0.45593999997E+02  0.45594000000E+02  0.51100000000E-03 0.  1.
         11   -1    0    0    0    0 -0.00000000000E+00 -0.00000000000E+00 -0.45593999997E+02  0.45594000000E+02  0.51100000000E-03 0. -1.
    9900012    2    1    2    0    0  0.32479780939E+02 -0.11601040581E+02  0.21532404640E+02  0.50528871111E+02  0.30000034229E+02 0.  0.
         12    1    1    2    0    0 -0.32479780939E+02  0.11601040581E+02 -0.21532404640E+02  0.40659128889E+02  0.00000000000E+00 0. -1.
         11    1    3    3    0    0  0.45015352297E+01  0.29532573060E+00 -0.18896739327E+01  0.48910024069E+01  0.51100000000E-03 0. -1.
        -11    1    3    3    0    0 -0.16284594983E+01  0.16372841455E+01  0.10272845340E+02  0.10529194241E+02  0.51100000000E-03 0.  1.
         12    1    3    3    0    0  0.29606705208E+02 -0.13533650457E+02  0.13149233233E+02  0.35108674463E+02  0.00000000000E+00 0. -1.
</event>
<event>
 7    1  0.6462830E-013  0.5052886E+02  0.7816164E-02  0.1300439E+00
        -11   -1    0    0    0    0  0.00000000000E+00  0.00000000000E+00  0.45593999997E+02  0.45594000000E+02  0.51100000000E-03 0.  1.
         11   -1    0    0    0    0 -0.00000000000E+00 -0.00000000000E+00 -0.45593999997E+02  0.45594000000E+02  0.51100000000E-03 0. -1.
    9900012    2    1    2    0    0  0.30792337882E+02  0.19339197097E+02  0.18193208536E+02  0.50528862608E+02  0.30000008384E+02 0.  0.
         12    1    1    2    0    0 -0.30792337882E+02 -0.19339197097E+02 -0.18193208536E+02  0.40659137392E+02  0.00000000000E+00 0. -1.
         11    1    3    3    0    0  0.94532689000E+01  0.18645167306E+02 -0.57982811375E+00  0.20912741515E+02  0.51100000000E-03 0. -1.
        -11    1    3    3    0    0  0.14800771396E+00  0.12175694056E+00 -0.76394839759E+00  0.78762202310E+00  0.51100000000E-03 0.  1.
        -12    1    3    3    0    0  0.21191061268E+02  0.57227284978E+00  0.19536985047E+02  0.28828499070E+02  0.00000000000E+00 0.  1.
</event>
<event>
 7    1  0.6572116E-013  0.5052885E+02  0.7816164E-02  0.1300439E+00
        -11   -1    0    0    0    0  0.00000000000E+00  0.00000000000E+00  0.45593999997E+02  0.45594000000E+02  0.51100000000E-03 0.  1.
         11   -1    0    0    0    0 -0.00000000000E+00 -0.00000000000E+00 -0.45593999997E+02  0.45594000000E+02  0.51100000000E-03 0. -1.
    9900012    2    1    2    0    0 -0.85254228048E+01  0.39736493182E+02 -0.12224519558E+01  0.50528854495E+02  0.29999983723E+02 0.  0.
         12    1    1    2    0    0  0.85254228048E+01 -0.39736493182E+02  0.12224519558E+01  0.40659145505E+02  0.00000000000E+00 0. -1.
         11    1    3    3    0    0  0.31293868762E+01  0.19477801821E+02  0.24271968252E+01  0.19876345506E+02  0.51100000000E-03 0. -1.
        -11    1    3    3    0    0 -0.97102202317E+01  0.24175873549E+02 -0.28760031787E+01  0.26211307357E+02  0.51100000000E-03 0.  1.
         12    1    3    3    0    0 -0.19445894494E+01 -0.39171821879E+01 -0.77364560231E+00  0.44412016322E+01  0.00000000000E+00 0. -1.
</event>
<event>
 7    1  0.6462830E-013  0.5052886E+02  0.7816164E-02  0.1300439E+00
        -11   -1    0    0    0    0  0.00000000000E+00  0.00000000000E+00  0.45593999997E+02  0.45594000000E+02  0.51100000000E-03 0. -1.
         11   -1    0    0    0    0 -0.00000000000E+00 -0.00000000000E+00 -0.45593999997E+02  0.45594000000E+02  0.51100000000E-03 0.  1.
    9900012    2    1    2    0    0 -0.71909274831E+01 -0.24417431658E+02 -0.31705599041E+02  0.50528863052E+02  0.30000009732E+02 0.  0.
         12    1    1    2    0    0  0.71909274831E+01  0.24417431658E+02  0.31705599041E+02  0.40659136948E+02  0.00000000000E+00 0. -1.
         11    1    3    3    0    0  0.72259093299E+00 -0.55342217981E+01  0.14278462449E+01  0.57609455584E+01  0.51100000000E-03 0. -1.
        -11    1    3    3    0    0  0.23877528770E+00 -0.73216619015E+00  0.32278138164E+01  0.33184127626E+01  0.51100000000E-03 0.  1.
        -12    1    3    3    0    0 -0.81522937038E+01 -0.18151043670E+02 -0.36361259102E+02  0.41449504731E+02  0.00000000000E+00 0.  1.
</event>
<event>
 7    1  0.6462830E-013  0.5052886E+02  0.7816164E-02  0.1300439E+00
        -11   -1    0    0    0    0  0.00000000000E+00  0.00000000000E+00  0.45593999997E+02  0.45594000000E+02  0.51100000000E-03 0.  1.
         11   -1    0    0    0    0 -0.00000000000E+00 -0.00000000000E+00 -0.45593999997E+02  0.45594000000E+02  0.51100000000E-03 0. -1.
    9900012    2    1    2    0    0 -0.22715502137E+02  0.82070772598E+00  0.33711987961E+02  0.50528859198E+02  0.29999998017E+02 0.  0.
         12    1    1    2    0    0  0.22715502137E+02 -0.82070772598E+00 -0.33711987961E+02  0.40659140802E+02  0.00000000000E+00 0. -1.
         11    1    3    3    0    0 -0.66939894682E+01  0.34532018555E+01 -0.22220582573E+01  0.78531293899E+01  0.51100000000E-03 0. -1.
        -11    1    3    3    0    0  0.27461370565E+01  0.11619299876E+01  0.10026276071E+02  0.10460284993E+02  0.51100000000E-03 0.  1.
        -12    1    3    3    0    0 -0.18767649725E+02 -0.37944241172E+01  0.25907770147E+02  0.32215444814E+02  0.00000000000E+00 0.  1.
</event>
<event>
 7    1  0.6462830E-013  0.5052886E+02  0.7816164E-02  0.1300439E+00
        -11   -1    0    0    0    0  0.00000000000E+00  0.00000000000E+00  0.45593999997E+02  0.45594000000E+02  0.51100000000E-03 0.  1.
         11   -1    0    0    0    0 -0.00000000000E+00 -0.00000000000E+00 -0.45593999997E+02  0.45594000000E+02  0.51100000000E-03 0. -1.
    9900012    2    1    2    0    0  0.12053129781E+02 -0.16176893351E+02  0.35301498206E+02  0.50528860910E+02  0.30000003221E+02 0.  0.
         12    1    1    2    0    0 -0.12053129781E+02  0.16176893351E+02 -0.35301498206E+02  0.40659139090E+02  0.00000000000E+00 0. -1.
         11    1    3    3    0    0  0.33610224642E+01 -0.21946394331E+01  0.25700679707E+00  0.40223086655E+01  0.51100000000E-03 0. -1.
        -11    1    3    3    0    0  0.12634899534E+02 -0.48518397802E+01  0.33892173983E+02  0.36494663898E+02  0.51100000000E-03 0.  1.
         12    1    3    3    0    0 -0.39427922181E+01 -0.91304141374E+01  0.11523174260E+01  0.10011888346E+02  0.00000000000E+00 0. -1.
</event>
<event>
 7    1  0.6462830E-013  0.5052885E+02  0.7816164E-02  0.1300439E+00
        -11   -1    0    0    0    0  0.00000000000E+00  0.00000000000E+00  0.45593999997E+02  0.45594000000E+02  0.51100000000E-03 0.  1.
         11   -1    0    0    0    0 -0.00000000000E+00 -0.00000000000E+00 -0.45593999997E+02  0.45594000000E+02  0.51100000000E-03 0. -1.
    9900012    2    1    2    0    0 -0.28052363407E+01  0.31156744802E+02  0.25972177014E+02  0.50528854948E+02  0.29999985099E+02 0.  0.
         12    1    1    2    0    0  0.28052363407E+01 -0.31156744802E+02 -0.25972177014E+02  0.40659145052E+02  0.00000000000E+00 0. -1.
         11    1    3    3    0    0 -0.46779424595E+01  0.90788418063E+01  0.18291157920E+02  0.20949343009E+02  0.51100000000E-03 0. -1.
        -11    1    3    3    0    0 -0.61483258458E+01  0.17685762834E+02  0.81540612618E+01  0.20422459035E+02  0.51100000000E-03 0.  1.
         12    1    3    3    0    0  0.80210319646E+01  0.43921401613E+01 -0.47304216819E+00  0.91570529029E+01  0.00000000000E+00 0. -1.
</event>
<event>
 7    1  0.6462830E-013  0.5052886E+02  0.7816164E-02  0.1300439E+00
        -11   -1    0    0    0    0  0.00000000000E+00  0.00000000000E+00  0.45593999997E+02  0.45594000000E+02  0.51100000000E-03 0.  1.
         11   -1    0    0    0    0 -0.00000000000E+00 -0.00000000000E+00 -0.45593999997E+02  0.45594000000E+02  0.51100000000E-03 0. -1.
    9900012    2    1    2    0    0  0.64648994027E+01 -0.23663852499E+02  0.32425190549E+02  0.50528858082E+02  0.29999994625E+02 0.  0.
         12    1    1    2    0    0 -0.64648994027E+01  0.23663852499E+02 -0.32425190549E+02  0.40659141918E+02  0.00000000000E+00 0. -1.
         11    1    3    3    0    0 -0.30539424804E+01  0.96734319439E+00  0.12740900684E+00  0.32060179110E+01  0.51100000000E-03 0. -1.
        -11    1    3    3    0    0  0.12048177985E+02 -0.12385534418E+02  0.61529773781E+01  0.18341733464E+02  0.51100000000E-03 0.  1.
         12    1    3    3    0    0 -0.25293361016E+01 -0.12245661275E+02  0.26144804164E+02  0.28981106707E+02  0.00000000000E+00 0. -1.
</event>
<event>
 7    1  0.6462830E-013  0.5052886E+02  0.7816164E-02  0.1300439E+00
        -11   -1    0    0    0    0  0.00000000000E+00  0.00000000000E+00  0.45593999997E+02  0.45594000000E+02  0.51100000000E-03 0. -1.
         11   -1    0    0    0    0 -0.00000000000E+00 -0.00000000000E+00 -0.45593999997E+02  0.45594000000E+02  0.51100000000E-03 0.  1.
    9900012    2    1    2    0    0 -0.34160355673E+02 -0.33064899466E+01 -0.21801447379E+02  0.50528857322E+02  0.29999992316E+02 0.  0.
         12    1    1    2    0    0  0.34160355673E+02  0.33064899466E+01  0.21801447379E+02  0.40659142678E+02  0.00000000000E+00 0. -1.
         11    1    3    3    0    0 -0.39394947334E+01 -0.82097255847E+01 -0.52366033728E+01  0.10504343296E+02  0.51100000000E-03 0. -1.
        -11    1    3    3    0    0 -0.19406069582E+02  0.46104449395E+01  0.34586295262E+00  0.19949219548E+02  0.51100000000E-03 0.  1.
        -12    1    3    3    0    0 -0.10814791358E+02  0.29279069855E+00 -0.16910706959E+02  0.20075294478E+02  0.00000000000E+00 0.  1.
</event>
<event>
 7    1  0.6462830E-013  0.5052886E+02  0.7816164E-02  0.1300439E+00
        -11   -1    0    0    0    0  0.00000000000E+00  0.00000000000E+00  0.45593999997E+02  0.45594000000E+02  0.51100000000E-03 0.  1.
         11   -1    0    0    0    0 -0.00000000000E+00 -0.00000000000E+00 -0.45593999997E+02  0.45594000000E+02  0.51100000000E-03 0. -1.
    9900012    2    1    2    0    0  0.21862895763E+02 -0.22842169240E+02  0.25561984114E+02  0.50528856643E+02  0.29999990251E+02 0.  0.
         12    1    1    2    0    0 -0.21862895763E+02  0.22842169240E+02 -0.25561984114E+02  0.40659143357E+02  0.00000000000E+00 0. -1.
         11    1    3    3    0    0 -0.50077532461E+00 -0.72520986664E+01  0.42056391187E+01  0.83982802793E+01  0.51100000000E-03 0. -1.
        -11    1    3    3    0    0  0.23224368715E+02 -0.20403494050E+02  0.15761622982E+02  0.34700182002E+02  0.51100000000E-03 0.  1.
         12    1    3    3    0    0 -0.86069762805E+00  0.48134234761E+01  0.55947220133E+01  0.74303943619E+01  0.00000000000E+00 0. -1.
</event>
<event>
 7    1  0.6462830E-013  0.5052887E+02  0.7816164E-02  0.1300439E+00
        -11   -1    0    0    0    0  0.00000000000E+00  0.00000000000E+00  0.45593999997E+02  0.45594000000E+02  0.51100000000E-03 0. -1.
         11   -1    0    0    0    0 -0.00000000000E+00 -0.00000000000E+00 -0.45593999997E+02  0.45594000000E+02  0.51100000000E-03 0.  1.
    9900012    2    1    2    0    0 -0.61934217058E+01  0.38689125084E+02 -0.10860845451E+02  0.50528870200E+02  0.30000031459E+02 0.  0.
         12    1    1    2    0    0  0.61934217058E+01 -0.38689125084E+02  0.10860845451E+02  0.40659129800E+02  0.00000000000E+00 0. -1.
         11    1    3    3    0    0 -0.89626363705E+00 -0.30740764659E+01  0.10955059743E+01  0.33842825275E+01  0.51100000000E-03 0. -1.
        -11    1    3    3    0    0  0.40077959549E+01  0.22361557723E+02 -0.40282128379E+00  0.22721442680E+02  0.51100000000E-03 0.  1.
        -12    1    3    3    0    0 -0.93049540237E+01  0.19401643827E+02 -0.11553530142E+02  0.24423144992E+02  0.00000000000E+00 0.  1.
</event>
<event>
 7    1  0.6462830E-013  0.5052886E+02  0.7816164E-02  0.1300439E+00
        -11   -1    0    0    0    0  0.00000000000E+00  0.00000000000E+00  0.45593999997E+02  0.45594000000E+02  0.51100000000E-03 0.  1.
         11   -1    0    0    0    0 -0.00000000000E+00 -0.00000000000E+00 -0.45593999997E+02  0.45594000000E+02  0.51100000000E-03 0. -1.
    9900012    2    1    2    0    0  0.34474999070E+02  0.42698455872E+00  0.21551277686E+02  0.50528862692E+02  0.30000008640E+02 0.  0.
         12    1    1    2    0    0 -0.34474999070E+02 -0.42698455872E+00 -0.21551277686E+02  0.40659137308E+02  0.00000000000E+00 0. -1.
         11    1    3    3    0    0  0.11244278608E+02 -0.11590500649E+02  0.50206142284E+01  0.16910945396E+02  0.51100000000E-03 0. -1.
        -11    1    3    3    0    0  0.10513062028E+02 -0.81395625913E+00  0.96254144831E+01  0.14277100624E+02  0.51100000000E-03 0.  1.
         12    1    3    3    0    0  0.12717658434E+02  0.12831441466E+02  0.69052489748E+01  0.19340816673E+02  0.00000000000E+00 0. -1.
</event>
<event>
 7    1  0.6462830E-013  0.5052886E+02  0.7816164E-02  0.1300439E+00
        -11   -1    0    0    0    0  0.00000000000E+00  0.00000000000E+00  0.45593999997E+02  0.45594000000E+02  0.51100000000E-03 0.  1.
         11   -1    0    0    0    0 -0.00000000000E+00 -0.00000000000E+00 -0.45593999997E+02  0.45594000000E+02  0.51100000000E-03 0. -1.
    9900012    2    1    2    0    0  0.11517368786E+02  0.63710599357E+01  0.38469801262E+02  0.50528858376E+02  0.29999995520E+02 0.  0.
         12    1    1    2    0    0 -0.11517368786E+02 -0.63710599357E+01 -0.38469801262E+02  0.40659141624E+02  0.00000000000E+00 0. -1.
         11    1    3    3    0    0  0.83673592878E+01 -0.43353917146E+01  0.33316588787E+02  0.34623740575E+02  0.51100000000E-03 0.  1.
        -11    1    3    3    0    0  0.34925752550E+01 -0.76046143784E+00  0.11576750071E+01  0.37572057694E+01  0.51100000000E-03 0. -1.
        -12    1    3    3    0    0 -0.34256575710E+00  0.11466913088E+02  0.39955374680E+01  0.12147912032E+02  0.00000000000E+00 0.  1.
</event>
<event>
 7    1  0.6462830E-013  0.5052886E+02  0.7816164E-02  0.1300439E+00
        -11   -1    0    0    0    0  0.00000000000E+00  0.00000000000E+00  0.45593999997E+02  0.45594000000E+02  0.51100000000E-03 0. -1.
         11   -1    0    0    0    0 -0.00000000000E+00 -0.00000000000E+00 -0.45593999997E+02  0.45594000000E+02  0.51100000000E-03 0.  1.
    9900012    2    1    2    0    0  0.26811399504E+02  0.27573713034E+02 -0.13191098245E+02  0.50528857526E+02  0.29999992936E+02 0.  0.
         12    1    1    2    0    0 -0.26811399504E+02 -0.27573713034E+02  0.13191098245E+02  0.40659142474E+02  0.00000000000E+00 0. -1.
         11    1    3    3    0    0  0.78802991463E+01  0.15035686890E+01  0.19984087008E+01  0.82676158011E+01  0.51100000000E-03 0. -1.
        -11    1    3    3    0    0  0.23797893599E+02  0.18911116338E+02 -0.14193929203E+02  0.33547543686E+02  0.51100000000E-03 0.  1.
         12    1    3    3    0    0 -0.48667932417E+01  0.71590280076E+01 -0.99557774230E+00  0.87136980388E+01  0.00000000000E+00 0. -1.
</event>
<event>
 7    1  0.6462830E-013  0.5052886E+02  0.7816164E-02  0.1300439E+00
        -11   -1    0    0    0    0  0.00000000000E+00  0.00000000000E+00  0.45593999997E+02  0.45594000000E+02  0.51100000000E-03 0.  1.
         11   -1    0    0    0    0 -0.00000000000E+00 -0.00000000000E+00 -0.45593999997E+02  0.45594000000E+02  0.51100000000E-03 0. -1.
    9900012    2    1    2    0    0  0.21226346130E+02 -0.24059285522E+02  0.24975167633E+02  0.50528856033E+02  0.29999988397E+02 0.  0.
         12    1    1    2    0    0 -0.21226346130E+02  0.24059285522E+02 -0.24975167633E+02  0.40659143967E+02  0.00000000000E+00 0. -1.
         11    1    3    3    0    0  0.16101283237E+02 -0.10397445233E+02  0.53672398415E+01  0.19903905472E+02  0.51100000000E-03 0. -1.
        -11    1    3    3    0    0  0.70152254845E+00 -0.54287890082E+01 -0.29423372311E+01  0.62145983478E+01  0.51100000000E-03 0.  1.
        -12    1    3    3    0    0  0.44235403450E+01 -0.82330512805E+01  0.22550265023E+02  0.24410352213E+02  0.00000000000E+00 0.  1.
</event>
<event>
 7    1  0.6462830E-013  0.5052885E+02  0.7816164E-02  0.1300439E+00
        -11   -1    0    0    0    0  0.00000000000E+00  0.00000000000E+00  0.45593999997E+02  0.45594000000E+02  0.51100000000E-03 0. -1.
         11   -1    0    0    0    0 -0.00000000000E+00 -0.00000000000E+00 -0.45593999997E+02  0.45594000000E+02  0.51100000000E-03 0.  1.
    9900012    2    1    2    0    0  0.23342094910E+02  0.28949773818E+02 -0.16438469658E+02  0.50528854859E+02  0.29999984828E+02 0.  0.
         12    1    1    2    0    0 -0.23342094910E+02 -0.28949773818E+02  0.16438469658E+02  0.40659145141E+02  0.00000000000E+00 0. -1.
         11    1    3    3    0    0  0.15556625871E+02  0.17356913315E+02  0.18643451263E-02  0.23308175648E+02  0.51100000000E-03 0. -1.
        -11    1    3    3    0    0  0.19774497756E+01  0.13401848081E+02 -0.53374085795E+01  0.14560486606E+02  0.51100000000E-03 0.  1.
        -12    1    3    3    0    0  0.58080192639E+01 -0.18089875774E+01 -0.11102925424E+02  0.12660192605E+02  0.00000000000E+00 0.  1.
</event>
<event>
 7    1  0.6462830E-013  0.5052886E+02  0.7816164E-02  0.1300439E+00
        -11   -1    0    0    0    0  0.00000000000E+00  0.00000000000E+00  0.45593999997E+02  0.45594000000E+02  0.51100000000E-03 0. -1.
         11   -1    0    0    0    0 -0.00000000000E+00 -0.00000000000E+00 -0.45593999997E+02  0.45594000000E+02  0.51100000000E-03 0.  1.
    9900012    2    1    2    0    0 -0.83879973120E+00 -0.30552715688E+02 -0.26814062743E+02  0.50528856113E+02  0.29999988640E+02 0.  0.
         12    1    1    2    0    0  0.83879973120E+00  0.30552715688E+02  0.26814062743E+02  0.40659143887E+02  0.00000000000E+00 0. -1.
         11    1    3    3    0    0  0.67475729436E+00  0.52151928621E+01 -0.52463444425E+01  0.74281669519E+01  0.51100000000E-03 0. -1.
        -11    1    3    3    0    0  0.29563815187E+01 -0.66230365198E+01 -0.74920483560E+01  0.10427636034E+02  0.51100000000E-03 0.  1.
        -12    1    3    3    0    0 -0.44699385443E+01 -0.29144872030E+02 -0.14075669944E+02  0.32673053127E+02  0.00000000000E+00 0.  1.
</event>
<event>
 7    1  0.6462830E-013  0.5052884E+02  0.7816164E-02  0.1300439E+00
        -11   -1    0    0    0    0  0.00000000000E+00  0.00000000000E+00  0.45593999997E+02  0.45594000000E+02  0.51100000000E-03 0. -1.
         11   -1    0    0    0    0 -0.00000000000E+00 -0.00000000000E+00 -0.45593999997E+02  0.45594000000E+02  0.51100000000E-03 0.  1.
    9900012    2    1    2    0    0  0.25810888022E+02  0.12848102042E+02 -0.28668649083E+02  0.50528842276E+02  0.29999946583E+02 0.  0.
         12    1    1    2    0    0 -0.25810888022E+02 -0.12848102042E+02  0.28668649083E+02  0.40659157724E+02  0.00000000000E+00 0. -1.
         11    1    3    3    0    0  0.48466325883E-01  0.19769912326E+01 -0.45175180526E+01  0.49314108463E+01  0.51100000000E-03 0. -1.
        -11    1    3    3    0    0  0.11101817270E+02  0.16648955536E+02 -0.21923046183E+02  0.29682621538E+02  0.51100000000E-03 0.  1.
         12    1    3    3    0    0  0.14660604426E+02 -0.57778447269E+01 -0.22280848473E+01  0.15914809892E+02  0.00000000000E+00 0. -1.
</event>
<event>
 7    1  0.6462830E-013  0.5052885E+02  0.7816164E-02  0.1300439E+00
        -11   -1    0    0    0    0  0.00000000000E+00  0.00000000000E+00  0.45593999997E+02  0.45594000000E+02  0.51100000000E-03 0.  1.
         11   -1    0    0    0    0 -0.00000000000E+00 -0.00000000000E+00 -0.45593999997E+02  0.45594000000E+02  0.51100000000E-03 0. -1.
    9900012    2    1    2    0    0 -0.16898225131E+02  0.19081190483E+02  0.31678462399E+02  0.50528845768E+02  0.29999957198E+02 0.  0.
         12    1    1    2    0    0  0.16898225131E+02 -0.19081190483E+02 -0.31678462399E+02  0.40659154232E+02  0.00000000000E+00 0. -1.
         11    1    3    3    0    0  0.15647135213E+01  0.66088714348E+01  0.19164874194E+02  0.20332680915E+02  0.51100000000E-03 0. -1.
        -11    1    3    3    0    0  0.23630198786E+01  0.27591562147E+01 -0.68360991378E+00  0.36965022303E+01  0.51100000000E-03 0.  1.
        -12    1    3    3    0    0 -0.20825958531E+02  0.97131628338E+01  0.13197198119E+02  0.26499662623E+02  0.00000000000E+00 0.  1.
</event>
<event>
 7    1  0.6462830E-013  0.5052886E+02  0.7816164E-02  0.1300439E+00
        -11   -1    0    0    0    0  0.00000000000E+00  0.00000000000E+00  0.45593999997E+02  0.45594000000E+02  0.51100000000E-03 0. -1.
         11   -1    0    0    0    0 -0.00000000000E+00 -0.00000000000E+00 -0.45593999997E+02  0.45594000000E+02  0.51100000000E-03 0.  1.
    9900012    2    1    2    0    0  0.73205272766E+01 -0.39237055663E+02 -0.77478499292E+01  0.50528857914E+02  0.29999994114E+02 0.  0.
         12    1    1    2    0    0 -0.73205272766E+01  0.39237055663E+02  0.77478499292E+01  0.40659142086E+02  0.00000000000E+00 0. -1.
         11    1    3    3    0    0  0.77457309758E+01 -0.98479431937E+01  0.51147833433E+01  0.13532898522E+02  0.51100000000E-03 0. -1.
        -11    1    3    3    0    0 -0.48040710488E+01 -0.35113343092E+01  0.26442554394E+01  0.65115784847E+01  0.51100000000E-03 0.  1.
        -12    1    3    3    0    0  0.43788673496E+01 -0.25877778160E+02 -0.15506888712E+02  0.30484380907E+02  0.00000000000E+00 0.  1.
</event>
<event>
 7    1  0.6462830E-013  0.5052887E+02  0.7816164E-02  0.1300439E+00
        -11   -1    0    0    0    0  0.00000000000E+00  0.00000000000E+00  0.45593999997E+02  0.45594000000E+02  0.51100000000E-03 0.  1.
         11   -1    0    0    0    0 -0.00000000000E+00 -0.00000000000E+00 -0.45593999997E+02  0.45594000000E+02  0.51100000000E-03 0. -1.
    9900012    2    1    2    0    0  0.52310651141E+01  0.38751672018E+02  0.11140427337E+02  0.50528865138E+02  0.30000016075E+02 0.  0.
         12    1    1    2    0    0 -0.52310651141E+01 -0.38751672018E+02 -0.11140427337E+02  0.40659134862E+02  0.00000000000E+00 0. -1.
         11    1    3    3    0    0  0.75277436204E+01  0.88608024678E+01  0.69129814881E+01  0.13526642514E+02  0.51100000000E-03 0. -1.
        -11    1    3    3    0    0  0.72200725859E+01  0.10817455473E+02  0.81221922737E+01  0.15333518795E+02  0.51100000000E-03 0.  1.
         12    1    3    3    0    0 -0.95167510922E+01  0.19073414078E+02 -0.38947464245E+01  0.21668703829E+02  0.00000000000E+00 0. -1.
</event>
<event>
 7    1  0.6462830E-013  0.5052886E+02  0.7816164E-02  0.1300439E+00
        -11   -1    0    0    0    0  0.00000000000E+00  0.00000000000E+00  0.45593999997E+02  0.45594000000E+02  0.51100000000E-03 0.  1.
         11   -1    0    0    0    0 -0.00000000000E+00 -0.00000000000E+00 -0.45593999997E+02  0.45594000000E+02  0.51100000000E-03 0. -1.
    9900012    2    1    2    0    0  0.26514845001E+02  0.12734782262E+02  0.28070517679E+02  0.50528860222E+02  0.30000001132E+02 0.  0.
         12    1    1    2    0    0 -0.26514845001E+02 -0.12734782262E+02 -0.28070517679E+02  0.40659139778E+02  0.00000000000E+00 0. -1.
         11    1    3    3    0    0  0.82175404905E+01  0.67395982180E+01  0.13159180654E+02  0.16914910334E+02  0.51100000000E-03 0. -1.
        -11    1    3    3    0    0 -0.35505231150E+01  0.17809869869E+01  0.10094616605E+02  0.10848014274E+02  0.51100000000E-03 0.  1.
         12    1    3    3    0    0  0.21847827625E+02  0.42141970568E+01  0.48167204205E+01  0.22765935614E+02  0.00000000000E+00 0. -1.
</event>
<event>
 7    1  0.6462830E-013  0.5052886E+02  0.7816164E-02  0.1300439E+00
        -11   -1    0    0    0    0  0.00000000000E+00  0.00000000000E+00  0.45593999997E+02  0.45594000000E+02  0.51100000000E-03 0.  1.
         11   -1    0    0    0    0 -0.00000000000E+00 -0.00000000000E+00 -0.45593999997E+02  0.45594000000E+02  0.51100000000E-03 0. -1.
    9900012    2    1    2    0    0  0.24834516137E+02  0.20522189493E+02  0.24804284354E+02  0.50528856187E+02  0.29999988865E+02 0.  0.
         12    1    1    2    0    0 -0.24834516137E+02 -0.20522189493E+02 -0.24804284354E+02  0.40659143813E+02  0.00000000000E+00 0. -1.
         11    1    3    3    0    0  0.12231712945E+02 -0.37139943075E+01  0.96258982192E+01  0.16002077118E+02  0.51100000000E-03 0. -1.
        -11    1    3    3    0    0  0.12241558559E+02  0.17766490878E+02  0.45056231106E+01  0.22040975340E+02  0.51100000000E-03 0.  1.
         12    1    3    3    0    0  0.36124463291E+00  0.64696929228E+01  0.10672763024E+02  0.12485803729E+02  0.00000000000E+00 0. -1.
</event>
<event>
 7    1  0.6462830E-013  0.5052886E+02  0.7816164E-02  0.1300439E+00
        -11   -1    0    0    0    0  0.00000000000E+00  0.00000000000E+00  0.45593999997E+02  0.45594000000E+02  0.51100000000E-03 0.  1.
         11   -1    0    0    0    0 -0.00000000000E+00 -0.00000000000E+00 -0.45593999997E+02  0.45594000000E+02  0.51100000000E-03 0. -1.
    9900012    2    1    2    0    0  0.20651989125E+02 -0.27012802825E+02  0.22292814831E+02  0.50528858785E+02  0.29999996762E+02 0.  0.
         12    1    1    2    0    0 -0.20651989125E+02  0.27012802825E+02 -0.22292814831E+02  0.40659141215E+02  0.00000000000E+00 0. -1.
         11    1    3    3    0    0  0.60772432220E+01 -0.38215918086E+01 -0.15140495859E+01  0.73368791418E+01  0.51100000000E-03 0. -1.
        -11    1    3    3    0    0  0.21020554641E+02 -0.16381598106E+02  0.17115667142E+02  0.31672804358E+02  0.51100000000E-03 0.  1.
        -12    1    3    3    0    0 -0.64458087379E+01 -0.68096129103E+01  0.66911972755E+01  0.11519175285E+02  0.00000000000E+00 0.  1.
</event>
<event>
 7    1  0.1348586E-012  0.5052886E+02  0.7816164E-02  0.1300439E+00
        -11   -1    0    0    0    0  0.00000000000E+00  0.00000000000E+00  0.45593999997E+02  0.45594000000E+02  0.51100000000E-03 0.  1.
         11   -1    0    0    0    0 -0.00000000000E+00 -0.00000000000E+00 -0.45593999997E+02  0.45594000000E+02  0.51100000000E-03 0. -1.
    9900012    2    1    2    0    0 -0.29508207112E+02  0.21379751211E+02  0.18037124227E+02  0.50528857126E+02  0.29999991722E+02 0.  0.
         12    1    1    2    0    0  0.29508207112E+02 -0.21379751211E+02 -0.18037124227E+02  0.40659142874E+02  0.00000000000E+00 0. -1.
         11    1    3    3    0    0 -0.67117737865E+01  0.89803175571E+01 -0.19525100078E+01  0.11380083760E+02  0.51100000000E-03 0. -1.
        -11    1    3    3    0    0 -0.24453514082E+02  0.16301448069E+02  0.16884521986E+02  0.33893932246E+02  0.51100000000E-03 0.  1.
         12    1    3    3    0    0  0.16570807557E+01 -0.39020144157E+01  0.31051122488E+01  0.52548411212E+01  0.00000000000E+00 0. -1.
</event>
<event>
 7    1  0.6462830E-013  0.5052886E+02  0.7816164E-02  0.1300439E+00
        -11   -1    0    0    0    0  0.00000000000E+00  0.00000000000E+00  0.45593999997E+02  0.45594000000E+02  0.51100000000E-03 0. -1.
         11   -1    0    0    0    0 -0.00000000000E+00 -0.00000000000E+00 -0.45593999997E+02  0.45594000000E+02  0.51100000000E-03 0.  1.
    9900012    2    1    2    0    0 -0.16069591380E+02  0.32455662578E+02  0.18481449375E+02  0.50528858697E+02  0.29999996495E+02 0.  0.
         12    1    1    2    0    0  0.16069591380E+02 -0.32455662578E+02 -0.18481449375E+02  0.40659141303E+02  0.00000000000E+00 0. -1.
         11    1    3    3    0    0 -0.25343650479E+01 -0.17259534387E+01 -0.33473852386E+01  0.45394834139E+01  0.51100000000E-03 0. -1.
        -11    1    3    3    0    0 -0.79782063470E+01  0.98719712132E+01 -0.23199820867E+00  0.12694936612E+02  0.51100000000E-03 0.  1.
        -12    1    3    3    0    0 -0.55570199853E+01  0.24309644804E+02  0.22060832822E+02  0.33294438671E+02  0.00000000000E+00 0.  1.
</event>
<event>
 7    1  0.6462830E-013  0.5052887E+02  0.7816164E-02  0.1300439E+00
        -11   -1    0    0    0    0  0.00000000000E+00  0.00000000000E+00  0.45593999997E+02  0.45594000000E+02  0.51100000000E-03 0.  1.
         11   -1    0    0    0    0 -0.00000000000E+00 -0.00000000000E+00 -0.45593999997E+02  0.45594000000E+02  0.51100000000E-03 0. -1.
    9900012    2    1    2    0    0 -0.28459478667E+02 -0.21683962207E+02  0.19313954643E+02  0.50528868346E+02  0.30000025824E+02 0.  0.
         12    1    1    2    0    0  0.28459478667E+02  0.21683962207E+02 -0.19313954643E+02  0.40659131654E+02  0.00000000000E+00 0. -1.
         11    1    3    3    0    0 -0.31705921777E+01  0.52503836942E+01  0.68209670620E+00  0.61712591804E+01  0.51100000000E-03 0. -1.
        -11    1    3    3    0    0 -0.16526287594E+02 -0.12184829183E+02  0.22829783246E+01  0.20659144081E+02  0.51100000000E-03 0.  1.
        -12    1    3    3    0    0 -0.87625988946E+01 -0.14749516717E+02  0.16348879612E+02  0.23698465084E+02  0.00000000000E+00 0.  1.
</event>
<event>
 7    1  0.6462830E-013  0.5052886E+02  0.7816164E-02  0.1300439E+00
        -11   -1    0    0    0    0  0.00000000000E+00  0.00000000000E+00  0.45593999997E+02  0.45594000000E+02  0.51100000000E-03 0.  1.
         11   -1    0    0    0    0 -0.00000000000E+00 -0.00000000000E+00 -0.45593999997E+02  0.45594000000E+02  0.51100000000E-03 0. -1.
    9900012    2    1    2    0    0  0.22203186415E+02  0.11522239624E+02  0.32053424301E+02  0.50528862007E+02  0.30000006556E+02 0.  0.
         12    1    1    2    0    0 -0.22203186415E+02 -0.11522239624E+02 -0.32053424301E+02  0.40659137993E+02  0.00000000000E+00 0. -1.
         11    1    3    3    0    0  0.86318690778E+00  0.20740569216E+01  0.26032703758E+01  0.34385782909E+01  0.51100000000E-03 0.  1.
        -11    1    3    3    0    0 -0.34633802798E+01  0.11242569824E+02  0.77683433298E+01  0.14097430176E+02  0.51100000000E-03 0. -1.
         12    1    3    3    0    0  0.24803379787E+02 -0.17943871218E+01  0.21681810596E+02  0.32992853540E+02  0.00000000000E+00 0. -1.
</event>
<event>
 7    1  0.6462830E-013  0.5052885E+02  0.7816164E-02  0.1300439E+00
        -11   -1    0    0    0    0  0.00000000000E+00  0.00000000000E+00  0.45593999997E+02  0.45594000000E+02  0.51100000000E-03 0. -1.
         11   -1    0    0    0    0 -0.00000000000E+00 -0.00000000000E+00 -0.45593999997E+02  0.45594000000E+02  0.51100000000E-03 0.  1.
    9900012    2    1    2    0    0 -0.17899450531E+02 -0.33763266496E+02  0.13885891856E+02  0.50528849906E+02  0.29999969773E+02 0.  0.
         12    1    1    2    0    0  0.17899450531E+02  0.33763266496E+02 -0.13885891856E+02  0.40659150094E+02  0.00000000000E+00 0. -1.
         11    1    3    3    0    0 -0.10435386005E+02 -0.14430757700E+02  0.18924045923E+02  0.25985833895E+02  0.51100000000E-03 0. -1.
        -11    1    3    3    0    0  0.94906271785E+00 -0.45287390330E+01  0.32015696055E+01  0.56267437716E+01  0.51100000000E-03 0.  1.
        -12    1    3    3    0    0 -0.84131272445E+01 -0.14803769763E+02 -0.82397236726E+01  0.18916272239E+02  0.00000000000E+00 0.  1.
</event>
<event>
 7    1  0.6462830E-013  0.5052886E+02  0.7816164E-02  0.1300439E+00
        -11   -1    0    0    0    0  0.00000000000E+00  0.00000000000E+00  0.45593999997E+02  0.45594000000E+02  0.51100000000E-03 0.  1.
         11   -1    0    0    0    0 -0.00000000000E+00 -0.00000000000E+00 -0.45593999997E+02  0.45594000000E+02  0.51100000000E-03 0. -1.
    9900012    2    1    2    0    0  0.70492368584E+01  0.24786958091E+02  0.31449654007E+02  0.50528858730E+02  0.29999996594E+02 0.  0.
         12    1    1    2    0    0 -0.70492368584E+01 -0.24786958091E+02 -0.31449654007E+02  0.40659141270E+02  0.00000000000E+00 0. -1.
         11    1    3    3    0    0  0.27092179235E+01  0.65266732286E+01  0.23496776455E+02  0.24536418427E+02  0.51100000000E-03 0.  1.
        -11    1    3    3    0    0 -0.46094741171E+01  0.22864695902E+00  0.15356885137E+01  0.48639357048E+01  0.51100000000E-03 0. -1.
        -12    1    3    3    0    0  0.89494930521E+01  0.18031637903E+02  0.64171890378E+01  0.21128504597E+02  0.00000000000E+00 0.  1.
</event>
<event>
 7    1  0.6462830E-013  0.5052886E+02  0.7816164E-02  0.1300439E+00
        -11   -1    0    0    0    0  0.00000000000E+00  0.00000000000E+00  0.45593999997E+02  0.45594000000E+02  0.51100000000E-03 0. -1.
         11   -1    0    0    0    0 -0.00000000000E+00 -0.00000000000E+00 -0.45593999997E+02  0.45594000000E+02  0.51100000000E-03 0.  1.
    9900012    2    1    2    0    0 -0.33412827639E+02 -0.14195893145E+02 -0.18309146851E+02  0.50528864601E+02  0.30000014440E+02 0.  0.
         12    1    1    2    0    0  0.33412827639E+02  0.14195893145E+02  0.18309146851E+02  0.40659135399E+02  0.00000000000E+00 0. -1.
         11    1    3    3    0    0 -0.19554158749E+02 -0.15529272900E+02 -0.11229694595E+02  0.27379362340E+02  0.51100000000E-03 0. -1.
        -11    1    3    3    0    0 -0.27082109173E+01 -0.29275452631E+01  0.48461846182E+01  0.62761798297E+01  0.51100000000E-03 0.  1.
         12    1    3    3    0    0 -0.11150457973E+02  0.42609250177E+01 -0.11925636874E+02  0.16873322431E+02  0.00000000000E+00 0. -1.
</event>
<event>
 7    1  0.6462830E-013  0.5052886E+02  0.7816164E-02  0.1300439E+00
        -11   -1    0    0    0    0  0.00000000000E+00  0.00000000000E+00  0.45593999997E+02  0.45594000000E+02  0.51100000000E-03 0. -1.
         11   -1    0    0    0    0 -0.00000000000E+00 -0.00000000000E+00 -0.45593999997E+02  0.45594000000E+02  0.51100000000E-03 0.  1.
    9900012    2    1    2    0    0  0.39345076626E+02 -0.56001582400E+01 -0.85888916911E+01  0.50528857271E+02  0.29999992161E+02 0.  0.
         12    1    1    2    0    0 -0.39345076626E+02  0.56001582400E+01  0.85888916911E+01  0.40659142729E+02  0.00000000000E+00 0. -1.
         11    1    3    3    0    0  0.11734362645E+01  0.69732030336E+01 -0.93880635583E+00  0.71332931280E+01  0.51100000000E-03 0. -1.
        -11    1    3    3    0    0  0.18552392311E+02 -0.97464578510E+00  0.19191496076E+01  0.18676839410E+02  0.51100000000E-03 0.  1.
         12    1    3    3    0    0  0.19619248050E+02 -0.11598715488E+02 -0.95692349429E+01  0.24718724733E+02  0.00000000000E+00 0. -1.
</event>
<event>
 7    1  0.6462830E-013  0.5052886E+02  0.7816164E-02  0.1300439E+00
        -11   -1    0    0    0    0  0.00000000000E+00  0.00000000000E+00  0.45593999997E+02  0.45594000000E+02  0.51100000000E-03 0.  1.
         11   -1    0    0    0    0 -0.00000000000E+00 -0.00000000000E+00 -0.45593999997E+02  0.45594000000E+02  0.51100000000E-03 0. -1.
    9900012    2    1    2    0    0 -0.38627041942E+02 -0.75135413991E+00  0.12670927652E+02  0.50528864375E+02  0.30000013755E+02 0.  0.
         12    1    1    2    0    0  0.38627041942E+02  0.75135413991E+00 -0.12670927652E+02  0.40659135625E+02  0.00000000000E+00 0. -1.
         11    1    3    3    0    0 -0.95376171139E+01  0.11028145308E+02  0.33062070361E+01  0.14950489436E+02  0.51100000000E-03 0. -1.
        -11    1    3    3    0    0 -0.11296361399E+02  0.54477405805E-01 -0.18472987326E+01  0.11446539281E+02  0.51100000000E-03 0.  1.
        -12    1    3    3    0    0 -0.17793063428E+02 -0.11833976854E+02  0.11212019349E+02  0.24131835658E+02  0.00000000000E+00 0.  1.
</event>
<event>
 7    1  0.6462830E-013  0.5052886E+02  0.7816164E-02  0.1300439E+00
        -11   -1    0    0    0    0  0.00000000000E+00  0.00000000000E+00  0.45593999997E+02  0.45594000000E+02  0.51100000000E-03 0.  1.
         11   -1    0    0    0    0 -0.00000000000E+00 -0.00000000000E+00 -0.45593999997E+02  0.45594000000E+02  0.51100000000E-03 0. -1.
    9900012    2    1    2    0    0  0.22092274461E+02 -0.14078486694E+02 -0.31094913023E+02  0.50528855956E+02  0.29999988164E+02 0.  0.
         12    1    1    2    0    0 -0.22092274461E+02  0.14078486694E+02  0.31094913023E+02  0.40659144044E+02  0.00000000000E+00 0. -1.
         11    1    3    3    0    0 -0.38810514453E+01 -0.53134932702E+01 -0.90685410429E+01  0.11204204923E+02  0.51100000000E-03 0. -1.
        -11    1    3    3    0    0  0.10752872431E+02 -0.13249490808E+01  0.83934282893E+00  0.10866657823E+02  0.51100000000E-03 0.  1.
         12    1    3    3    0    0  0.15220453475E+02 -0.74400443434E+01 -0.22865714809E+02  0.28457993210E+02  0.00000000000E+00 0. -1.
</event>
<event>
 7    1  0.6462830E-013  0.5052886E+02  0.7816164E-02  0.1300439E+00
        -11   -1    0    0    0    0  0.00000000000E+00  0.00000000000E+00  0.45593999997E+02  0.45594000000E+02  0.51100000000E-03 0.  1.
         11   -1    0    0    0    0 -0.00000000000E+00 -0.00000000000E+00 -0.45593999997E+02  0.45594000000E+02  0.51100000000E-03 0. -1.
    9900012    2    1    2    0    0  0.90585819857E+01  0.18013361516E+02  0.35307595088E+02  0.50528863615E+02  0.30000011443E+02 0.  0.
         12    1    1    2    0    0 -0.90585819857E+01 -0.18013361516E+02 -0.35307595088E+02  0.40659136385E+02  0.00000000000E+00 0. -1.
         11    1    3    3    0    0  0.55524695138E+01  0.10607965270E+02  0.17894344957E+02  0.21530592806E+02  0.51100000000E-03 0. -1.
        -11    1    3    3    0    0  0.64657404848E+01 -0.15653269959E+01  0.18337409391E+02  0.19506835522E+02  0.51100000000E-03 0.  1.
         12    1    3    3    0    0 -0.29596280129E+01  0.89707232426E+01 -0.92415926065E+00  0.94914352871E+01  0.00000000000E+00 0. -1.
</event>
<event>
 7    1  0.6462830E-013  0.5052886E+02  0.7816164E-02  0.1300439E+00
        -11   -1    0    0    0    0  0.00000000000E+00  0.00000000000E+00  0.45593999997E+02  0.45594000000E+02  0.51100000000E-03 0. -1.
         11   -1    0    0    0    0 -0.00000000000E+00 -0.00000000000E+00 -0.45593999997E+02  0.45594000000E+02  0.51100000000E-03 0.  1.
    9900012    2    1    2    0    0  0.34415012410E+02  0.19821405850E+02 -0.87111791628E+01  0.50528857713E+02  0.29999993506E+02 0.  0.
         12    1    1    2    0    0 -0.34415012410E+02 -0.19821405850E+02  0.87111791628E+01  0.40659142287E+02  0.00000000000E+00 0. -1.
         11    1    3    3    0    0  0.32163394668E+01  0.60522138977E+00  0.49177480493E+01  0.59072310463E+01  0.51100000000E-03 0. -1.
        -11    1    3    3    0    0  0.10802141526E+01  0.10850808443E+02 -0.11528289555E+01  0.10965214149E+02  0.51100000000E-03 0.  1.
        -12    1    3    3    0    0  0.30118458791E+02  0.83653760176E+01 -0.12476098257E+02  0.33656412518E+02  0.00000000000E+00 0.  1.
</event>
<event>
 7    1  0.6462830E-013  0.5052887E+02  0.7816164E-02  0.1300439E+00
        -11   -1    0    0    0    0  0.00000000000E+00  0.00000000000E+00  0.45593999997E+02  0.45594000000E+02  0.51100000000E-03 0.  1.
         11   -1    0    0    0    0 -0.00000000000E+00 -0.00000000000E+00 -0.45593999997E+02  0.45594000000E+02  0.51100000000E-03 0. -1.
    9900012    2    1    2    0    0  0.38559549402E+02  0.11260364729E+02 -0.62873358274E+01  0.50528865040E+02  0.30000015774E+02 0.  0.
         12    1    1    2    0    0 -0.38559549402E+02 -0.11260364729E+02  0.62873358274E+01  0.40659134960E+02  0.00000000000E+00 0. -1.
         11    1    3    3    0    0  0.10433319616E+02 -0.22670901874E+01 -0.86699352553E+01  0.13753604390E+02  0.51100000000E-03 0. -1.
        -11    1    3    3    0    0  0.19561861067E+02  0.11400782013E+02 -0.71899734718E+01  0.23755840496E+02  0.51100000000E-03 0.  1.
         12    1    3    3    0    0  0.85643687192E+01  0.21266729036E+01  0.95725728997E+01  0.13019420153E+02  0.00000000000E+00 0. -1.
</event>
<event>
 7    1  0.6462830E-013  0.5052885E+02  0.7816164E-02  0.1300439E+00
        -11   -1    0    0    0    0  0.00000000000E+00  0.00000000000E+00  0.45593999997E+02  0.45594000000E+02  0.51100000000E-03 0.  1.
         11   -1    0    0    0    0 -0.00000000000E+00 -0.00000000000E+00 -0.45593999997E+02  0.45594000000E+02  0.51100000000E-03 0. -1.
    9900012    2    1    2    0    0 -0.31787918186E+02 -0.10417542112E+02  0.23112103091E+02  0.50528852990E+02  0.29999979150E+02 0.  0.
         12    1    1    2    0    0  0.31787918186E+02  0.10417542112E+02 -0.23112103091E+02  0.40659147010E+02  0.00000000000E+00 0. -1.
         11    1    3    3    0    0 -0.21197795586E+01 -0.37297357035E+01 -0.43707235093E+01  0.61243463366E+01  0.51100000000E-03 0. -1.
        -11    1    3    3    0    0 -0.52854852916E+01 -0.62959754635E+01  0.14770958048E+02  0.16904344522E+02  0.51100000000E-03 0.  1.
         12    1    3    3    0    0 -0.24382653336E+02 -0.39183094519E+00  0.12711868553E+02  0.27500162132E+02  0.00000000000E+00 0. -1.
</event>
<event>
 7    1  0.6462830E-013  0.5052887E+02  0.7816164E-02  0.1300439E+00
        -11   -1    0    0    0    0  0.00000000000E+00  0.00000000000E+00  0.45593999997E+02  0.45594000000E+02  0.51100000000E-03 0.  1.
         11   -1    0    0    0    0 -0.00000000000E+00 -0.00000000000E+00 -0.45593999997E+02  0.45594000000E+02  0.51100000000E-03 0. -1.
    9900012    2    1    2    0    0  0.22741867027E+02  0.32617644340E+02 -0.84889345437E+01  0.50528865137E+02  0.30000016069E+02 0.  0.
         12    1    1    2    0    0 -0.22741867027E+02 -0.32617644340E+02  0.84889345437E+01  0.40659134863E+02  0.00000000000E+00 0. -1.
         11    1    3    3    0    0  0.43173286682E+01  0.11431048006E+01 -0.46033501912E+01  0.64138014203E+01  0.51100000000E-03 0. -1.
        -11    1    3    3    0    0 -0.13545687169E+01  0.18387333077E+02 -0.79044514597E+01  0.20060140260E+02  0.51100000000E-03 0.  1.
        -12    1    3    3    0    0  0.19779107075E+02  0.13087206462E+02  0.40188671072E+01  0.24054923457E+02  0.00000000000E+00 0.  1.
</event>
<event>
 7    1  0.6462830E-013  0.5052886E+02  0.7816164E-02  0.1300439E+00
        -11   -1    0    0    0    0  0.00000000000E+00  0.00000000000E+00  0.45593999997E+02  0.45594000000E+02  0.51100000000E-03 0.  1.
         11   -1    0    0    0    0 -0.00000000000E+00 -0.00000000000E+00 -0.45593999997E+02  0.45594000000E+02  0.51100000000E-03 0. -1.
    9900012    2    1    2    0    0 -0.17152190699E+02 -0.35761880391E+02 -0.89474127256E+01  0.50528856755E+02  0.29999990594E+02 0.  0.
         12    1    1    2    0    0  0.17152190699E+02  0.35761880391E+02  0.89474127256E+01  0.40659143245E+02  0.00000000000E+00 0. -1.
         11    1    3    3    0    0 -0.99251113627E+01 -0.83608994717E+00 -0.21138245163E+01  0.10182098817E+02  0.51100000000E-03 0. -1.
        -11    1    3    3    0    0  0.37489974456E+01 -0.42043030312E+01  0.28548380806E+01  0.63151600575E+01  0.51100000000E-03 0.  1.
        -12    1    3    3    0    0 -0.10976076782E+02 -0.30721487413E+02 -0.96884262898E+01  0.34031597881E+02  0.00000000000E+00 0.  1.
</event>
<event>
 7    1  0.6462830E-013  0.5052886E+02  0.7816164E-02  0.1300439E+00
        -11   -1    0    0    0    0  0.00000000000E+00  0.00000000000E+00  0.45593999997E+02  0.45594000000E+02  0.51100000000E-03 0.  1.
         11   -1    0    0    0    0 -0.00000000000E+00 -0.00000000000E+00 -0.45593999997E+02  0.45594000000E+02  0.51100000000E-03 0. -1.
    9900012    2    1    2    0    0  0.68035133104E+00  0.21416383910E+02  0.34554903180E+02  0.50528859435E+02  0.29999998739E+02 0.  0.
         12    1    1    2    0    0 -0.68035133104E+00 -0.21416383910E+02 -0.34554903180E+02  0.40659140565E+02  0.00000000000E+00 0. -1.
         11    1    3    3    0    0  0.54449615895E+01 -0.33483288494E+01  0.87676975321E+01  0.10850411654E+02  0.51100000000E-03 0. -1.
        -11    1    3    3    0    0 -0.67681380013E+01  0.10958369830E+02  0.34355560926E+01  0.13330289091E+02  0.51100000000E-03 0.  1.
         12    1    3    3    0    0  0.20035277429E+01  0.13806342930E+02  0.22351649555E+02  0.26348158690E+02  0.00000000000E+00 0. -1.
</event>
<event>
 7    1  0.6462830E-013  0.5052887E+02  0.7816164E-02  0.1300439E+00
        -11   -1    0    0    0    0  0.00000000000E+00  0.00000000000E+00  0.45593999997E+02  0.45594000000E+02  0.51100000000E-03 0.  1.
         11   -1    0    0    0    0 -0.00000000000E+00 -0.00000000000E+00 -0.45593999997E+02  0.45594000000E+02  0.51100000000E-03 0. -1.
    9900012    2    1    2    0    0  0.29138976575E+02 -0.81090551581E+00  0.28344790481E+02  0.50528872230E+02  0.30000037630E+02 0.  0.
         12    1    1    2    0    0 -0.29138976575E+02  0.81090551581E+00 -0.28344790481E+02  0.40659127770E+02  0.00000000000E+00 0. -1.
         11    1    3    3    0    0  0.19912831070E+01  0.18233969696E+01 -0.16047651698E+01  0.31409005767E+01  0.51100000000E-03 0. -1.
        -11    1    3    3    0    0  0.20199205617E+02 -0.75832536331E+01  0.66523546620E+01  0.22578030606E+02  0.51100000000E-03 0.  1.
         12    1    3    3    0    0  0.69484878513E+01  0.49489511477E+01  0.23297200989E+02  0.24809941048E+02  0.00000000000E+00 0. -1.
</event>
<event>
 7    1  0.6462830E-013  0.5052888E+02  0.7816164E-02  0.1300439E+00
        -11   -1    0    0    0    0  0.00000000000E+00  0.00000000000E+00  0.45593999997E+02  0.45594000000E+02  0.51100000000E-03 0.  1.
         11   -1    0    0    0    0 -0.00000000000E+00 -0.00000000000E+00 -0.45593999997E+02  0.45594000000E+02  0.51100000000E-03 0. -1.
    9900012    2    1    2    0    0  0.12966284433E+01 -0.36348794280E+02 -0.18172724190E+02  0.50528880538E+02  0.30000062883E+02 0.  0.
         12    1    1    2    0    0 -0.12966284433E+01  0.36348794280E+02  0.18172724190E+02  0.40659119462E+02  0.00000000000E+00 0. -1.
         11    1    3    3    0    0 -0.81235200937E+01 -0.17846885505E+02 -0.17016728455E+02  0.25962895611E+02  0.51100000000E-03 0.  1.
        -11    1    3    3    0    0  0.60535520109E+01 -0.27348926949E+01 -0.45998579887E+01  0.80798405788E+01  0.51100000000E-03 0. -1.
        -12    1    3    3    0    0  0.33665965261E+01 -0.15767016081E+02  0.34438622535E+01  0.16486144349E+02  0.00000000000E+00 0.  1.
</event>
<event>
 7    1  0.6462830E-013  0.5052887E+02  0.7816164E-02  0.1300439E+00
        -11   -1    0    0    0    0  0.00000000000E+00  0.00000000000E+00  0.45593999997E+02  0.45594000000E+02  0.51100000000E-03 0.  1.
         11   -1    0    0    0    0 -0.00000000000E+00 -0.00000000000E+00 -0.45593999997E+02  0.45594000000E+02  0.51100000000E-03 0. -1.
    9900012    2    1    2    0    0  0.36018820966E+02  0.30056944475E+01  0.18621894175E+02  0.50528873035E+02  0.30000040077E+02 0.  0.
         12    1    1    2    0    0 -0.36018820966E+02 -0.30056944475E+01 -0.18621894175E+02  0.40659126965E+02  0.00000000000E+00 0. -1.
         11    1    3    3    0    0  0.12996799950E+02  0.70215485106E+01  0.31923375231E+01  0.15113238288E+02  0.51100000000E-03 0. -1.
        -11    1    3    3    0    0  0.58317772490E+01  0.85620587684E+01  0.70265563846E+01  0.12517626417E+02  0.51100000000E-03 0.  1.
         12    1    3    3    0    0  0.17190243767E+02 -0.12577912832E+02  0.84030002677E+01  0.22898008330E+02  0.00000000000E+00 0. -1.
</event>
<event>
 7    1  0.6462830E-013  0.5052886E+02  0.7816164E-02  0.1300439E+00
        -11   -1    0    0    0    0  0.00000000000E+00  0.00000000000E+00  0.45593999997E+02  0.45594000000E+02  0.51100000000E-03 0.  1.
         11   -1    0    0    0    0 -0.00000000000E+00 -0.00000000000E+00 -0.45593999997E+02  0.45594000000E+02  0.51100000000E-03 0. -1.
    9900012    2    1    2    0    0 -0.15401238350E+02 -0.46310274790E+01  0.37343292534E+02  0.50528855205E+02  0.29999985881E+02 0.  0.
         12    1    1    2    0    0  0.15401238350E+02  0.46310274790E+01 -0.37343292534E+02  0.40659144795E+02  0.00000000000E+00 0. -1.
         11    1    3    3    0    0 -0.62829518239E+01 -0.52481175320E+01  0.18485590923E+02  0.20217202905E+02  0.51100000000E-03 0. -1.
        -11    1    3    3    0    0 -0.66047312256E+01 -0.93420403749E+01  0.15963981084E+02  0.19640389132E+02  0.51100000000E-03 0.  1.
         12    1    3    3    0    0 -0.25135553001E+01  0.99591304279E+01  0.28937205267E+01  0.10671263169E+02  0.00000000000E+00 0. -1.
</event>
<event>
 7    1  0.6462830E-013  0.5052886E+02  0.7816164E-02  0.1300439E+00
        -11   -1    0    0    0    0  0.00000000000E+00  0.00000000000E+00  0.45593999997E+02  0.45594000000E+02  0.51100000000E-03 0. -1.
         11   -1    0    0    0    0 -0.00000000000E+00 -0.00000000000E+00 -0.45593999997E+02  0.45594000000E+02  0.51100000000E-03 0.  1.
    9900012    2    1    2    0    0  0.29355739620E+02  0.18109553488E+02 -0.21527889882E+02  0.50528863032E+02  0.30000009673E+02 0.  0.
         12    1    1    2    0    0 -0.29355739620E+02 -0.18109553488E+02  0.21527889882E+02  0.40659136968E+02  0.00000000000E+00 0. -1.
         11    1    3    3    0    0 -0.11724774352E+01  0.76984694879E+01  0.30410653398E+01  0.83599769410E+01  0.51100000000E-03 0.  1.
        -11    1    3    3    0    0  0.17490523122E+02  0.77482478075E+01 -0.75515400869E+01  0.20566465450E+02  0.51100000000E-03 0. -1.
        -12    1    3    3    0    0  0.13037693934E+02  0.26628361925E+01 -0.17017415135E+02  0.21602420641E+02  0.00000000000E+00 0.  1.
</event>
<event>
 7    1  0.6462830E-013  0.5052886E+02  0.7816164E-02  0.1300439E+00
        -11   -1    0    0    0    0  0.00000000000E+00  0.00000000000E+00  0.45593999997E+02  0.45594000000E+02  0.51100000000E-03 0. -1.
         11   -1    0    0    0    0 -0.00000000000E+00 -0.00000000000E+00 -0.45593999997E+02  0.45594000000E+02  0.51100000000E-03 0.  1.
    9900012    2    1    2    0    0 -0.26270377927E+02  0.23883716688E+02 -0.19814163975E+02  0.50528858675E+02  0.29999996427E+02 0.  0.
         12    1    1    2    0    0  0.26270377927E+02 -0.23883716688E+02  0.19814163975E+02  0.40659141325E+02  0.00000000000E+00 0. -1.
         11    1    3    3    0    0  0.35710137217E+01  0.59534526781E+01 -0.13772186119E+01  0.70776033484E+01  0.51100000000E-03 0. -1.
        -11    1    3    3    0    0 -0.89557564895E+01  0.12389120308E+02 -0.15279023227E+02  0.21613524176E+02  0.51100000000E-03 0.  1.
        -12    1    3    3    0    0 -0.20885635160E+02  0.55411437023E+01 -0.31579221364E+01  0.21837731150E+02  0.00000000000E+00 0.  1.
</event>
<event>
 7    1  0.6462830E-013  0.5052886E+02  0.7816164E-02  0.1300439E+00
        -11   -1    0    0    0    0  0.00000000000E+00  0.00000000000E+00  0.45593999997E+02  0.45594000000E+02  0.51100000000E-03 0.  1.
         11   -1    0    0    0    0 -0.00000000000E+00 -0.00000000000E+00 -0.45593999997E+02  0.45594000000E+02  0.51100000000E-03 0. -1.
    9900012    2    1    2    0    0  0.21721108288E+02 -0.15422254891E+02  0.30716663742E+02  0.50528856839E+02  0.29999990847E+02 0.  0.
         12    1    1    2    0    0 -0.21721108288E+02  0.15422254891E+02 -0.30716663742E+02  0.40659143161E+02  0.00000000000E+00 0. -1.
         11    1    3    3    0    0  0.12983644826E+02 -0.51916448204E+01  0.10295988962E+01  0.14020994367E+02  0.51100000000E-03 0. -1.
        -11    1    3    3    0    0  0.18599432627E+01 -0.12953395955E+02  0.13996703576E+02  0.19161356084E+02  0.51100000000E-03 0.  1.
        -12    1    3    3    0    0  0.68775201990E+01  0.27227858849E+01  0.15690361270E+02  0.17346506388E+02  0.00000000000E+00 0.  1.
</event>
<event>
 7    1  0.6462830E-013  0.5052883E+02  0.7816164E-02  0.1300439E+00
        -11   -1    0    0    0    0  0.00000000000E+00  0.00000000000E+00  0.45593999997E+02  0.45594000000E+02  0.51100000000E-03 0. -1.
         11   -1    0    0    0    0 -0.00000000000E+00 -0.00000000000E+00 -0.45593999997E+02  0.45594000000E+02  0.51100000000E-03 0.  1.
    9900012    2    1    2    0    0 -0.14374019771E+02 -0.32601394675E+02  0.19588383846E+02  0.50528829314E+02  0.29999907183E+02 0.  0.
         12    1    1    2    0    0  0.14374019771E+02  0.32601394675E+02 -0.19588383846E+02  0.40659170686E+02  0.00000000000E+00 0. -1.
         11    1    3    3    0    0 -0.43081012180E+01 -0.30157554057E+01 -0.63937111153E+01  0.82785299938E+01  0.51100000000E-03 0. -1.
        -11    1    3    3    0    0  0.23675586337E+01 -0.83722413429E+01  0.60430859440E+01  0.10593330306E+02  0.51100000000E-03 0.  1.
        -12    1    3    3    0    0 -0.12433477187E+02 -0.21213397927E+02  0.19939009018E+02  0.31656969014E+02  0.00000000000E+00 0.  1.
</event>
<event>
 7    1  0.6462830E-013  0.5052885E+02  0.7816164E-02  0.1300439E+00
        -11   -1    0    0    0    0  0.00000000000E+00  0.00000000000E+00  0.45593999997E+02  0.45594000000E+02  0.51100000000E-03 0. -1.
         11   -1    0    0    0    0 -0.00000000000E+00 -0.00000000000E+00 -0.45593999997E+02  0.45594000000E+02  0.51100000000E-03 0.  1.
    9900012    2    1    2    0    0 -0.31890793307E+02  0.24101760378E+02  0.74329405022E+01  0.50528853974E+02  0.29999982138E+02 0.  0.
         12    1    1    2    0    0  0.31890793307E+02 -0.24101760378E+02 -0.74329405022E+01  0.40659146026E+02  0.00000000000E+00 0. -1.
         11    1    3    3    0    0 -0.18103648910E+01  0.15265072322E+02  0.47341151146E+01  0.16084517407E+02  0.51100000000E-03 0. -1.
        -11    1    3    3    0    0 -0.11047720199E+02  0.66795277860E+01  0.71803947103E+01  0.14772483931E+02  0.51100000000E-03 0.  1.
        -12    1    3    3    0    0 -0.19032708218E+02  0.21571602700E+01 -0.44815693227E+01  0.19671852636E+02  0.00000000000E+00 0.  1.
</event>
<event>
 7    1  0.6462830E-013  0.5052886E+02  0.7816164E-02  0.1300439E+00
        -11   -1    0    0    0    0  0.00000000000E+00  0.00000000000E+00  0.45593999997E+02  0.45594000000E+02  0.51100000000E-03 0. -1.
         11   -1    0    0    0    0 -0.00000000000E+00 -0.00000000000E+00 -0.45593999997E+02  0.45594000000E+02  0.51100000000E-03 0.  1.
    9900012    2    1    2    0    0 -0.16566423410E+02 -0.32846765922E+02 -0.17315009808E+02  0.50528856123E+02  0.29999988672E+02 0.  0.
         12    1    1    2    0    0  0.16566423410E+02  0.32846765922E+02  0.17315009808E+02  0.40659143877E+02  0.00000000000E+00 0. -1.
         11    1    3    3    0    0 -0.14676075496E+02 -0.20006895354E+02 -0.14298682886E+02  0.28637656786E+02  0.51100000000E-03 0. -1.
        -11    1    3    3    0    0 -0.79092980657E-01 -0.92361430799E+01 -0.10133070934E+02  0.13711007312E+02  0.51100000000E-03 0.  1.
        -12    1    3    3    0    0 -0.18112549336E+01 -0.36037274887E+01  0.71167440119E+01  0.81801920257E+01  0.00000000000E+00 0.  1.
</event>
<event>
 7    1  0.6462830E-013  0.5052886E+02  0.7816164E-02  0.1300439E+00
        -11   -1    0    0    0    0  0.00000000000E+00  0.00000000000E+00  0.45593999997E+02  0.45594000000E+02  0.51100000000E-03 0.  1.
         11   -1    0    0    0    0 -0.00000000000E+00 -0.00000000000E+00 -0.45593999997E+02  0.45594000000E+02  0.51100000000E-03 0. -1.
    9900012    2    1    2    0    0  0.16179237212E+02 -0.27686858495E+02  0.24996717526E+02  0.50528859119E+02  0.29999997778E+02 0.  0.
         12    1    1    2    0    0 -0.16179237212E+02  0.27686858495E+02 -0.24996717526E+02  0.40659140881E+02  0.00000000000E+00 0. -1.
         11    1    3    3    0    0  0.27064906917E+01  0.18959105270E+01 -0.42610132178E+00  0.33318360086E+01  0.51100000000E-03 0. -1.
        -11    1    3    3    0    0  0.62257148107E+01 -0.10095672039E+02  0.23492100091E+02  0.26316551555E+02  0.51100000000E-03 0.  1.
        -12    1    3    3    0    0  0.72470317100E+01 -0.19487096983E+02  0.19307187568E+01  0.20880471555E+02  0.00000000000E+00 0.  1.
</event>
<event>
 7    1  0.6462830E-013  0.5052887E+02  0.7816164E-02  0.1300439E+00
        -11   -1    0    0    0    0  0.00000000000E+00  0.00000000000E+00  0.45593999997E+02  0.45594000000E+02  0.51100000000E-03 0.  1.
         11   -1    0    0    0    0 -0.00000000000E+00 -0.00000000000E+00 -0.45593999997E+02  0.45594000000E+02  0.51100000000E-03 0. -1.
    9900012    2    1    2    0    0 -0.63722194373E+01  0.30352642535E+01  0.40041818511E+02  0.50528865242E+02  0.30000016389E+02 0.  0.
         12    1    1    2    0    0  0.63722194373E+01 -0.30352642535E+01 -0.40041818511E+02  0.40659134758E+02  0.00000000000E+00 0. -1.
         11    1    3    3    0    0  0.67942372591E+01 -0.16235490295E+01  0.11491353119E+02  0.13448002385E+02  0.51100000000E-03 0.  1.
        -11    1    3    3    0    0 -0.10469733687E+02  0.12711112960E+01  0.27223409523E+01  0.10892299479E+02  0.51100000000E-03 0. -1.
         12    1    3    3    0    0 -0.26967230090E+01  0.33877019870E+01  0.25828124439E+02  0.26188563378E+02  0.00000000000E+00 0. -1.
</event>
<event>
 7    1  0.6462830E-013  0.5052887E+02  0.7816164E-02  0.1300439E+00
        -11   -1    0    0    0    0  0.00000000000E+00  0.00000000000E+00  0.45593999997E+02  0.45594000000E+02  0.51100000000E-03 0.  1.
         11   -1    0    0    0    0 -0.00000000000E+00 -0.00000000000E+00 -0.45593999997E+02  0.45594000000E+02  0.51100000000E-03 0. -1.
    9900012    2    1    2    0    0 -0.34311166026E+02 -0.10829079629E+02  0.18937781448E+02  0.50528872539E+02  0.30000038570E+02 0.  0.
         12    1    1    2    0    0  0.34311166026E+02  0.10829079629E+02 -0.18937781448E+02  0.40659127461E+02  0.00000000000E+00 0. -1.
         11    1    3    3    0    0 -0.10146722537E+02  0.54101547146E+00  0.34451145252E+00  0.10166974200E+02  0.51100000000E-03 0.  1.
        -11    1    3    3    0    0 -0.31494429760E+01  0.37210059534E+00 -0.54709986929E+01  0.63237075257E+01  0.51100000000E-03 0. -1.
         12    1    3    3    0    0 -0.21015000513E+02 -0.11742195696E+02  0.24064268688E+02  0.34038190813E+02  0.00000000000E+00 0. -1.
</event>
<event>
 7    1  0.6462830E-013  0.5052887E+02  0.7816164E-02  0.1300439E+00
        -11   -1    0    0    0    0  0.00000000000E+00  0.00000000000E+00  0.45593999997E+02  0.45594000000E+02  0.51100000000E-03 0.  1.
         11   -1    0    0    0    0 -0.00000000000E+00 -0.00000000000E+00 -0.45593999997E+02  0.45594000000E+02  0.51100000000E-03 0. -1.
    9900012    2    1    2    0    0 -0.10796441137E+01  0.26820359645E+02  0.30539601375E+02  0.50528873410E+02  0.30000041217E+02 0.  0.
         12    1    1    2    0    0  0.10796441137E+01 -0.26820359645E+02 -0.30539601375E+02  0.40659126590E+02  0.00000000000E+00 0. -1.
         11    1    3    3    0    0 -0.36141174078E+01  0.38070887794E+01  0.13518340116E+02  0.14501768490E+02  0.51100000000E-03 0.  1.
        -11    1    3    3    0    0  0.62362672835E+01 -0.13818016063E+01  0.67708344287E+01  0.93083083551E+01  0.51100000000E-03 0. -1.
        -12    1    3    3    0    0 -0.37017939894E+01  0.24395072472E+02  0.10250426831E+02  0.26718796565E+02  0.00000000000E+00 0.  1.
</event>
<event>
 7    1  0.6462830E-013  0.5052886E+02  0.7816164E-02  0.1300439E+00
        -11   -1    0    0    0    0  0.00000000000E+00  0.00000000000E+00  0.45593999997E+02  0.45594000000E+02  0.51100000000E-03 0.  1.
         11   -1    0    0    0    0 -0.00000000000E+00 -0.00000000000E+00 -0.45593999997E+02  0.45594000000E+02  0.51100000000E-03 0. -1.
    9900012    2    1    2    0    0 -0.26612415698E+02 -0.48338723003E+01  0.30357517459E+02  0.50528857646E+02  0.29999993301E+02 0.  0.
         12    1    1    2    0    0  0.26612415698E+02  0.48338723003E+01 -0.30357517459E+02  0.40659142354E+02  0.00000000000E+00 0. -1.
         11    1    3    3    0    0 -0.53832767028E+01  0.77845265902E+01  0.15259578188E+02  0.17956426399E+02  0.51100000000E-03 0. -1.
        -11    1    3    3    0    0 -0.53718314520E+01  0.21169137977E+01  0.78493802616E+01  0.97442633343E+01  0.51100000000E-03 0.  1.
        -12    1    3    3    0    0 -0.15857307543E+02 -0.14735312688E+02  0.72485590091E+01  0.22828167913E+02  0.00000000000E+00 0.  1.
</event>
<event>
 7    1  0.6462830E-013  0.5052886E+02  0.7816164E-02  0.1300439E+00
        -11   -1    0    0    0    0  0.00000000000E+00  0.00000000000E+00  0.45593999997E+02  0.45594000000E+02  0.51100000000E-03 0.  1.
         11   -1    0    0    0    0 -0.00000000000E+00 -0.00000000000E+00 -0.45593999997E+02  0.45594000000E+02  0.51100000000E-03 0. -1.
    9900012    2    1    2    0    0  0.30972926107E+02  0.16672593817E+02  0.20392853491E+02  0.50528855767E+02  0.29999987590E+02 0.  0.
         12    1    1    2    0    0 -0.30972926107E+02 -0.16672593817E+02 -0.20392853491E+02  0.40659144233E+02  0.00000000000E+00 0. -1.
         11    1    3    3    0    0  0.84823058816E+01  0.19918115016E+02  0.79184638633E+01  0.23051743732E+02  0.51100000000E-03 0. -1.
        -11    1    3    3    0    0 -0.25478971728E+00  0.94662301210E+00  0.16993519889E+01  0.19618385179E+01  0.51100000000E-03 0.  1.
        -12    1    3    3    0    0  0.22745409943E+02 -0.41921442112E+01  0.10775037639E+02  0.25515273518E+02  0.00000000000E+00 0.  1.
</event>
<event>
 7    1  0.7030852E-013  0.5052883E+02  0.7816164E-02  0.1300439E+00
        -11   -1    0    0    0    0  0.00000000000E+00  0.00000000000E+00  0.45593999997E+02  0.45594000000E+02  0.51100000000E-03 0. -1.
         11   -1    0    0    0    0 -0.00000000000E+00 -0.00000000000E+00 -0.45593999997E+02  0.45594000000E+02  0.51100000000E-03 0.  1.
    9900012    2    1    2    0    0 -0.26396275835E+02  0.14756570048E+02 -0.27178086216E+02  0.50528829965E+02  0.29999909162E+02 0.  0.
         12    1    1    2    0    0  0.26396275835E+02 -0.14756570048E+02  0.27178086216E+02  0.40659170035E+02  0.00000000000E+00 0. -1.
         11    1    3    3    0    0  0.13205744600E+01  0.58762887832E+01 -0.23279887605E+00  0.60273445518E+01  0.51100000000E-03 0. -1.
        -11    1    3    3    0    0 -0.26780156527E+02  0.13603730733E+02 -0.20138136962E+02  0.36163280189E+02  0.51100000000E-03 0.  1.
         12    1    3    3    0    0 -0.93669376833E+00 -0.47234494684E+01 -0.68071503778E+01  0.83382052243E+01  0.00000000000E+00 0. -1.
</event>
<event>
 7    1  0.6462830E-013  0.5052886E+02  0.7816164E-02  0.1300439E+00
        -11   -1    0    0    0    0  0.00000000000E+00  0.00000000000E+00  0.45593999997E+02  0.45594000000E+02  0.51100000000E-03 0.  1.
         11   -1    0    0    0    0 -0.00000000000E+00 -0.00000000000E+00 -0.45593999997E+02  0.45594000000E+02  0.51100000000E-03 0. -1.
    9900012    2    1    2    0    0  0.30364350245E+02 -0.12611193459E+02  0.23919235828E+02  0.50528858237E+02  0.29999995097E+02 0.  0.
         12    1    1    2    0    0 -0.30364350245E+02  0.12611193459E+02 -0.23919235828E+02  0.40659141763E+02  0.00000000000E+00 0. -1.
         11    1    3    3    0    0  0.98763754820E+01  0.40005504324E+01  0.43485742153E+01  0.11509009271E+02  0.51100000000E-03 0. -1.
        -11    1    3    3    0    0  0.19798483226E+02 -0.46841010167E+01  0.17619385256E+02  0.26914001513E+02  0.51100000000E-03 0.  1.
        -12    1    3    3    0    0  0.68949153703E+00 -0.11927642875E+02  0.19512763571E+01  0.12105847453E+02  0.00000000000E+00 0.  1.
</event>
<event>
 7    1  0.6462830E-013  0.5052885E+02  0.7816164E-02  0.1300439E+00
        -11   -1    0    0    0    0  0.00000000000E+00  0.00000000000E+00  0.45593999997E+02  0.45594000000E+02  0.51100000000E-03 0.  1.
         11   -1    0    0    0    0 -0.00000000000E+00 -0.00000000000E+00 -0.45593999997E+02  0.45594000000E+02  0.51100000000E-03 0. -1.
    9900012    2    1    2    0    0 -0.33265591663E+02 -0.65209736264E+01  0.22450925829E+02  0.50528846586E+02  0.29999959684E+02 0.  0.
         12    1    1    2    0    0  0.33265591663E+02  0.65209736264E+01 -0.22450925829E+02  0.40659153414E+02  0.00000000000E+00 0. -1.
         11    1    3    3    0    0  0.22342928379E+01 -0.23453096784E+01  0.22159101540E+01  0.39246401166E+01  0.51100000000E-03 0. -1.
        -11    1    3    3    0    0 -0.18927236810E+02 -0.15596287298E+01 -0.16101949885E+01  0.19059524212E+02  0.51100000000E-03 0.  1.
        -12    1    3    3    0    0 -0.16572647692E+02 -0.26160352181E+01  0.21845210663E+02  0.27544682258E+02  0.00000000000E+00 0.  1.
</event>
<event>
 7    1  0.6462830E-013  0.5052886E+02  0.7816164E-02  0.1300439E+00
        -11   -1    0    0    0    0  0.00000000000E+00  0.00000000000E+00  0.45593999997E+02  0.45594000000E+02  0.51100000000E-03 0. -1.
         11   -1    0    0    0    0 -0.00000000000E+00 -0.00000000000E+00 -0.45593999997E+02  0.45594000000E+02  0.51100000000E-03 0.  1.
    9900012    2    1    2    0    0  0.39636723413E+02  0.90160919554E+01 -0.89765291024E+00  0.50528861571E+02  0.30000005232E+02 0.  0.
         12    1    1    2    0    0 -0.39636723413E+02 -0.90160919554E+01  0.89765291024E+00  0.40659138429E+02  0.00000000000E+00 0. -1.
         11    1    3    3    0    0  0.81345671965E+01 -0.47058964384E+01 -0.30514980579E+01  0.98807026785E+01  0.51100000000E-03 0. -1.
        -11    1    3    3    0    0  0.27992106334E+02  0.41662996465E+01 -0.42554078154E+01  0.28618605237E+02  0.51100000000E-03 0.  1.
        -12    1    3    3    0    0  0.35100498818E+01  0.95556887474E+01  0.64092529630E+01  0.12029553656E+02  0.00000000000E+00 0.  1.
</event>
<event>
 7    1  0.6462830E-013  0.5052886E+02  0.7816164E-02  0.1300439E+00
        -11   -1    0    0    0    0  0.00000000000E+00  0.00000000000E+00  0.45593999997E+02  0.45594000000E+02  0.51100000000E-03 0.  1.
         11   -1    0    0    0    0 -0.00000000000E+00 -0.00000000000E+00 -0.45593999997E+02  0.45594000000E+02  0.51100000000E-03 0. -1.
    9900012    2    1    2    0    0 -0.27173392694E+02  0.19780004508E+01  0.30180451155E+02  0.50528863411E+02  0.30000010824E+02 0.  0.
         12    1    1    2    0    0  0.27173392694E+02 -0.19780004508E+01 -0.30180451155E+02  0.40659136589E+02  0.00000000000E+00 0. -1.
         11    1    3    3    0    0 -0.21205538740E+02  0.82367979606E+01  0.18300171285E+02  0.29196163844E+02  0.51100000000E-03 0. -1.
        -11    1    3    3    0    0 -0.96012241923E+01 -0.67278043228E+01  0.12996388433E+02  0.17502941740E+02  0.51100000000E-03 0.  1.
         12    1    3    3    0    0  0.36333702386E+01  0.46900681300E+00 -0.11161085637E+01  0.38297578262E+01  0.00000000000E+00 0. -1.
</event>
<event>
 7    1  0.6462830E-013  0.5052886E+02  0.7816164E-02  0.1300439E+00
        -11   -1    0    0    0    0  0.00000000000E+00  0.00000000000E+00  0.45593999997E+02  0.45594000000E+02  0.51100000000E-03 0.  1.
         11   -1    0    0    0    0 -0.00000000000E+00 -0.00000000000E+00 -0.45593999997E+02  0.45594000000E+02  0.51100000000E-03 0. -1.
    9900012    2    1    2    0    0 -0.33573082234E+02 -0.46716916818E+01  0.22454161556E+02  0.50528856809E+02  0.29999990756E+02 0.  0.
         12    1    1    2    0    0  0.33573082234E+02  0.46716916818E+01 -0.22454161556E+02  0.40659143191E+02  0.00000000000E+00 0. -1.
         11    1    3    3    0    0 -0.17103199146E+02 -0.28437490611E+01 -0.41116850738E+01  0.17818874379E+02  0.51100000000E-03 0. -1.
        -11    1    3    3    0    0 -0.90309437747E+01 -0.59088483509E+00  0.61398855951E+01  0.10936420152E+02  0.51100000000E-03 0.  1.
         12    1    3    3    0    0 -0.74389393141E+01 -0.12370577856E+01  0.20425961035E+02  0.21773562278E+02  0.00000000000E+00 0. -1.
</event>
<event>
 7    1  0.6462830E-013  0.5052885E+02  0.7816164E-02  0.1300439E+00
        -11   -1    0    0    0    0  0.00000000000E+00  0.00000000000E+00  0.45593999997E+02  0.45594000000E+02  0.51100000000E-03 0.  1.
         11   -1    0    0    0    0 -0.00000000000E+00 -0.00000000000E+00 -0.45593999997E+02  0.45594000000E+02  0.51100000000E-03 0. -1.
    9900012    2    1    2    0    0 -0.35849228122E+02 -0.11754760792E+02  0.15159969691E+02  0.50528852945E+02  0.29999979011E+02 0.  0.
         12    1    1    2    0    0  0.35849228122E+02  0.11754760792E+02 -0.15159969691E+02  0.40659147055E+02  0.00000000000E+00 0. -1.
         11    1    3    3    0    0 -0.22614834807E+01 -0.33792480805E+00  0.80110292067E+01  0.83309717273E+01  0.51100000000E-03 0. -1.
        -11    1    3    3    0    0 -0.25498167537E+02 -0.12445319345E+02  0.13914986303E+02  0.31601730418E+02  0.51100000000E-03 0.  1.
         12    1    3    3    0    0 -0.80895771042E+01  0.10284833607E+01 -0.67660458185E+01  0.10596150799E+02  0.00000000000E+00 0. -1.
</event>
<event>
 7    1  0.6462830E-013  0.5052884E+02  0.7816164E-02  0.1300439E+00
        -11   -1    0    0    0    0  0.00000000000E+00  0.00000000000E+00  0.45593999997E+02  0.45594000000E+02  0.51100000000E-03 0.  1.
         11   -1    0    0    0    0 -0.00000000000E+00 -0.00000000000E+00 -0.45593999997E+02  0.45594000000E+02  0.51100000000E-03 0. -1.
    9900012    2    1    2    0    0 -0.38532426336E+02 -0.87294163360E+01  0.96029440208E+01  0.50528842080E+02  0.29999945986E+02 0.  0.
         12    1    1    2    0    0  0.38532426336E+02  0.87294163360E+01 -0.96029440208E+01  0.40659157920E+02  0.00000000000E+00 0. -1.
         11    1    3    3    0    0 -0.13853706993E+01  0.17363465304E+01  0.23023475307E+00  0.22331949200E+01  0.51100000000E-03 0.  1.
        -11    1    3    3    0    0 -0.31134788956E+02 -0.11457347777E+02  0.17991444598E+02  0.37740402494E+02  0.51100000000E-03 0. -1.
         12    1    3    3    0    0 -0.60122666805E+01  0.99158491091E+00 -0.86187353299E+01  0.10555244666E+02  0.00000000000E+00 0. -1.
</event>
<event>
 7    1  0.6462830E-013  0.5052886E+02  0.7816164E-02  0.1300439E+00
        -11   -1    0    0    0    0  0.00000000000E+00  0.00000000000E+00  0.45593999997E+02  0.45594000000E+02  0.51100000000E-03 0. -1.
         11   -1    0    0    0    0 -0.00000000000E+00 -0.00000000000E+00 -0.45593999997E+02  0.45594000000E+02  0.51100000000E-03 0.  1.
    9900012    2    1    2    0    0  0.27967666296E+02  0.16274543722E+02 -0.24619391693E+02  0.50528861067E+02  0.30000003700E+02 0.  0.
         12    1    1    2    0    0 -0.27967666296E+02 -0.16274543722E+02  0.24619391693E+02  0.40659138933E+02  0.00000000000E+00 0. -1.
         11    1    3    3    0    0  0.10302222474E+02  0.97586940632E-01 -0.11655450598E+02  0.15556183337E+02  0.51100000000E-03 0. -1.
        -11    1    3    3    0    0  0.12317181020E+02  0.18745946693E+02 -0.16697016634E+02  0.27962722157E+02  0.51100000000E-03 0.  1.
         12    1    3    3    0    0  0.53482628030E+01 -0.25689899115E+01  0.37330755384E+01  0.70099555741E+01  0.00000000000E+00 0. -1.
</event>
<event>
 7    1  0.6462830E-013  0.5052887E+02  0.7816164E-02  0.1300439E+00
        -11   -1    0    0    0    0  0.00000000000E+00  0.00000000000E+00  0.45593999997E+02  0.45594000000E+02  0.51100000000E-03 0.  1.
         11   -1    0    0    0    0 -0.00000000000E+00 -0.00000000000E+00 -0.45593999997E+02  0.45594000000E+02  0.51100000000E-03 0. -1.
    9900012    2    1    2    0    0 -0.25760413717E+02  0.15966440431E+02  0.27104226771E+02  0.50528865187E+02  0.30000016222E+02 0.  0.
         12    1    1    2    0    0  0.25760413717E+02 -0.15966440431E+02 -0.27104226771E+02  0.40659134813E+02  0.00000000000E+00 0. -1.
         11    1    3    3    0    0 -0.16288453094E+02  0.98261603570E+01  0.28668836501E+02  0.34405948877E+02  0.51100000000E-03 0. -1.
        -11    1    3    3    0    0 -0.73924262202E+01  0.11983984618E+00  0.33116467691E+01  0.81011932204E+01  0.51100000000E-03 0.  1.
         12    1    3    3    0    0 -0.20795344027E+01  0.60204402281E+01 -0.48762564993E+01  0.80217230891E+01  0.00000000000E+00 0. -1.
</event>
<event>
 7    1  0.6462830E-013  0.5052886E+02  0.7816164E-02  0.1300439E+00
        -11   -1    0    0    0    0  0.00000000000E+00  0.00000000000E+00  0.45593999997E+02  0.45594000000E+02  0.51100000000E-03 0. -1.
         11   -1    0    0    0    0 -0.00000000000E+00 -0.00000000000E+00 -0.45593999997E+02  0.45594000000E+02  0.51100000000E-03 0.  1.
    9900012    2    1    2    0    0 -0.33076143150E+02 -0.18163511259E+02  0.15140061591E+02  0.50528857708E+02  0.29999993489E+02 0.  0.
         12    1    1    2    0    0  0.33076143150E+02  0.18163511259E+02 -0.15140061591E+02  0.40659142292E+02  0.00000000000E+00 0. -1.
         11    1    3    3    0    0 -0.19186775087E+02 -0.50176732263E+01  0.11099570395E+02  0.22726852973E+02  0.51100000000E-03 0. -1.
        -11    1    3    3    0    0 -0.12191978252E+02 -0.15967740562E+02  0.88663634897E+01  0.21959632832E+02  0.51100000000E-03 0.  1.
         12    1    3    3    0    0 -0.16973898110E+01  0.28219025284E+01 -0.48258722937E+01  0.58423719023E+01  0.00000000000E+00 0. -1.
</event>
<event>
 7    1  0.6462830E-013  0.5052886E+02  0.7816164E-02  0.1300439E+00
        -11   -1    0    0    0    0  0.00000000000E+00  0.00000000000E+00  0.45593999997E+02  0.45594000000E+02  0.51100000000E-03 0.  1.
         11   -1    0    0    0    0 -0.00000000000E+00 -0.00000000000E+00 -0.45593999997E+02  0.45594000000E+02  0.51100000000E-03 0. -1.
    9900012    2    1    2    0    0  0.24578060531E+02  0.32147076790E+02  0.39560139610E+01  0.50528860166E+02  0.30000000960E+02 0.  0.
         12    1    1    2    0    0 -0.24578060531E+02 -0.32147076790E+02 -0.39560139610E+01  0.40659139834E+02  0.00000000000E+00 0. -1.
         11    1    3    3    0    0 -0.22206680672E+01  0.15994338129E+01 -0.36165492735E+01  0.45353041899E+01  0.51100000000E-03 0. -1.
        -11    1    3    3    0    0  0.11982637040E+02  0.13322912521E+02 -0.67361155162E+01  0.19143114715E+02  0.51100000000E-03 0.  1.
        -12    1    3    3    0    0  0.14816091558E+02  0.17224730456E+02  0.14308678751E+02  0.26850441261E+02  0.00000000000E+00 0.  1.
</event>
<event>
 7    1  0.6462830E-013  0.5052885E+02  0.7816164E-02  0.1300439E+00
        -11   -1    0    0    0    0  0.00000000000E+00  0.00000000000E+00  0.45593999997E+02  0.45594000000E+02  0.51100000000E-03 0.  1.
         11   -1    0    0    0    0 -0.00000000000E+00 -0.00000000000E+00 -0.45593999997E+02  0.45594000000E+02  0.51100000000E-03 0. -1.
    9900012    2    1    2    0    0 -0.26285309259E+02  0.30889226024E+02  0.28468978059E+01  0.50528848578E+02  0.29999965739E+02 0.  0.
         12    1    1    2    0    0  0.26285309259E+02 -0.30889226024E+02 -0.28468978059E+01  0.40659151422E+02  0.00000000000E+00 0. -1.
         11    1    3    3    0    0 -0.60492706177E+01  0.36130157927E+01 -0.37584466638E+01  0.79858299325E+01  0.51100000000E-03 0. -1.
        -11    1    3    3    0    0 -0.18637381625E+02  0.30493486123E+02  0.83747960732E+00  0.35747811990E+02  0.51100000000E-03 0.  1.
         12    1    3    3    0    0 -0.15986570167E+01 -0.32172758915E+01  0.57678648623E+01  0.67952066554E+01  0.00000000000E+00 0. -1.
</event>
<event>
 7    1  0.6462830E-013  0.5052885E+02  0.7816164E-02  0.1300439E+00
        -11   -1    0    0    0    0  0.00000000000E+00  0.00000000000E+00  0.45593999997E+02  0.45594000000E+02  0.51100000000E-03 0. -1.
         11   -1    0    0    0    0 -0.00000000000E+00 -0.00000000000E+00 -0.45593999997E+02  0.45594000000E+02  0.51100000000E-03 0.  1.
    9900012    2    1    2    0    0  0.37621404406E+02  0.65005625110E+01 -0.13983530146E+02  0.50528849765E+02  0.29999969347E+02 0.  0.
         12    1    1    2    0    0 -0.37621404406E+02 -0.65005625110E+01  0.13983530146E+02  0.40659150235E+02  0.00000000000E+00 0. -1.
         11    1    3    3    0    0  0.91305705875E+01  0.55120833108E+01 -0.15798428356E+02  0.19061498379E+02  0.51100000000E-03 0. -1.
        -11    1    3    3    0    0  0.16551559624E+02 -0.21373352364E+01 -0.49311832408E+01  0.17402266988E+02  0.51100000000E-03 0.  1.
         12    1    3    3    0    0  0.11939274195E+02  0.31258144366E+01  0.67460814510E+01  0.14065084398E+02  0.00000000000E+00 0. -1.
</event>
<event>
 7    1  0.6462830E-013  0.5052887E+02  0.7816164E-02  0.1300439E+00
        -11   -1    0    0    0    0  0.00000000000E+00  0.00000000000E+00  0.45593999997E+02  0.45594000000E+02  0.51100000000E-03 0. -1.
         11   -1    0    0    0    0 -0.00000000000E+00 -0.00000000000E+00 -0.45593999997E+02  0.45594000000E+02  0.51100000000E-03 0.  1.
    9900012    2    1    2    0    0  0.23027893023E+02  0.19717711491E+02 -0.27094145907E+02  0.50528871309E+02  0.30000034830E+02 0.  0.
         12    1    1    2    0    0 -0.23027893023E+02 -0.19717711491E+02  0.27094145907E+02  0.40659128691E+02  0.00000000000E+00 0. -1.
         11    1    3    3    0    0  0.48739391054E+01  0.58336973247E+01  0.48297827822E+01  0.90063371503E+01  0.51100000000E-03 0. -1.
        -11    1    3    3    0    0  0.13556275833E+02  0.55249019372E+01 -0.10334574248E+02  0.17919279590E+02  0.51100000000E-03 0.  1.
        -12    1    3    3    0    0  0.45976780840E+01  0.83591122293E+01 -0.21589354441E+02  0.23603254568E+02  0.00000000000E+00 0.  1.
</event>
<event>
 7    1  0.6462830E-013  0.5052886E+02  0.7816164E-02  0.1300439E+00
        -11   -1    0    0    0    0  0.00000000000E+00  0.00000000000E+00  0.45593999997E+02  0.45594000000E+02  0.51100000000E-03 0.  1.
         11   -1    0    0    0    0 -0.00000000000E+00 -0.00000000000E+00 -0.45593999997E+02  0.45594000000E+02  0.51100000000E-03 0. -1.
    9900012    2    1    2    0    0 -0.20019241661E+02  0.34576745130E+02  0.75395005980E+01  0.50528863146E+02  0.30000010017E+02 0.  0.
         12    1    1    2    0    0  0.20019241661E+02 -0.34576745130E+02 -0.75395005980E+01  0.40659136854E+02  0.00000000000E+00 0. -1.
         11    1    3    3    0    0  0.23081493715E+01  0.10316090664E+02 -0.34288466601E+01  0.11113337473E+02  0.51100000000E-03 0. -1.
        -11    1    3    3    0    0 -0.16713671134E+02  0.22134565595E+02  0.96924808163E+00  0.27752932078E+02  0.51100000000E-03 0.  1.
         12    1    3    3    0    0 -0.56137198990E+01  0.21260888706E+01  0.99990991765E+01  0.11662593594E+02  0.00000000000E+00 0. -1.
</event>
<event>
 7    1  0.6462830E-013  0.5052886E+02  0.7816164E-02  0.1300439E+00
        -11   -1    0    0    0    0  0.00000000000E+00  0.00000000000E+00  0.45593999997E+02  0.45594000000E+02  0.51100000000E-03 0.  1.
         11   -1    0    0    0    0 -0.00000000000E+00 -0.00000000000E+00 -0.45593999997E+02  0.45594000000E+02  0.51100000000E-03 0. -1.
    9900012    2    1    2    0    0 -0.36612730002E+02 -0.36572236548E+01  0.17300234467E+02  0.50528863319E+02  0.30000010543E+02 0.  0.
         12    1    1    2    0    0  0.36612730002E+02  0.36572236548E+01 -0.17300234467E+02  0.40659136681E+02  0.00000000000E+00 0. -1.
         11    1    3    3    0    0 -0.15977786844E+02  0.41254686288E+01  0.87516837350E+01  0.18678895371E+02  0.51100000000E-03 0. -1.
        -11    1    3    3    0    0 -0.24994322853E+02 -0.52873373517E+01  0.61180947646E+01  0.26269815282E+02  0.51100000000E-03 0.  1.
         12    1    3    3    0    0  0.43593796946E+01 -0.24953549319E+01  0.24304559678E+01  0.55801526654E+01  0.00000000000E+00 0. -1.
</event>
<event>
 7    1  0.6462830E-013  0.5052886E+02  0.7816164E-02  0.1300439E+00
        -11   -1    0    0    0    0  0.00000000000E+00  0.00000000000E+00  0.45593999997E+02  0.45594000000E+02  0.51100000000E-03 0. -1.
         11   -1    0    0    0    0 -0.00000000000E+00 -0.00000000000E+00 -0.45593999997E+02  0.45594000000E+02  0.51100000000E-03 0.  1.
    9900012    2    1    2    0    0 -0.18459147927E+01  0.40078782909E+02 -0.65916104149E+01  0.50528861190E+02  0.30000004073E+02 0.  0.
         12    1    1    2    0    0  0.18459147927E+01 -0.40078782909E+02  0.65916104149E+01  0.40659138810E+02  0.00000000000E+00 0. -1.
         11    1    3    3    0    0  0.53055043518E+01  0.13347289896E+02  0.25251406344E+01  0.14583376134E+02  0.51100000000E-03 0. -1.
        -11    1    3    3    0    0 -0.19960774680E+01 -0.12001883682E+00  0.48476720198E+01  0.52439159082E+01  0.51100000000E-03 0.  1.
         12    1    3    3    0    0 -0.51553416764E+01  0.26851511850E+02 -0.13964423069E+02  0.30701569147E+02  0.00000000000E+00 0. -1.
</event>
<event>
 7    1  0.6462830E-013  0.5052886E+02  0.7816164E-02  0.1300439E+00
        -11   -1    0    0    0    0  0.00000000000E+00  0.00000000000E+00  0.45593999997E+02  0.45594000000E+02  0.51100000000E-03 0.  1.
         11   -1    0    0    0    0 -0.00000000000E+00 -0.00000000000E+00 -0.45593999997E+02  0.45594000000E+02  0.51100000000E-03 0. -1.
    9900012    2    1    2    0    0  0.18395410402E+01 -0.26934315339E+02  0.30402708301E+02  0.50528856797E+02  0.29999990719E+02 0.  0.
         12    1    1    2    0    0 -0.18395410402E+01  0.26934315339E+02 -0.30402708301E+02  0.40659143203E+02  0.00000000000E+00 0. -1.
         11    1    3    3    0    0 -0.99286166008E+00 -0.11388396785E+02  0.15530060238E+02  0.19283778853E+02  0.51100000000E-03 0. -1.
        -11    1    3    3    0    0  0.82902971888E+01 -0.12616667497E+02 -0.40444582869E-01  0.15096720248E+02  0.51100000000E-03 0.  1.
         12    1    3    3    0    0 -0.54578944885E+01 -0.29292510560E+01  0.14913092646E+02  0.16148357696E+02  0.00000000000E+00 0. -1.
</event>
<event>
 7    1  0.6462830E-013  0.5052887E+02  0.7816164E-02  0.1300439E+00
        -11   -1    0    0    0    0  0.00000000000E+00  0.00000000000E+00  0.45593999997E+02  0.45594000000E+02  0.51100000000E-03 0. -1.
         11   -1    0    0    0    0 -0.00000000000E+00 -0.00000000000E+00 -0.45593999997E+02  0.45594000000E+02  0.51100000000E-03 0.  1.
    9900012    2    1    2    0    0  0.10035610010E+02 -0.28567833608E+02 -0.27135411759E+02  0.50528866258E+02  0.30000019477E+02 0.  0.
         12    1    1    2    0    0 -0.10035610010E+02  0.28567833608E+02  0.27135411759E+02  0.40659133742E+02  0.00000000000E+00 0. -1.
         11    1    3    3    0    0 -0.27098522814E+01 -0.62393443661E+01 -0.78437308720E+01  0.10382525307E+02  0.51100000000E-03 0. -1.
        -11    1    3    3    0    0  0.19226248766E+02 -0.20806517874E+02 -0.17315121067E+02  0.33202006648E+02  0.51100000000E-03 0.  1.
         12    1    3    3    0    0 -0.64807864747E+01 -0.15219713678E+01 -0.19765598201E+01  0.69443343020E+01  0.00000000000E+00 0. -1.
</event>
<event>
 7    1  0.6462830E-013  0.5052887E+02  0.7816164E-02  0.1300439E+00
        -11   -1    0    0    0    0  0.00000000000E+00  0.00000000000E+00  0.45593999997E+02  0.45594000000E+02  0.51100000000E-03 0. -1.
         11   -1    0    0    0    0 -0.00000000000E+00 -0.00000000000E+00 -0.45593999997E+02  0.45594000000E+02  0.51100000000E-03 0.  1.
    9900012    2    1    2    0    0 -0.22815034364E+02 -0.65465820783E+01 -0.33011838258E+02  0.50528868245E+02  0.30000025517E+02 0.  0.
         12    1    1    2    0    0  0.22815034364E+02  0.65465820783E+01  0.33011838258E+02  0.40659131755E+02  0.00000000000E+00 0. -1.
         11    1    3    3    0    0 -0.20501442538E+02 -0.96880277485E+01 -0.95816608970E+01  0.24616564618E+02  0.51100000000E-03 0. -1.
        -11    1    3    3    0    0 -0.62225493181E+01  0.18367166952E+01 -0.10514161627E+02  0.12354806483E+02  0.51100000000E-03 0.  1.
         12    1    3    3    0    0  0.39089574924E+01  0.13047289751E+01 -0.12916015734E+02  0.13557497144E+02  0.00000000000E+00 0. -1.
</event>
<event>
 7    1  0.6462830E-013  0.5052886E+02  0.7816164E-02  0.1300439E+00
        -11   -1    0    0    0    0  0.00000000000E+00  0.00000000000E+00  0.45593999997E+02  0.45594000000E+02  0.51100000000E-03 0.  1.
         11   -1    0    0    0    0 -0.00000000000E+00 -0.00000000000E+00 -0.45593999997E+02  0.45594000000E+02  0.51100000000E-03 0. -1.
    9900012    2    1    2    0    0  0.26709954795E+01 -0.33822999274E+02  0.22406162372E+02  0.50528860695E+02  0.30000002569E+02 0.  0.
         12    1    1    2    0    0 -0.26709954795E+01  0.33822999274E+02 -0.22406162372E+02  0.40659139305E+02  0.00000000000E+00 0. -1.
         11    1    3    3    0    0 -0.10083727786E+02 -0.14260575309E+02  0.44782717859E+01  0.18030543326E+02  0.51100000000E-03 0. -1.
        -11    1    3    3    0    0  0.14428671737E+01 -0.49021655897E+01  0.12020803728E+02  0.13061884079E+02  0.51100000000E-03 0.  1.
         12    1    3    3    0    0  0.11311856092E+02 -0.14660258376E+02  0.59070868578E+01  0.19436433290E+02  0.00000000000E+00 0. -1.
</event>
<event>
 7    1  0.6462830E-013  0.5052886E+02  0.7816164E-02  0.1300439E+00
        -11   -1    0    0    0    0  0.00000000000E+00  0.00000000000E+00  0.45593999997E+02  0.45594000000E+02  0.51100000000E-03 0. -1.
         11   -1    0    0    0    0 -0.00000000000E+00 -0.00000000000E+00 -0.45593999997E+02  0.45594000000E+02  0.51100000000E-03 0.  1.
    9900012    2    1    2    0    0  0.86901062253E+01  0.37750838328E+02 -0.12349970520E+02  0.50528861882E+02  0.30000006175E+02 0.  0.
         12    1    1    2    0    0 -0.86901062253E+01 -0.37750838328E+02  0.12349970520E+02  0.40659138118E+02  0.00000000000E+00 0. -1.
         11    1    3    3    0    0  0.74683772199E+01  0.65347772311E+01  0.51985503445E+01  0.11202896844E+02  0.51100000000E-03 0. -1.
        -11    1    3    3    0    0 -0.15064068798E+01  0.10766543940E+02  0.18264271116E+01  0.11023772782E+02  0.51100000000E-03 0.  1.
        -12    1    3    3    0    0  0.27281358852E+01  0.20449517157E+02 -0.19374947977E+02  0.28302192255E+02  0.00000000000E+00 0.  1.
</event>
<event>
 7    1  0.6462830E-013  0.5052885E+02  0.7816164E-02  0.1300439E+00
        -11   -1    0    0    0    0  0.00000000000E+00  0.00000000000E+00  0.45593999997E+02  0.45594000000E+02  0.51100000000E-03 0. -1.
         11   -1    0    0    0    0 -0.00000000000E+00 -0.00000000000E+00 -0.45593999997E+02  0.45594000000E+02  0.51100000000E-03 0.  1.
    9900012    2    1    2    0    0 -0.13455008244E+02  0.37238204577E+02  0.92436711675E+01  0.50528848711E+02  0.29999966141E+02 0.  0.
         12    1    1    2    0    0  0.13455008244E+02 -0.37238204577E+02 -0.92436711675E+01  0.40659151289E+02  0.00000000000E+00 0. -1.
         11    1    3    3    0    0 -0.48705765045E+01  0.22831148808E+01  0.64766325090E+01  0.84191387899E+01  0.51100000000E-03 0. -1.
        -11    1    3    3    0    0 -0.14940629200E+02  0.21927304564E+02 -0.25813821016E+01  0.26658818807E+02  0.51100000000E-03 0.  1.
         12    1    3    3    0    0  0.63561974610E+01  0.13027785131E+02  0.53484207601E+01  0.15450891114E+02  0.00000000000E+00 0. -1.
</event>
<event>
 7    1  0.6462830E-013  0.5052886E+02  0.7816164E-02  0.1300439E+00
        -11   -1    0    0    0    0  0.00000000000E+00  0.00000000000E+00  0.45593999997E+02  0.45594000000E+02  0.51100000000E-03 0. -1.
         11   -1    0    0    0    0 -0.00000000000E+00 -0.00000000000E+00 -0.45593999997E+02  0.45594000000E+02  0.51100000000E-03 0.  1.
    9900012    2    1    2    0    0  0.25786139961E+02 -0.20102677380E+02 -0.24168645348E+02  0.50528855028E+02  0.29999985342E+02 0.  0.
         12    1    1    2    0    0 -0.25786139961E+02  0.20102677380E+02  0.24168645348E+02  0.40659144972E+02  0.00000000000E+00 0. -1.
         11    1    3    3    0    0  0.13325747328E+01 -0.63143457892E+01 -0.85536419787E+01  0.10715013277E+02  0.51100000000E-03 0. -1.
        -11    1    3    3    0    0  0.22953201279E+02 -0.43871458649E+01 -0.18566713042E+02  0.29846596644E+02  0.51100000000E-03 0.  1.
        -12    1    3    3    0    0  0.15003639494E+01 -0.94011857259E+01  0.29517096725E+01  0.99672451070E+01  0.00000000000E+00 0.  1.
</event>
<event>
 7    1  0.6462830E-013  0.5052894E+02  0.7816164E-02  0.1300439E+00
        -11   -1    0    0    0    0  0.00000000000E+00  0.00000000000E+00  0.45593999997E+02  0.45594000000E+02  0.51100000000E-03 0. -1.
         11   -1    0    0    0    0 -0.00000000000E+00 -0.00000000000E+00 -0.45593999997E+02  0.45594000000E+02  0.51100000000E-03 0.  1.
    9900012    2    1    2    0    0 -0.24482745963E+02 -0.22105520831E+02 -0.23771837427E+02  0.50528940053E+02  0.30000243785E+02 0.  0.
         12    1    1    2    0    0  0.24482745963E+02  0.22105520831E+02  0.23771837427E+02  0.40659059947E+02  0.00000000000E+00 0. -1.
         11    1    3    3    0    0 -0.16499339916E+02  0.34057831621E+01 -0.10961409423E+02  0.20099255543E+02  0.51100000000E-03 0. -1.
        -11    1    3    3    0    0 -0.33550800776E+01 -0.13190034048E+02 -0.28038196570E+01  0.13895861450E+02  0.51100000000E-03 0.  1.
        -12    1    3    3    0    0 -0.46283259693E+01 -0.12321269945E+02 -0.10006608347E+02  0.16533823059E+02  0.00000000000E+00 0.  1.
</event>
<event>
 7    1  0.6462830E-013  0.5052884E+02  0.7816164E-02  0.1300439E+00
        -11   -1    0    0    0    0  0.00000000000E+00  0.00000000000E+00  0.45593999997E+02  0.45594000000E+02  0.51100000000E-03 0. -1.
         11   -1    0    0    0    0 -0.00000000000E+00 -0.00000000000E+00 -0.45593999997E+02  0.45594000000E+02  0.51100000000E-03 0.  1.
    9900012    2    1    2    0    0  0.37598108595E+02  0.13114188000E+02  0.82199422813E+01  0.50528841770E+02  0.29999945045E+02 0.  0.
         12    1    1    2    0    0 -0.37598108595E+02 -0.13114188000E+02 -0.82199422813E+01  0.40659158230E+02  0.00000000000E+00 0. -1.
         11    1    3    3    0    0  0.52541596003E+01  0.66468378309E+01  0.35810507778E+01  0.91984004691E+01  0.51100000000E-03 0. -1.
        -11    1    3    3    0    0  0.39915799512E+01  0.11388196515E+02 -0.59491011217E+00  0.12082121033E+02  0.51100000000E-03 0.  1.
         12    1    3    3    0    0  0.28352369044E+02 -0.49208463452E+01  0.52338016156E+01  0.29248320268E+02  0.00000000000E+00 0. -1.
</event>
<event>
 7    1  0.6462830E-013  0.5052884E+02  0.7816164E-02  0.1300439E+00
        -11   -1    0    0    0    0  0.00000000000E+00  0.00000000000E+00  0.45593999997E+02  0.45594000000E+02  0.51100000000E-03 0.  1.
         11   -1    0    0    0    0 -0.00000000000E+00 -0.00000000000E+00 -0.45593999997E+02  0.45594000000E+02  0.51100000000E-03 0. -1.
    9900012    2    1    2    0    0  0.15644873238E+02  0.29891947267E+01  0.37409484711E+02  0.50528844942E+02  0.29999954685E+02 0.  0.
         12    1    1    2    0    0 -0.15644873238E+02 -0.29891947267E+01 -0.37409484711E+02  0.40659155058E+02  0.00000000000E+00 0. -1.
         11    1    3    3    0    0 -0.28049611090E+01 -0.17678190868E+01  0.49504489324E+00  0.33523217110E+01  0.51100000000E-03 0. -1.
        -11    1    3    3    0    0 -0.10008876586E+01  0.16341185134E+01  0.22948639793E+02  0.23028508159E+02  0.51100000000E-03 0.  1.
        -12    1    3    3    0    0  0.19450722005E+02  0.31228953000E+01  0.13965800024E+02  0.24148015071E+02  0.00000000000E+00 0.  1.
</event>
<event>
 7    1  0.6462830E-013  0.5052886E+02  0.7816164E-02  0.1300439E+00
        -11   -1    0    0    0    0  0.00000000000E+00  0.00000000000E+00  0.45593999997E+02  0.45594000000E+02  0.51100000000E-03 0. -1.
         11   -1    0    0    0    0 -0.00000000000E+00 -0.00000000000E+00 -0.45593999997E+02  0.45594000000E+02  0.51100000000E-03 0.  1.
    9900012    2    1    2    0    0  0.24695517148E+02  0.27863222847E+02 -0.16338235597E+02  0.50528859613E+02  0.29999999279E+02 0.  0.
         12    1    1    2    0    0 -0.24695517148E+02 -0.27863222847E+02  0.16338235597E+02  0.40659140387E+02  0.00000000000E+00 0. -1.
         11    1    3    3    0    0  0.83165420013E+00  0.19701730437E+01 -0.25630476559E+01  0.33380299697E+01  0.51100000000E-03 0.  1.
        -11    1    3    3    0    0  0.35962958297E+01  0.18495322554E+02 -0.16997967239E+02  0.25375996347E+02  0.51100000000E-03 0. -1.
         12    1    3    3    0    0  0.20267567118E+02  0.73977272486E+01  0.32227792983E+01  0.21814833296E+02  0.00000000000E+00 0. -1.
</event>
<event>
 7    1  0.6462830E-013  0.5052887E+02  0.7816164E-02  0.1300439E+00
        -11   -1    0    0    0    0  0.00000000000E+00  0.00000000000E+00  0.45593999997E+02  0.45594000000E+02  0.51100000000E-03 0.  1.
         11   -1    0    0    0    0 -0.00000000000E+00 -0.00000000000E+00 -0.45593999997E+02  0.45594000000E+02  0.51100000000E-03 0. -1.
    9900012    2    1    2    0    0 -0.23910624023E+02 -0.32758773495E+02  0.28826346633E+01  0.50528871078E+02  0.30000034130E+02 0.  0.
         12    1    1    2    0    0  0.23910624023E+02  0.32758773495E+02 -0.28826346633E+01  0.40659128922E+02  0.00000000000E+00 0. -1.
         11    1    3    3    0    0 -0.10671904243E+02 -0.16460667795E+01 -0.36575464947E+01  0.11400733426E+02  0.51100000000E-03 0. -1.
        -11    1    3    3    0    0 -0.85090197815E+01 -0.21510657303E+02 -0.47018461750E+01  0.23605489891E+02  0.51100000000E-03 0.  1.
        -12    1    3    3    0    0 -0.47296999984E+01 -0.96020494120E+01  0.11242027333E+02  0.15522647762E+02  0.00000000000E+00 0.  1.
</event>
<event>
 7    1  0.6462830E-013  0.5052885E+02  0.7816164E-02  0.1300439E+00
        -11   -1    0    0    0    0  0.00000000000E+00  0.00000000000E+00  0.45593999997E+02  0.45594000000E+02  0.51100000000E-03 0. -1.
         11   -1    0    0    0    0 -0.00000000000E+00 -0.00000000000E+00 -0.45593999997E+02  0.45594000000E+02  0.51100000000E-03 0.  1.
    9900012    2    1    2    0    0  0.13668470963E+02  0.32257667753E+02 -0.20634484636E+02  0.50528853630E+02  0.29999981095E+02 0.  0.
         12    1    1    2    0    0 -0.13668470963E+02 -0.32257667753E+02  0.20634484636E+02  0.40659146370E+02  0.00000000000E+00 0. -1.
         11    1    3    3    0    0 -0.13389231091E+01 -0.27000367064E+01  0.99803621955E+00  0.31747424879E+01  0.51100000000E-03 0. -1.
        -11    1    3    3    0    0  0.14120551805E+02  0.10647425573E+02 -0.10825148783E+02  0.20735030771E+02  0.51100000000E-03 0.  1.
        -12    1    3    3    0    0  0.88684226700E+00  0.24310278886E+02 -0.10807372072E+02  0.26619080372E+02  0.00000000000E+00 0.  1.
</event>
<event>
 7    1  0.6462830E-013  0.5052885E+02  0.7816164E-02  0.1300439E+00
        -11   -1    0    0    0    0  0.00000000000E+00  0.00000000000E+00  0.45593999997E+02  0.45594000000E+02  0.51100000000E-03 0.  1.
         11   -1    0    0    0    0 -0.00000000000E+00 -0.00000000000E+00 -0.45593999997E+02  0.45594000000E+02  0.51100000000E-03 0. -1.
    9900012    2    1    2    0    0  0.38109434441E+01 -0.85909403410E+01  0.39558045538E+02  0.50528849583E+02  0.29999968792E+02 0.  0.
         12    1    1    2    0    0 -0.38109434441E+01  0.85909403410E+01 -0.39558045538E+02  0.40659150417E+02  0.00000000000E+00 0. -1.
         11    1    3    3    0    0  0.51042720553E+01 -0.13120642756E+01 -0.10755123836E+01  0.53788319388E+01  0.51100000000E-03 0. -1.
        -11    1    3    3    0    0  0.26338305862E+00  0.58717850717E+01  0.79600626122E+01  0.98949394953E+01  0.51100000000E-03 0.  1.
         12    1    3    3    0    0 -0.15567116698E+01 -0.13150661137E+02  0.32673495309E+02  0.35255078149E+02  0.00000000000E+00 0. -1.
</event>
<event>
 7    1  0.6462830E-013  0.5052886E+02  0.7816164E-02  0.1300439E+00
        -11   -1    0    0    0    0  0.00000000000E+00  0.00000000000E+00  0.45593999997E+02  0.45594000000E+02  0.51100000000E-03 0. -1.
         11   -1    0    0    0    0 -0.00000000000E+00 -0.00000000000E+00 -0.45593999997E+02  0.45594000000E+02  0.51100000000E-03 0.  1.
    9900012    2    1    2    0    0  0.56976904935E+01  0.10337943997E+02 -0.38907951251E+02  0.50528862852E+02  0.30000009126E+02 0.  0.
         12    1    1    2    0    0 -0.56976904935E+01 -0.10337943997E+02  0.38907951251E+02  0.40659137148E+02  0.00000000000E+00 0. -1.
         11    1    3    3    0    0  0.28582364284E+01  0.50346909239E+01  0.14031575696E+01  0.59570529297E+01  0.51100000000E-03 0. -1.
        -11    1    3    3    0    0 -0.71824466883E+01 -0.78430125619E+00 -0.17209014932E+02  0.18664213460E+02  0.51100000000E-03 0.  1.
        -12    1    3    3    0    0  0.10021900753E+02  0.60875543295E+01 -0.23102093889E+02  0.25907596463E+02  0.00000000000E+00 0.  1.
</event>
<event>
 7    1  0.6462830E-013  0.5052886E+02  0.7816164E-02  0.1300439E+00
        -11   -1    0    0    0    0  0.00000000000E+00  0.00000000000E+00  0.45593999997E+02  0.45594000000E+02  0.51100000000E-03 0. -1.
         11   -1    0    0    0    0 -0.00000000000E+00 -0.00000000000E+00 -0.45593999997E+02  0.45594000000E+02  0.51100000000E-03 0.  1.
    9900012    2    1    2    0    0  0.33885761997E+02  0.32406453966E+01 -0.22235535630E+02  0.50528859657E+02  0.29999999412E+02 0.  0.
         12    1    1    2    0    0 -0.33885761997E+02 -0.32406453966E+01  0.22235535630E+02  0.40659140343E+02  0.00000000000E+00 0. -1.
         11    1    3    3    0    0  0.71573726438E+01 -0.73475606355E+01 -0.13620484585E+02  0.17050871855E+02  0.51100000000E-03 0. -1.
        -11    1    3    3    0    0  0.22497348738E+02  0.64169034773E+01 -0.12355765731E+02  0.26456989578E+02  0.51100000000E-03 0.  1.
        -12    1    3    3    0    0  0.42310406152E+01  0.41713025548E+01  0.37407146854E+01  0.70209982230E+01  0.00000000000E+00 0.  1.
</event>
<event>
 7    1  0.6462830E-013  0.5052885E+02  0.7816164E-02  0.1300439E+00
        -11   -1    0    0    0    0  0.00000000000E+00  0.00000000000E+00  0.45593999997E+02  0.45594000000E+02  0.51100000000E-03 0.  1.
         11   -1    0    0    0    0 -0.00000000000E+00 -0.00000000000E+00 -0.45593999997E+02  0.45594000000E+02  0.51100000000E-03 0. -1.
    9900012    2    1    2    0    0 -0.11297930130E+01  0.39277584460E+02  0.10448029332E+02  0.50528851088E+02  0.29999973368E+02 0.  0.
         12    1    1    2    0    0  0.11297930130E+01 -0.39277584460E+02 -0.10448029332E+02  0.40659148912E+02  0.00000000000E+00 0. -1.
         11    1    3    3    0    0 -0.10372958656E+02  0.93097976022E+01  0.29564989126E+01  0.14248210019E+02  0.51100000000E-03 0. -1.
        -11    1    3    3    0    0  0.43720387809E+01 -0.64027792642E+00  0.10778574933E+00  0.44199883432E+01  0.51100000000E-03 0.  1.
        -12    1    3    3    0    0  0.48711268619E+01  0.30608064785E+02  0.73837446701E+01  0.31860652726E+02  0.00000000000E+00 0.  1.
</event>
<event>
 7    1  0.6462830E-013  0.5052887E+02  0.7816164E-02  0.1300439E+00
        -11   -1    0    0    0    0  0.00000000000E+00  0.00000000000E+00  0.45593999997E+02  0.45594000000E+02  0.51100000000E-03 0.  1.
         11   -1    0    0    0    0 -0.00000000000E+00 -0.00000000000E+00 -0.45593999997E+02  0.45594000000E+02  0.51100000000E-03 0. -1.
    9900012    2    1    2    0    0  0.38131044955E+02 -0.13883826498E+02 -0.25353184894E+01  0.50528867355E+02  0.30000022812E+02 0.  0.
         12    1    1    2    0    0 -0.38131044955E+02  0.13883826498E+02  0.25353184894E+01  0.40659132645E+02  0.00000000000E+00 0. -1.
         11    1    3    3    0    0  0.67226142503E+01  0.56731742603E+01 -0.17720245153E+01  0.89732112251E+01  0.51100000000E-03 0. -1.
        -11    1    3    3    0    0  0.17897420938E+02 -0.35064773477E+01 -0.72043034539E+01  0.19609055259E+02  0.51100000000E-03 0.  1.
        -12    1    3    3    0    0  0.13511009767E+02 -0.16050523411E+02  0.64410094798E+01  0.21946600871E+02  0.00000000000E+00 0.  1.
</event>
<event>
 7    1  0.6462830E-013  0.5052885E+02  0.7816164E-02  0.1300439E+00
        -11   -1    0    0    0    0  0.00000000000E+00  0.00000000000E+00  0.45593999997E+02  0.45594000000E+02  0.51100000000E-03 0.  1.
         11   -1    0    0    0    0 -0.00000000000E+00 -0.00000000000E+00 -0.45593999997E+02  0.45594000000E+02  0.51100000000E-03 0. -1.
    9900012    2    1    2    0    0  0.11664437019E+02  0.38827430756E+02  0.30883045396E+01  0.50528854719E+02  0.29999984403E+02 0.  0.
         12    1    1    2    0    0 -0.11664437019E+02 -0.38827430756E+02 -0.30883045396E+01  0.40659145281E+02  0.00000000000E+00 0. -1.
         11    1    3    3    0    0 -0.19121340279E+01 -0.41869241056E+01 -0.19151903483E+01  0.49854332147E+01  0.51100000000E-03 0. -1.
        -11    1    3    3    0    0  0.50495884997E+01  0.18376766448E+02  0.38730697570E+01  0.19447482066E+02  0.51100000000E-03 0.  1.
        -12    1    3    3    0    0  0.85269825474E+01  0.24637588413E+02  0.11304251309E+01  0.26095939438E+02  0.00000000000E+00 0.  1.
</event>
<event>
 7    1  0.6462830E-013  0.5052898E+02  0.7816164E-02  0.1300438E+00
        -11   -1    0    0    0    0  0.00000000000E+00  0.00000000000E+00  0.45593999997E+02  0.45594000000E+02  0.51100000000E-03 0. -1.
         11   -1    0    0    0    0 -0.00000000000E+00 -0.00000000000E+00 -0.45593999997E+02  0.45594000000E+02  0.51100000000E-03 0.  1.
    9900012    2    1    2    0    0  0.12241238285E+02  0.17838733375E+02 -0.34425098751E+02  0.50528981970E+02  0.30000371193E+02 0.  0.
         12    1    1    2    0    0 -0.12241238285E+02 -0.17838733375E+02  0.34425098751E+02  0.40659018030E+02  0.00000000000E+00 0. -1.
         11    1    3    3    0    0  0.63844451808E+01  0.58126845273E+00 -0.37573102525E+01  0.74307734372E+01  0.51100000000E-03 0. -1.
        -11    1    3    3    0    0 -0.38682327544E+01 -0.71707709321E+00  0.21152790853E+01  0.44667471464E+01  0.51100000000E-03 0.  1.
        -12    1    3    3    0    0  0.97250258590E+01  0.17974542015E+02 -0.32783067584E+02  0.38631461386E+02  0.00000000000E+00 0.  1.
</event>
<event>
 7    1  0.6462830E-013  0.5052887E+02  0.7816164E-02  0.1300439E+00
        -11   -1    0    0    0    0  0.00000000000E+00  0.00000000000E+00  0.45593999997E+02  0.45594000000E+02  0.51100000000E-03 0. -1.
         11   -1    0    0    0    0 -0.00000000000E+00 -0.00000000000E+00 -0.45593999997E+02  0.45594000000E+02  0.51100000000E-03 0.  1.
    9900012    2    1    2    0    0 -0.19135221036E+01  0.40504710542E+02  0.29785938258E+01  0.50528866167E+02  0.30000019200E+02 0.  0.
         12    1    1    2    0    0  0.19135221036E+01 -0.40504710542E+02 -0.29785938258E+01  0.40659133833E+02  0.00000000000E+00 0. -1.
         11    1    3    3    0    0 -0.62061529054E+01  0.30772130367E+02  0.45576069278E+01  0.31720846810E+02  0.51100000000E-03 0. -1.
        -11    1    3    3    0    0  0.66386399102E+01  0.11143534095E+02 -0.54477170211E+01  0.14068671330E+02  0.51100000000E-03 0.  1.
        -12    1    3    3    0    0 -0.23460091084E+01 -0.14109539200E+01  0.38687039191E+01  0.47393480264E+01  0.00000000000E+00 0.  1.
</event>
<event>
 7    1  0.8182927E-013  0.5052886E+02  0.7816164E-02  0.1300439E+00
        -11   -1    0    0    0    0  0.00000000000E+00  0.00000000000E+00  0.45593999997E+02  0.45594000000E+02  0.51100000000E-03 0.  1.
         11   -1    0    0    0    0 -0.00000000000E+00 -0.00000000000E+00 -0.45593999997E+02  0.45594000000E+02  0.51100000000E-03 0. -1.
    9900012    2    1    2    0    0  0.37216141615E+02  0.16374498492E+02 -0.83740637983E-02  0.50528862432E+02  0.30000007849E+02 0.  0.
         12    1    1    2    0    0 -0.37216141615E+02 -0.16374498492E+02  0.83740637983E-02  0.40659137568E+02  0.00000000000E+00 0. -1.
         11    1    3    3    0    0  0.13720444269E+02  0.14553959255E+01 -0.82255022284E+01  0.16063239257E+02  0.51100000000E-03 0. -1.
        -11    1    3    3    0    0  0.25863474639E+02  0.11605299472E+02  0.40447566670E+01  0.28634984774E+02  0.51100000000E-03 0.  1.
         12    1    3    3    0    0 -0.23677772929E+01  0.33138030948E+01  0.41723714976E+01  0.58306384018E+01  0.00000000000E+00 0. -1.
</event>
<event>
 7    1  0.6462830E-013  0.5052885E+02  0.7816164E-02  0.1300439E+00
        -11   -1    0    0    0    0  0.00000000000E+00  0.00000000000E+00  0.45593999997E+02  0.45594000000E+02  0.51100000000E-03 0.  1.
         11   -1    0    0    0    0 -0.00000000000E+00 -0.00000000000E+00 -0.45593999997E+02  0.45594000000E+02  0.51100000000E-03 0. -1.
    9900012    2    1    2    0    0 -0.15972806896E+02 -0.79733318295E+01  0.36530282863E+02  0.50528854083E+02  0.29999982472E+02 0.  0.
         12    1    1    2    0    0  0.15972806896E+02  0.79733318295E+01 -0.36530282863E+02  0.40659145917E+02  0.00000000000E+00 0. -1.
         11    1    3    3    0    0 -0.73028137478E-01 -0.49047236087E+01  0.11185203851E+02  0.12213534797E+02  0.51100000000E-03 0. -1.
        -11    1    3    3    0    0 -0.17024268791E+02  0.71417125603E+01  0.16116146806E+02  0.24506325190E+02  0.51100000000E-03 0.  1.
         12    1    3    3    0    0  0.11244900326E+01 -0.10210320781E+02  0.92289322058E+01  0.13808994096E+02  0.00000000000E+00 0. -1.
</event>
<event>
 7    1  0.6462830E-013  0.5052886E+02  0.7816164E-02  0.1300439E+00
        -11   -1    0    0    0    0  0.00000000000E+00  0.00000000000E+00  0.45593999997E+02  0.45594000000E+02  0.51100000000E-03 0. -1.
         11   -1    0    0    0    0 -0.00000000000E+00 -0.00000000000E+00 -0.45593999997E+02  0.45594000000E+02  0.51100000000E-03 0.  1.
    9900012    2    1    2    0    0 -0.65561136602E+01 -0.38208274580E+02 -0.12260144928E+02  0.50528855563E+02  0.29999986968E+02 0.  0.
         12    1    1    2    0    0  0.65561136602E+01  0.38208274580E+02  0.12260144928E+02  0.40659144437E+02  0.00000000000E+00 0. -1.
         11    1    3    3    0    0 -0.42197009573E+01 -0.12335407263E+02  0.55567376928E+01  0.14171996422E+02  0.51100000000E-03 0. -1.
        -11    1    3    3    0    0  0.16604979853E+01 -0.18613975059E+02 -0.23831391174E+01  0.18839232293E+02  0.51100000000E-03 0.  1.
        -12    1    3    3    0    0 -0.39969106882E+01 -0.72588922572E+01 -0.15433743504E+02  0.17517626848E+02  0.00000000000E+00 0.  1.
</event>
<event>
 7    1  0.6462830E-013  0.5052886E+02  0.7816164E-02  0.1300439E+00
        -11   -1    0    0    0    0  0.00000000000E+00  0.00000000000E+00  0.45593999997E+02  0.45594000000E+02  0.51100000000E-03 0.  1.
         11   -1    0    0    0    0 -0.00000000000E+00 -0.00000000000E+00 -0.45593999997E+02  0.45594000000E+02  0.51100000000E-03 0. -1.
    9900012    2    1    2    0    0 -0.16230581034E+02  0.35535771589E+02  0.11266887862E+02  0.50528860987E+02  0.30000003457E+02 0.  0.
         12    1    1    2    0    0  0.16230581034E+02 -0.35535771589E+02 -0.11266887862E+02  0.40659139013E+02  0.00000000000E+00 0. -1.
         11    1    3    3    0    0  0.36982259642E+01  0.12768060549E+01  0.38908939430E+01  0.55178043569E+01  0.51100000000E-03 0. -1.
        -11    1    3    3    0    0 -0.26129502257E+01  0.95172484559E+01 -0.64574659489E+01  0.11794252575E+02  0.51100000000E-03 0.  1.
        -12    1    3    3    0    0 -0.17315856773E+02  0.24741717079E+02  0.13833459868E+02  0.33216804056E+02  0.00000000000E+00 0.  1.
</event>
<event>
 7    1  0.6462830E-013  0.5052885E+02  0.7816164E-02  0.1300439E+00
        -11   -1    0    0    0    0  0.00000000000E+00  0.00000000000E+00  0.45593999997E+02  0.45594000000E+02  0.51100000000E-03 0.  1.
         11   -1    0    0    0    0 -0.00000000000E+00 -0.00000000000E+00 -0.45593999997E+02  0.45594000000E+02  0.51100000000E-03 0. -1.
    9900012    2    1    2    0    0 -0.81110028095E+01 -0.21960880519E+02 -0.33243007886E+02  0.50528853267E+02  0.29999979991E+02 0.  0.
         12    1    1    2    0    0  0.81110028095E+01  0.21960880519E+02  0.33243007886E+02  0.40659146733E+02  0.00000000000E+00 0. -1.
         11    1    3    3    0    0  0.37791259512E+01 -0.43110212927E+01 -0.12975853743E+02  0.14185890108E+02  0.51100000000E-03 0. -1.
        -11    1    3    3    0    0  0.46332921752E+01 -0.42934362731E+01  0.86605191065E+00  0.63758166211E+01  0.51100000000E-03 0.  1.
         12    1    3    3    0    0 -0.16523420936E+02 -0.13356422953E+02 -0.21133206054E+02  0.29967146538E+02  0.00000000000E+00 0. -1.
</event>
<event>
 7    1  0.6462830E-013  0.5052886E+02  0.7816164E-02  0.1300439E+00
        -11   -1    0    0    0    0  0.00000000000E+00  0.00000000000E+00  0.45593999997E+02  0.45594000000E+02  0.51100000000E-03 0. -1.
         11   -1    0    0    0    0 -0.00000000000E+00 -0.00000000000E+00 -0.45593999997E+02  0.45594000000E+02  0.51100000000E-03 0.  1.
    9900012    2    1    2    0    0 -0.29469432101E+02 -0.87354156811E+01 -0.26615990463E+02  0.50528857562E+02  0.29999993045E+02 0.  0.
         12    1    1    2    0    0  0.29469432101E+02  0.87354156811E+01  0.26615990463E+02  0.40659142438E+02  0.00000000000E+00 0. -1.
         11    1    3    3    0    0 -0.19485380384E+02  0.28493545129E+00 -0.17969577956E+02  0.26507866174E+02  0.51100000000E-03 0. -1.
        -11    1    3    3    0    0 -0.85262086132E+01 -0.98636430274E+01 -0.13569347698E+02  0.18817940491E+02  0.51100000000E-03 0.  1.
         12    1    3    3    0    0 -0.14578431033E+01  0.84329189496E+00  0.49229351916E+01  0.52030508968E+01  0.00000000000E+00 0. -1.
</event>
<event>
 7    1  0.6462830E-013  0.5052885E+02  0.7816164E-02  0.1300439E+00
        -11   -1    0    0    0    0  0.00000000000E+00  0.00000000000E+00  0.45593999997E+02  0.45594000000E+02  0.51100000000E-03 0. -1.
         11   -1    0    0    0    0 -0.00000000000E+00 -0.00000000000E+00 -0.45593999997E+02  0.45594000000E+02  0.51100000000E-03 0.  1.
    9900012    2    1    2    0    0  0.13320063572E+02 -0.30796094570E+02 -0.22963945768E+02  0.50528851711E+02  0.29999975261E+02 0.  0.
         12    1    1    2    0    0 -0.13320063572E+02  0.30796094570E+02  0.22963945768E+02  0.40659148289E+02  0.00000000000E+00 0. -1.
         11    1    3    3    0    0 -0.17852469993E+01 -0.23552969093E+01 -0.11229018264E+02  0.11611433237E+02  0.51100000000E-03 0. -1.
        -11    1    3    3    0    0 -0.10334142220E+01 -0.44681743468E+01  0.39355612778E+01  0.60432747563E+01  0.51100000000E-03 0.  1.
        -12    1    3    3    0    0  0.16138724794E+02 -0.23972623314E+02 -0.15670488782E+02  0.32874143718E+02  0.00000000000E+00 0.  1.
</event>
<event>
 7    1  0.6462830E-013  0.5052890E+02  0.7816164E-02  0.1300439E+00
        -11   -1    0    0    0    0  0.00000000000E+00  0.00000000000E+00  0.45593999997E+02  0.45594000000E+02  0.51100000000E-03 0. -1.
         11   -1    0    0    0    0 -0.00000000000E+00 -0.00000000000E+00 -0.45593999997E+02  0.45594000000E+02  0.51100000000E-03 0.  1.
    9900012    2    1    2    0    0  0.17455319111E+02  0.21459433927E+02 -0.29798777137E+02  0.50528897838E+02  0.30000115469E+02 0.  0.
         12    1    1    2    0    0 -0.17455319111E+02 -0.21459433927E+02  0.29798777137E+02  0.40659102162E+02  0.00000000000E+00 0. -1.
         11    1    3    3    0    0  0.20774802725E+01  0.32203109474E+01  0.94290269557E+00  0.39465671963E+01  0.51100000000E-03 0.  1.
        -11    1    3    3    0    0  0.88602837712E+01  0.24185191065E+02 -0.25862447638E+02  0.36500606754E+02  0.51100000000E-03 0. -1.
        -12    1    3    3    0    0  0.65175550671E+01 -0.59460680856E+01 -0.48792321950E+01  0.10081723888E+02  0.00000000000E+00 0.  1.
</event>
<event>
 7    1  0.6462830E-013  0.5052885E+02  0.7816164E-02  0.1300439E+00
        -11   -1    0    0    0    0  0.00000000000E+00  0.00000000000E+00  0.45593999997E+02  0.45594000000E+02  0.51100000000E-03 0. -1.
         11   -1    0    0    0    0 -0.00000000000E+00 -0.00000000000E+00 -0.45593999997E+02  0.45594000000E+02  0.51100000000E-03 0.  1.
    9900012    2    1    2    0    0  0.18510727156E+02 -0.35431330368E+02 -0.74256668374E+01  0.50528847040E+02  0.29999961062E+02 0.  0.
         12    1    1    2    0    0 -0.18510727156E+02  0.35431330368E+02  0.74256668374E+01  0.40659152960E+02  0.00000000000E+00 0. -1.
         11    1    3    3    0    0 -0.20264459301E+01 -0.15239758155E+02 -0.73947685102E+01  0.17059874364E+02  0.51100000000E-03 0. -1.
        -11    1    3    3    0    0 -0.88249206118E+00 -0.25638378374E+01  0.46047367216E+01  0.53437493608E+01  0.51100000000E-03 0.  1.
        -12    1    3    3    0    0  0.21419665147E+02 -0.17627734375E+02 -0.46356350488E+01  0.28125223315E+02  0.00000000000E+00 0.  1.
</event>
<event>
 7    1  0.6462830E-013  0.5052886E+02  0.7816164E-02  0.1300439E+00
        -11   -1    0    0    0    0  0.00000000000E+00  0.00000000000E+00  0.45593999997E+02  0.45594000000E+02  0.51100000000E-03 0.  1.
         11   -1    0    0    0    0 -0.00000000000E+00 -0.00000000000E+00 -0.45593999997E+02  0.45594000000E+02  0.51100000000E-03 0. -1.
    9900012    2    1    2    0    0 -0.32775342189E+02 -0.12962969570E+02  0.20270770394E+02  0.50528858740E+02  0.29999996625E+02 0.  0.
         12    1    1    2    0    0  0.32775342189E+02  0.12962969570E+02 -0.20270770394E+02  0.40659141260E+02  0.00000000000E+00 0. -1.
         11    1    3    3    0    0  0.47866640470E+00  0.52569689572E+01  0.72074721558E+01  0.89337841524E+01  0.51100000000E-03 0. -1.
        -11    1    3    3    0    0 -0.65265129664E+01 -0.88486844366E+01  0.54232612166E+01  0.12259949031E+02  0.51100000000E-03 0.  1.
        -12    1    3    3    0    0 -0.26727495627E+02 -0.93712540902E+01  0.76400370217E+01  0.29335125556E+02  0.00000000000E+00 0.  1.
</event>
<event>
 7    1  0.6462830E-013  0.5052887E+02  0.7816164E-02  0.1300439E+00
        -11   -1    0    0    0    0  0.00000000000E+00  0.00000000000E+00  0.45593999997E+02  0.45594000000E+02  0.51100000000E-03 0. -1.
         11   -1    0    0    0    0 -0.00000000000E+00 -0.00000000000E+00 -0.45593999997E+02  0.45594000000E+02  0.51100000000E-03 0.  1.
    9900012    2    1    2    0    0  0.33087410145E+02  0.23442950752E+02 -0.29692373828E+01  0.50528867930E+02  0.30000024560E+02 0.  0.
         12    1    1    2    0    0 -0.33087410145E+02 -0.23442950752E+02  0.29692373828E+01  0.40659132070E+02  0.00000000000E+00 0. -1.
         11    1    3    3    0    0  0.42240618677E+01 -0.13488264260E+01  0.24177300359E+01  0.50504900928E+01  0.51100000000E-03 0. -1.
        -11    1    3    3    0    0 -0.16647600842E+01  0.97551037440E+01  0.31648932174E+01  0.10389900121E+02  0.51100000000E-03 0.  1.
        -12    1    3    3    0    0  0.30528108361E+02  0.15036673434E+02 -0.85518606361E+01  0.35088477716E+02  0.00000000000E+00 0.  1.
</event>
<event>
 7    1  0.6462830E-013  0.5052886E+02  0.7816164E-02  0.1300439E+00
        -11   -1    0    0    0    0  0.00000000000E+00  0.00000000000E+00  0.45593999997E+02  0.45594000000E+02  0.51100000000E-03 0. -1.
         11   -1    0    0    0    0 -0.00000000000E+00 -0.00000000000E+00 -0.45593999997E+02  0.45594000000E+02  0.51100000000E-03 0.  1.
    9900012    2    1    2    0    0  0.17978862084E+02  0.41300071445E+01 -0.36233540442E+02  0.50528857193E+02  0.29999991925E+02 0.  0.
         12    1    1    2    0    0 -0.17978862084E+02 -0.41300071445E+01  0.36233540442E+02  0.40659142807E+02  0.00000000000E+00 0. -1.
         11    1    3    3    0    0  0.18803014452E+02  0.74749925755E+01 -0.26094033486E+02  0.33020106758E+02  0.51100000000E-03 0. -1.
        -11    1    3    3    0    0 -0.43663217884E+00 -0.63236120248E+01 -0.12280633030E+02  0.13820009573E+02  0.51100000000E-03 0.  1.
         12    1    3    3    0    0 -0.38752018901E+00  0.29786265938E+01  0.21411260751E+01  0.36887408626E+01  0.00000000000E+00 0. -1.
</event>
<event>
 7    1  0.6462830E-013  0.5052885E+02  0.7816164E-02  0.1300439E+00
        -11   -1    0    0    0    0  0.00000000000E+00  0.00000000000E+00  0.45593999997E+02  0.45594000000E+02  0.51100000000E-03 0.  1.
         11   -1    0    0    0    0 -0.00000000000E+00 -0.00000000000E+00 -0.45593999997E+02  0.45594000000E+02  0.51100000000E-03 0. -1.
    9900012    2    1    2    0    0 -0.24483458976E+02  0.27061678381E+02  0.17927407922E+02  0.50528853981E+02  0.29999982160E+02 0.  0.
         12    1    1    2    0    0  0.24483458976E+02 -0.27061678381E+02 -0.17927407922E+02  0.40659146019E+02  0.00000000000E+00 0. -1.
         11    1    3    3    0    0  0.10056620153E+01  0.18971977497E+01  0.74415137949E+01  0.77451173788E+01  0.51100000000E-03 0. -1.
        -11    1    3    3    0    0 -0.52792937802E+01  0.18851939645E+02  0.90345579689E+01  0.21561303512E+02  0.51100000000E-03 0.  1.
        -12    1    3    3    0    0 -0.20209827211E+02  0.63125409864E+01  0.14513361580E+01  0.21222433090E+02  0.00000000000E+00 0.  1.
</event>
<event>
 7    1  0.6462830E-013  0.5052886E+02  0.7816164E-02  0.1300439E+00
        -11   -1    0    0    0    0  0.00000000000E+00  0.00000000000E+00  0.45593999997E+02  0.45594000000E+02  0.51100000000E-03 0.  1.
         11   -1    0    0    0    0 -0.00000000000E+00 -0.00000000000E+00 -0.45593999997E+02  0.45594000000E+02  0.51100000000E-03 0. -1.
    9900012    2    1    2    0    0 -0.15428157733E+02  0.13871484136E+02  0.34967404219E+02  0.50528862269E+02  0.30000007354E+02 0.  0.
         12    1    1    2    0    0  0.15428157733E+02 -0.13871484136E+02 -0.34967404219E+02  0.40659137731E+02  0.00000000000E+00 0. -1.
         11    1    3    3    0    0 -0.87047175760E+01 -0.46329293592E+01  0.16086711232E+02  0.18868450415E+02  0.51100000000E-03 0. -1.
        -11    1    3    3    0    0 -0.11576436636E+02  0.13144720683E+02  0.16458939454E+02  0.24035271066E+02  0.51100000000E-03 0.  1.
         12    1    3    3    0    0  0.48529964795E+01  0.53596928116E+01  0.24217535339E+01  0.76251407885E+01  0.00000000000E+00 0. -1.
</event>
<event>
 7    1  0.6462830E-013  0.5052886E+02  0.7816164E-02  0.1300439E+00
        -11   -1    0    0    0    0  0.00000000000E+00  0.00000000000E+00  0.45593999997E+02  0.45594000000E+02  0.51100000000E-03 0.  1.
         11   -1    0    0    0    0 -0.00000000000E+00 -0.00000000000E+00 -0.45593999997E+02  0.45594000000E+02  0.51100000000E-03 0. -1.
    9900012    2    1    2    0    0  0.32404993547E+02 -0.18429908314E+01  0.24488473030E+02  0.50528861626E+02  0.30000005397E+02 0.  0.
         12    1    1    2    0    0 -0.32404993547E+02  0.18429908314E+01 -0.24488473030E+02  0.40659138374E+02  0.00000000000E+00 0. -1.
         11    1    3    3    0    0  0.18657413669E+01 -0.75445817922E+01  0.87942385746E+01  0.11736282956E+02  0.51100000000E-03 0.  1.
        -11    1    3    3    0    0  0.22778484548E+02  0.93270123741E+00  0.18393140732E+02  0.29292267173E+02  0.51100000000E-03 0. -1.
         12    1    3    3    0    0  0.77607676328E+01  0.47688897234E+01 -0.26989062761E+01  0.95003114965E+01  0.00000000000E+00 0. -1.
</event>
<event>
 7    1  0.6462830E-013  0.5052881E+02  0.7816164E-02  0.1300439E+00
        -11   -1    0    0    0    0  0.00000000000E+00  0.00000000000E+00  0.45593999997E+02  0.45594000000E+02  0.51100000000E-03 0.  1.
         11   -1    0    0    0    0 -0.00000000000E+00 -0.00000000000E+00 -0.45593999997E+02  0.45594000000E+02  0.51100000000E-03 0. -1.
    9900012    2    1    2    0    0 -0.26699423750E+02 -0.30475555012E+02 -0.33986711177E+01  0.50528811036E+02  0.29999851624E+02 0.  0.
         12    1    1    2    0    0  0.26699423750E+02  0.30475555012E+02  0.33986711177E+01  0.40659188964E+02  0.00000000000E+00 0. -1.
         11    1    3    3    0    0  0.22943464174E+01 -0.84711924291E+01  0.40096632671E+01  0.96489650445E+01  0.51100000000E-03 0. -1.
        -11    1    3    3    0    0 -0.66812331372E+01  0.19777895819E+01  0.10559036027E+01  0.70473725985E+01  0.51100000000E-03 0.  1.
        -12    1    3    3    0    0 -0.22312537030E+02 -0.23982152165E+02 -0.84642379874E+01  0.33832473393E+02  0.00000000000E+00 0.  1.
</event>
<event>
 7    1  0.6462830E-013  0.5052885E+02  0.7816164E-02  0.1300439E+00
        -11   -1    0    0    0    0  0.00000000000E+00  0.00000000000E+00  0.45593999997E+02  0.45594000000E+02  0.51100000000E-03 0.  1.
         11   -1    0    0    0    0 -0.00000000000E+00 -0.00000000000E+00 -0.45593999997E+02  0.45594000000E+02  0.51100000000E-03 0. -1.
    9900012    2    1    2    0    0  0.25990455764E+02 -0.30656914721E+02  0.61495156627E+01  0.50528846616E+02  0.29999959774E+02 0.  0.
         12    1    1    2    0    0 -0.25990455764E+02  0.30656914721E+02 -0.61495156627E+01  0.40659153384E+02  0.00000000000E+00 0. -1.
         11    1    3    3    0    0  0.19186380747E+01  0.44271514016E+01  0.17517977656E+01  0.51331897751E+01  0.51100000000E-03 0. -1.
        -11    1    3    3    0    0  0.16446879573E+02 -0.10735666943E+02  0.26927566788E+01  0.19824362062E+02  0.51100000000E-03 0.  1.
        -12    1    3    3    0    0  0.76249381163E+01 -0.24348399180E+02  0.17049612184E+01  0.25571294779E+02  0.00000000000E+00 0.  1.
</event>
<event>
 7    1  0.6462830E-013  0.5052886E+02  0.7816164E-02  0.1300439E+00
        -11   -1    0    0    0    0  0.00000000000E+00  0.00000000000E+00  0.45593999997E+02  0.45594000000E+02  0.51100000000E-03 0.  1.
         11   -1    0    0    0    0 -0.00000000000E+00 -0.00000000000E+00 -0.45593999997E+02  0.45594000000E+02  0.51100000000E-03 0. -1.
    9900012    2    1    2    0    0  0.12067826686E+02 -0.28788683525E+02  0.26052735922E+02  0.50528858482E+02  0.29999995841E+02 0.  0.
         12    1    1    2    0    0 -0.12067826686E+02  0.28788683525E+02 -0.26052735922E+02  0.40659141518E+02  0.00000000000E+00 0. -1.
         11    1    3    3    0    0  0.50419292667E+01 -0.15553470112E+02  0.38974423557E+01  0.16808377091E+02  0.51100000000E-03 0. -1.
        -11    1    3    3    0    0  0.10566941863E+02 -0.17104134992E+02  0.16513895316E+02  0.26017694612E+02  0.51100000000E-03 0.  1.
         12    1    3    3    0    0 -0.35410444436E+01  0.38689215796E+01  0.56413982503E+01  0.77027867788E+01  0.00000000000E+00 0. -1.
</event>
<event>
 7    1  0.6462830E-013  0.5052886E+02  0.7816164E-02  0.1300439E+00
        -11   -1    0    0    0    0  0.00000000000E+00  0.00000000000E+00  0.45593999997E+02  0.45594000000E+02  0.51100000000E-03 0. -1.
         11   -1    0    0    0    0 -0.00000000000E+00 -0.00000000000E+00 -0.45593999997E+02  0.45594000000E+02  0.51100000000E-03 0.  1.
    9900012    2    1    2    0    0 -0.31033225933E+02 -0.25733269140E+02  0.52823608447E+01  0.50528860947E+02  0.30000003334E+02 0.  0.
         12    1    1    2    0    0  0.31033225933E+02  0.25733269140E+02 -0.52823608447E+01  0.40659139053E+02  0.00000000000E+00 0. -1.
         11    1    3    3    0    0 -0.12804899700E+02 -0.15651387429E+02  0.40949479431E-01  0.20222093410E+02  0.51100000000E-03 0.  1.
        -11    1    3    3    0    0 -0.16140987973E+02  0.26169164249E+01 -0.15357861987E+00  0.16352471708E+02  0.51100000000E-03 0. -1.
         12    1    3    3    0    0 -0.20873382603E+01 -0.12698798136E+02  0.53949899851E+01  0.13954295828E+02  0.00000000000E+00 0. -1.
</event>
<event>
 7    1  0.6462830E-013  0.5052886E+02  0.7816164E-02  0.1300439E+00
        -11   -1    0    0    0    0  0.00000000000E+00  0.00000000000E+00  0.45593999997E+02  0.45594000000E+02  0.51100000000E-03 0.  1.
         11   -1    0    0    0    0 -0.00000000000E+00 -0.00000000000E+00 -0.45593999997E+02  0.45594000000E+02  0.51100000000E-03 0. -1.
    9900012    2    1    2    0    0 -0.40562615400E+01 -0.27501258684E+02  0.29671421947E+02  0.50528858750E+02  0.29999996655E+02 0.  0.
         12    1    1    2    0    0  0.40562615400E+01  0.27501258684E+02 -0.29671421947E+02  0.40659141250E+02  0.00000000000E+00 0. -1.
         11    1    3    3    0    0 -0.37420081132E+01 -0.24897623890E+02  0.31068931194E+02  0.39989658487E+02  0.51100000000E-03 0.  1.
        -11    1    3    3    0    0  0.19685753857E+01  0.26524846169E+01  0.20153454292E+01  0.38694419691E+01  0.51100000000E-03 0. -1.
        -12    1    3    3    0    0 -0.22828288124E+01 -0.52561194110E+01 -0.34128546767E+01  0.66697582935E+01  0.00000000000E+00 0.  1.
</event>
<event>
 7    1  0.6462830E-013  0.5052886E+02  0.7816164E-02  0.1300439E+00
        -11   -1    0    0    0    0  0.00000000000E+00  0.00000000000E+00  0.45593999997E+02  0.45594000000E+02  0.51100000000E-03 0.  1.
         11   -1    0    0    0    0 -0.00000000000E+00 -0.00000000000E+00 -0.45593999997E+02  0.45594000000E+02  0.51100000000E-03 0. -1.
    9900012    2    1    2    0    0  0.77892189948E+01 -0.33423481867E+02  0.21802856365E+02  0.50528860580E+02  0.30000002220E+02 0.  0.
         12    1    1    2    0    0 -0.77892189948E+01  0.33423481867E+02 -0.21802856365E+02  0.40659139420E+02  0.00000000000E+00 0. -1.
         11    1    3    3    0    0  0.20325026167E+01 -0.48231942824E+01 -0.18462708613E+01  0.55500438131E+01  0.51100000000E-03 0. -1.
        -11    1    3    3    0    0  0.66569129222E+01 -0.24455320402E+02  0.49747217564E+01  0.25828763858E+02  0.51100000000E-03 0.  1.
        -12    1    3    3    0    0 -0.90019654417E+00 -0.41449671822E+01  0.18674405470E+02  0.19150052909E+02  0.00000000000E+00 0.  1.
</event>
<event>
 7    1  0.6462830E-013  0.5052885E+02  0.7816164E-02  0.1300439E+00
        -11   -1    0    0    0    0  0.00000000000E+00  0.00000000000E+00  0.45593999997E+02  0.45594000000E+02  0.51100000000E-03 0.  1.
         11   -1    0    0    0    0 -0.00000000000E+00 -0.00000000000E+00 -0.45593999997E+02  0.45594000000E+02  0.51100000000E-03 0. -1.
    9900012    2    1    2    0    0 -0.40304283372E+02 -0.36432728492E+01  0.39316470331E+01  0.50528849202E+02  0.29999967635E+02 0.  0.
         12    1    1    2    0    0  0.40304283372E+02  0.36432728492E+01 -0.39316470331E+01  0.40659150798E+02  0.00000000000E+00 0. -1.
         11    1    3    3    0    0 -0.16665063963E+02  0.46233349732E+01 -0.36354556327E+01  0.17672467883E+02  0.51100000000E-03 0. -1.
        -11    1    3    3    0    0 -0.21201944540E+02 -0.24100403570E+01 -0.19408437541E+01  0.21426563456E+02  0.51100000000E-03 0.  1.
         12    1    3    3    0    0 -0.24372748699E+01 -0.58565674654E+01  0.95079464199E+01  0.11429817863E+02  0.00000000000E+00 0. -1.
</event>
<event>
 7    1  0.6462830E-013  0.5052887E+02  0.7816164E-02  0.1300439E+00
        -11   -1    0    0    0    0  0.00000000000E+00  0.00000000000E+00  0.45593999997E+02  0.45594000000E+02  0.51100000000E-03 0.  1.
         11   -1    0    0    0    0 -0.00000000000E+00 -0.00000000000E+00 -0.45593999997E+02  0.45594000000E+02  0.51100000000E-03 0. -1.
    9900012    2    1    2    0    0 -0.33975798268E+02  0.12106894779E+02  0.18767872806E+02  0.50528870413E+02  0.30000032107E+02 0.  0.
         12    1    1    2    0    0  0.33975798268E+02 -0.12106894779E+02 -0.18767872806E+02  0.40659129587E+02  0.00000000000E+00 0. -1.
         11    1    3    3    0    0 -0.31391677281E+02  0.16895006629E+02  0.22999166001E+02  0.42424524612E+02  0.51100000000E-03 0.  1.
        -11    1    3    3    0    0 -0.20675032485E+01 -0.12857606241E+01 -0.38341983440E+01  0.45418968799E+01  0.51100000000E-03 0. -1.
        -12    1    3    3    0    0 -0.51661773828E+00 -0.35023512258E+01 -0.39709485109E+00  0.35624489214E+01  0.00000000000E+00 0.  1.
</event>
<event>
 7    1  0.6462830E-013  0.5052885E+02  0.7816164E-02  0.1300439E+00
        -11   -1    0    0    0    0  0.00000000000E+00  0.00000000000E+00  0.45593999997E+02  0.45594000000E+02  0.51100000000E-03 0.  1.
         11   -1    0    0    0    0 -0.00000000000E+00 -0.00000000000E+00 -0.45593999997E+02  0.45594000000E+02  0.51100000000E-03 0. -1.
    9900012    2    1    2    0    0  0.82672834486E+01  0.35961683917E+01  0.39647018294E+02  0.50528850202E+02  0.29999970674E+02 0.  0.
         12    1    1    2    0    0 -0.82672834486E+01 -0.35961683917E+01 -0.39647018294E+02  0.40659149798E+02  0.00000000000E+00 0. -1.
         11    1    3    3    0    0  0.59325188057E+01  0.36380335929E+01  0.13298966884E+02  0.15009749773E+02  0.51100000000E-03 0. -1.
        -11    1    3    3    0    0 -0.44225352652E+01  0.39620239005E+01  0.26992880555E+02  0.27638235336E+02  0.51100000000E-03 0.  1.
        -12    1    3    3    0    0  0.67572999080E+01 -0.40038891017E+01 -0.64482914578E+00  0.78808650929E+01  0.00000000000E+00 0.  1.
</event>
<event>
 7    1  0.6462830E-013  0.5052886E+02  0.7816164E-02  0.1300439E+00
        -11   -1    0    0    0    0  0.00000000000E+00  0.00000000000E+00  0.45593999997E+02  0.45594000000E+02  0.51100000000E-03 0.  1.
         11   -1    0    0    0    0 -0.00000000000E+00 -0.00000000000E+00 -0.45593999997E+02  0.45594000000E+02  0.51100000000E-03 0. -1.
    9900012    2    1    2    0    0  0.72227357590E+01 -0.17863436711E+02  0.35803565940E+02  0.50528860597E+02  0.30000002272E+02 0.  0.
         12    1    1    2    0    0 -0.72227357590E+01  0.17863436711E+02 -0.35803565940E+02  0.40659139403E+02  0.00000000000E+00 0. -1.
         11    1    3    3    0    0 -0.27943722473E+00  0.47653488551E+01  0.67897514500E+01  0.82998409556E+01  0.51100000000E-03 0. -1.
        -11    1    3    3    0    0  0.59387638712E+01  0.14173494460E+01  0.31168617389E+01  0.68551165658E+01  0.51100000000E-03 0.  1.
        -12    1    3    3    0    0  0.15634091125E+01 -0.24046135012E+02  0.25896952751E+02  0.35373903076E+02  0.00000000000E+00 0.  1.
</event>
<event>
 7    1  0.6462830E-013  0.5052886E+02  0.7816164E-02  0.1300439E+00
        -11   -1    0    0    0    0  0.00000000000E+00  0.00000000000E+00  0.45593999997E+02  0.45594000000E+02  0.51100000000E-03 0.  1.
         11   -1    0    0    0    0 -0.00000000000E+00 -0.00000000000E+00 -0.45593999997E+02  0.45594000000E+02  0.51100000000E-03 0. -1.
    9900012    2    1    2    0    0 -0.32502878388E+02 -0.16959641996E+02  0.17581217451E+02  0.50528858750E+02  0.29999996657E+02 0.  0.
         12    1    1    2    0    0  0.32502878388E+02  0.16959641996E+02 -0.17581217451E+02  0.40659141250E+02  0.00000000000E+00 0. -1.
         11    1    3    3    0    0 -0.31153055741E+01 -0.10646227217E+02  0.23216527010E+01  0.11333020529E+02  0.51100000000E-03 0. -1.
        -11    1    3    3    0    0 -0.16459404196E+02 -0.76385610975E+01  0.18382740307E+02  0.25829919543E+02  0.51100000000E-03 0.  1.
        -12    1    3    3    0    0 -0.12928168617E+02  0.13251463190E+01 -0.31231755567E+01  0.13365918679E+02  0.00000000000E+00 0.  1.
</event>
<event>
 7    1  0.6462830E-013  0.5052885E+02  0.7816164E-02  0.1300439E+00
        -11   -1    0    0    0    0  0.00000000000E+00  0.00000000000E+00  0.45593999997E+02  0.45594000000E+02  0.51100000000E-03 0.  1.
         11   -1    0    0    0    0 -0.00000000000E+00 -0.00000000000E+00 -0.45593999997E+02  0.45594000000E+02  0.51100000000E-03 0. -1.
    9900012    2    1    2    0    0  0.30489211375E+02 -0.82963268372E+00  0.26886540327E+02  0.50528851566E+02  0.29999974819E+02 0.  0.
         12    1    1    2    0    0 -0.30489211375E+02  0.82963268372E+00 -0.26886540327E+02  0.40659148434E+02  0.00000000000E+00 0. -1.
         11    1    3    3    0    0  0.12890233107E+00 -0.37341907038E+01 -0.34150914478E+01  0.50619804307E+01  0.51100000000E-03 0. -1.
        -11    1    3    3    0    0  0.14038177037E+01  0.10687091912E+01  0.97565906434E+01  0.99148325616E+01  0.51100000000E-03 0.  1.
        -12    1    3    3    0    0  0.28956491340E+02  0.18358488288E+01  0.20545041131E+02  0.35552038573E+02  0.00000000000E+00 0.  1.
</event>
<event>
 7    1  0.6462830E-013  0.5052887E+02  0.7816164E-02  0.1300439E+00
        -11   -1    0    0    0    0  0.00000000000E+00  0.00000000000E+00  0.45593999997E+02  0.45594000000E+02  0.51100000000E-03 0. -1.
         11   -1    0    0    0    0 -0.00000000000E+00 -0.00000000000E+00 -0.45593999997E+02  0.45594000000E+02  0.51100000000E-03 0.  1.
    9900012    2    1    2    0    0 -0.77096950664E+01 -0.16271707448E+02 -0.36454864000E+02  0.50528868547E+02  0.30000026435E+02 0.  0.
         12    1    1    2    0    0  0.77096950664E+01  0.16271707448E+02  0.36454864000E+02  0.40659131453E+02  0.00000000000E+00 0. -1.
         11    1    3    3    0    0  0.12635995041E+01 -0.35118263840E+01  0.30245027608E+01  0.48038760880E+01  0.51100000000E-03 0. -1.
        -11    1    3    3    0    0  0.14376590691E+01  0.34712037684E+01 -0.56334165768E+01  0.67713737003E+01  0.51100000000E-03 0.  1.
        -12    1    3    3    0    0 -0.10410953640E+02 -0.16231084832E+02 -0.33845950184E+02  0.38953618758E+02  0.00000000000E+00 0.  1.
</event>
<event>
 7    1  0.6462830E-013  0.5052886E+02  0.7816164E-02  0.1300439E+00
        -11   -1    0    0    0    0  0.00000000000E+00  0.00000000000E+00  0.45593999997E+02  0.45594000000E+02  0.51100000000E-03 0.  1.
         11   -1    0    0    0    0 -0.00000000000E+00 -0.00000000000E+00 -0.45593999997E+02  0.45594000000E+02  0.51100000000E-03 0. -1.
    9900012    2    1    2    0    0  0.26150259894E+01 -0.39692971401E+02  0.84139964024E+01  0.50528859884E+02  0.30000000103E+02 0.  0.
         12    1    1    2    0    0 -0.26150259894E+01  0.39692971401E+02 -0.84139964024E+01  0.40659140116E+02  0.00000000000E+00 0. -1.
         11    1    3    3    0    0 -0.55849089288E+00 -0.55884306728E+01  0.74775084203E+01  0.93517699875E+01  0.51100000000E-03 0.  1.
        -11    1    3    3    0    0 -0.78971923575E+01 -0.23824398362E+02 -0.37080769857E+01  0.25371587251E+02  0.51100000000E-03 0. -1.
         12    1    3    3    0    0  0.11070709240E+02 -0.10280142366E+02  0.46445649679E+01  0.15805502646E+02  0.00000000000E+00 0. -1.
</event>
<event>
 7    1  0.6462830E-013  0.5052886E+02  0.7816164E-02  0.1300439E+00
        -11   -1    0    0    0    0  0.00000000000E+00  0.00000000000E+00  0.45593999997E+02  0.45594000000E+02  0.51100000000E-03 0. -1.
         11   -1    0    0    0    0 -0.00000000000E+00 -0.00000000000E+00 -0.45593999997E+02  0.45594000000E+02  0.51100000000E-03 0.  1.
    9900012    2    1    2    0    0 -0.17510773558E+02  0.28444906604E+02 -0.23182445291E+02  0.50528859921E+02  0.30000000216E+02 0.  0.
         12    1    1    2    0    0  0.17510773558E+02 -0.28444906604E+02  0.23182445291E+02  0.40659140079E+02  0.00000000000E+00 0. -1.
         11    1    3    3    0    0 -0.69718448650E+01  0.89462072036E+01 -0.58536922991E+01  0.12763501007E+02  0.51100000000E-03 0. -1.
        -11    1    3    3    0    0 -0.84395311775E+01  0.32451329078E+01 -0.19246812290E+02  0.21264909068E+02  0.51100000000E-03 0.  1.
         12    1    3    3    0    0 -0.20993975159E+01  0.16253566492E+02  0.19180592986E+01  0.16500449846E+02  0.00000000000E+00 0. -1.
</event>
<event>
 7    1  0.6462830E-013  0.5052886E+02  0.7816164E-02  0.1300439E+00
        -11   -1    0    0    0    0  0.00000000000E+00  0.00000000000E+00  0.45593999997E+02  0.45594000000E+02  0.51100000000E-03 0.  1.
         11   -1    0    0    0    0 -0.00000000000E+00 -0.00000000000E+00 -0.45593999997E+02  0.45594000000E+02  0.51100000000E-03 0. -1.
    9900012    2    1    2    0    0 -0.11570823701E+02  0.14388892395E+02  0.36224871811E+02  0.50528861750E+02  0.30000005776E+02 0.  0.
         12    1    1    2    0    0  0.11570823701E+02 -0.14388892395E+02 -0.36224871811E+02  0.40659138250E+02  0.00000000000E+00 0. -1.
         11    1    3    3    0    0  0.90321889982E+00  0.50483886406E+01  0.19713870948E+02  0.20370045171E+02  0.51100000000E-03 0. -1.
        -11    1    3    3    0    0  0.19502232552E+01 -0.46935011808E+01  0.27485940156E+01  0.57781565748E+01  0.51100000000E-03 0.  1.
         12    1    3    3    0    0 -0.14424265856E+02  0.14034004936E+02  0.13762406847E+02  0.24380660004E+02  0.00000000000E+00 0. -1.
</event>
<event>
 7    1  0.6462830E-013  0.5052886E+02  0.7816164E-02  0.1300439E+00
        -11   -1    0    0    0    0  0.00000000000E+00  0.00000000000E+00  0.45593999997E+02  0.45594000000E+02  0.51100000000E-03 0. -1.
         11   -1    0    0    0    0 -0.00000000000E+00 -0.00000000000E+00 -0.45593999997E+02  0.45594000000E+02  0.51100000000E-03 0.  1.
    9900012    2    1    2    0    0  0.21778373660E+02  0.29354325426E+02  0.17809877987E+02  0.50528859153E+02  0.29999997883E+02 0.  0.
         12    1    1    2    0    0 -0.21778373660E+02 -0.29354325426E+02 -0.17809877987E+02  0.40659140847E+02  0.00000000000E+00 0. -1.
         11    1    3    3    0    0  0.12050637821E+02  0.76143530617E+00 -0.22860323651E+01  0.12289165954E+02  0.51100000000E-03 0.  1.
        -11    1    3    3    0    0  0.89441776009E+01  0.17878231668E+02  0.67339677531E+01  0.21094449566E+02  0.51100000000E-03 0. -1.
        -12    1    3    3    0    0  0.78355823900E+00  0.10714658451E+02  0.13361942599E+02  0.17145243634E+02  0.00000000000E+00 0.  1.
</event>
<event>
 7    1  0.6462830E-013  0.5052886E+02  0.7816164E-02  0.1300439E+00
        -11   -1    0    0    0    0  0.00000000000E+00  0.00000000000E+00  0.45593999997E+02  0.45594000000E+02  0.51100000000E-03 0.  1.
         11   -1    0    0    0    0 -0.00000000000E+00 -0.00000000000E+00 -0.45593999997E+02  0.45594000000E+02  0.51100000000E-03 0. -1.
    9900012    2    1    2    0    0 -0.85187577398E+01 -0.61094918121E+01  0.39284478576E+02  0.50528863504E+02  0.30000011106E+02 0.  0.
         12    1    1    2    0    0  0.85187577398E+01  0.61094918121E+01 -0.39284478576E+02  0.40659136496E+02  0.00000000000E+00 0. -1.
         11    1    3    3    0    0  0.18416099611E+00 -0.42093455481E+01  0.17600477651E+01  0.45662099834E+01  0.51100000000E-03 0. -1.
        -11    1    3    3    0    0  0.79601106044E+01  0.34078593404E+01  0.16339658186E+02  0.18492195544E+02  0.51100000000E-03 0.  1.
         12    1    3    3    0    0 -0.16663029340E+02 -0.53080056043E+01  0.21184772625E+02  0.27470457977E+02  0.00000000000E+00 0. -1.
</event>
<event>
 7    1  0.6462830E-013  0.5052885E+02  0.7816164E-02  0.1300439E+00
        -11   -1    0    0    0    0  0.00000000000E+00  0.00000000000E+00  0.45593999997E+02  0.45594000000E+02  0.51100000000E-03 0. -1.
         11   -1    0    0    0    0 -0.00000000000E+00 -0.00000000000E+00 -0.45593999997E+02  0.45594000000E+02  0.51100000000E-03 0.  1.
    9900012    2    1    2    0    0 -0.11333620723E+02 -0.37617085164E+02 -0.10472364429E+02  0.50528850086E+02  0.29999970322E+02 0.  0.
         12    1    1    2    0    0  0.11333620723E+02  0.37617085164E+02  0.10472364429E+02  0.40659149914E+02  0.00000000000E+00 0. -1.
         11    1    3    3    0    0 -0.66483466699E+01 -0.68066183032E+01 -0.41638469671E+01  0.10385961101E+02  0.51100000000E-03 0.  1.
        -11    1    3    3    0    0 -0.36611248286E+01 -0.33291858960E+02 -0.22488204490E+00  0.33493316948E+02  0.51100000000E-03 0. -1.
         12    1    3    3    0    0 -0.10241492246E+01  0.24813920986E+01 -0.60836354172E+01  0.66495720367E+01  0.00000000000E+00 0. -1.
</event>
<event>
 7    1  0.6462830E-013  0.5052885E+02  0.7816164E-02  0.1300439E+00
        -11   -1    0    0    0    0  0.00000000000E+00  0.00000000000E+00  0.45593999997E+02  0.45594000000E+02  0.51100000000E-03 0.  1.
         11   -1    0    0    0    0 -0.00000000000E+00 -0.00000000000E+00 -0.45593999997E+02  0.45594000000E+02  0.51100000000E-03 0. -1.
    9900012    2    1    2    0    0 -0.18204863314E+02  0.12462346398E+02  0.34153174603E+02  0.50528850212E+02  0.29999970705E+02 0.  0.
         12    1    1    2    0    0  0.18204863314E+02 -0.12462346398E+02 -0.34153174603E+02  0.40659149788E+02  0.00000000000E+00 0. -1.
         11    1    3    3    0    0 -0.57260039306E+01 -0.50422608220E+01  0.25925865139E+01  0.80581027733E+01  0.51100000000E-03 0. -1.
        -11    1    3    3    0    0  0.41887755815E+01  0.49162648620E+01  0.30897000908E+01  0.71597309990E+01  0.51100000000E-03 0.  1.
        -12    1    3    3    0    0 -0.16667634965E+02  0.12588342358E+02  0.28470887998E+02  0.35311016440E+02  0.00000000000E+00 0.  1.
</event>
<event>
 7    1  0.6462830E-013  0.5052886E+02  0.7816164E-02  0.1300439E+00
        -11   -1    0    0    0    0  0.00000000000E+00  0.00000000000E+00  0.45593999997E+02  0.45594000000E+02  0.51100000000E-03 0. -1.
         11   -1    0    0    0    0 -0.00000000000E+00 -0.00000000000E+00 -0.45593999997E+02  0.45594000000E+02  0.51100000000E-03 0.  1.
    9900012    2    1    2    0    0  0.22973246045E+02 -0.70269938493E+01 -0.32802701369E+02  0.50528857196E+02  0.29999991934E+02 0.  0.
         12    1    1    2    0    0 -0.22973246045E+02  0.70269938493E+01  0.32802701369E+02  0.40659142804E+02  0.00000000000E+00 0. -1.
         11    1    3    3    0    0  0.25196506427E+01 -0.55150210867E+01 -0.11598420488E+02  0.13087683333E+02  0.51100000000E-03 0. -1.
        -11    1    3    3    0    0  0.11037378782E+02  0.51035333288E+01 -0.22783472434E+02  0.25825499012E+02  0.51100000000E-03 0.  1.
         12    1    3    3    0    0  0.94162166206E+01 -0.66155060913E+01  0.15791915525E+01  0.11615674851E+02  0.00000000000E+00 0. -1.
</event>
<event>
 7    1  0.6462830E-013  0.5052886E+02  0.7816164E-02  0.1300439E+00
        -11   -1    0    0    0    0  0.00000000000E+00  0.00000000000E+00  0.45593999997E+02  0.45594000000E+02  0.51100000000E-03 0.  1.
         11   -1    0    0    0    0 -0.00000000000E+00 -0.00000000000E+00 -0.45593999997E+02  0.45594000000E+02  0.51100000000E-03 0. -1.
    9900012    2    1    2    0    0  0.14270032556E+02  0.34736574310E+02  0.15585322307E+02  0.50528859633E+02  0.29999999341E+02 0.  0.
         12    1    1    2    0    0 -0.14270032556E+02 -0.34736574310E+02 -0.15585322307E+02  0.40659140367E+02  0.00000000000E+00 0. -1.
         11    1    3    3    0    0  0.85989260391E+01  0.64651333389E+01 -0.47824760244E+00  0.10768853196E+02  0.51100000000E-03 0. -1.
        -11    1    3    3    0    0  0.12731714862E+02  0.25482158107E+02  0.14670905367E+02  0.32041729193E+02  0.51100000000E-03 0.  1.
         12    1    3    3    0    0 -0.70606083454E+01  0.27892828643E+01  0.13926645430E+01  0.77182772452E+01  0.00000000000E+00 0. -1.
</event>
<event>
 7    1  0.6462830E-013  0.5052887E+02  0.7816164E-02  0.1300439E+00
        -11   -1    0    0    0    0  0.00000000000E+00  0.00000000000E+00  0.45593999997E+02  0.45594000000E+02  0.51100000000E-03 0.  1.
         11   -1    0    0    0    0 -0.00000000000E+00 -0.00000000000E+00 -0.45593999997E+02  0.45594000000E+02  0.51100000000E-03 0. -1.
    9900012    2    1    2    0    0  0.27377122439E+02  0.29991799913E+02 -0.20372402419E+01  0.50528865198E+02  0.30000016255E+02 0.  0.
         12    1    1    2    0    0 -0.27377122439E+02 -0.29991799913E+02  0.20372402419E+01  0.40659134802E+02  0.00000000000E+00 0. -1.
         11    1    3    3    0    0  0.15417035809E+02  0.34445146646E+01 -0.38344507275E+00  0.15801794353E+02  0.51100000000E-03 0. -1.
        -11    1    3    3    0    0 -0.41393713221E+01  0.13359627375E+01  0.16061627312E+01  0.46366960606E+01  0.51100000000E-03 0.  1.
         12    1    3    3    0    0  0.16099457952E+02  0.25211322511E+02 -0.32599579004E+01  0.30090374784E+02  0.00000000000E+00 0. -1.
</event>
<event>
 7    1  0.6462830E-013  0.5052886E+02  0.7816164E-02  0.1300439E+00
        -11   -1    0    0    0    0  0.00000000000E+00  0.00000000000E+00  0.45593999997E+02  0.45594000000E+02  0.51100000000E-03 0. -1.
         11   -1    0    0    0    0 -0.00000000000E+00 -0.00000000000E+00 -0.45593999997E+02  0.45594000000E+02  0.51100000000E-03 0.  1.
    9900012    2    1    2    0    0 -0.15046645492E+02 -0.28592396717E+02 -0.24682766858E+02  0.50528859941E+02  0.30000000276E+02 0.  0.
         12    1    1    2    0    0  0.15046645492E+02  0.28592396717E+02  0.24682766858E+02  0.40659140059E+02  0.00000000000E+00 0. -1.
         11    1    3    3    0    0 -0.72702250173E+01 -0.99700951217E+01 -0.11783067758E+02  0.17061642787E+02  0.51100000000E-03 0. -1.
        -11    1    3    3    0    0  0.50573598003E+01 -0.10837188049E+02 -0.14004733920E+02  0.18416137092E+02  0.51100000000E-03 0.  1.
         12    1    3    3    0    0 -0.12833780275E+02 -0.77851135468E+01  0.11050348203E+01  0.15051080062E+02  0.00000000000E+00 0. -1.
</event>
<event>
 7    1  0.6462830E-013  0.5052886E+02  0.7816164E-02  0.1300439E+00
        -11   -1    0    0    0    0  0.00000000000E+00  0.00000000000E+00  0.45593999997E+02  0.45594000000E+02  0.51100000000E-03 0.  1.
         11   -1    0    0    0    0 -0.00000000000E+00 -0.00000000000E+00 -0.45593999997E+02  0.45594000000E+02  0.51100000000E-03 0. -1.
    9900012    2    1    2    0    0  0.13963054180E+02 -0.25569989661E+02  0.28361501046E+02  0.50528855950E+02  0.29999988146E+02 0.  0.
         12    1    1    2    0    0 -0.13963054180E+02  0.25569989661E+02 -0.28361501046E+02  0.40659144050E+02  0.00000000000E+00 0. -1.
         11    1    3    3    0    0  0.14554843794E+02 -0.15230672208E+02  0.28285279848E+02  0.35268596657E+02  0.51100000000E-03 0.  1.
        -11    1    3    3    0    0 -0.29312934985E+01 -0.10939030191E+02  0.27531997928E+01  0.11654826144E+02  0.51100000000E-03 0. -1.
        -12    1    3    3    0    0  0.23395038840E+01  0.59971273754E+00 -0.26769785956E+01  0.36054331491E+01  0.00000000000E+00 0.  1.
</event>
<event>
 7    1  0.6462830E-013  0.5052887E+02  0.7816164E-02  0.1300439E+00
        -11   -1    0    0    0    0  0.00000000000E+00  0.00000000000E+00  0.45593999997E+02  0.45594000000E+02  0.51100000000E-03 0.  1.
         11   -1    0    0    0    0 -0.00000000000E+00 -0.00000000000E+00 -0.45593999997E+02  0.45594000000E+02  0.51100000000E-03 0. -1.
    9900012    2    1    2    0    0 -0.17679780597E+02 -0.33274672232E+02  0.15277000709E+02  0.50528865666E+02  0.30000017679E+02 0.  0.
         12    1    1    2    0    0  0.17679780597E+02  0.33274672232E+02 -0.15277000709E+02  0.40659134334E+02  0.00000000000E+00 0. -1.
         11    1    3    3    0    0  0.38547892170E+01 -0.19895513219E+02 -0.45246886156E+00  0.20270559304E+02  0.51100000000E-03 0. -1.
        -11    1    3    3    0    0 -0.41079935359E+01 -0.39339048138E+01  0.15756840804E+01  0.59020334256E+01  0.51100000000E-03 0.  1.
         12    1    3    3    0    0 -0.17426576279E+02 -0.94452541993E+01  0.14153785490E+02  0.24356272937E+02  0.00000000000E+00 0. -1.
</event>
<event>
 7    1  0.6462830E-013  0.5052885E+02  0.7816164E-02  0.1300439E+00
        -11   -1    0    0    0    0  0.00000000000E+00  0.00000000000E+00  0.45593999997E+02  0.45594000000E+02  0.51100000000E-03 0. -1.
         11   -1    0    0    0    0 -0.00000000000E+00 -0.00000000000E+00 -0.45593999997E+02  0.45594000000E+02  0.51100000000E-03 0.  1.
    9900012    2    1    2    0    0  0.35764417662E+02  0.10197335694E+02 -0.16434342221E+02  0.50528845678E+02  0.29999956923E+02 0.  0.
         12    1    1    2    0    0 -0.35764417662E+02 -0.10197335694E+02  0.16434342221E+02  0.40659154322E+02  0.00000000000E+00 0. -1.
         11    1    3    3    0    0 -0.43713121036E+01  0.11653925480E-01 -0.26544971896E+01  0.51141823307E+01  0.51100000000E-03 0. -1.
        -11    1    3    3    0    0  0.15727109638E+02  0.10351135222E+02 -0.69279950760E+01  0.20062031153E+02  0.51100000000E-03 0.  1.
        -12    1    3    3    0    0  0.24408620127E+02 -0.16545345354E+00 -0.68518499555E+01  0.25352632194E+02  0.00000000000E+00 0.  1.
</event>
<event>
 7    1  0.6462830E-013  0.5052885E+02  0.7816164E-02  0.1300439E+00
        -11   -1    0    0    0    0  0.00000000000E+00  0.00000000000E+00  0.45593999997E+02  0.45594000000E+02  0.51100000000E-03 0.  1.
         11   -1    0    0    0    0 -0.00000000000E+00 -0.00000000000E+00 -0.45593999997E+02  0.45594000000E+02  0.51100000000E-03 0. -1.
    9900012    2    1    2    0    0  0.11453769842E+02 -0.29758658171E+02  0.25226974378E+02  0.50528845852E+02  0.29999957452E+02 0.  0.
         12    1    1    2    0    0 -0.11453769842E+02  0.29758658171E+02 -0.25226974378E+02  0.40659154148E+02  0.00000000000E+00 0. -1.
         11    1    3    3    0    0 -0.18872530650E+01  0.69047847828E+00 -0.31912254680E+01  0.37712603873E+01  0.51100000000E-03 0. -1.
        -11    1    3    3    0    0 -0.28795230250E+01 -0.10316640856E+01  0.48040805124E+01  0.56951886244E+01  0.51100000000E-03 0.  1.
        -12    1    3    3    0    0  0.16220545932E+02 -0.29417472564E+02  0.23614119334E+02  0.41062396840E+02  0.00000000000E+00 0.  1.
</event>
<event>
 7    1  0.6462830E-013  0.5052886E+02  0.7816164E-02  0.1300439E+00
        -11   -1    0    0    0    0  0.00000000000E+00  0.00000000000E+00  0.45593999997E+02  0.45594000000E+02  0.51100000000E-03 0. -1.
         11   -1    0    0    0    0 -0.00000000000E+00 -0.00000000000E+00 -0.45593999997E+02  0.45594000000E+02  0.51100000000E-03 0.  1.
    9900012    2    1    2    0    0  0.28154601294E+02 -0.16242472397E+02 -0.24426748152E+02  0.50528861926E+02  0.30000006311E+02 0.  0.
         12    1    1    2    0    0 -0.28154601294E+02  0.16242472397E+02  0.24426748152E+02  0.40659138074E+02  0.00000000000E+00 0. -1.
         11    1    3    3    0    0  0.50513102361E+01 -0.21127501203E+01 -0.83139761282E+00  0.55381107270E+01  0.51100000000E-03 0. -1.
        -11    1    3    3    0    0  0.86036750549E+01  0.21272362860E+01  0.40915495677E+01  0.97616154807E+01  0.51100000000E-03 0.  1.
        -12    1    3    3    0    0  0.14499616003E+02 -0.16256958563E+02 -0.27686900107E+02  0.35229135719E+02  0.00000000000E+00 0.  1.
</event>
<event>
 7    1  0.6462830E-013  0.5052886E+02  0.7816164E-02  0.1300439E+00
        -11   -1    0    0    0    0  0.00000000000E+00  0.00000000000E+00  0.45593999997E+02  0.45594000000E+02  0.51100000000E-03 0.  1.
         11   -1    0    0    0    0 -0.00000000000E+00 -0.00000000000E+00 -0.45593999997E+02  0.45594000000E+02  0.51100000000E-03 0. -1.
    9900012    2    1    2    0    0  0.39610591949E+02  0.88515051836E+01 -0.24119214955E+01  0.50528861988E+02  0.30000006499E+02 0.  0.
         12    1    1    2    0    0 -0.39610591949E+02 -0.88515051836E+01  0.24119214955E+01  0.40659138012E+02  0.00000000000E+00 0. -1.
         11    1    3    3    0    0  0.47016806635E+01  0.42591954137E+00 -0.61946952128E+01  0.77885465626E+01  0.51100000000E-03 0. -1.
        -11    1    3    3    0    0  0.15573195263E+02  0.44191111100E+01  0.13177040786E+02  0.20873125253E+02  0.51100000000E-03 0.  1.
         12    1    3    3    0    0  0.19335716022E+02  0.40064745322E+01 -0.93942670685E+01  0.21867190172E+02  0.00000000000E+00 0. -1.
</event>
<event>
 7    1  0.6462830E-013  0.5052887E+02  0.7816164E-02  0.1300439E+00
        -11   -1    0    0    0    0  0.00000000000E+00  0.00000000000E+00  0.45593999997E+02  0.45594000000E+02  0.51100000000E-03 0.  1.
         11   -1    0    0    0    0 -0.00000000000E+00 -0.00000000000E+00 -0.45593999997E+02  0.45594000000E+02  0.51100000000E-03 0. -1.
    9900012    2    1    2    0    0  0.73856121039E+01  0.12901151922E+02  0.37844127921E+02  0.50528868121E+02  0.30000025142E+02 0.  0.
         12    1    1    2    0    0 -0.73856121039E+01 -0.12901151922E+02 -0.37844127921E+02  0.40659131879E+02  0.00000000000E+00 0. -1.
         11    1    3    3    0    0  0.32870093617E+01 -0.52110892414E+01  0.92387666701E+01  0.11104714831E+02  0.51100000000E-03 0. -1.
        -11    1    3    3    0    0  0.12086464039E+02  0.11805953634E+02  0.19068405833E+02  0.25476798376E+02  0.51100000000E-03 0.  1.
         12    1    3    3    0    0 -0.79878612971E+01  0.63062875291E+01  0.95369554172E+01  0.13947354915E+02  0.00000000000E+00 0. -1.
</event>
<event>
 7    1  0.6462830E-013  0.5052885E+02  0.7816164E-02  0.1300439E+00
        -11   -1    0    0    0    0  0.00000000000E+00  0.00000000000E+00  0.45593999997E+02  0.45594000000E+02  0.51100000000E-03 0. -1.
         11   -1    0    0    0    0 -0.00000000000E+00 -0.00000000000E+00 -0.45593999997E+02  0.45594000000E+02  0.51100000000E-03 0.  1.
    9900012    2    1    2    0    0 -0.27158688319E+02 -0.25786181580E+02 -0.15831762363E+02  0.50528853290E+02  0.29999980061E+02 0.  0.
         12    1    1    2    0    0  0.27158688319E+02  0.25786181580E+02  0.15831762363E+02  0.40659146710E+02  0.00000000000E+00 0. -1.
         11    1    3    3    0    0  0.47123972011E+01 -0.36347051403E+01 -0.12495138582E+01  0.60810405344E+01  0.51100000000E-03 0. -1.
        -11    1    3    3    0    0 -0.97662803080E+01 -0.15598192108E+02 -0.29998273799E+01  0.18646254119E+02  0.51100000000E-03 0.  1.
         12    1    3    3    0    0 -0.22104805212E+02 -0.65532843307E+01 -0.11582421125E+02  0.25801558637E+02  0.00000000000E+00 0. -1.
</event>
<event>
 7    1  0.6462830E-013  0.5052885E+02  0.7816164E-02  0.1300439E+00
        -11   -1    0    0    0    0  0.00000000000E+00  0.00000000000E+00  0.45593999997E+02  0.45594000000E+02  0.51100000000E-03 0. -1.
         11   -1    0    0    0    0 -0.00000000000E+00 -0.00000000000E+00 -0.45593999997E+02  0.45594000000E+02  0.51100000000E-03 0.  1.
    9900012    2    1    2    0    0  0.16150049397E+02  0.31496486192E+02 -0.20007842298E+02  0.50528849844E+02  0.29999969586E+02 0.  0.
         12    1    1    2    0    0 -0.16150049397E+02 -0.31496486192E+02  0.20007842298E+02  0.40659150156E+02  0.00000000000E+00 0. -1.
         11    1    3    3    0    0  0.95749853449E+01  0.82650858981E+01 -0.71548230190E+01  0.14532153383E+02  0.51100000000E-03 0. -1.
        -11    1    3    3    0    0  0.40782465696E+00  0.24458625846E+02 -0.15728534698E+02  0.29082254095E+02  0.51100000000E-03 0.  1.
         12    1    3    3    0    0  0.61672393951E+01 -0.12272255515E+01  0.28755154192E+01  0.69144423663E+01  0.00000000000E+00 0. -1.
</event>
<event>
 7    1  0.6462830E-013  0.5052885E+02  0.7816164E-02  0.1300439E+00
        -11   -1    0    0    0    0  0.00000000000E+00  0.00000000000E+00  0.45593999997E+02  0.45594000000E+02  0.51100000000E-03 0.  1.
         11   -1    0    0    0    0 -0.00000000000E+00 -0.00000000000E+00 -0.45593999997E+02  0.45594000000E+02  0.51100000000E-03 0. -1.
    9900012    2    1    2    0    0  0.22979037328E+02  0.25814811371E+02  0.21417884586E+02  0.50528850688E+02  0.29999972152E+02 0.  0.
         12    1    1    2    0    0 -0.22979037328E+02 -0.25814811371E+02 -0.21417884586E+02  0.40659149312E+02  0.00000000000E+00 0. -1.
         11    1    3    3    0    0 -0.36584145803E+01  0.14240004159E+01 -0.71767780980E+00  0.39908440368E+01  0.51100000000E-03 0. -1.
        -11    1    3    3    0    0  0.77530148457E+01  0.22464431223E+01  0.14263259068E+02  0.16388907999E+02  0.51100000000E-03 0.  1.
         12    1    3    3    0    0  0.18884437062E+02  0.22144367832E+02  0.78723033273E+01  0.30149098652E+02  0.00000000000E+00 0. -1.
</event>
<event>
 7    1  0.6880142E-013  0.5052886E+02  0.7816164E-02  0.1300439E+00
        -11   -1    0    0    0    0  0.00000000000E+00  0.00000000000E+00  0.45593999997E+02  0.45594000000E+02  0.51100000000E-03 0.  1.
         11   -1    0    0    0    0 -0.00000000000E+00 -0.00000000000E+00 -0.45593999997E+02  0.45594000000E+02  0.51100000000E-03 0. -1.
    9900012    2    1    2    0    0 -0.23879479352E+02 -0.20565699586E+02  0.25690234392E+02  0.50528859863E+02  0.30000000040E+02 0.  0.
         12    1    1    2    0    0  0.23879479352E+02  0.20565699586E+02 -0.25690234392E+02  0.40659140137E+02  0.00000000000E+00 0. -1.
         11    1    3    3    0    0 -0.55948369636E+01 -0.11481715465E+02  0.15358216884E+02  0.19975154988E+02  0.51100000000E-03 0.  1.
        -11    1    3    3    0    0 -0.16811817999E+02 -0.41334581449E+01  0.15507195026E+02  0.23242112609E+02  0.51100000000E-03 0. -1.
         12    1    3    3    0    0 -0.14728243890E+01 -0.49505259759E+01 -0.51751775189E+01  0.73115922665E+01  0.00000000000E+00 0. -1.
</event>
<event>
 7    1  0.7762479E-013  0.5052886E+02  0.7816164E-02  0.1300439E+00
        -11   -1    0    0    0    0  0.00000000000E+00  0.00000000000E+00  0.45593999997E+02  0.45594000000E+02  0.51100000000E-03 0.  1.
         11   -1    0    0    0    0 -0.00000000000E+00 -0.00000000000E+00 -0.45593999997E+02  0.45594000000E+02  0.51100000000E-03 0. -1.
    9900012    2    1    2    0    0  0.29019778136E+02  0.36407161292E+01  0.28244703970E+02  0.50528860322E+02  0.30000001436E+02 0.  0.
         12    1    1    2    0    0 -0.29019778136E+02 -0.36407161292E+01 -0.28244703970E+02  0.40659139678E+02  0.00000000000E+00 0. -1.
         11    1    3    3    0    0 -0.11546585477E+01 -0.50058077559E+01  0.48451118487E+00  0.51600483525E+01  0.51100000000E-03 0. -1.
        -11    1    3    3    0    0  0.56734646546E+01  0.44596552189E+01  0.16642237481E+02  0.18139481649E+02  0.51100000000E-03 0.  1.
         12    1    3    3    0    0  0.24500972029E+02  0.41868686661E+01  0.11117955304E+02  0.27229330321E+02  0.00000000000E+00 0. -1.
</event>
<event>
 7    1  0.6462830E-013  0.5052885E+02  0.7816164E-02  0.1300439E+00
        -11   -1    0    0    0    0  0.00000000000E+00  0.00000000000E+00  0.45593999997E+02  0.45594000000E+02  0.51100000000E-03 0.  1.
         11   -1    0    0    0    0 -0.00000000000E+00 -0.00000000000E+00 -0.45593999997E+02  0.45594000000E+02  0.51100000000E-03 0. -1.
    9900012    2    1    2    0    0  0.15448227284E+02  0.98464223534E+01  0.36298299019E+02  0.50528852554E+02  0.29999977823E+02 0.  0.
         12    1    1    2    0    0 -0.15448227284E+02 -0.98464223534E+01 -0.36298299019E+02  0.40659147446E+02  0.00000000000E+00 0. -1.
         11    1    3    3    0    0  0.49781696199E+01  0.44236788482E+01 -0.16470384713E+01  0.68603092717E+01  0.51100000000E-03 0. -1.
        -11    1    3    3    0    0 -0.16153117254E+01  0.87273692271E+01  0.12819919892E+02  0.15592515894E+02  0.51100000000E-03 0.  1.
        -12    1    3    3    0    0  0.12085369389E+02 -0.33046257219E+01  0.25125417598E+02  0.28076027389E+02  0.00000000000E+00 0.  1.
</event>
<event>
 7    1  0.6462830E-013  0.5052886E+02  0.7816164E-02  0.1300439E+00
        -11   -1    0    0    0    0  0.00000000000E+00  0.00000000000E+00  0.45593999997E+02  0.45594000000E+02  0.51100000000E-03 0. -1.
         11   -1    0    0    0    0 -0.00000000000E+00 -0.00000000000E+00 -0.45593999997E+02  0.45594000000E+02  0.51100000000E-03 0.  1.
    9900012    2    1    2    0    0  0.79938904706E+01 -0.91460553761E+01 -0.38802225656E+02  0.50528864131E+02  0.30000013012E+02 0.  0.
         12    1    1    2    0    0 -0.79938904706E+01  0.91460553761E+01  0.38802225656E+02  0.40659135869E+02  0.00000000000E+00 0. -1.
         11    1    3    3    0    0 -0.78641750016E+00  0.18725094434E+01  0.21764958436E+01  0.29768907469E+01  0.51100000000E-03 0. -1.
        -11    1    3    3    0    0  0.84421535165E+01  0.21776448565E+01 -0.26786660228E+02  0.28169793388E+02  0.51100000000E-03 0.  1.
        -12    1    3    3    0    0  0.33815445420E+00 -0.13196209676E+02 -0.14192061271E+02  0.19382179996E+02  0.00000000000E+00 0.  1.
</event>
<event>
 7    1  0.6462830E-013  0.5052887E+02  0.7816164E-02  0.1300439E+00
        -11   -1    0    0    0    0  0.00000000000E+00  0.00000000000E+00  0.45593999997E+02  0.45594000000E+02  0.51100000000E-03 0. -1.
         11   -1    0    0    0    0 -0.00000000000E+00 -0.00000000000E+00 -0.45593999997E+02  0.45594000000E+02  0.51100000000E-03 0.  1.
    9900012    2    1    2    0    0  0.31678127644E+02 -0.24605450510E+02 -0.66507511419E+01  0.50528874867E+02  0.30000045646E+02 0.  0.
         12    1    1    2    0    0 -0.31678127644E+02  0.24605450510E+02  0.66507511419E+01  0.40659125133E+02  0.00000000000E+00 0. -1.
         11    1    3    3    0    0  0.21593135710E+02 -0.24564105812E+01 -0.51040170486E+01  0.22323719516E+02  0.51100000000E-03 0. -1.
        -11    1    3    3    0    0  0.12004840132E+02 -0.13504767185E+02  0.28934551464E+01  0.18299371745E+02  0.51100000000E-03 0.  1.
        -12    1    3    3    0    0 -0.19198481981E+01 -0.86442727441E+01 -0.44401892396E+01  0.99057836067E+01  0.00000000000E+00 0.  1.
</event>
<event>
 7    1  0.6462830E-013  0.5052887E+02  0.7816164E-02  0.1300439E+00
        -11   -1    0    0    0    0  0.00000000000E+00  0.00000000000E+00  0.45593999997E+02  0.45594000000E+02  0.51100000000E-03 0. -1.
         11   -1    0    0    0    0 -0.00000000000E+00 -0.00000000000E+00 -0.45593999997E+02  0.45594000000E+02  0.51100000000E-03 0.  1.
    9900012    2    1    2    0    0 -0.13687535913E+02  0.36673576497E+02 -0.10993879365E+02  0.50528865283E+02  0.30000016515E+02 0.  0.
         12    1    1    2    0    0  0.13687535913E+02 -0.36673576497E+02  0.10993879365E+02  0.40659134717E+02  0.00000000000E+00 0. -1.
         11    1    3    3    0    0 -0.98960607995E+01  0.10703143692E+02 -0.38972735538E+01  0.15089004130E+02  0.51100000000E-03 0. -1.
        -11    1    3    3    0    0 -0.25145625563E+01  0.15404595934E+02  0.75470062839E+01  0.17337298084E+02  0.51100000000E-03 0.  1.
         12    1    3    3    0    0 -0.12769125568E+01  0.10565836871E+02 -0.14643612095E+02  0.18102563069E+02  0.00000000000E+00 0. -1.
</event>
<event>
 7    1  0.6462830E-013  0.5052885E+02  0.7816164E-02  0.1300439E+00
        -11   -1    0    0    0    0  0.00000000000E+00  0.00000000000E+00  0.45593999997E+02  0.45594000000E+02  0.51100000000E-03 0.  1.
         11   -1    0    0    0    0 -0.00000000000E+00 -0.00000000000E+00 -0.45593999997E+02  0.45594000000E+02  0.51100000000E-03 0. -1.
    9900012    2    1    2    0    0  0.24791675131E+01  0.11071041936E+02  0.39044232156E+02  0.50528852127E+02  0.29999976526E+02 0.  0.
         12    1    1    2    0    0 -0.24791675131E+01 -0.11071041936E+02 -0.39044232156E+02  0.40659147873E+02  0.00000000000E+00 0. -1.
         11    1    3    3    0    0  0.85892476205E+01  0.32867051651E+01  0.18090456242E+01  0.93728465186E+01  0.51100000000E-03 0. -1.
        -11    1    3    3    0    0  0.40096479742E+01  0.48052091858E+01  0.19924260445E+02  0.20884048140E+02  0.51100000000E-03 0.  1.
         12    1    3    3    0    0 -0.10119728082E+02  0.29791275854E+01  0.17310926087E+02  0.20271957468E+02  0.00000000000E+00 0. -1.
</event>
<event>
 7    1  0.6462830E-013  0.5052886E+02  0.7816164E-02  0.1300439E+00
        -11   -1    0    0    0    0  0.00000000000E+00  0.00000000000E+00  0.45593999997E+02  0.45594000000E+02  0.51100000000E-03 0.  1.
         11   -1    0    0    0    0 -0.00000000000E+00 -0.00000000000E+00 -0.45593999997E+02  0.45594000000E+02  0.51100000000E-03 0. -1.
    9900012    2    1    2    0    0  0.17279230178E+02 -0.79350396415E+01  0.35939236672E+02  0.50528863484E+02  0.30000011047E+02 0.  0.
         12    1    1    2    0    0 -0.17279230178E+02  0.79350396415E+01 -0.35939236672E+02  0.40659136516E+02  0.00000000000E+00 0. -1.
         11    1    3    3    0    0  0.67868252860E+01 -0.78894892875E+01  0.12297511875E+02  0.16110053919E+02  0.51100000000E-03 0. -1.
        -11    1    3    3    0    0  0.17639143395E+02  0.74193139765E+00  0.18550349738E+02  0.25608696131E+02  0.51100000000E-03 0.  1.
         12    1    3    3    0    0 -0.71467385027E+01 -0.78748175161E+00  0.50913750587E+01  0.88101134342E+01  0.00000000000E+00 0. -1.
</event>
<event>
 7    1  0.6462830E-013  0.5052886E+02  0.7816164E-02  0.1300439E+00
        -11   -1    0    0    0    0  0.00000000000E+00  0.00000000000E+00  0.45593999997E+02  0.45594000000E+02  0.51100000000E-03 0.  1.
         11   -1    0    0    0    0 -0.00000000000E+00 -0.00000000000E+00 -0.45593999997E+02  0.45594000000E+02  0.51100000000E-03 0. -1.
    9900012    2    1    2    0    0  0.15043630154E+02  0.34731418412E+02  0.14852058852E+02  0.50528857298E+02  0.29999992242E+02 0.  0.
         12    1    1    2    0    0 -0.15043630154E+02 -0.34731418412E+02 -0.14852058852E+02  0.40659142702E+02  0.00000000000E+00 0. -1.
         11    1    3    3    0    0 -0.32987558840E+01  0.10811610002E+02  0.10870896872E+01  0.11355811968E+02  0.51100000000E-03 0. -1.
        -11    1    3    3    0    0  0.21379319771E+02  0.20955917841E+02  0.63098170620E+01  0.30594764226E+02  0.51100000000E-03 0.  1.
         12    1    3    3    0    0 -0.30369337332E+01  0.29638905698E+01  0.74551521031E+01  0.85782811034E+01  0.00000000000E+00 0. -1.
</event>
<event>
 7    1  0.6462830E-013  0.5052886E+02  0.7816164E-02  0.1300439E+00
        -11   -1    0    0    0    0  0.00000000000E+00  0.00000000000E+00  0.45593999997E+02  0.45594000000E+02  0.51100000000E-03 0.  1.
         11   -1    0    0    0    0 -0.00000000000E+00 -0.00000000000E+00 -0.45593999997E+02  0.45594000000E+02  0.51100000000E-03 0. -1.
    9900012    2    1    2    0    0 -0.31390217293E+02  0.17063517960E+02  0.19407637854E+02  0.50528858421E+02  0.29999995656E+02 0.  0.
         12    1    1    2    0    0  0.31390217293E+02 -0.17063517960E+02 -0.19407637854E+02  0.40659141579E+02  0.00000000000E+00 0. -1.
         11    1    3    3    0    0  0.79115438250E+00 -0.39748154317E+00 -0.26981143455E+01  0.28396721847E+01  0.51100000000E-03 0. -1.
        -11    1    3    3    0    0 -0.71360579191E+01  0.25832826625E+01 -0.39942913350E+01  0.85761900322E+01  0.51100000000E-03 0.  1.
        -12    1    3    3    0    0 -0.25045313756E+02  0.14877716841E+02  0.26100043535E+02  0.39112996204E+02  0.00000000000E+00 0.  1.
</event>
<event>
 7    1  0.6462830E-013  0.5052886E+02  0.7816164E-02  0.1300439E+00
        -11   -1    0    0    0    0  0.00000000000E+00  0.00000000000E+00  0.45593999997E+02  0.45594000000E+02  0.51100000000E-03 0.  1.
         11   -1    0    0    0    0 -0.00000000000E+00 -0.00000000000E+00 -0.45593999997E+02  0.45594000000E+02  0.51100000000E-03 0. -1.
    9900012    2    1    2    0    0 -0.28290910241E+02  0.53907162004E+01  0.28700700100E+02  0.50528860687E+02  0.30000002545E+02 0.  0.
         12    1    1    2    0    0  0.28290910241E+02 -0.53907162004E+01 -0.28700700100E+02  0.40659139313E+02  0.00000000000E+00 0. -1.
         11    1    3    3    0    0 -0.18141628244E+02 -0.25067215020E+01  0.48254336685E+01  0.18939037419E+02  0.51100000000E-03 0. -1.
        -11    1    3    3    0    0 -0.68734659384E+01 -0.27420926867E+01  0.31069491568E+01  0.80260039642E+01  0.51100000000E-03 0.  1.
         12    1    3    3    0    0 -0.32758160588E+01  0.10639530389E+02  0.20768317275E+02  0.23563819304E+02  0.00000000000E+00 0. -1.
</event>
<event>
 7    1  0.6462830E-013  0.5052886E+02  0.7816164E-02  0.1300439E+00
        -11   -1    0    0    0    0  0.00000000000E+00  0.00000000000E+00  0.45593999997E+02  0.45594000000E+02  0.51100000000E-03 0.  1.
         11   -1    0    0    0    0 -0.00000000000E+00 -0.00000000000E+00 -0.45593999997E+02  0.45594000000E+02  0.51100000000E-03 0. -1.
    9900012    2    1    2    0    0  0.10326740239E+02  0.12142138072E+02  0.37404442939E+02  0.50528862866E+02  0.30000009168E+02 0.  0.
         12    1    1    2    0    0 -0.10326740239E+02 -0.12142138072E+02 -0.37404442939E+02  0.40659137134E+02  0.00000000000E+00 0. -1.
         11    1    3    3    0    0  0.78136556353E+01  0.29216390320E-01  0.15704424996E+01  0.79699659906E+01  0.51100000000E-03 0. -1.
        -11    1    3    3    0    0  0.10887343268E+02  0.76580930049E+01  0.18376587604E+02  0.22690958643E+02  0.51100000000E-03 0.  1.
        -12    1    3    3    0    0 -0.83742586642E+01  0.44548286771E+01  0.17457412835E+02  0.19867938232E+02  0.00000000000E+00 0.  1.
</event>
<event>
 7    1  0.6462830E-013  0.5052886E+02  0.7816164E-02  0.1300439E+00
        -11   -1    0    0    0    0  0.00000000000E+00  0.00000000000E+00  0.45593999997E+02  0.45594000000E+02  0.51100000000E-03 0.  1.
         11   -1    0    0    0    0 -0.00000000000E+00 -0.00000000000E+00 -0.45593999997E+02  0.45594000000E+02  0.51100000000E-03 0. -1.
    9900012    2    1    2    0    0 -0.50523035269E+01  0.12730599123E+02  0.38282783728E+02  0.50528862590E+02  0.30000008328E+02 0.  0.
         12    1    1    2    0    0  0.50523035269E+01 -0.12730599123E+02 -0.38282783728E+02  0.40659137410E+02  0.00000000000E+00 0. -1.
         11    1    3    3    0    0 -0.15710177286E+01 -0.79937247951E+01  0.63388098410E+01  0.10322220849E+02  0.51100000000E-03 0. -1.
        -11    1    3    3    0    0 -0.64721651322E+01  0.70153192202E+01  0.18276814787E+02  0.20619058763E+02  0.51100000000E-03 0.  1.
        -12    1    3    3    0    0  0.29908793339E+01  0.13709004698E+02  0.13667159100E+02  0.19587582977E+02  0.00000000000E+00 0.  1.
</event>
<event>
 7    1  0.6462830E-013  0.5052887E+02  0.7816164E-02  0.1300439E+00
        -11   -1    0    0    0    0  0.00000000000E+00  0.00000000000E+00  0.45593999997E+02  0.45594000000E+02  0.51100000000E-03 0.  1.
         11   -1    0    0    0    0 -0.00000000000E+00 -0.00000000000E+00 -0.45593999997E+02  0.45594000000E+02  0.51100000000E-03 0. -1.
    9900012    2    1    2    0    0 -0.18833359927E+01  0.37396266625E+02  0.15847299455E+02  0.50528872956E+02  0.30000039837E+02 0.  0.
         12    1    1    2    0    0  0.18833359927E+01 -0.37396266625E+02 -0.15847299455E+02  0.40659127044E+02  0.00000000000E+00 0. -1.
         11    1    3    3    0    0 -0.30169633994E+01  0.14099975403E+02  0.91764924849E+01  0.17091500493E+02  0.51100000000E-03 0. -1.
        -11    1    3    3    0    0 -0.10931935458E+02  0.10220564848E+02  0.26856030924E+01  0.15204592165E+02  0.51100000000E-03 0.  1.
         12    1    3    3    0    0  0.12065562864E+02  0.13075726375E+02  0.39852038774E+01  0.18232780298E+02  0.00000000000E+00 0. -1.
</event>
<event>
 7    1  0.6462830E-013  0.5052887E+02  0.7816164E-02  0.1300439E+00
        -11   -1    0    0    0    0  0.00000000000E+00  0.00000000000E+00  0.45593999997E+02  0.45594000000E+02  0.51100000000E-03 0. -1.
         11   -1    0    0    0    0 -0.00000000000E+00 -0.00000000000E+00 -0.45593999997E+02  0.45594000000E+02  0.51100000000E-03 0.  1.
    9900012    2    1    2    0    0 -0.29427199647E+02  0.14770098559E+02 -0.23854738962E+02  0.50528874807E+02  0.30000045464E+02 0.  0.
         12    1    1    2    0    0  0.29427199647E+02 -0.14770098559E+02  0.23854738962E+02  0.40659125193E+02  0.00000000000E+00 0. -1.
         11    1    3    3    0    0  0.51548199408E+01 -0.11216496203E+01  0.14477947628E-01  0.52754598249E+01  0.51100000000E-03 0. -1.
        -11    1    3    3    0    0 -0.49853667818E+01  0.22894919527E+01 -0.13361698989E+01  0.56463267360E+01  0.51100000000E-03 0.  1.
         12    1    3    3    0    0 -0.29596652806E+02  0.13602256227E+02 -0.22533047011E+02  0.39607088246E+02  0.00000000000E+00 0. -1.
</event>
<event>
 7    1  0.6462830E-013  0.5052886E+02  0.7816164E-02  0.1300439E+00
        -11   -1    0    0    0    0  0.00000000000E+00  0.00000000000E+00  0.45593999997E+02  0.45594000000E+02  0.51100000000E-03 0.  1.
         11   -1    0    0    0    0 -0.00000000000E+00 -0.00000000000E+00 -0.45593999997E+02  0.45594000000E+02  0.51100000000E-03 0. -1.
    9900012    2    1    2    0    0  0.38765840112E+02 -0.14277631050E+01  0.12179350785E+02  0.50528862618E+02  0.30000008415E+02 0.  0.
         12    1    1    2    0    0 -0.38765840112E+02  0.14277631050E+01 -0.12179350785E+02  0.40659137382E+02  0.00000000000E+00 0. -1.
         11    1    3    3    0    0  0.29565593907E+02 -0.22139747139E+01  0.82244893045E+01  0.30767974449E+02  0.51100000000E-03 0.  1.
        -11    1    3    3    0    0  0.50839124335E+01 -0.20438454069E+00 -0.66319491697E+01  0.83588688662E+01  0.51100000000E-03 0. -1.
         12    1    3    3    0    0  0.41163337715E+01  0.99059614961E+00  0.10586810650E+02  0.11402019303E+02  0.00000000000E+00 0. -1.
</event>
<event>
 7    1  0.6462830E-013  0.5052885E+02  0.7816164E-02  0.1300439E+00
        -11   -1    0    0    0    0  0.00000000000E+00  0.00000000000E+00  0.45593999997E+02  0.45594000000E+02  0.51100000000E-03 0.  1.
         11   -1    0    0    0    0 -0.00000000000E+00 -0.00000000000E+00 -0.45593999997E+02  0.45594000000E+02  0.51100000000E-03 0. -1.
    9900012    2    1    2    0    0  0.30373980008E+02  0.17161644812E+02  0.20882183152E+02  0.50528852353E+02  0.29999977212E+02 0.  0.
         12    1    1    2    0    0 -0.30373980008E+02 -0.17161644812E+02 -0.20882183152E+02  0.40659147647E+02  0.00000000000E+00 0. -1.
         11    1    3    3    0    0  0.13009322063E+01  0.82428374063E+01  0.93944863416E+00  0.83975804319E+01  0.51100000000E-03 0. -1.
        -11    1    3    3    0    0  0.65957936784E+00  0.33518904413E+01  0.11463266407E+02  0.11961466944E+02  0.51100000000E-03 0.  1.
        -12    1    3    3    0    0  0.28413468434E+02  0.55669169644E+01  0.84794681111E+01  0.30169804977E+02  0.00000000000E+00 0.  1.
</event>
<event>
 7    1  0.6462830E-013  0.5052885E+02  0.7816164E-02  0.1300439E+00
        -11   -1    0    0    0    0  0.00000000000E+00  0.00000000000E+00  0.45593999997E+02  0.45594000000E+02  0.51100000000E-03 0.  1.
         11   -1    0    0    0    0 -0.00000000000E+00 -0.00000000000E+00 -0.45593999997E+02  0.45594000000E+02  0.51100000000E-03 0. -1.
    9900012    2    1    2    0    0  0.35614348507E+02  0.13865650882E+00  0.19615432596E+02  0.50528852921E+02  0.29999978939E+02 0.  0.
         12    1    1    2    0    0 -0.35614348507E+02 -0.13865650882E+00 -0.19615432596E+02  0.40659147079E+02  0.00000000000E+00 0. -1.
         11    1    3    3    0    0  0.12881630191E+01 -0.27507365050E+01  0.76364191748E+01  0.82183218091E+01  0.51100000000E-03 0. -1.
        -11    1    3    3    0    0  0.84058240570E+01 -0.18401297945E+01  0.13398863204E+02  0.15923991056E+02  0.51100000000E-03 0.  1.
         12    1    3    3    0    0  0.25920361431E+02  0.47295228083E+01 -0.14198497823E+01  0.26386540056E+02  0.00000000000E+00 0. -1.
</event>
<event>
 7    1  0.6462830E-013  0.5052887E+02  0.7816164E-02  0.1300439E+00
        -11   -1    0    0    0    0  0.00000000000E+00  0.00000000000E+00  0.45593999997E+02  0.45594000000E+02  0.51100000000E-03 0.  1.
         11   -1    0    0    0    0 -0.00000000000E+00 -0.00000000000E+00 -0.45593999997E+02  0.45594000000E+02  0.51100000000E-03 0. -1.
    9900012    2    1    2    0    0 -0.34234358331E+02  0.15654795078E+02 -0.15365579377E+02  0.50528869059E+02  0.30000027993E+02 0.  0.
         12    1    1    2    0    0  0.34234358331E+02 -0.15654795078E+02  0.15365579377E+02  0.40659130941E+02  0.00000000000E+00 0. -1.
         11    1    3    3    0    0 -0.13235432758E+02  0.12721167446E+02 -0.15106122228E+01  0.18419737540E+02  0.51100000000E-03 0. -1.
        -11    1    3    3    0    0 -0.12344606761E+02  0.10270912245E+02 -0.13124371895E+02  0.20739577920E+02  0.51100000000E-03 0.  1.
        -12    1    3    3    0    0 -0.86543188120E+01 -0.73372846139E+01 -0.73059525966E+00  0.11369553599E+02  0.00000000000E+00 0.  1.
</event>
<event>
 7    1  0.6462830E-013  0.5052886E+02  0.7816164E-02  0.1300439E+00
        -11   -1    0    0    0    0  0.00000000000E+00  0.00000000000E+00  0.45593999997E+02  0.45594000000E+02  0.51100000000E-03 0.  1.
         11   -1    0    0    0    0 -0.00000000000E+00 -0.00000000000E+00 -0.45593999997E+02  0.45594000000E+02  0.51100000000E-03 0. -1.
    9900012    2    1    2    0    0 -0.15695501918E+02 -0.37191213766E+02  0.48611152342E+01  0.50528860767E+02  0.30000002788E+02 0.  0.
         12    1    1    2    0    0  0.15695501918E+02  0.37191213766E+02 -0.48611152342E+01  0.40659139233E+02  0.00000000000E+00 0. -1.
         11    1    3    3    0    0  0.38153170159E+01  0.26416336326E+01 -0.19534945172E+01  0.50349789742E+01  0.51100000000E-03 0. -1.
        -11    1    3    3    0    0 -0.93640471129E+01 -0.12348512307E+02  0.43310101714E+01  0.16091264210E+02  0.51100000000E-03 0.  1.
        -12    1    3    3    0    0 -0.10146771821E+02 -0.27484335092E+02  0.24835995800E+01  0.29402617583E+02  0.00000000000E+00 0.  1.
</event>
<event>
 7    1  0.6462830E-013  0.5052885E+02  0.7816164E-02  0.1300439E+00
        -11   -1    0    0    0    0  0.00000000000E+00  0.00000000000E+00  0.45593999997E+02  0.45594000000E+02  0.51100000000E-03 0.  1.
         11   -1    0    0    0    0 -0.00000000000E+00 -0.00000000000E+00 -0.45593999997E+02  0.45594000000E+02  0.51100000000E-03 0. -1.
    9900012    2    1    2    0    0 -0.86098748239E+01 -0.71382933042E+01  0.39090680851E+02  0.50528849675E+02  0.29999969072E+02 0.  0.
         12    1    1    2    0    0  0.86098748239E+01  0.71382933042E+01 -0.39090680851E+02  0.40659150325E+02  0.00000000000E+00 0. -1.
         11    1    3    3    0    0 -0.29033620780E+01  0.83652753702E+01  0.85365388486E+01  0.12299586950E+02  0.51100000000E-03 0. -1.
        -11    1    3    3    0    0  0.19150872923E+01 -0.77447948100E+01  0.28585438922E+01  0.84747082210E+01  0.51100000000E-03 0.  1.
        -12    1    3    3    0    0 -0.76216000381E+01 -0.77587738644E+01  0.27695598110E+02  0.29754554503E+02  0.00000000000E+00 0.  1.
</event>
<event>
 7    1  0.6462830E-013  0.5052884E+02  0.7816164E-02  0.1300439E+00
        -11   -1    0    0    0    0  0.00000000000E+00  0.00000000000E+00  0.45593999997E+02  0.45594000000E+02  0.51100000000E-03 0.  1.
         11   -1    0    0    0    0 -0.00000000000E+00 -0.00000000000E+00 -0.45593999997E+02  0.45594000000E+02  0.51100000000E-03 0. -1.
    9900012    2    1    2    0    0 -0.71779547202E+01 -0.38344114861E+02  0.11461809000E+02  0.50528840589E+02  0.29999941455E+02 0.  0.
         12    1    1    2    0    0  0.71779547202E+01  0.38344114861E+02 -0.11461809000E+02  0.40659159411E+02  0.00000000000E+00 0. -1.
         11    1    3    3    0    0 -0.29008737058E+01  0.11001797548E+00 -0.16037395878E+01  0.33164971188E+01  0.51100000000E-03 0. -1.
        -11    1    3    3    0    0 -0.10808038985E+02 -0.36638082746E+02  0.87880951760E+01  0.39196854862E+02  0.51100000000E-03 0.  1.
         12    1    3    3    0    0  0.65309579703E+01 -0.18160500907E+01  0.42774534122E+01  0.80154886087E+01  0.00000000000E+00 0. -1.
</event>
<event>
 7    1  0.6462830E-013  0.5052886E+02  0.7816164E-02  0.1300439E+00
        -11   -1    0    0    0    0  0.00000000000E+00  0.00000000000E+00  0.45593999997E+02  0.45594000000E+02  0.51100000000E-03 0.  1.
         11   -1    0    0    0    0 -0.00000000000E+00 -0.00000000000E+00 -0.45593999997E+02  0.45594000000E+02  0.51100000000E-03 0. -1.
    9900012    2    1    2    0    0  0.60938291724E+01 -0.40105096236E+02  0.27589770136E+01  0.50528862623E+02  0.30000008428E+02 0.  0.
         12    1    1    2    0    0 -0.60938291724E+01  0.40105096236E+02 -0.27589770136E+01  0.40659137377E+02  0.00000000000E+00 0. -1.
         11    1    3    3    0    0 -0.96151616218E+01 -0.13661061455E+02  0.29041979707E+01  0.16956128662E+02  0.51100000000E-03 0. -1.
        -11    1    3    3    0    0  0.63976570171E+01 -0.19023111611E+02  0.48705586351E+01  0.20652630156E+02  0.51100000000E-03 0.  1.
         12    1    3    3    0    0  0.93113337771E+01 -0.74209231708E+01 -0.50157795922E+01  0.12920103805E+02  0.00000000000E+00 0. -1.
</event>
<event>
 7    1  0.6462830E-013  0.5052885E+02  0.7816164E-02  0.1300439E+00
        -11   -1    0    0    0    0  0.00000000000E+00  0.00000000000E+00  0.45593999997E+02  0.45594000000E+02  0.51100000000E-03 0.  1.
         11   -1    0    0    0    0 -0.00000000000E+00 -0.00000000000E+00 -0.45593999997E+02  0.45594000000E+02  0.51100000000E-03 0. -1.
    9900012    2    1    2    0    0 -0.18279098386E+02  0.25546506894E+02  0.25815048072E+02  0.50528853928E+02  0.29999981999E+02 0.  0.
         12    1    1    2    0    0  0.18279098386E+02 -0.25546506894E+02 -0.25815048072E+02  0.40659146072E+02  0.00000000000E+00 0. -1.
         11    1    3    3    0    0 -0.47729742562E+01  0.13039510068E+02 -0.47422029002E+01  0.14673056760E+02  0.51100000000E-03 0.  1.
        -11    1    3    3    0    0 -0.79436757948E+01  0.52507160072E+01  0.13797433816E+02  0.16764282982E+02  0.51100000000E-03 0. -1.
        -12    1    3    3    0    0 -0.55624483353E+01  0.72562808189E+01  0.16759817157E+02  0.19091514186E+02  0.00000000000E+00 0.  1.
</event>
<event>
 7    1  0.6462830E-013  0.5052886E+02  0.7816164E-02  0.1300439E+00
        -11   -1    0    0    0    0  0.00000000000E+00  0.00000000000E+00  0.45593999997E+02  0.45594000000E+02  0.51100000000E-03 0.  1.
         11   -1    0    0    0    0 -0.00000000000E+00 -0.00000000000E+00 -0.45593999997E+02  0.45594000000E+02  0.51100000000E-03 0. -1.
    9900012    2    1    2    0    0 -0.40271377157E+02  0.55875908277E+01 -0.40083409510E+00  0.50528860101E+02  0.30000000763E+02 0.  0.
         12    1    1    2    0    0  0.40271377157E+02 -0.55875908277E+01  0.40083409510E+00  0.40659139899E+02  0.00000000000E+00 0. -1.
         11    1    3    3    0    0  0.12653435627E+01  0.48166704003E+01 -0.19963169665E+01  0.53653228951E+01  0.51100000000E-03 0. -1.
        -11    1    3    3    0    0 -0.23719230653E+02  0.56847027109E+01 -0.61010852128E+01  0.25142414139E+02  0.51100000000E-03 0.  1.
        -12    1    3    3    0    0 -0.17817490067E+02 -0.49137822836E+01  0.76965680842E+01  0.20021123067E+02  0.00000000000E+00 0.  1.
</event>
<event>
 7    1  0.6462830E-013  0.5052885E+02  0.7816164E-02  0.1300439E+00
        -11   -1    0    0    0    0  0.00000000000E+00  0.00000000000E+00  0.45593999997E+02  0.45594000000E+02  0.51100000000E-03 0.  1.
         11   -1    0    0    0    0 -0.00000000000E+00 -0.00000000000E+00 -0.45593999997E+02  0.45594000000E+02  0.51100000000E-03 0. -1.
    9900012    2    1    2    0    0 -0.23411394005E+02 -0.13871482604E+02  0.30210184751E+02  0.50528847751E+02  0.29999963224E+02 0.  0.
         12    1    1    2    0    0  0.23411394005E+02  0.13871482604E+02 -0.30210184751E+02  0.40659152249E+02  0.00000000000E+00 0. -1.
         11    1    3    3    0    0 -0.58678789839E+01 -0.29000572610E+01  0.93143410297E+01  0.11384168172E+02  0.51100000000E-03 0. -1.
        -11    1    3    3    0    0 -0.17087718256E+02 -0.56902333879E+01  0.26103516540E+02  0.31713758012E+02  0.51100000000E-03 0.  1.
         12    1    3    3    0    0 -0.45579676547E+00 -0.52811919553E+01 -0.52076728187E+01  0.74309215678E+01  0.00000000000E+00 0. -1.
</event>
<event>
 7    1  0.6462830E-013  0.5052886E+02  0.7816164E-02  0.1300439E+00
        -11   -1    0    0    0    0  0.00000000000E+00  0.00000000000E+00  0.45593999997E+02  0.45594000000E+02  0.51100000000E-03 0. -1.
         11   -1    0    0    0    0 -0.00000000000E+00 -0.00000000000E+00 -0.45593999997E+02  0.45594000000E+02  0.51100000000E-03 0.  1.
    9900012    2    1    2    0    0  0.50861710438E+00  0.36802239547E+02 -0.17277207277E+02  0.50528863040E+02  0.30000009695E+02 0.  0.
         12    1    1    2    0    0 -0.50861710438E+00 -0.36802239547E+02  0.17277207277E+02  0.40659136960E+02  0.00000000000E+00 0. -1.
         11    1    3    3    0    0 -0.13631194401E+01  0.23252968264E+01  0.25243110702E+01  0.36928642785E+01  0.51100000000E-03 0. -1.
        -11    1    3    3    0    0  0.97801878987E+01  0.21020352159E+02 -0.21657764812E+01  0.23285142650E+02  0.51100000000E-03 0.  1.
        -12    1    3    3    0    0 -0.79084513542E+01  0.13456590562E+02 -0.17635741866E+02  0.23550856111E+02  0.00000000000E+00 0.  1.
</event>
<event>
 7    1  0.6462830E-013  0.5052884E+02  0.7816164E-02  0.1300439E+00
        -11   -1    0    0    0    0  0.00000000000E+00  0.00000000000E+00  0.45593999997E+02  0.45594000000E+02  0.51100000000E-03 0. -1.
         11   -1    0    0    0    0 -0.00000000000E+00 -0.00000000000E+00 -0.45593999997E+02  0.45594000000E+02  0.51100000000E-03 0.  1.
    9900012    2    1    2    0    0 -0.17188877361E+02 -0.14287024558E+02 -0.33964550753E+02  0.50528840103E+02  0.29999939978E+02 0.  0.
         12    1    1    2    0    0  0.17188877361E+02  0.14287024558E+02  0.33964550753E+02  0.40659159897E+02  0.00000000000E+00 0. -1.
         11    1    3    3    0    0 -0.18693025609E+00  0.64708817976E+01 -0.64765061586E+01  0.91570948692E+01  0.51100000000E-03 0. -1.
        -11    1    3    3    0    0 -0.13246404092E+02 -0.65392480091E+01 -0.20013248877E+02  0.24874869181E+02  0.51100000000E-03 0.  1.
        -12    1    3    3    0    0 -0.37555430126E+01 -0.14218658347E+02 -0.74747957176E+01  0.16496876053E+02  0.00000000000E+00 0.  1.
</event>
<event>
 7    1  0.6462830E-013  0.5052885E+02  0.7816164E-02  0.1300439E+00
        -11   -1    0    0    0    0  0.00000000000E+00  0.00000000000E+00  0.45593999997E+02  0.45594000000E+02  0.51100000000E-03 0.  1.
         11   -1    0    0    0    0 -0.00000000000E+00 -0.00000000000E+00 -0.45593999997E+02  0.45594000000E+02  0.51100000000E-03 0. -1.
    9900012    2    1    2    0    0  0.87614816581E+01  0.16827033456E+01  0.39668267109E+02  0.50528850147E+02  0.29999970505E+02 0.  0.
         12    1    1    2    0    0 -0.87614816581E+01 -0.16827033456E+01 -0.39668267109E+02  0.40659149853E+02  0.00000000000E+00 0. -1.
         11    1    3    3    0    0 -0.36048605716E+01  0.91896138512E+01  0.17777499466E+02  0.20334293939E+02  0.51100000000E-03 0. -1.
        -11    1    3    3    0    0  0.15966018183E+01 -0.12767742263E+01  0.16514800042E+02  0.16640850654E+02  0.51100000000E-03 0.  1.
         12    1    3    3    0    0  0.10769740411E+02 -0.62301362793E+01  0.53759676003E+01  0.13553705553E+02  0.00000000000E+00 0. -1.
</event>
<event>
 7    1  0.6462830E-013  0.5052887E+02  0.7816164E-02  0.1300439E+00
        -11   -1    0    0    0    0  0.00000000000E+00  0.00000000000E+00  0.45593999997E+02  0.45594000000E+02  0.51100000000E-03 0.  1.
         11   -1    0    0    0    0 -0.00000000000E+00 -0.00000000000E+00 -0.45593999997E+02  0.45594000000E+02  0.51100000000E-03 0. -1.
    9900012    2    1    2    0    0  0.20194502298E+02  0.34291956102E+02  0.83311911786E+01  0.50528869134E+02  0.30000028219E+02 0.  0.
         12    1    1    2    0    0 -0.20194502298E+02 -0.34291956102E+02 -0.83311911786E+01  0.40659130866E+02  0.00000000000E+00 0. -1.
         11    1    3    3    0    0  0.54601998447E+01  0.95903184822E+01 -0.38562695659E+01  0.11690115746E+02  0.51100000000E-03 0. -1.
        -11    1    3    3    0    0  0.44472076728E+01  0.25224781120E+02  0.12568565078E+02  0.28531317303E+02  0.51100000000E-03 0.  1.
        -12    1    3    3    0    0  0.10287094780E+02 -0.52314350031E+00 -0.38110433373E+00  0.10307436085E+02  0.00000000000E+00 0.  1.
</event>
<event>
 7    1  0.6462830E-013  0.5052886E+02  0.7816164E-02  0.1300439E+00
        -11   -1    0    0    0    0  0.00000000000E+00  0.00000000000E+00  0.45593999997E+02  0.45594000000E+02  0.51100000000E-03 0.  1.
         11   -1    0    0    0    0 -0.00000000000E+00 -0.00000000000E+00 -0.45593999997E+02  0.45594000000E+02  0.51100000000E-03 0. -1.
    9900012    2    1    2    0    0  0.19399453644E+02 -0.25235047474E+02  0.25298604223E+02  0.50528858367E+02  0.29999995492E+02 0.  0.
         12    1    1    2    0    0 -0.19399453644E+02  0.25235047474E+02 -0.25298604223E+02  0.40659141633E+02  0.00000000000E+00 0. -1.
         11    1    3    3    0    0 -0.31174312264E+01 -0.26516929973E+01  0.25373309024E+01  0.48153817681E+01  0.51100000000E-03 0. -1.
        -11    1    3    3    0    0  0.10707553715E+02  0.70119655876E+00  0.15062729220E+02  0.18494031334E+02  0.51100000000E-03 0.  1.
        -12    1    3    3    0    0  0.11809331156E+02 -0.23284551035E+02  0.76985441009E+01  0.27219445265E+02  0.00000000000E+00 0.  1.
</event>
<event>
 7    1  0.6462830E-013  0.5052886E+02  0.7816164E-02  0.1300439E+00
        -11   -1    0    0    0    0  0.00000000000E+00  0.00000000000E+00  0.45593999997E+02  0.45594000000E+02  0.51100000000E-03 0. -1.
         11   -1    0    0    0    0 -0.00000000000E+00 -0.00000000000E+00 -0.45593999997E+02  0.45594000000E+02  0.51100000000E-03 0.  1.
    9900012    2    1    2    0    0  0.33935413729E+02  0.58273607819E+01 -0.21623951799E+02  0.50528859206E+02  0.29999998044E+02 0.  0.
         12    1    1    2    0    0 -0.33935413729E+02 -0.58273607819E+01  0.21623951799E+02  0.40659140794E+02  0.00000000000E+00 0. -1.
         11    1    3    3    0    0 -0.66743350343E+00  0.43092399460E+01  0.46793482252E+00  0.43856561257E+01  0.51100000000E-03 0. -1.
        -11    1    3    3    0    0  0.98813751290E+01 -0.92350802961E+01 -0.81804421987E+01  0.15806578293E+02  0.51100000000E-03 0.  1.
        -12    1    3    3    0    0  0.24721472104E+02  0.10753201132E+02 -0.13911444423E+02  0.30336624787E+02  0.00000000000E+00 0.  1.
</event>
<event>
 7    1  0.6462830E-013  0.5052886E+02  0.7816164E-02  0.1300439E+00
        -11   -1    0    0    0    0  0.00000000000E+00  0.00000000000E+00  0.45593999997E+02  0.45594000000E+02  0.51100000000E-03 0.  1.
         11   -1    0    0    0    0 -0.00000000000E+00 -0.00000000000E+00 -0.45593999997E+02  0.45594000000E+02  0.51100000000E-03 0. -1.
    9900012    2    1    2    0    0 -0.33200652828E+02 -0.20448295643E+02  0.11521713196E+02  0.50528855667E+02  0.29999987285E+02 0.  0.
         12    1    1    2    0    0  0.33200652828E+02  0.20448295643E+02 -0.11521713196E+02  0.40659144333E+02  0.00000000000E+00 0. -1.
         11    1    3    3    0    0  0.48796721589E+01 -0.20186160306E+01  0.25916641483E+01  0.58824088923E+01  0.51100000000E-03 0. -1.
        -11    1    3    3    0    0 -0.14469097153E+02 -0.19541681832E+01  0.57038798436E+01  0.15675069099E+02  0.51100000000E-03 0.  1.
        -12    1    3    3    0    0 -0.23611227834E+02 -0.16475511430E+02  0.32261692040E+01  0.28971377676E+02  0.00000000000E+00 0.  1.
</event>
<event>
 7    1  0.6462830E-013  0.5052887E+02  0.7816164E-02  0.1300439E+00
        -11   -1    0    0    0    0  0.00000000000E+00  0.00000000000E+00  0.45593999997E+02  0.45594000000E+02  0.51100000000E-03 0.  1.
         11   -1    0    0    0    0 -0.00000000000E+00 -0.00000000000E+00 -0.45593999997E+02  0.45594000000E+02  0.51100000000E-03 0. -1.
    9900012    2    1    2    0    0 -0.35311016495E+02 -0.19244775622E+02  0.59946584552E+01  0.50528865668E+02  0.30000017685E+02 0.  0.
         12    1    1    2    0    0  0.35311016495E+02  0.19244775622E+02 -0.59946584552E+01  0.40659134332E+02  0.00000000000E+00 0. -1.
         11    1    3    3    0    0 -0.17030282002E+01 -0.78002769940E+01  0.67004706328E+01  0.10423096143E+02  0.51100000000E-03 0. -1.
        -11    1    3    3    0    0 -0.56314737228E+01 -0.76727274085E+01 -0.61831249809E+01  0.11349681800E+02  0.51100000000E-03 0.  1.
        -12    1    3    3    0    0 -0.27976514572E+02 -0.37717712190E+01  0.54773128032E+01  0.28756087725E+02  0.00000000000E+00 0.  1.
</event>
<event>
 7    1  0.6462830E-013  0.5052886E+02  0.7816164E-02  0.1300439E+00
        -11   -1    0    0    0    0  0.00000000000E+00  0.00000000000E+00  0.45593999997E+02  0.45594000000E+02  0.51100000000E-03 0. -1.
         11   -1    0    0    0    0 -0.00000000000E+00 -0.00000000000E+00 -0.45593999997E+02  0.45594000000E+02  0.51100000000E-03 0.  1.
    9900012    2    1    2    0    0  0.12687572440E+01 -0.40613066732E+02 -0.14611035501E+01  0.50528858864E+02  0.29999997004E+02 0.  0.
         12    1    1    2    0    0 -0.12687572440E+01  0.40613066732E+02  0.14611035501E+01  0.40659141136E+02  0.00000000000E+00 0. -1.
         11    1    3    3    0    0  0.75122950853E+01 -0.88133430679E+01  0.10566799274E+02  0.15676952530E+02  0.51100000000E-03 0. -1.
        -11    1    3    3    0    0 -0.19984888833E+01 -0.59377359591E+01 -0.71245757038E+00  0.63054153065E+01  0.51100000000E-03 0.  1.
        -12    1    3    3    0    0 -0.42450489580E+01 -0.25861987705E+02 -0.11315445253E+02  0.28546491028E+02  0.00000000000E+00 0.  1.
</event>
<event>
 7    1  0.6462830E-013  0.5052884E+02  0.7816164E-02  0.1300439E+00
        -11   -1    0    0    0    0  0.00000000000E+00  0.00000000000E+00  0.45593999997E+02  0.45594000000E+02  0.51100000000E-03 0.  1.
         11   -1    0    0    0    0 -0.00000000000E+00 -0.00000000000E+00 -0.45593999997E+02  0.45594000000E+02  0.51100000000E-03 0. -1.
    9900012    2    1    2    0    0 -0.22446716760E+02  0.60421228606E+01  0.33358726222E+02  0.50528844117E+02  0.29999952177E+02 0.  0.
         12    1    1    2    0    0  0.22446716760E+02 -0.60421228606E+01 -0.33358726222E+02  0.40659155883E+02  0.00000000000E+00 0. -1.
         11    1    3    3    0    0  0.48336553290E+01  0.35890486450E+01 -0.38532503169E+00  0.60327414710E+01  0.51100000000E-03 0. -1.
        -11    1    3    3    0    0 -0.10204676352E+02  0.49675940035E+01  0.98992882046E+01  0.15060156601E+02  0.51100000000E-03 0.  1.
        -12    1    3    3    0    0 -0.17075695738E+02 -0.25145197879E+01  0.23844763049E+02  0.29435946045E+02  0.00000000000E+00 0.  1.
</event>
<event>
 7    1  0.6462830E-013  0.5052884E+02  0.7816164E-02  0.1300439E+00
        -11   -1    0    0    0    0  0.00000000000E+00  0.00000000000E+00  0.45593999997E+02  0.45594000000E+02  0.51100000000E-03 0.  1.
         11   -1    0    0    0    0 -0.00000000000E+00 -0.00000000000E+00 -0.45593999997E+02  0.45594000000E+02  0.51100000000E-03 0. -1.
    9900012    2    1    2    0    0  0.23170651379E+02  0.30920176357E+02  0.12658245741E+02  0.50528836500E+02  0.29999929026E+02 0.  0.
         12    1    1    2    0    0 -0.23170651379E+02 -0.30920176357E+02 -0.12658245741E+02  0.40659163500E+02  0.00000000000E+00 0. -1.
         11    1    3    3    0    0  0.90595284632E+01  0.20451241450E+02  0.14263063773E+02  0.26528537865E+02  0.51100000000E-03 0. -1.
        -11    1    3    3    0    0  0.67303590145E+01  0.11527565990E+02  0.47853981827E+01  0.14180357758E+02  0.51100000000E-03 0.  1.
         12    1    3    3    0    0  0.73807639013E+01 -0.10586310831E+01 -0.63902162154E+01  0.98199408764E+01  0.00000000000E+00 0. -1.
</event>
<event>
 7    1  0.6462830E-013  0.5052876E+02  0.7816164E-02  0.1300439E+00
        -11   -1    0    0    0    0  0.00000000000E+00  0.00000000000E+00  0.45593999997E+02  0.45594000000E+02  0.51100000000E-03 0. -1.
         11   -1    0    0    0    0 -0.00000000000E+00 -0.00000000000E+00 -0.45593999997E+02  0.45594000000E+02  0.51100000000E-03 0.  1.
    9900012    2    1    2    0    0 -0.36743384182E+02  0.17221924362E+02  0.25500962683E+01  0.50528758113E+02  0.29999690759E+02 0.  0.
         12    1    1    2    0    0  0.36743384182E+02 -0.17221924362E+02 -0.25500962683E+01  0.40659241887E+02  0.00000000000E+00 0. -1.
         11    1    3    3    0    0 -0.16492576524E+02  0.96372001998E-01  0.87032313375E+01  0.18648340515E+02  0.51100000000E-03 0. -1.
        -11    1    3    3    0    0 -0.14849261530E+02  0.18956824331E+01 -0.45276071123E+01  0.15639482290E+02  0.51100000000E-03 0.  1.
        -12    1    3    3    0    0 -0.54015461271E+01  0.15229869927E+02 -0.16255279570E+01  0.16240935308E+02  0.00000000000E+00 0.  1.
</event>
<event>
 7    1  0.6462830E-013  0.5052886E+02  0.7816164E-02  0.1300439E+00
        -11   -1    0    0    0    0  0.00000000000E+00  0.00000000000E+00  0.45593999997E+02  0.45594000000E+02  0.51100000000E-03 0. -1.
         11   -1    0    0    0    0 -0.00000000000E+00 -0.00000000000E+00 -0.45593999997E+02  0.45594000000E+02  0.51100000000E-03 0.  1.
    9900012    2    1    2    0    0 -0.29653155646E+02 -0.25242155945E+02 -0.11691433683E+02  0.50528859600E+02  0.29999999240E+02 0.  0.
         12    1    1    2    0    0  0.29653155646E+02  0.25242155945E+02  0.11691433683E+02  0.40659140400E+02  0.00000000000E+00 0. -1.
         11    1    3    3    0    0 -0.23804707800E+02 -0.16482609481E+02  0.54860789745E+00  0.28959307651E+02  0.51100000000E-03 0. -1.
        -11    1    3    3    0    0 -0.58698523508E+01  0.19413955417E+01 -0.14033757715E+01  0.63398459828E+01  0.51100000000E-03 0.  1.
         12    1    3    3    0    0  0.21404504309E-01 -0.10700942005E+02 -0.10836665809E+02  0.15229705966E+02  0.00000000000E+00 0. -1.
</event>
<event>
 7    1  0.1213268E-012  0.5052886E+02  0.7816164E-02  0.1300439E+00
        -11   -1    0    0    0    0  0.00000000000E+00  0.00000000000E+00  0.45593999997E+02  0.45594000000E+02  0.51100000000E-03 0.  1.
         11   -1    0    0    0    0 -0.00000000000E+00 -0.00000000000E+00 -0.45593999997E+02  0.45594000000E+02  0.51100000000E-03 0. -1.
    9900012    2    1    2    0    0  0.33237194762E+02  0.40619680448E+01  0.23064147568E+02  0.50528860768E+02  0.30000002791E+02 0.  0.
         12    1    1    2    0    0 -0.33237194762E+02 -0.40619680448E+01 -0.23064147568E+02  0.40659139232E+02  0.00000000000E+00 0. -1.
         11    1    3    3    0    0  0.68945026911E+01 -0.46724910550E+01  0.14751024004E+02  0.16939865686E+02  0.51100000000E-03 0. -1.
        -11    1    3    3    0    0  0.15481950876E+02  0.53313305340E+01  0.13365570489E+02  0.21136517285E+02  0.51100000000E-03 0.  1.
         12    1    3    3    0    0  0.10860741195E+02  0.34031285658E+01 -0.50524469262E+01  0.12452477797E+02  0.00000000000E+00 0. -1.
</event>
<event>
 7    1  0.6462830E-013  0.5052886E+02  0.7816164E-02  0.1300439E+00
        -11   -1    0    0    0    0  0.00000000000E+00  0.00000000000E+00  0.45593999997E+02  0.45594000000E+02  0.51100000000E-03 0.  1.
         11   -1    0    0    0    0 -0.00000000000E+00 -0.00000000000E+00 -0.45593999997E+02  0.45594000000E+02  0.51100000000E-03 0. -1.
    9900012    2    1    2    0    0 -0.25133047197E+02 -0.27893757662E+02  0.15602380734E+02  0.50528855119E+02  0.29999985619E+02 0.  0.
         12    1    1    2    0    0  0.25133047197E+02  0.27893757662E+02 -0.15602380734E+02  0.40659144881E+02  0.00000000000E+00 0. -1.
         11    1    3    3    0    0 -0.16269303963E+02 -0.16074298151E+02  0.13892874697E+02  0.26759769807E+02  0.51100000000E-03 0. -1.
        -11    1    3    3    0    0 -0.11366116860E+02 -0.15490880006E+02  0.77675837358E+00  0.19229127116E+02  0.51100000000E-03 0.  1.
         12    1    3    3    0    0  0.25023736257E+01  0.36714204953E+01  0.93274766331E+00  0.45399581958E+01  0.00000000000E+00 0. -1.
</event>
<event>
 7    1  0.6462830E-013  0.5052886E+02  0.7816164E-02  0.1300439E+00
        -11   -1    0    0    0    0  0.00000000000E+00  0.00000000000E+00  0.45593999997E+02  0.45594000000E+02  0.51100000000E-03 0.  1.
         11   -1    0    0    0    0 -0.00000000000E+00 -0.00000000000E+00 -0.45593999997E+02  0.45594000000E+02  0.51100000000E-03 0. -1.
    9900012    2    1    2    0    0 -0.38999125642E+02 -0.25055552838E+01  0.11223015514E+02  0.50528859757E+02  0.29999999717E+02 0.  0.
         12    1    1    2    0    0  0.38999125642E+02  0.25055552838E+01 -0.11223015514E+02  0.40659140243E+02  0.00000000000E+00 0. -1.
         11    1    3    3    0    0 -0.23336660829E+02 -0.50051017365E+01  0.11764755763E+02  0.26609401731E+02  0.51100000000E-03 0.  1.
        -11    1    3    3    0    0 -0.15734972300E+01 -0.17881693301E+01  0.69854309220E+01  0.73803582916E+01  0.51100000000E-03 0. -1.
        -12    1    3    3    0    0 -0.14088967582E+02  0.42877157827E+01 -0.75271711716E+01  0.16539099734E+02  0.00000000000E+00 0.  1.
</event>
<event>
 7    1  0.6462830E-013  0.5052886E+02  0.7816164E-02  0.1300439E+00
        -11   -1    0    0    0    0  0.00000000000E+00  0.00000000000E+00  0.45593999997E+02  0.45594000000E+02  0.51100000000E-03 0.  1.
         11   -1    0    0    0    0 -0.00000000000E+00 -0.00000000000E+00 -0.45593999997E+02  0.45594000000E+02  0.51100000000E-03 0. -1.
    9900012    2    1    2    0    0 -0.16751696256E+02 -0.36396140246E+02  0.69186228571E+01  0.50528859643E+02  0.29999999372E+02 0.  0.
         12    1    1    2    0    0  0.16751696256E+02  0.36396140246E+02 -0.69186228571E+01  0.40659140357E+02  0.00000000000E+00 0. -1.
         11    1    3    3    0    0 -0.29250762471E+01  0.32684762513E+00  0.88029154028E+01  0.92819297709E+01  0.51100000000E-03 0. -1.
        -11    1    3    3    0    0 -0.11099591656E+02 -0.13596975294E+02  0.19018163207E+01  0.17654902369E+02  0.51100000000E-03 0.  1.
        -12    1    3    3    0    0 -0.27270283529E+01 -0.23126012577E+02 -0.37861088664E+01  0.23592027503E+02  0.00000000000E+00 0.  1.
</event>
<event>
 7    1  0.6462830E-013  0.5052887E+02  0.7816164E-02  0.1300439E+00
        -11   -1    0    0    0    0  0.00000000000E+00  0.00000000000E+00  0.45593999997E+02  0.45594000000E+02  0.51100000000E-03 0.  1.
         11   -1    0    0    0    0 -0.00000000000E+00 -0.00000000000E+00 -0.45593999997E+02  0.45594000000E+02  0.51100000000E-03 0. -1.
    9900012    2    1    2    0    0 -0.50568857904E+01  0.31642959345E+02  0.25026308562E+02  0.50528867074E+02  0.30000021958E+02 0.  0.
         12    1    1    2    0    0  0.50568857904E+01 -0.31642959345E+02 -0.25026308562E+02  0.40659132926E+02  0.00000000000E+00 0. -1.
         11    1    3    3    0    0 -0.70550439909E+01  0.15709924461E+01  0.76139679505E+01  0.10498293728E+02  0.51100000000E-03 0. -1.
        -11    1    3    3    0    0  0.43629683016E+01 -0.13246759663E+01  0.22002367464E+01  0.50627364950E+01  0.51100000000E-03 0.  1.
        -12    1    3    3    0    0 -0.23648101011E+01  0.31396642866E+02  0.15212103866E+02  0.34967836851E+02  0.00000000000E+00 0.  1.
</event>
<event>
 7    1  0.6462830E-013  0.5052885E+02  0.7816164E-02  0.1300439E+00
        -11   -1    0    0    0    0  0.00000000000E+00  0.00000000000E+00  0.45593999997E+02  0.45594000000E+02  0.51100000000E-03 0.  1.
         11   -1    0    0    0    0 -0.00000000000E+00 -0.00000000000E+00 -0.45593999997E+02  0.45594000000E+02  0.51100000000E-03 0. -1.
    9900012    2    1    2    0    0  0.29759946202E+01 -0.68240110416E+01  0.39971770083E+02  0.50528854974E+02  0.29999985179E+02 0.  0.
         12    1    1    2    0    0 -0.29759946202E+01  0.68240110416E+01 -0.39971770083E+02  0.40659145026E+02  0.00000000000E+00 0. -1.
         11    1    3    3    0    0  0.61777555028E+01  0.49588074507E+01  0.77082235711E+01  0.11053105684E+02  0.51100000000E-03 0. -1.
        -11    1    3    3    0    0 -0.48487201367E+01 -0.95361981784E+00  0.26768818341E+02  0.27221115212E+02  0.51100000000E-03 0.  1.
        -12    1    3    3    0    0  0.16469592541E+01 -0.10829198674E+02  0.54947281706E+01  0.12254634078E+02  0.00000000000E+00 0.  1.
</event>
<event>
 7    1  0.6462830E-013  0.5052886E+02  0.7816164E-02  0.1300439E+00
        -11   -1    0    0    0    0  0.00000000000E+00  0.00000000000E+00  0.45593999997E+02  0.45594000000E+02  0.51100000000E-03 0. -1.
         11   -1    0    0    0    0 -0.00000000000E+00 -0.00000000000E+00 -0.45593999997E+02  0.45594000000E+02  0.51100000000E-03 0.  1.
    9900012    2    1    2    0    0  0.39437509369E+02  0.57661486678E+01 -0.80374168303E+01  0.50528859761E+02  0.29999999729E+02 0.  0.
         12    1    1    2    0    0 -0.39437509369E+02 -0.57661486678E+01  0.80374168303E+01  0.40659140239E+02  0.00000000000E+00 0. -1.
         11    1    3    3    0    0  0.42730162449E+01  0.45017814966E+01  0.62381025612E+01  0.87999220620E+01  0.51100000000E-03 0. -1.
        -11    1    3    3    0    0  0.17681084372E+02  0.92788139689E+01 -0.67903650340E+01  0.21090903034E+02  0.51100000000E-03 0.  1.
        -12    1    3    3    0    0  0.17483408752E+02 -0.80144467977E+01 -0.74851543575E+01  0.20638034665E+02  0.00000000000E+00 0.  1.
</event>
<event>
 7    1  0.6462830E-013  0.5052885E+02  0.7816164E-02  0.1300439E+00
        -11   -1    0    0    0    0  0.00000000000E+00  0.00000000000E+00  0.45593999997E+02  0.45594000000E+02  0.51100000000E-03 0.  1.
         11   -1    0    0    0    0 -0.00000000000E+00 -0.00000000000E+00 -0.45593999997E+02  0.45594000000E+02  0.51100000000E-03 0. -1.
    9900012    2    1    2    0    0  0.63232798495E+00  0.13016464349E+02  0.38514127112E+02  0.50528853796E+02  0.29999981598E+02 0.  0.
         12    1    1    2    0    0 -0.63232798495E+00 -0.13016464349E+02 -0.38514127112E+02  0.40659146204E+02  0.00000000000E+00 0. -1.
         11    1    3    3    0    0 -0.33656998392E+01  0.71050529332E+01  0.36994679812E+02  0.37820841440E+02  0.51100000000E-03 0. -1.
        -11    1    3    3    0    0  0.94130871469E+00  0.69944377761E+01  0.44448686250E+01  0.83405682813E+01  0.51100000000E-03 0.  1.
        -12    1    3    3    0    0  0.30567191095E+01 -0.10830263603E+01 -0.29254213249E+01  0.43674440740E+01  0.00000000000E+00 0.  1.
</event>
<event>
 7    1  0.6462830E-013  0.5052891E+02  0.7816164E-02  0.1300439E+00
        -11   -1    0    0    0    0  0.00000000000E+00  0.00000000000E+00  0.45593999997E+02  0.45594000000E+02  0.51100000000E-03 0. -1.
         11   -1    0    0    0    0 -0.00000000000E+00 -0.00000000000E+00 -0.45593999997E+02  0.45594000000E+02  0.51100000000E-03 0.  1.
    9900012    2    1    2    0    0  0.36236506523E+02  0.15453898749E+02 -0.10062533950E+02  0.50528905310E+02  0.30000138180E+02 0.  0.
         12    1    1    2    0    0 -0.36236506523E+02 -0.15453898749E+02  0.10062533950E+02  0.40659094690E+02  0.00000000000E+00 0. -1.
         11    1    3    3    0    0  0.10283072328E+02  0.15137474985E+02 -0.79980223253E+01  0.19971306588E+02  0.51100000000E-03 0. -1.
        -11    1    3    3    0    0  0.10897732029E+02  0.20293361165E+01 -0.86252697271E+01  0.14045427960E+02  0.51100000000E-03 0.  1.
         12    1    3    3    0    0  0.15055702165E+02 -0.17129123529E+01  0.65607581024E+01  0.16512170763E+02  0.00000000000E+00 0. -1.
</event>
<event>
 7    1  0.6462830E-013  0.5052884E+02  0.7816164E-02  0.1300439E+00
        -11   -1    0    0    0    0  0.00000000000E+00  0.00000000000E+00  0.45593999997E+02  0.45594000000E+02  0.51100000000E-03 0.  1.
         11   -1    0    0    0    0 -0.00000000000E+00 -0.00000000000E+00 -0.45593999997E+02  0.45594000000E+02  0.51100000000E-03 0. -1.
    9900012    2    1    2    0    0  0.19844526238E+02 -0.10986284178E+02  0.33744088899E+02  0.50528841164E+02  0.29999943201E+02 0.  0.
         12    1    1    2    0    0 -0.19844526238E+02  0.10986284178E+02 -0.33744088899E+02  0.40659158836E+02  0.00000000000E+00 0. -1.
         11    1    3    3    0    0  0.58245760266E+01 -0.98603464888E+01  0.17327838721E+02  0.20770318095E+02  0.51100000000E-03 0.  1.
        -11    1    3    3    0    0 -0.18592450556E+01  0.62890363944E+01  0.79191053747E+01  0.10282071831E+02  0.51100000000E-03 0. -1.
         12    1    3    3    0    0  0.15879195267E+02 -0.74149740835E+01  0.84971448030E+01  0.19476451237E+02  0.00000000000E+00 0. -1.
</event>
<event>
 7    1  0.6462830E-013  0.5052887E+02  0.7816164E-02  0.1300439E+00
        -11   -1    0    0    0    0  0.00000000000E+00  0.00000000000E+00  0.45593999997E+02  0.45594000000E+02  0.51100000000E-03 0. -1.
         11   -1    0    0    0    0 -0.00000000000E+00 -0.00000000000E+00 -0.45593999997E+02  0.45594000000E+02  0.51100000000E-03 0.  1.
    9900012    2    1    2    0    0  0.13414458938E+02  0.10054603438E+02 -0.37042166963E+02  0.50528869510E+02  0.30000029362E+02 0.  0.
         12    1    1    2    0    0 -0.13414458938E+02 -0.10054603438E+02  0.37042166963E+02  0.40659130490E+02  0.00000000000E+00 0. -1.
         11    1    3    3    0    0 -0.36739604914E+01  0.33920070390E+01  0.50518857428E+00  0.50258246290E+01  0.51100000000E-03 0. -1.
        -11    1    3    3    0    0  0.67237528629E+01  0.78468230974E+01 -0.53063757117E+01  0.11616329400E+02  0.51100000000E-03 0.  1.
        -12    1    3    3    0    0  0.10364666566E+02 -0.11842266987E+01 -0.32240979826E+02  0.33886715480E+02  0.00000000000E+00 0.  1.
</event>
<event>
 7    1  0.6462830E-013  0.5052888E+02  0.7816164E-02  0.1300439E+00
        -11   -1    0    0    0    0  0.00000000000E+00  0.00000000000E+00  0.45593999997E+02  0.45594000000E+02  0.51100000000E-03 0. -1.
         11   -1    0    0    0    0 -0.00000000000E+00 -0.00000000000E+00 -0.45593999997E+02  0.45594000000E+02  0.51100000000E-03 0.  1.
    9900012    2    1    2    0    0  0.20169495350E+01 -0.36152090559E+02 -0.18496539419E+02  0.50528884076E+02  0.30000073639E+02 0.  0.
         12    1    1    2    0    0 -0.20169495350E+01  0.36152090559E+02  0.18496539419E+02  0.40659115924E+02  0.00000000000E+00 0. -1.
         11    1    3    3    0    0 -0.14219574568E+01  0.51187021593E-01 -0.70899801082E+01  0.72313485130E+01  0.51100000000E-03 0. -1.
        -11    1    3    3    0    0  0.85359149734E+01 -0.90799840287E+01 -0.94315819712E+01  0.15628905692E+02  0.51100000000E-03 0.  1.
         12    1    3    3    0    0 -0.50970079815E+01 -0.27123293552E+02 -0.19749773395E+01  0.27668629871E+02  0.00000000000E+00 0. -1.
</event>
<event>
 7    1  0.6462830E-013  0.5052887E+02  0.7816164E-02  0.1300439E+00
        -11   -1    0    0    0    0  0.00000000000E+00  0.00000000000E+00  0.45593999997E+02  0.45594000000E+02  0.51100000000E-03 0. -1.
         11   -1    0    0    0    0 -0.00000000000E+00 -0.00000000000E+00 -0.45593999997E+02  0.45594000000E+02  0.51100000000E-03 0.  1.
    9900012    2    1    2    0    0 -0.12779020796E+02  0.29059401009E+02 -0.25404981592E+02  0.50528865120E+02  0.30000016019E+02 0.  0.
         12    1    1    2    0    0  0.12779020796E+02 -0.29059401009E+02  0.25404981592E+02  0.40659134880E+02  0.00000000000E+00 0. -1.
         11    1    3    3    0    0 -0.10771783455E+02  0.42606487647E+01 -0.24566378797E+01  0.11841432204E+02  0.51100000000E-03 0. -1.
        -11    1    3    3    0    0 -0.79019782822E+01  0.64373633457E+01 -0.14280416539E+02  0.17544549136E+02  0.51100000000E-03 0.  1.
        -12    1    3    3    0    0  0.58947409414E+01  0.18361388898E+02 -0.86679271741E+01  0.21142883780E+02  0.00000000000E+00 0.  1.
</event>
<event>
 7    1  0.6462830E-013  0.5052885E+02  0.7816164E-02  0.1300439E+00
        -11   -1    0    0    0    0  0.00000000000E+00  0.00000000000E+00  0.45593999997E+02  0.45594000000E+02  0.51100000000E-03 0.  1.
         11   -1    0    0    0    0 -0.00000000000E+00 -0.00000000000E+00 -0.45593999997E+02  0.45594000000E+02  0.51100000000E-03 0. -1.
    9900012    2    1    2    0    0 -0.57622961426E-01 -0.20715956045E+01  0.40606296728E+02  0.50528853886E+02  0.29999981872E+02 0.  0.
         12    1    1    2    0    0  0.57622961426E-01  0.20715956045E+01 -0.40606296728E+02  0.40659146114E+02  0.00000000000E+00 0. -1.
         11    1    3    3    0    0  0.76882076598E+01 -0.59253097401E+01  0.18078759839E+02  0.20519731726E+02  0.51100000000E-03 0. -1.
        -11    1    3    3    0    0  0.58098712398E+01  0.65294117235E+00  0.57038900651E+01  0.81679433234E+01  0.51100000000E-03 0.  1.
         12    1    3    3    0    0 -0.13555701861E+02  0.32007729632E+01  0.16823646824E+02  0.21841178836E+02  0.00000000000E+00 0. -1.
</event>
<event>
 7    1  0.6462830E-013  0.5052886E+02  0.7816164E-02  0.1300439E+00
        -11   -1    0    0    0    0  0.00000000000E+00  0.00000000000E+00  0.45593999997E+02  0.45594000000E+02  0.51100000000E-03 0. -1.
         11   -1    0    0    0    0 -0.00000000000E+00 -0.00000000000E+00 -0.45593999997E+02  0.45594000000E+02  0.51100000000E-03 0.  1.
    9900012    2    1    2    0    0  0.24216452436E+02 -0.83760664720E+01 -0.31568500876E+02  0.50528864425E+02  0.30000013906E+02 0.  0.
         12    1    1    2    0    0 -0.24216452436E+02  0.83760664720E+01  0.31568500876E+02  0.40659135575E+02  0.00000000000E+00 0. -1.
         11    1    3    3    0    0  0.24732872726E+01 -0.21205281517E+01  0.64706455757E+00  0.33215180833E+01  0.51100000000E-03 0. -1.
        -11    1    3    3    0    0  0.23255245985E+02 -0.13630584662E+02 -0.25873703533E+02  0.37363723567E+02  0.51100000000E-03 0.  1.
        -12    1    3    3    0    0 -0.15120808219E+01  0.73750463413E+01 -0.63418619012E+01  0.98436227743E+01  0.00000000000E+00 0.  1.
</event>
<event>
 7    1  0.6462830E-013  0.5052886E+02  0.7816164E-02  0.1300439E+00
        -11   -1    0    0    0    0  0.00000000000E+00  0.00000000000E+00  0.45593999997E+02  0.45594000000E+02  0.51100000000E-03 0.  1.
         11   -1    0    0    0    0 -0.00000000000E+00 -0.00000000000E+00 -0.45593999997E+02  0.45594000000E+02  0.51100000000E-03 0. -1.
    9900012    2    1    2    0    0  0.38207555662E+01  0.37803894556E+01  0.40302307543E+02  0.50528861902E+02  0.30000006239E+02 0.  0.
         12    1    1    2    0    0 -0.38207555662E+01 -0.37803894556E+01 -0.40302307543E+02  0.40659138098E+02  0.00000000000E+00 0. -1.
         11    1    3    3    0    0  0.22638853961E+01  0.49000986148E+01 -0.26961350995E+01  0.60336794958E+01  0.51100000000E-03 0. -1.
        -11    1    3    3    0    0  0.10564287416E+01 -0.45461397565E+01  0.75371165497E+01  0.88651877880E+01  0.51100000000E-03 0.  1.
        -12    1    3    3    0    0  0.50044142847E+00  0.34264305972E+01  0.35461326093E+02  0.35629994619E+02  0.00000000000E+00 0.  1.
</event>
<event>
 7    1  0.7302295E-013  0.5052886E+02  0.7816164E-02  0.1300439E+00
        -11   -1    0    0    0    0  0.00000000000E+00  0.00000000000E+00  0.45593999997E+02  0.45594000000E+02  0.51100000000E-03 0. -1.
         11   -1    0    0    0    0 -0.00000000000E+00 -0.00000000000E+00 -0.45593999997E+02  0.45594000000E+02  0.51100000000E-03 0.  1.
    9900012    2    1    2    0    0  0.12410958025E+01  0.29739785996E+02 -0.27697836017E+02  0.50528864373E+02  0.30000013748E+02 0.  0.
         12    1    1    2    0    0 -0.12410958025E+01 -0.29739785996E+02  0.27697836017E+02  0.40659135627E+02  0.00000000000E+00 0. -1.
         11    1    3    3    0    0 -0.53768926042E+01  0.40592522758E+01  0.22090492150E+01  0.70900212842E+01  0.51100000000E-03 0. -1.
        -11    1    3    3    0    0  0.54519149808E+00  0.21809994035E+02 -0.13851924558E+02  0.25842772447E+02  0.51100000000E-03 0.  1.
         12    1    3    3    0    0  0.60727969086E+01  0.38705396859E+01 -0.16054960675E+02  0.17596070641E+02  0.00000000000E+00 0. -1.
</event>
<event>
 7    1  0.6462830E-013  0.5052886E+02  0.7816164E-02  0.1300439E+00
        -11   -1    0    0    0    0  0.00000000000E+00  0.00000000000E+00  0.45593999997E+02  0.45594000000E+02  0.51100000000E-03 0.  1.
         11   -1    0    0    0    0 -0.00000000000E+00 -0.00000000000E+00 -0.45593999997E+02  0.45594000000E+02  0.51100000000E-03 0. -1.
    9900012    2    1    2    0    0 -0.16662486930E+02  0.34210131243E+02  0.14324591590E+02  0.50528862349E+02  0.30000007595E+02 0.  0.
         12    1    1    2    0    0  0.16662486930E+02 -0.34210131243E+02 -0.14324591590E+02  0.40659137651E+02  0.00000000000E+00 0. -1.
         11    1    3    3    0    0 -0.26759009789E+01 -0.29054993163E+01 -0.23043047968E+00  0.39566994822E+01  0.51100000000E-03 0. -1.
        -11    1    3    3    0    0 -0.10868779882E+02  0.12390986738E+02 -0.20749934179E+01  0.16612420847E+02  0.51100000000E-03 0.  1.
        -12    1    3    3    0    0 -0.31178060698E+01  0.24724643821E+02  0.16630015487E+02  0.29959742019E+02  0.00000000000E+00 0.  1.
</event>
<event>
 7    1  0.6462830E-013  0.5052886E+02  0.7816164E-02  0.1300439E+00
        -11   -1    0    0    0    0  0.00000000000E+00  0.00000000000E+00  0.45593999997E+02  0.45594000000E+02  0.51100000000E-03 0.  1.
         11   -1    0    0    0    0 -0.00000000000E+00 -0.00000000000E+00 -0.45593999997E+02  0.45594000000E+02  0.51100000000E-03 0. -1.
    9900012    2    1    2    0    0  0.38061588584E+02  0.35596212851E+01  0.13849546117E+02  0.50528863796E+02  0.30000011994E+02 0.  0.
         12    1    1    2    0    0 -0.38061588584E+02 -0.35596212851E+01 -0.13849546117E+02  0.40659136204E+02  0.00000000000E+00 0. -1.
         11    1    3    3    0    0 -0.87049549251E+00 -0.40651942208E+01 -0.36191123268E+01  0.55119452782E+01  0.51100000000E-03 0. -1.
        -11    1    3    3    0    0  0.13808598392E+02 -0.13694213343E+01  0.15952061598E+01  0.13967726633E+02  0.51100000000E-03 0.  1.
        -12    1    3    3    0    0  0.25123485684E+02  0.89942368403E+01  0.15873452284E+02  0.31049191884E+02  0.00000000000E+00 0.  1.
</event>
<event>
 7    1  0.6462830E-013  0.5052885E+02  0.7816164E-02  0.1300439E+00
        -11   -1    0    0    0    0  0.00000000000E+00  0.00000000000E+00  0.45593999997E+02  0.45594000000E+02  0.51100000000E-03 0.  1.
         11   -1    0    0    0    0 -0.00000000000E+00 -0.00000000000E+00 -0.45593999997E+02  0.45594000000E+02  0.51100000000E-03 0. -1.
    9900012    2    1    2    0    0 -0.22588957870E+02 -0.14705960062E+02  0.30440771978E+02  0.50528845095E+02  0.29999955151E+02 0.  0.
         12    1    1    2    0    0  0.22588957870E+02  0.14705960062E+02 -0.30440771978E+02  0.40659154905E+02  0.00000000000E+00 0. -1.
         11    1    3    3    0    0 -0.15235235290E+02 -0.73250485660E+01  0.62508408920E+01  0.18023366582E+02  0.51100000000E-03 0. -1.
        -11    1    3    3    0    0 -0.70427019221E+01 -0.13617581188E+02  0.15465239803E+02  0.21776404896E+02  0.51100000000E-03 0.  1.
         12    1    3    3    0    0 -0.31102065813E+00  0.62366696923E+01  0.87246912827E+01  0.10729073617E+02  0.00000000000E+00 0. -1.
</event>
<event>
 7    1  0.6462830E-013  0.5052886E+02  0.7816164E-02  0.1300439E+00
        -11   -1    0    0    0    0  0.00000000000E+00  0.00000000000E+00  0.45593999997E+02  0.45594000000E+02  0.51100000000E-03 0.  1.
         11   -1    0    0    0    0 -0.00000000000E+00 -0.00000000000E+00 -0.45593999997E+02  0.45594000000E+02  0.51100000000E-03 0. -1.
    9900012    2    1    2    0    0 -0.25994595060E+02 -0.28834642549E+02 -0.12083463291E+02  0.50528859966E+02  0.30000000351E+02 0.  0.
         12    1    1    2    0    0  0.25994595060E+02  0.28834642549E+02  0.12083463291E+02  0.40659140034E+02  0.00000000000E+00 0. -1.
         11    1    3    3    0    0 -0.54190297560E+01 -0.17485924662E+02 -0.14331171266E+02  0.23248783084E+02  0.51100000000E-03 0. -1.
        -11    1    3    3    0    0 -0.18150251084E+02 -0.59264539232E+01 -0.30323654003E+01  0.19332607447E+02  0.51100000000E-03 0.  1.
        -12    1    3    3    0    0 -0.24253142196E+01 -0.54222639636E+01  0.52800733755E+01  0.79474694341E+01  0.00000000000E+00 0.  1.
</event>
<event>
 7    1  0.6462830E-013  0.5052887E+02  0.7816164E-02  0.1300439E+00
        -11   -1    0    0    0    0  0.00000000000E+00  0.00000000000E+00  0.45593999997E+02  0.45594000000E+02  0.51100000000E-03 0.  1.
         11   -1    0    0    0    0 -0.00000000000E+00 -0.00000000000E+00 -0.45593999997E+02  0.45594000000E+02  0.51100000000E-03 0. -1.
    9900012    2    1    2    0    0 -0.25425325472E+02 -0.21774617522E+01  0.31654008864E+02  0.50528870740E+02  0.30000033101E+02 0.  0.
         12    1    1    2    0    0  0.25425325472E+02  0.21774617522E+01 -0.31654008864E+02  0.40659129260E+02  0.00000000000E+00 0. -1.
         11    1    3    3    0    0 -0.75258121725E+01 -0.20094012824E+01 -0.31293142867E+01  0.83945309896E+01  0.51100000000E-03 0. -1.
        -11    1    3    3    0    0 -0.19846126676E+01 -0.62889392263E+01  0.77908734703E+01  0.10207210869E+02  0.51100000000E-03 0.  1.
        -12    1    3    3    0    0 -0.15914900632E+02  0.61208787565E+01  0.26992449680E+02  0.31927128881E+02  0.00000000000E+00 0.  1.
</event>
<event>
 7    1  0.6462830E-013  0.5052890E+02  0.7816164E-02  0.1300439E+00
        -11   -1    0    0    0    0  0.00000000000E+00  0.00000000000E+00  0.45593999997E+02  0.45594000000E+02  0.51100000000E-03 0.  1.
         11   -1    0    0    0    0 -0.00000000000E+00 -0.00000000000E+00 -0.45593999997E+02  0.45594000000E+02  0.51100000000E-03 0. -1.
    9900012    2    1    2    0    0 -0.10037629245E+02  0.29950132745E+02  0.25600735778E+02  0.50528903543E+02  0.30000132810E+02 0.  0.
         12    1    1    2    0    0  0.10037629245E+02 -0.29950132745E+02 -0.25600735778E+02  0.40659096457E+02  0.00000000000E+00 0. -1.
         11    1    3    3    0    0 -0.11274083967E+02  0.68536031155E+01  0.46410934917E+01  0.13986300226E+02  0.51100000000E-03 0. -1.
        -11    1    3    3    0    0 -0.69222049304E+01  0.97067099681E+01  0.16281809456E+02  0.20180051014E+02  0.51100000000E-03 0.  1.
         12    1    3    3    0    0  0.81586596524E+01  0.13389819662E+02  0.46778328304E+01  0.16362552304E+02  0.00000000000E+00 0. -1.
</event>
<event>
 7    1  0.6462830E-013  0.5052886E+02  0.7816164E-02  0.1300439E+00
        -11   -1    0    0    0    0  0.00000000000E+00  0.00000000000E+00  0.45593999997E+02  0.45594000000E+02  0.51100000000E-03 0.  1.
         11   -1    0    0    0    0 -0.00000000000E+00 -0.00000000000E+00 -0.45593999997E+02  0.45594000000E+02  0.51100000000E-03 0. -1.
    9900012    2    1    2    0    0 -0.17706750742E+02  0.21272258193E+02  0.29784687233E+02  0.50528861002E+02  0.30000003502E+02 0.  0.
         12    1    1    2    0    0  0.17706750742E+02 -0.21272258193E+02 -0.29784687233E+02  0.40659138998E+02  0.00000000000E+00 0. -1.
         11    1    3    3    0    0 -0.80455348123E+01 -0.16246065729E+01  0.40878494248E+01  0.91695414342E+01  0.51100000000E-03 0. -1.
        -11    1    3    3    0    0 -0.12339083480E+02  0.94382296927E+01  0.22377262617E+02  0.27241054373E+02  0.51100000000E-03 0.  1.
        -12    1    3    3    0    0  0.26778675502E+01  0.13458635074E+02  0.33195751907E+01  0.14118265195E+02  0.00000000000E+00 0.  1.
</event>
<event>
 7    1  0.6462830E-013  0.5052886E+02  0.7816164E-02  0.1300439E+00
        -11   -1    0    0    0    0  0.00000000000E+00  0.00000000000E+00  0.45593999997E+02  0.45594000000E+02  0.51100000000E-03 0.  1.
         11   -1    0    0    0    0 -0.00000000000E+00 -0.00000000000E+00 -0.45593999997E+02  0.45594000000E+02  0.51100000000E-03 0. -1.
    9900012    2    1    2    0    0  0.20599190530E+02 -0.23262898166E+02  0.26223591013E+02  0.50528858258E+02  0.29999995162E+02 0.  0.
         12    1    1    2    0    0 -0.20599190530E+02  0.23262898166E+02 -0.26223591013E+02  0.40659141742E+02  0.00000000000E+00 0. -1.
         11    1    3    3    0    0  0.39597307550E-01  0.48968501666E+01  0.79780591826E+01  0.93610970555E+01  0.51100000000E-03 0. -1.
        -11    1    3    3    0    0  0.86477509655E+01 -0.32162598689E+01  0.37932255566E+01  0.99757949403E+01  0.51100000000E-03 0.  1.
         12    1    3    3    0    0  0.11911842257E+02 -0.24943488464E+02  0.14452306274E+02  0.31191966262E+02  0.00000000000E+00 0. -1.
</event>
<event>
 7    1  0.6462830E-013  0.5052886E+02  0.7816164E-02  0.1300439E+00
        -11   -1    0    0    0    0  0.00000000000E+00  0.00000000000E+00  0.45593999997E+02  0.45594000000E+02  0.51100000000E-03 0.  1.
         11   -1    0    0    0    0 -0.00000000000E+00 -0.00000000000E+00 -0.45593999997E+02  0.45594000000E+02  0.51100000000E-03 0. -1.
    9900012    2    1    2    0    0 -0.65124940322E+01 -0.36861039441E+02  0.15875047990E+02  0.50528856430E+02  0.29999989604E+02 0.  0.
         12    1    1    2    0    0  0.65124940322E+01  0.36861039441E+02 -0.15875047990E+02  0.40659143570E+02  0.00000000000E+00 0. -1.
         11    1    3    3    0    0 -0.63984829241E+01 -0.17696842828E-02 -0.10738161096E+01  0.64879633291E+01  0.51100000000E-03 0. -1.
        -11    1    3    3    0    0 -0.25664296143E+01 -0.96919375561E+01  0.13094693060E+02  0.16492155746E+02  0.51100000000E-03 0.  1.
        -12    1    3    3    0    0  0.24524185062E+01 -0.27167332200E+02  0.38541710394E+01  0.27548737354E+02  0.00000000000E+00 0.  1.
</event>
<event>
 7    1  0.6462830E-013  0.5052886E+02  0.7816164E-02  0.1300439E+00
        -11   -1    0    0    0    0  0.00000000000E+00  0.00000000000E+00  0.45593999997E+02  0.45594000000E+02  0.51100000000E-03 0. -1.
         11   -1    0    0    0    0 -0.00000000000E+00 -0.00000000000E+00 -0.45593999997E+02  0.45594000000E+02  0.51100000000E-03 0.  1.
    9900012    2    1    2    0    0 -0.18768980046E+02  0.35352574566E+02  0.71474848819E+01  0.50528859816E+02  0.29999999896E+02 0.  0.
         12    1    1    2    0    0  0.18768980046E+02 -0.35352574566E+02 -0.71474848819E+01  0.40659140184E+02  0.00000000000E+00 0. -1.
         11    1    3    3    0    0 -0.56153575868E+00 -0.14278469538E+01  0.26501358970E+00  0.15570169542E+01  0.51100000000E-03 0. -1.
        -11    1    3    3    0    0 -0.50704883146E+01  0.25416750515E+02  0.14840526002E+02  0.29865737405E+02  0.51100000000E-03 0.  1.
         12    1    3    3    0    0 -0.13136955973E+02  0.11363671005E+02 -0.79580547100E+01  0.19106105456E+02  0.00000000000E+00 0. -1.
</event>
<event>
 7    1  0.6462830E-013  0.5052886E+02  0.7816164E-02  0.1300439E+00
        -11   -1    0    0    0    0  0.00000000000E+00  0.00000000000E+00  0.45593999997E+02  0.45594000000E+02  0.51100000000E-03 0.  1.
         11   -1    0    0    0    0 -0.00000000000E+00 -0.00000000000E+00 -0.45593999997E+02  0.45594000000E+02  0.51100000000E-03 0. -1.
    9900012    2    1    2    0    0  0.42035096603E+01  0.17559593174E+01  0.40403129045E+02  0.50528859291E+02  0.29999998300E+02 0.  0.
         12    1    1    2    0    0 -0.42035096603E+01 -0.17559593174E+01 -0.40403129045E+02  0.40659140709E+02  0.00000000000E+00 0. -1.
         11    1    3    3    0    0  0.70714937156E+01  0.65846192391E+01  0.10030764977E+02  0.13927651639E+02  0.51100000000E-03 0. -1.
        -11    1    3    3    0    0  0.40208543475E+01  0.11944809515E+01  0.26218458782E+02  0.26551866895E+02  0.51100000000E-03 0.  1.
         12    1    3    3    0    0 -0.68888384028E+01 -0.60231408733E+01  0.41539052852E+01  0.10049340756E+02  0.00000000000E+00 0. -1.
</event>
<event>
 7    1  0.6462830E-013  0.5052883E+02  0.7816164E-02  0.1300439E+00
        -11   -1    0    0    0    0  0.00000000000E+00  0.00000000000E+00  0.45593999997E+02  0.45594000000E+02  0.51100000000E-03 0. -1.
         11   -1    0    0    0    0 -0.00000000000E+00 -0.00000000000E+00 -0.45593999997E+02  0.45594000000E+02  0.51100000000E-03 0.  1.
    9900012    2    1    2    0    0  0.20717303883E+02  0.32630102958E+02 -0.12618943674E+02  0.50528830817E+02  0.29999911752E+02 0.  0.
         12    1    1    2    0    0 -0.20717303883E+02 -0.32630102958E+02  0.12618943674E+02  0.40659169183E+02  0.00000000000E+00 0. -1.
         11    1    3    3    0    0  0.99176036632E+00 -0.12211561998E+01 -0.49642176476E+01  0.52075203507E+01  0.51100000000E-03 0. -1.
        -11    1    3    3    0    0  0.14678086301E+02  0.26705280757E+02 -0.14938019803E+02  0.33937629170E+02  0.51100000000E-03 0.  1.
         12    1    3    3    0    0  0.50474572151E+01  0.71459784000E+01  0.72832937762E+01  0.11383681297E+02  0.00000000000E+00 0. -1.
</event>
<event>
 7    1  0.6462830E-013  0.5052879E+02  0.7816164E-02  0.1300439E+00
        -11   -1    0    0    0    0  0.00000000000E+00  0.00000000000E+00  0.45593999997E+02  0.45594000000E+02  0.51100000000E-03 0.  1.
         11   -1    0    0    0    0 -0.00000000000E+00 -0.00000000000E+00 -0.45593999997E+02  0.45594000000E+02  0.51100000000E-03 0. -1.
    9900012    2    1    2    0    0 -0.38690502452E+02  0.11178901668E+02  0.55900466633E+01  0.50528788938E+02  0.29999784454E+02 0.  0.
         12    1    1    2    0    0  0.38690502452E+02 -0.11178901668E+02 -0.55900466633E+01  0.40659211062E+02  0.00000000000E+00 0. -1.
         11    1    3    3    0    0 -0.81567051236E+01 -0.40640572453E+00  0.13558011660E+01  0.82785989847E+01  0.51100000000E-03 0. -1.
        -11    1    3    3    0    0 -0.26585782086E+02 -0.30730875194E+01  0.40558353492E+01  0.27068385188E+02  0.51100000000E-03 0.  1.
         12    1    3    3    0    0 -0.39480152425E+01  0.14658394912E+02  0.17841014810E+00  0.15181804765E+02  0.00000000000E+00 0. -1.
</event>
<event>
 7    1  0.6462830E-013  0.5052887E+02  0.7816164E-02  0.1300439E+00
        -11   -1    0    0    0    0  0.00000000000E+00  0.00000000000E+00  0.45593999997E+02  0.45594000000E+02  0.51100000000E-03 0. -1.
         11   -1    0    0    0    0 -0.00000000000E+00 -0.00000000000E+00 -0.45593999997E+02  0.45594000000E+02  0.51100000000E-03 0.  1.
    9900012    2    1    2    0    0  0.26061009585E+02  0.49484395819E+01 -0.30813986686E+02  0.50528867565E+02  0.30000023451E+02 0.  0.
         12    1    1    2    0    0 -0.26061009585E+02 -0.49484395819E+01  0.30813986686E+02  0.40659132435E+02  0.00000000000E+00 0. -1.
         11    1    3    3    0    0  0.54481541801E+01  0.93599113425E+01 -0.66564619223E+01  0.12712152056E+02  0.51100000000E-03 0. -1.
        -11    1    3    3    0    0  0.14823275176E+01 -0.64714544228E+01  0.36207840967E+00  0.66489185776E+01  0.51100000000E-03 0.  1.
        -12    1    3    3    0    0  0.19130527887E+02  0.20599826622E+01 -0.24519603173E+02  0.31167796932E+02  0.00000000000E+00 0.  1.
</event>
<event>
 7    1  0.6462830E-013  0.5052886E+02  0.7816164E-02  0.1300439E+00
        -11   -1    0    0    0    0  0.00000000000E+00  0.00000000000E+00  0.45593999997E+02  0.45594000000E+02  0.51100000000E-03 0.  1.
         11   -1    0    0    0    0 -0.00000000000E+00 -0.00000000000E+00 -0.45593999997E+02  0.45594000000E+02  0.51100000000E-03 0. -1.
    9900012    2    1    2    0    0 -0.53945558739E+01 -0.14197006807E+02  0.37716165284E+02  0.50528863769E+02  0.30000011912E+02 0.  0.
         12    1    1    2    0    0  0.53945558739E+01  0.14197006807E+02 -0.37716165284E+02  0.40659136231E+02  0.00000000000E+00 0. -1.
         11    1    3    3    0    0 -0.41273939553E+00 -0.48245144026E+01  0.16492757861E+00  0.48449452419E+01  0.51100000000E-03 0. -1.
        -11    1    3    3    0    0 -0.90647462510E+01 -0.15908199920E+02  0.26168820684E+02  0.31938184443E+02  0.51100000000E-03 0.  1.
         12    1    3    3    0    0  0.40829297727E+01  0.65357075154E+01  0.11382417022E+02  0.13745734084E+02  0.00000000000E+00 0. -1.
</event>
<event>
 7    1  0.6462830E-013  0.5052885E+02  0.7816164E-02  0.1300439E+00
        -11   -1    0    0    0    0  0.00000000000E+00  0.00000000000E+00  0.45593999997E+02  0.45594000000E+02  0.51100000000E-03 0.  1.
         11   -1    0    0    0    0 -0.00000000000E+00 -0.00000000000E+00 -0.45593999997E+02  0.45594000000E+02  0.51100000000E-03 0. -1.
    9900012    2    1    2    0    0  0.31350998163E+02 -0.17516950858E+02  0.19064035720E+02  0.50528854521E+02  0.29999983802E+02 0.  0.
         12    1    1    2    0    0 -0.31350998163E+02  0.17516950858E+02 -0.19064035720E+02  0.40659145479E+02  0.00000000000E+00 0. -1.
         11    1    3    3    0    0  0.17869884570E+00 -0.49349437929E+01 -0.53272269725E+01  0.72639487191E+01  0.51100000000E-03 0. -1.
        -11    1    3    3    0    0  0.16109570952E+02 -0.10768997227E+02  0.19069807601E+02  0.27187260614E+02  0.51100000000E-03 0.  1.
        -12    1    3    3    0    0  0.15062728365E+02 -0.18130098385E+01  0.53214550921E+01  0.16077645188E+02  0.00000000000E+00 0.  1.
</event>
<event>
 7    1  0.6462830E-013  0.5052886E+02  0.7816164E-02  0.1300439E+00
        -11   -1    0    0    0    0  0.00000000000E+00  0.00000000000E+00  0.45593999997E+02  0.45594000000E+02  0.51100000000E-03 0.  1.
         11   -1    0    0    0    0 -0.00000000000E+00 -0.00000000000E+00 -0.45593999997E+02  0.45594000000E+02  0.51100000000E-03 0. -1.
    9900012    2    1    2    0    0 -0.13097917296E+02  0.15013764684E+02  0.35442868875E+02  0.50528861771E+02  0.30000005838E+02 0.  0.
         12    1    1    2    0    0  0.13097917296E+02 -0.15013764684E+02 -0.35442868875E+02  0.40659138229E+02  0.00000000000E+00 0. -1.
         11    1    3    3    0    0 -0.75442010251E+01  0.11209180471E+02  0.46556282127E+01  0.14291101086E+02  0.51100000000E-03 0. -1.
        -11    1    3    3    0    0 -0.51882934468E+01 -0.44565860834E+01  0.34169924955E+01  0.76456122309E+01  0.51100000000E-03 0.  1.
        -12    1    3    3    0    0 -0.36542282369E+00  0.82611702969E+01  0.27370248166E+02  0.28592148454E+02  0.00000000000E+00 0.  1.
</event>
<event>
 7    1  0.6462830E-013  0.5052892E+02  0.7816164E-02  0.1300439E+00
        -11   -1    0    0    0    0  0.00000000000E+00  0.00000000000E+00  0.45593999997E+02  0.45594000000E+02  0.51100000000E-03 0. -1.
         11   -1    0    0    0    0 -0.00000000000E+00 -0.00000000000E+00 -0.45593999997E+02  0.45594000000E+02  0.51100000000E-03 0.  1.
    9900012    2    1    2    0    0 -0.20486804822E+02 -0.31879754037E+02 -0.14735428261E+02  0.50528920628E+02  0.30000184741E+02 0.  0.
         12    1    1    2    0    0  0.20486804822E+02  0.31879754037E+02  0.14735428261E+02  0.40659079372E+02  0.00000000000E+00 0. -1.
         11    1    3    3    0    0 -0.51013970486E+01 -0.57730112597E+01  0.52895559244E+01  0.93451224171E+01  0.51100000000E-03 0. -1.
        -11    1    3    3    0    0 -0.10757376958E+02 -0.28523238265E+02 -0.15152988430E+02  0.34042757509E+02  0.51100000000E-03 0.  1.
         12    1    3    3    0    0 -0.46280308157E+01  0.24164954875E+01 -0.48719957555E+01  0.71410407025E+01  0.00000000000E+00 0. -1.
</event>
<event>
 7    1  0.6462830E-013  0.5052887E+02  0.7816164E-02  0.1300439E+00
        -11   -1    0    0    0    0  0.00000000000E+00  0.00000000000E+00  0.45593999997E+02  0.45594000000E+02  0.51100000000E-03 0. -1.
         11   -1    0    0    0    0 -0.00000000000E+00 -0.00000000000E+00 -0.45593999997E+02  0.45594000000E+02  0.51100000000E-03 0.  1.
    9900012    2    1    2    0    0  0.16172135273E+02  0.32775507977E+02 -0.17815530364E+02  0.50528868128E+02  0.30000025161E+02 0.  0.
         12    1    1    2    0    0 -0.16172135273E+02 -0.32775507977E+02  0.17815530364E+02  0.40659131872E+02  0.00000000000E+00 0. -1.
         11    1    3    3    0    0  0.77667917654E+01 -0.19298199440E+01  0.95653962547E+00  0.80599148667E+01  0.51100000000E-03 0. -1.
        -11    1    3    3    0    0  0.34314604728E+00  0.71017662652E+01  0.15234803265E+01  0.72714390502E+01  0.51100000000E-03 0.  1.
         12    1    3    3    0    0  0.80621974604E+01  0.27603561656E+02 -0.20295550316E+02  0.35197514211E+02  0.00000000000E+00 0. -1.
</event>
<event>
 7    1  0.6462830E-013  0.5052886E+02  0.7816164E-02  0.1300439E+00
        -11   -1    0    0    0    0  0.00000000000E+00  0.00000000000E+00  0.45593999997E+02  0.45594000000E+02  0.51100000000E-03 0.  1.
         11   -1    0    0    0    0 -0.00000000000E+00 -0.00000000000E+00 -0.45593999997E+02  0.45594000000E+02  0.51100000000E-03 0. -1.
    9900012    2    1    2    0    0 -0.20514342056E+01  0.10280796793E+02  0.39284382221E+02  0.50528857713E+02  0.29999993505E+02 0.  0.
         12    1    1    2    0    0  0.20514342056E+01 -0.10280796793E+02 -0.39284382221E+02  0.40659142287E+02  0.00000000000E+00 0. -1.
         11    1    3    3    0    0  0.63054764464E+01 -0.11678418305E+01  0.12741439341E+02  0.14264191687E+02  0.51100000000E-03 0. -1.
        -11    1    3    3    0    0  0.41214694434E+01  0.10713852380E+02  0.17113616512E+02  0.20607013699E+02  0.51100000000E-03 0.  1.
         12    1    3    3    0    0 -0.12478380095E+02  0.73478624307E+00  0.94293263686E+01  0.15657652327E+02  0.00000000000E+00 0. -1.
</event>
<event>
 7    1  0.6462830E-013  0.5052885E+02  0.7816164E-02  0.1300439E+00
        -11   -1    0    0    0    0  0.00000000000E+00  0.00000000000E+00  0.45593999997E+02  0.45594000000E+02  0.51100000000E-03 0. -1.
         11   -1    0    0    0    0 -0.00000000000E+00 -0.00000000000E+00 -0.45593999997E+02  0.45594000000E+02  0.51100000000E-03 0.  1.
    9900012    2    1    2    0    0 -0.15266618621E+02  0.21701598133E+02 -0.30808075955E+02  0.50528849127E+02  0.29999967406E+02 0.  0.
         12    1    1    2    0    0  0.15266618621E+02 -0.21701598133E+02  0.30808075955E+02  0.40659150873E+02  0.00000000000E+00 0. -1.
         11    1    3    3    0    0 -0.59079829531E+01  0.75235986155E+01 -0.21899786294E+01  0.98135011775E+01  0.51100000000E-03 0. -1.
        -11    1    3    3    0    0  0.43970526401E+01  0.14002371048E+02 -0.10888488661E+02  0.18274562990E+02  0.51100000000E-03 0.  1.
        -12    1    3    3    0    0 -0.13755688308E+02  0.17562846983E+00 -0.17729608665E+02  0.22440784960E+02  0.00000000000E+00 0.  1.
</event>
<event>
 7    1  0.6462830E-013  0.5052884E+02  0.7816164E-02  0.1300439E+00
        -11   -1    0    0    0    0  0.00000000000E+00  0.00000000000E+00  0.45593999997E+02  0.45594000000E+02  0.51100000000E-03 0.  1.
         11   -1    0    0    0    0 -0.00000000000E+00 -0.00000000000E+00 -0.45593999997E+02  0.45594000000E+02  0.51100000000E-03 0. -1.
    9900012    2    1    2    0    0 -0.11182929617E+02 -0.82529605457E+01  0.38209915205E+02  0.50528844911E+02  0.29999954590E+02 0.  0.
         12    1    1    2    0    0  0.11182929617E+02  0.82529605457E+01 -0.38209915205E+02  0.40659155089E+02  0.00000000000E+00 0. -1.
         11    1    3    3    0    0 -0.14321324620E+02 -0.67321419741E+01  0.22962967762E+02  0.27887631006E+02  0.51100000000E-03 0. -1.
        -11    1    3    3    0    0 -0.52891673179E+01  0.36935491980E+01  0.37476703946E+01  0.74607392558E+01  0.51100000000E-03 0.  1.
         12    1    3    3    0    0  0.84275623211E+01 -0.52143677696E+01  0.11499277049E+02  0.15180474649E+02  0.00000000000E+00 0. -1.
</event>
<event>
 7    1  0.6462830E-013  0.5052886E+02  0.7816164E-02  0.1300439E+00
        -11   -1    0    0    0    0  0.00000000000E+00  0.00000000000E+00  0.45593999997E+02  0.45594000000E+02  0.51100000000E-03 0. -1.
         11   -1    0    0    0    0 -0.00000000000E+00 -0.00000000000E+00 -0.45593999997E+02  0.45594000000E+02  0.51100000000E-03 0.  1.
    9900012    2    1    2    0    0 -0.15124282208E+02  0.34436776059E+02  0.15444427258E+02  0.50528858457E+02  0.29999995767E+02 0.  0.
         12    1    1    2    0    0  0.15124282208E+02 -0.34436776059E+02 -0.15444427258E+02  0.40659141543E+02  0.00000000000E+00 0. -1.
         11    1    3    3    0    0  0.10100639478E+01  0.13641534479E+02  0.77003251423E+01  0.15697346899E+02  0.51100000000E-03 0. -1.
        -11    1    3    3    0    0 -0.20133907550E+01  0.97567558328E+01 -0.65359152372E+01  0.11914957615E+02  0.51100000000E-03 0.  1.
         12    1    3    3    0    0 -0.14120955401E+02  0.11038485748E+02  0.14280017353E+02  0.22916553943E+02  0.00000000000E+00 0. -1.
</event>
<event>
 7    1  0.6462830E-013  0.5052885E+02  0.7816164E-02  0.1300439E+00
        -11   -1    0    0    0    0  0.00000000000E+00  0.00000000000E+00  0.45593999997E+02  0.45594000000E+02  0.51100000000E-03 0.  1.
         11   -1    0    0    0    0 -0.00000000000E+00 -0.00000000000E+00 -0.45593999997E+02  0.45594000000E+02  0.51100000000E-03 0. -1.
    9900012    2    1    2    0    0 -0.56636478347E+00  0.21609534316E+02  0.34436516036E+02  0.50528851225E+02  0.29999973783E+02 0.  0.
         12    1    1    2    0    0  0.56636478347E+00 -0.21609534316E+02 -0.34436516036E+02  0.40659148775E+02  0.00000000000E+00 0. -1.
         11    1    3    3    0    0 -0.57354399046E+01  0.55195012514E+01  0.18394932595E+01  0.81696940381E+01  0.51100000000E-03 0. -1.
        -11    1    3    3    0    0 -0.65589764733E+01  0.12485687109E+02  0.22075602251E+02  0.26196273971E+02  0.51100000000E-03 0.  1.
        -12    1    3    3    0    0  0.11728051594E+02  0.36043459549E+01  0.10521420526E+02  0.16162883216E+02  0.00000000000E+00 0.  1.
</event>
<event>
 7    1  0.6462830E-013  0.5052885E+02  0.7816164E-02  0.1300439E+00
        -11   -1    0    0    0    0  0.00000000000E+00  0.00000000000E+00  0.45593999997E+02  0.45594000000E+02  0.51100000000E-03 0. -1.
         11   -1    0    0    0    0 -0.00000000000E+00 -0.00000000000E+00 -0.45593999997E+02  0.45594000000E+02  0.51100000000E-03 0.  1.
    9900012    2    1    2    0    0  0.34977076584E+02  0.15251410063E+02 -0.14041537879E+02  0.50528853658E+02  0.29999981178E+02 0.  0.
         12    1    1    2    0    0 -0.34977076584E+02 -0.15251410063E+02  0.14041537879E+02  0.40659146342E+02  0.00000000000E+00 0. -1.
         11    1    3    3    0    0  0.23629769705E+02  0.16011061786E+02  0.37648938386E+00  0.28545785334E+02  0.51100000000E-03 0. -1.
        -11    1    3    3    0    0  0.10929557613E+02  0.35391517591E+01 -0.71590424571E+01  0.13536347881E+02  0.51100000000E-03 0.  1.
         12    1    3    3    0    0  0.41774926619E+00 -0.42988034822E+01 -0.72589848059E+01  0.84467204429E+01  0.00000000000E+00 0. -1.
</event>
<event>
 7    1  0.6462830E-013  0.5052886E+02  0.7816164E-02  0.1300439E+00
        -11   -1    0    0    0    0  0.00000000000E+00  0.00000000000E+00  0.45593999997E+02  0.45594000000E+02  0.51100000000E-03 0.  1.
         11   -1    0    0    0    0 -0.00000000000E+00 -0.00000000000E+00 -0.45593999997E+02  0.45594000000E+02  0.51100000000E-03 0. -1.
    9900012    2    1    2    0    0  0.36766737082E+02 -0.77338263993E+01  0.15542212483E+02  0.50528863323E+02  0.30000010557E+02 0.  0.
         12    1    1    2    0    0 -0.36766737082E+02  0.77338263993E+01 -0.15542212483E+02  0.40659136677E+02  0.00000000000E+00 0. -1.
         11    1    3    3    0    0  0.73815135063E+01  0.26761784593E+01  0.24250371111E+01  0.82176321432E+01  0.51100000000E-03 0. -1.
        -11    1    3    3    0    0  0.27472353479E+02 -0.77911605200E+01 -0.24939296053E+00  0.28556865812E+02  0.51100000000E-03 0.  1.
        -12    1    3    3    0    0  0.19128700970E+01 -0.26188443387E+01  0.13366568332E+02  0.13754365367E+02  0.00000000000E+00 0.  1.
</event>
<event>
 7    1  0.6462830E-013  0.5052886E+02  0.7816164E-02  0.1300439E+00
        -11   -1    0    0    0    0  0.00000000000E+00  0.00000000000E+00  0.45593999997E+02  0.45594000000E+02  0.51100000000E-03 0. -1.
         11   -1    0    0    0    0 -0.00000000000E+00 -0.00000000000E+00 -0.45593999997E+02  0.45594000000E+02  0.51100000000E-03 0.  1.
    9900012    2    1    2    0    0 -0.23058615558E+02  0.15461463076E+02 -0.29705367114E+02  0.50528862929E+02  0.30000009360E+02 0.  0.
         12    1    1    2    0    0  0.23058615558E+02 -0.15461463076E+02  0.29705367114E+02  0.40659137071E+02  0.00000000000E+00 0. -1.
         11    1    3    3    0    0 -0.97360153556E+00  0.15819886835E+02 -0.39782266965E+01  0.16341450589E+02  0.51100000000E-03 0. -1.
        -11    1    3    3    0    0 -0.92544595520E+01  0.16937710898E+01 -0.12509962907E+02  0.15652892841E+02  0.51100000000E-03 0.  1.
        -12    1    3    3    0    0 -0.12830554471E+02 -0.20521948487E+01 -0.13217177511E+02  0.18534519499E+02  0.00000000000E+00 0.  1.
</event>
<event>
 7    1  0.6462830E-013  0.5052887E+02  0.7816164E-02  0.1300439E+00
        -11   -1    0    0    0    0  0.00000000000E+00  0.00000000000E+00  0.45593999997E+02  0.45594000000E+02  0.51100000000E-03 0. -1.
         11   -1    0    0    0    0 -0.00000000000E+00 -0.00000000000E+00 -0.45593999997E+02  0.45594000000E+02  0.51100000000E-03 0.  1.
    9900012    2    1    2    0    0  0.60394967730E+00  0.33038757295E+02 -0.23690520861E+02  0.50528867969E+02  0.30000024680E+02 0.  0.
         12    1    1    2    0    0 -0.60394967730E+00 -0.33038757295E+02  0.23690520861E+02  0.40659132031E+02  0.00000000000E+00 0. -1.
         11    1    3    3    0    0 -0.11470455567E+02  0.20014925904E+02 -0.64651731604E+01  0.23957609942E+02  0.51100000000E-03 0. -1.
        -11    1    3    3    0    0  0.26058307155E+01  0.21705269947E+01 -0.97929985055E+01  0.10363607535E+02  0.51100000000E-03 0.  1.
        -12    1    3    3    0    0  0.94685745292E+01  0.10853304396E+02 -0.74323491952E+01  0.16207650493E+02  0.00000000000E+00 0.  1.
</event>
<event>
 7    1  0.6462830E-013  0.5052886E+02  0.7816164E-02  0.1300439E+00
        -11   -1    0    0    0    0  0.00000000000E+00  0.00000000000E+00  0.45593999997E+02  0.45594000000E+02  0.51100000000E-03 0.  1.
         11   -1    0    0    0    0 -0.00000000000E+00 -0.00000000000E+00 -0.45593999997E+02  0.45594000000E+02  0.51100000000E-03 0. -1.
    9900012    2    1    2    0    0 -0.27535288376E+02 -0.29314897561E+02  0.59674693420E+01  0.50528855699E+02  0.29999987382E+02 0.  0.
         12    1    1    2    0    0  0.27535288376E+02  0.29314897561E+02 -0.59674693420E+01  0.40659144301E+02  0.00000000000E+00 0. -1.
         11    1    3    3    0    0 -0.15649657465E+02 -0.12718249881E+02  0.90495848355E+01  0.22103407989E+02  0.51100000000E-03 0.  1.
        -11    1    3    3    0    0 -0.78354551388E+01 -0.96363574201E+01 -0.11392385791E+02  0.16853492096E+02  0.51100000000E-03 0. -1.
         12    1    3    3    0    0 -0.40501757719E+01 -0.69602902607E+01  0.83102702975E+01  0.11571955613E+02  0.00000000000E+00 0. -1.
</event>
<event>
 7    1  0.6462830E-013  0.5052886E+02  0.7816164E-02  0.1300439E+00
        -11   -1    0    0    0    0  0.00000000000E+00  0.00000000000E+00  0.45593999997E+02  0.45594000000E+02  0.51100000000E-03 0.  1.
         11   -1    0    0    0    0 -0.00000000000E+00 -0.00000000000E+00 -0.45593999997E+02  0.45594000000E+02  0.51100000000E-03 0. -1.
    9900012    2    1    2    0    0 -0.24628949773E+02 -0.16012043458E+02  0.28110400809E+02  0.50528864049E+02  0.30000012764E+02 0.  0.
         12    1    1    2    0    0  0.24628949773E+02  0.16012043458E+02 -0.28110400809E+02  0.40659135951E+02  0.00000000000E+00 0. -1.
         11    1    3    3    0    0 -0.48266268238E+01 -0.25758328478E+01  0.58878577294E+01  0.80372949590E+01  0.51100000000E-03 0.  1.
        -11    1    3    3    0    0  0.24258577495E+01 -0.73886067300E+01 -0.29974983277E+01  0.83343441084E+01  0.51100000000E-03 0. -1.
         12    1    3    3    0    0 -0.22228180698E+02 -0.60476038800E+01  0.25220041408E+02  0.34157224982E+02  0.00000000000E+00 0. -1.
</event>
<event>
 7    1  0.6462830E-013  0.5052886E+02  0.7816164E-02  0.1300439E+00
        -11   -1    0    0    0    0  0.00000000000E+00  0.00000000000E+00  0.45593999997E+02  0.45594000000E+02  0.51100000000E-03 0.  1.
         11   -1    0    0    0    0 -0.00000000000E+00 -0.00000000000E+00 -0.45593999997E+02  0.45594000000E+02  0.51100000000E-03 0. -1.
    9900012    2    1    2    0    0  0.35685985331E+02  0.49421000216E+01  0.18848122193E+02  0.50528860660E+02  0.30000002463E+02 0.  0.
         12    1    1    2    0    0 -0.35685985331E+02 -0.49421000216E+01 -0.18848122193E+02  0.40659139340E+02  0.00000000000E+00 0. -1.
         11    1    3    3    0    0  0.12143018894E+02 -0.27529311433E+01 -0.78275761860E+00  0.12475746370E+02  0.51100000000E-03 0. -1.
        -11    1    3    3    0    0  0.27393774918E+02  0.81992150447E+01  0.16162810914E+02  0.32846346654E+02  0.51100000000E-03 0.  1.
        -12    1    3    3    0    0 -0.38508084812E+01 -0.50418387980E+00  0.34680688973E+01  0.52067676364E+01  0.00000000000E+00 0.  1.
</event>
<event>
 7    1  0.6462830E-013  0.5052888E+02  0.7816164E-02  0.1300439E+00
        -11   -1    0    0    0    0  0.00000000000E+00  0.00000000000E+00  0.45593999997E+02  0.45594000000E+02  0.51100000000E-03 0.  1.
         11   -1    0    0    0    0 -0.00000000000E+00 -0.00000000000E+00 -0.45593999997E+02  0.45594000000E+02  0.51100000000E-03 0. -1.
    9900012    2    1    2    0    0 -0.30093594668E+02 -0.16401684401E+02  0.21875203526E+02  0.50528877770E+02  0.30000054468E+02 0.  0.
         12    1    1    2    0    0  0.30093594668E+02  0.16401684401E+02 -0.21875203526E+02  0.40659122230E+02  0.00000000000E+00 0. -1.
         11    1    3    3    0    0 -0.20301228552E+02 -0.42519155760E+01  0.11724065299E+02  0.23825876147E+02  0.51100000000E-03 0. -1.
        -11    1    3    3    0    0 -0.14748994350E+02 -0.48317732368E+01  0.85533059388E+01  0.17721114799E+02  0.51100000000E-03 0.  1.
         12    1    3    3    0    0  0.49566282345E+01 -0.73179955887E+01  0.15978322878E+01  0.89818868235E+01  0.00000000000E+00 0. -1.
</event>
<event>
 7    1  0.6462830E-013  0.5052887E+02  0.7816164E-02  0.1300439E+00
        -11   -1    0    0    0    0  0.00000000000E+00  0.00000000000E+00  0.45593999997E+02  0.45594000000E+02  0.51100000000E-03 0. -1.
         11   -1    0    0    0    0 -0.00000000000E+00 -0.00000000000E+00 -0.45593999997E+02  0.45594000000E+02  0.51100000000E-03 0.  1.
    9900012    2    1    2    0    0  0.30804309217E+02 -0.12208305380E+00 -0.26537609226E+02  0.50528867274E+02  0.30000022565E+02 0.  0.
         12    1    1    2    0    0 -0.30804309217E+02  0.12208305380E+00  0.26537609226E+02  0.40659132726E+02  0.00000000000E+00 0. -1.
         11    1    3    3    0    0  0.38998897568E+01 -0.19923272017E+01 -0.10697145277E+02  0.11558867814E+02  0.51100000000E-03 0. -1.
        -11    1    3    3    0    0  0.24261931070E+02  0.61073759119E+01 -0.20343493454E+02  0.32245915492E+02  0.51100000000E-03 0.  1.
         12    1    3    3    0    0  0.26424883907E+01 -0.42371317640E+01  0.45030295050E+01  0.67240839676E+01  0.00000000000E+00 0. -1.
</event>
<event>
 7    1  0.6462830E-013  0.5052884E+02  0.7816164E-02  0.1300439E+00
        -11   -1    0    0    0    0  0.00000000000E+00  0.00000000000E+00  0.45593999997E+02  0.45594000000E+02  0.51100000000E-03 0.  1.
         11   -1    0    0    0    0 -0.00000000000E+00 -0.00000000000E+00 -0.45593999997E+02  0.45594000000E+02  0.51100000000E-03 0. -1.
    9900012    2    1    2    0    0  0.28452692168E+02  0.91200271195E+01  0.27576009737E+02  0.50528844828E+02  0.29999954340E+02 0.  0.
         12    1    1    2    0    0 -0.28452692168E+02 -0.91200271195E+01 -0.27576009737E+02  0.40659155172E+02  0.00000000000E+00 0. -1.
         11    1    3    3    0    0  0.15452707406E+02 -0.90119236722E-01  0.10069764985E+02  0.18444361056E+02  0.51100000000E-03 0.  1.
        -11    1    3    3    0    0  0.15292603330E+02  0.14325305320E+02  0.15740005287E+02  0.26207362626E+02  0.51100000000E-03 0. -1.
        -12    1    3    3    0    0 -0.22926185680E+01 -0.51151589638E+01  0.17662394652E+01  0.58771211466E+01  0.00000000000E+00 0.  1.
</event>
<event>
 7    1  0.9909953E-013  0.5052887E+02  0.7816164E-02  0.1300439E+00
        -11   -1    0    0    0    0  0.00000000000E+00  0.00000000000E+00  0.45593999997E+02  0.45594000000E+02  0.51100000000E-03 0.  1.
         11   -1    0    0    0    0 -0.00000000000E+00 -0.00000000000E+00 -0.45593999997E+02  0.45594000000E+02  0.51100000000E-03 0. -1.
    9900012    2    1    2    0    0  0.26201574532E+02  0.21302405774E+02  0.22646184982E+02  0.50528871948E+02  0.30000036773E+02 0.  0.
         12    1    1    2    0    0 -0.26201574532E+02 -0.21302405774E+02 -0.22646184982E+02  0.40659128052E+02  0.00000000000E+00 0. -1.
         11    1    3    3    0    0  0.96372178283E+01  0.10308519523E+02 -0.80976725764E+00  0.14134966059E+02  0.51100000000E-03 0. -1.
        -11    1    3    3    0    0  0.15294282421E+02  0.15360691052E+02  0.13734488635E+02  0.25661295421E+02  0.51100000000E-03 0.  1.
         12    1    3    3    0    0  0.12700742833E+01 -0.43668048004E+01  0.97214636042E+01  0.10732610468E+02  0.00000000000E+00 0. -1.
</event>
<event>
 7    1  0.6462830E-013  0.5052886E+02  0.7816164E-02  0.1300439E+00
        -11   -1    0    0    0    0  0.00000000000E+00  0.00000000000E+00  0.45593999997E+02  0.45594000000E+02  0.51100000000E-03 0.  1.
         11   -1    0    0    0    0 -0.00000000000E+00 -0.00000000000E+00 -0.45593999997E+02  0.45594000000E+02  0.51100000000E-03 0. -1.
    9900012    2    1    2    0    0  0.19378736232E+01  0.32428605924E+02  0.24449866396E+02  0.50528858307E+02  0.29999995311E+02 0.  0.
         12    1    1    2    0    0 -0.19378736232E+01 -0.32428605924E+02 -0.24449866396E+02  0.40659141693E+02  0.00000000000E+00 0. -1.
         11    1    3    3    0    0  0.19722819460E+01  0.17607622014E+02  0.36371771104E+01  0.18087213899E+02  0.51100000000E-03 0. -1.
        -11    1    3    3    0    0  0.39778769922E+01  0.17721352318E+02  0.10442576726E+02  0.20950351841E+02  0.51100000000E-03 0.  1.
         12    1    3    3    0    0 -0.40122853149E+01 -0.29003684072E+01  0.10370112560E+02  0.11491292567E+02  0.00000000000E+00 0. -1.
</event>
<event>
 7    1  0.6462830E-013  0.5052887E+02  0.7816164E-02  0.1300439E+00
        -11   -1    0    0    0    0  0.00000000000E+00  0.00000000000E+00  0.45593999997E+02  0.45594000000E+02  0.51100000000E-03 0. -1.
         11   -1    0    0    0    0 -0.00000000000E+00 -0.00000000000E+00 -0.45593999997E+02  0.45594000000E+02  0.51100000000E-03 0.  1.
    9900012    2    1    2    0    0  0.76115511900E+01  0.15045054291E+02 -0.36998314913E+02  0.50528872162E+02  0.30000037425E+02 0.  0.
         12    1    1    2    0    0 -0.76115511900E+01 -0.15045054291E+02  0.36998314913E+02  0.40659127838E+02  0.00000000000E+00 0. -1.
         11    1    3    3    0    0  0.80648123855E+01  0.33812106680E+01 -0.11519748372E+02  0.14463000630E+02  0.51100000000E-03 0. -1.
        -11    1    3    3    0    0  0.49501910980E+01  0.17063189492E+02 -0.16161509987E+02  0.24017727471E+02  0.51100000000E-03 0.  1.
        -12    1    3    3    0    0 -0.54034522935E+01 -0.53993458694E+01 -0.93170565533E+01  0.12048144061E+02  0.00000000000E+00 0.  1.
</event>
<event>
 7    1  0.6462830E-013  0.5052886E+02  0.7816164E-02  0.1300439E+00
        -11   -1    0    0    0    0  0.00000000000E+00  0.00000000000E+00  0.45593999997E+02  0.45594000000E+02  0.51100000000E-03 0. -1.
         11   -1    0    0    0    0 -0.00000000000E+00 -0.00000000000E+00 -0.45593999997E+02  0.45594000000E+02  0.51100000000E-03 0.  1.
    9900012    2    1    2    0    0  0.19795578802E+02  0.31479481815E+02 -0.16442106823E+02  0.50528860901E+02  0.30000003194E+02 0.  0.
         12    1    1    2    0    0 -0.19795578802E+02 -0.31479481815E+02  0.16442106823E+02  0.40659139099E+02  0.00000000000E+00 0. -1.
         11    1    3    3    0    0  0.21259561502E+02  0.23357147177E+02 -0.12178197797E+02  0.33850166637E+02  0.51100000000E-03 0. -1.
        -11    1    3    3    0    0  0.14424784115E+01  0.96088235291E+01 -0.73523685177E+01  0.12184726368E+02  0.51100000000E-03 0.  1.
         12    1    3    3    0    0 -0.29064611115E+01 -0.14864888910E+01  0.30884594915E+01  0.44939678955E+01  0.00000000000E+00 0. -1.
</event>
<event>
 7    1  0.6462830E-013  0.5052885E+02  0.7816164E-02  0.1300439E+00
        -11   -1    0    0    0    0  0.00000000000E+00  0.00000000000E+00  0.45593999997E+02  0.45594000000E+02  0.51100000000E-03 0.  1.
         11   -1    0    0    0    0 -0.00000000000E+00 -0.00000000000E+00 -0.45593999997E+02  0.45594000000E+02  0.51100000000E-03 0. -1.
    9900012    2    1    2    0    0  0.87218572788E+01 -0.12430416469E+02  0.37717109481E+02  0.50528851023E+02  0.29999973168E+02 0.  0.
         12    1    1    2    0    0 -0.87218572788E+01  0.12430416469E+02 -0.37717109481E+02  0.40659148977E+02  0.00000000000E+00 0. -1.
         11    1    3    3    0    0 -0.11637446054E+01 -0.72903192119E+01  0.10146338203E+02  0.12547957400E+02  0.51100000000E-03 0. -1.
        -11    1    3    3    0    0  0.15090592297E+02 -0.90780106479E+01  0.12614282586E+02  0.21662326251E+02  0.51100000000E-03 0.  1.
         12    1    3    3    0    0 -0.52049904129E+01  0.39379133904E+01  0.14956488692E+02  0.16318567371E+02  0.00000000000E+00 0. -1.
</event>
<event>
 7    1  0.6462830E-013  0.5052885E+02  0.7816164E-02  0.1300439E+00
        -11   -1    0    0    0    0  0.00000000000E+00  0.00000000000E+00  0.45593999997E+02  0.45594000000E+02  0.51100000000E-03 0.  1.
         11   -1    0    0    0    0 -0.00000000000E+00 -0.00000000000E+00 -0.45593999997E+02  0.45594000000E+02  0.51100000000E-03 0. -1.
    9900012    2    1    2    0    0  0.52949985029E+01 -0.33980709021E+02  0.21689640382E+02  0.50528854723E+02  0.29999984416E+02 0.  0.
         12    1    1    2    0    0 -0.52949985029E+01  0.33980709021E+02 -0.21689640382E+02  0.40659145277E+02  0.00000000000E+00 0. -1.
         11    1    3    3    0    0  0.21019276510E+01 -0.19834537680E+01 -0.16219124719E+01  0.33140291228E+01  0.51100000000E-03 0. -1.
        -11    1    3    3    0    0  0.13518640218E+02 -0.22684546432E+02  0.10871845617E+02  0.28557648845E+02  0.51100000000E-03 0.  1.
         12    1    3    3    0    0 -0.10325569366E+02 -0.93127088216E+01  0.12439707237E+02  0.18657176755E+02  0.00000000000E+00 0. -1.
</event>
<event>
 7    1  0.6462830E-013  0.5052887E+02  0.7816164E-02  0.1300439E+00
        -11   -1    0    0    0    0  0.00000000000E+00  0.00000000000E+00  0.45593999997E+02  0.45594000000E+02  0.51100000000E-03 0.  1.
         11   -1    0    0    0    0 -0.00000000000E+00 -0.00000000000E+00 -0.45593999997E+02  0.45594000000E+02  0.51100000000E-03 0. -1.
    9900012    2    1    2    0    0 -0.29822271760E+02  0.27040188148E+02  0.57118691015E+01  0.50528866750E+02  0.30000020973E+02 0.  0.
         12    1    1    2    0    0  0.29822271760E+02 -0.27040188148E+02 -0.57118691015E+01  0.40659133250E+02  0.00000000000E+00 0. -1.
         11    1    3    3    0    0 -0.10579040510E+02  0.73126351944E+01 -0.24778391180E+01  0.13096962188E+02  0.51100000000E-03 0. -1.
        -11    1    3    3    0    0 -0.10300697073E+02  0.15381343675E+02 -0.65635001200E+01  0.19641019004E+02  0.51100000000E-03 0.  1.
        -12    1    3    3    0    0 -0.89425341777E+01  0.43462092782E+01  0.14753208340E+02  0.17790885557E+02  0.00000000000E+00 0.  1.
</event>
<event>
 7    1  0.6462830E-013  0.5052886E+02  0.7816164E-02  0.1300439E+00
        -11   -1    0    0    0    0  0.00000000000E+00  0.00000000000E+00  0.45593999997E+02  0.45594000000E+02  0.51100000000E-03 0. -1.
         11   -1    0    0    0    0 -0.00000000000E+00 -0.00000000000E+00 -0.45593999997E+02  0.45594000000E+02  0.51100000000E-03 0.  1.
    9900012    2    1    2    0    0  0.27133828461E+02 -0.28167160860E+02  0.11114500464E+02  0.50528859350E+02  0.29999998479E+02 0.  0.
         12    1    1    2    0    0 -0.27133828461E+02  0.28167160860E+02 -0.11114500464E+02  0.40659140650E+02  0.00000000000E+00 0. -1.
         11    1    3    3    0    0  0.90968219777E+01 -0.12065356750E+02  0.12852710640E+02  0.19837267318E+02  0.51100000000E-03 0.  1.
        -11    1    3    3    0    0 -0.23492245534E+01 -0.80671162712E+01  0.15189358416E+01  0.85384066012E+01  0.51100000000E-03 0. -1.
        -12    1    3    3    0    0  0.20386231036E+02 -0.80346878389E+01 -0.32571460172E+01  0.22153185430E+02  0.00000000000E+00 0.  1.
</event>
<event>
 7    1  0.6462830E-013  0.5052887E+02  0.7816164E-02  0.1300439E+00
        -11   -1    0    0    0    0  0.00000000000E+00  0.00000000000E+00  0.45593999997E+02  0.45594000000E+02  0.51100000000E-03 0.  1.
         11   -1    0    0    0    0 -0.00000000000E+00 -0.00000000000E+00 -0.45593999997E+02  0.45594000000E+02  0.51100000000E-03 0. -1.
    9900012    2    1    2    0    0 -0.33609708480E+02  0.21222531199E+02 -0.85531601911E+01  0.50528869613E+02  0.30000029675E+02 0.  0.
         12    1    1    2    0    0  0.33609708480E+02 -0.21222531199E+02  0.85531601911E+01  0.40659130387E+02  0.00000000000E+00 0. -1.
         11    1    3    3    0    0 -0.13326326470E+02  0.45413357154E+01 -0.60877684040E+01  0.15338697196E+02  0.51100000000E-03 0. -1.
        -11    1    3    3    0    0 -0.16097772088E+02  0.16019363417E+01  0.61728461527E+01  0.17314978953E+02  0.51100000000E-03 0.  1.
        -12    1    3    3    0    0 -0.41856099215E+01  0.15079259142E+02 -0.86382379398E+01  0.17875193464E+02  0.00000000000E+00 0.  1.
</event>
<event>
 7    1  0.6462830E-013  0.5052886E+02  0.7816164E-02  0.1300439E+00
        -11   -1    0    0    0    0  0.00000000000E+00  0.00000000000E+00  0.45593999997E+02  0.45594000000E+02  0.51100000000E-03 0.  1.
         11   -1    0    0    0    0 -0.00000000000E+00 -0.00000000000E+00 -0.45593999997E+02  0.45594000000E+02  0.51100000000E-03 0. -1.
    9900012    2    1    2    0    0  0.12385477816E+02 -0.34565422710E+01  0.38572244468E+02  0.50528858488E+02  0.29999995861E+02 0.  0.
         12    1    1    2    0    0 -0.12385477816E+02  0.34565422710E+01 -0.38572244468E+02  0.40659141512E+02  0.00000000000E+00 0. -1.
         11    1    3    3    0    0  0.58927303214E+00  0.68787357353E+01  0.46914578647E+00  0.69198515918E+01  0.51100000000E-03 0. -1.
        -11    1    3    3    0    0  0.12596780439E+01 -0.97512239165E-01  0.21101827625E+02  0.21139617471E+02  0.51100000000E-03 0.  1.
        -12    1    3    3    0    0  0.10536526740E+02 -0.10237765767E+02  0.17001271056E+02  0.22469389426E+02  0.00000000000E+00 0.  1.
</event>
<event>
 7    1  0.6462830E-013  0.5052886E+02  0.7816164E-02  0.1300439E+00
        -11   -1    0    0    0    0  0.00000000000E+00  0.00000000000E+00  0.45593999997E+02  0.45594000000E+02  0.51100000000E-03 0.  1.
         11   -1    0    0    0    0 -0.00000000000E+00 -0.00000000000E+00 -0.45593999997E+02  0.45594000000E+02  0.51100000000E-03 0. -1.
    9900012    2    1    2    0    0 -0.57902051184E+01 -0.15241622083E+02  0.37246909775E+02  0.50528858263E+02  0.29999995176E+02 0.  0.
         12    1    1    2    0    0  0.57902051184E+01  0.15241622083E+02 -0.37246909775E+02  0.40659141737E+02  0.00000000000E+00 0. -1.
         11    1    3    3    0    0 -0.64304226941E+01  0.79423440613E+00  0.22330360422E+02  0.23251368587E+02  0.51100000000E-03 0. -1.
        -11    1    3    3    0    0 -0.50627788854E+01 -0.21503715347E+00  0.43796920726E+00  0.50862351801E+01  0.51100000000E-03 0.  1.
        -12    1    3    3    0    0  0.57029964611E+01 -0.15820819335E+02  0.14478580145E+02  0.22191254496E+02  0.00000000000E+00 0.  1.
</event>
<event>
 7    1  0.6462830E-013  0.5052887E+02  0.7816164E-02  0.1300439E+00
        -11   -1    0    0    0    0  0.00000000000E+00  0.00000000000E+00  0.45593999997E+02  0.45594000000E+02  0.51100000000E-03 0.  1.
         11   -1    0    0    0    0 -0.00000000000E+00 -0.00000000000E+00 -0.45593999997E+02  0.45594000000E+02  0.51100000000E-03 0. -1.
    9900012    2    1    2    0    0  0.19769893286E+02 -0.25397364287E+02  0.24845328242E+02  0.50528866601E+02  0.30000020521E+02 0.  0.
         12    1    1    2    0    0 -0.19769893286E+02  0.25397364287E+02 -0.24845328242E+02  0.40659133399E+02  0.00000000000E+00 0. -1.
         11    1    3    3    0    0  0.15560547048E+02 -0.12696420791E+02  0.49456985649E+01  0.20683076654E+02  0.51100000000E-03 0. -1.
        -11    1    3    3    0    0  0.19270537473E+01 -0.13466877431E+02  0.46042010071E+01  0.14362067785E+02  0.51100000000E-03 0.  1.
         12    1    3    3    0    0  0.22822924912E+01  0.76593393468E+00  0.15295428670E+02  0.15483722162E+02  0.00000000000E+00 0. -1.
</event>
<event>
 7    1  0.6462830E-013  0.5052887E+02  0.7816164E-02  0.1300439E+00
        -11   -1    0    0    0    0  0.00000000000E+00  0.00000000000E+00  0.45593999997E+02  0.45594000000E+02  0.51100000000E-03 0. -1.
         11   -1    0    0    0    0 -0.00000000000E+00 -0.00000000000E+00 -0.45593999997E+02  0.45594000000E+02  0.51100000000E-03 0.  1.
    9900012    2    1    2    0    0  0.15035452521E+02 -0.26036587443E+02 -0.27371446038E+02  0.50528870934E+02  0.30000033690E+02 0.  0.
         12    1    1    2    0    0 -0.15035452521E+02  0.26036587443E+02  0.27371446038E+02  0.40659129066E+02  0.00000000000E+00 0. -1.
         11    1    3    3    0    0 -0.27422808061E+01 -0.24618850859E+01  0.16752166321E+01  0.40481271251E+01  0.51100000000E-03 0. -1.
        -11    1    3    3    0    0  0.13191718177E+02 -0.19367911799E+02 -0.83631830523E+01  0.24881323658E+02  0.51100000000E-03 0.  1.
        -12    1    3    3    0    0  0.45860151502E+01 -0.42067905582E+01 -0.20683479618E+02  0.21599420151E+02  0.00000000000E+00 0.  1.
</event>
<event>
 7    1  0.6462830E-013  0.5052888E+02  0.7816164E-02  0.1300439E+00
        -11   -1    0    0    0    0  0.00000000000E+00  0.00000000000E+00  0.45593999997E+02  0.45594000000E+02  0.51100000000E-03 0.  1.
         11   -1    0    0    0    0 -0.00000000000E+00 -0.00000000000E+00 -0.45593999997E+02  0.45594000000E+02  0.51100000000E-03 0. -1.
    9900012    2    1    2    0    0 -0.23860097786E+02 -0.13026612759E+02  0.30235195841E+02  0.50528880803E+02  0.30000063688E+02 0.  0.
         12    1    1    2    0    0  0.23860097786E+02  0.13026612759E+02 -0.30235195841E+02  0.40659119197E+02  0.00000000000E+00 0. -1.
         11    1    3    3    0    0  0.35535289962E+01 -0.48013031578E+01 -0.88070280504E+00  0.60378570729E+01  0.51100000000E-03 0. -1.
        -11    1    3    3    0    0 -0.77499727407E+01  0.21805177189E+01  0.14986042975E+02  0.17011708301E+02  0.51100000000E-03 0.  1.
        -12    1    3    3    0    0 -0.19663654042E+02 -0.10405827320E+02  0.16129855671E+02  0.27479315429E+02  0.00000000000E+00 0.  1.
</event>
<event>
 7    1  0.6462830E-013  0.5052885E+02  0.7816164E-02  0.1300439E+00
        -11   -1    0    0    0    0  0.00000000000E+00  0.00000000000E+00  0.45593999997E+02  0.45594000000E+02  0.51100000000E-03 0. -1.
         11   -1    0    0    0    0 -0.00000000000E+00 -0.00000000000E+00 -0.45593999997E+02  0.45594000000E+02  0.51100000000E-03 0.  1.
    9900012    2    1    2    0    0  0.36328699105E+02  0.10076541566E+02 -0.15226801786E+02  0.50528848985E+02  0.29999966975E+02 0.  0.
         12    1    1    2    0    0 -0.36328699105E+02 -0.10076541566E+02  0.15226801786E+02  0.40659151015E+02  0.00000000000E+00 0. -1.
         11    1    3    3    0    0  0.13375121432E+02 -0.85658068367E+01 -0.30455045736E+00  0.15885832409E+02  0.51100000000E-03 0. -1.
        -11    1    3    3    0    0  0.58804731482E+01  0.36986109580E+01  0.86660433990E+00  0.70007635875E+01  0.51100000000E-03 0.  1.
         12    1    3    3    0    0  0.17073104525E+02  0.14943737445E+02 -0.15788855669E+02  0.27642252988E+02  0.00000000000E+00 0. -1.
</event>
<event>
 7    1  0.6462830E-013  0.5052886E+02  0.7816164E-02  0.1300439E+00
        -11   -1    0    0    0    0  0.00000000000E+00  0.00000000000E+00  0.45593999997E+02  0.45594000000E+02  0.51100000000E-03 0. -1.
         11   -1    0    0    0    0 -0.00000000000E+00 -0.00000000000E+00 -0.45593999997E+02  0.45594000000E+02  0.51100000000E-03 0.  1.
    9900012    2    1    2    0    0 -0.11647709726E+02 -0.37380241771E+02 -0.10964219387E+02  0.50528859287E+02  0.29999998289E+02 0.  0.
         12    1    1    2    0    0  0.11647709726E+02  0.37380241771E+02  0.10964219387E+02  0.40659140713E+02  0.00000000000E+00 0. -1.
         11    1    3    3    0    0 -0.12999536212E+02 -0.22511747961E+02  0.33067817236E+01  0.26204990815E+02  0.51100000000E-03 0. -1.
        -11    1    3    3    0    0 -0.51958206216E+01 -0.10024320172E+02 -0.63091848244E+01  0.12934038822E+02  0.51100000000E-03 0.  1.
         12    1    3    3    0    0  0.65476471071E+01 -0.48441736380E+01 -0.79618162864E+01  0.11389829650E+02  0.00000000000E+00 0. -1.
</event>
<event>
 7    1  0.6462830E-013  0.5052886E+02  0.7816164E-02  0.1300439E+00
        -11   -1    0    0    0    0  0.00000000000E+00  0.00000000000E+00  0.45593999997E+02  0.45594000000E+02  0.51100000000E-03 0.  1.
         11   -1    0    0    0    0 -0.00000000000E+00 -0.00000000000E+00 -0.45593999997E+02  0.45594000000E+02  0.51100000000E-03 0. -1.
    9900012    2    1    2    0    0 -0.25218281861E+02  0.98480554814E+01  0.30335123742E+02  0.50528859955E+02  0.30000000318E+02 0.  0.
         12    1    1    2    0    0  0.25218281861E+02 -0.98480554814E+01 -0.30335123742E+02  0.40659140045E+02  0.00000000000E+00 0. -1.
         11    1    3    3    0    0 -0.20298599151E+01 -0.22864387633E+01 -0.19778704607E+01  0.36414427517E+01  0.51100000000E-03 0. -1.
        -11    1    3    3    0    0 -0.19419408545E+02 -0.13349071815E+01  0.22765536116E+02  0.29952713405E+02  0.51100000000E-03 0.  1.
        -12    1    3    3    0    0 -0.37690134007E+01  0.13469401426E+02  0.95474580865E+01  0.16934703798E+02  0.00000000000E+00 0.  1.
</event>
<event>
 7    1  0.6462830E-013  0.5052886E+02  0.7816164E-02  0.1300439E+00
        -11   -1    0    0    0    0  0.00000000000E+00  0.00000000000E+00  0.45593999997E+02  0.45594000000E+02  0.51100000000E-03 0.  1.
         11   -1    0    0    0    0 -0.00000000000E+00 -0.00000000000E+00 -0.45593999997E+02  0.45594000000E+02  0.51100000000E-03 0. -1.
    9900012    2    1    2    0    0 -0.30015006404E+02 -0.24976909540E+02  0.11332216807E+02  0.50528858871E+02  0.29999997025E+02 0.  0.
         12    1    1    2    0    0  0.30015006404E+02  0.24976909540E+02 -0.11332216807E+02  0.40659141129E+02  0.00000000000E+00 0. -1.
         11    1    3    3    0    0 -0.87196896815E+01 -0.71656324637E+01 -0.44548818168E+01  0.12133641210E+02  0.51100000000E-03 0.  1.
        -11    1    3    3    0    0 -0.61304317230E+01  0.39695944028E+01  0.77858810578E+01  0.10675196342E+02  0.51100000000E-03 0. -1.
         12    1    3    3    0    0 -0.15164884999E+02 -0.21780871479E+02  0.80012175661E+01  0.27720021319E+02  0.00000000000E+00 0. -1.
</event>
<event>
 7    1  0.6462830E-013  0.5052886E+02  0.7816164E-02  0.1300439E+00
        -11   -1    0    0    0    0  0.00000000000E+00  0.00000000000E+00  0.45593999997E+02  0.45594000000E+02  0.51100000000E-03 0. -1.
         11   -1    0    0    0    0 -0.00000000000E+00 -0.00000000000E+00 -0.45593999997E+02  0.45594000000E+02  0.51100000000E-03 0.  1.
    9900012    2    1    2    0    0 -0.95953912809E+01  0.22744864208E+02 -0.32307353990E+02  0.50528861993E+02  0.30000006513E+02 0.  0.
         12    1    1    2    0    0  0.95953912809E+01 -0.22744864208E+02  0.32307353990E+02  0.40659138007E+02  0.00000000000E+00 0. -1.
         11    1    3    3    0    0  0.39885472635E+01  0.53092868443E+01 -0.12099270096E+01  0.67498859025E+01  0.51100000000E-03 0. -1.
        -11    1    3    3    0    0 -0.27485266537E+01 -0.50230845286E+01 -0.42003299991E+01  0.71013061693E+01  0.51100000000E-03 0.  1.
        -12    1    3    3    0    0 -0.10835411891E+02  0.22458661892E+02 -0.26897096981E+02  0.36677669921E+02  0.00000000000E+00 0.  1.
</event>
<event>
 7    1  0.6462830E-013  0.5052886E+02  0.7816164E-02  0.1300439E+00
        -11   -1    0    0    0    0  0.00000000000E+00  0.00000000000E+00  0.45593999997E+02  0.45594000000E+02  0.51100000000E-03 0.  1.
         11   -1    0    0    0    0 -0.00000000000E+00 -0.00000000000E+00 -0.45593999997E+02  0.45594000000E+02  0.51100000000E-03 0. -1.
    9900012    2    1    2    0    0 -0.17238639834E+02  0.33535344978E+02  0.15211046816E+02  0.50528855747E+02  0.29999987528E+02 0.  0.
         12    1    1    2    0    0  0.17238639834E+02 -0.33535344978E+02 -0.15211046816E+02  0.40659144253E+02  0.00000000000E+00 0. -1.
         11    1    3    3    0    0 -0.52194143291E+01  0.43344125795E+01 -0.29240747944E+00  0.67907967679E+01  0.51100000000E-03 0. -1.
        -11    1    3    3    0    0 -0.14398855373E+02  0.31454447980E+02  0.18558874863E+02  0.39257370903E+02  0.51100000000E-03 0.  1.
        -12    1    3    3    0    0  0.23796298681E+01 -0.22535155813E+01 -0.30554205678E+01  0.44806880756E+01  0.00000000000E+00 0.  1.
</event>
<event>
 7    1  0.6462830E-013  0.5052886E+02  0.7816164E-02  0.1300439E+00
        -11   -1    0    0    0    0  0.00000000000E+00  0.00000000000E+00  0.45593999997E+02  0.45594000000E+02  0.51100000000E-03 0.  1.
         11   -1    0    0    0    0 -0.00000000000E+00 -0.00000000000E+00 -0.45593999997E+02  0.45594000000E+02  0.51100000000E-03 0. -1.
    9900012    2    1    2    0    0  0.49716585622E+01  0.16611906740E+02  0.36776256499E+02  0.50528857406E+02  0.29999992573E+02 0.  0.
         12    1    1    2    0    0 -0.49716585622E+01 -0.16611906740E+02 -0.36776256499E+02  0.40659142594E+02  0.00000000000E+00 0. -1.
         11    1    3    3    0    0  0.97112766751E+01  0.10018761148E+02  0.83248273844E+01  0.16247683553E+02  0.51100000000E-03 0. -1.
        -11    1    3    3    0    0  0.57876784965E+01  0.22893579593E+01  0.17164151205E+02  0.18257778318E+02  0.51100000000E-03 0.  1.
        -12    1    3    3    0    0 -0.10527296609E+02  0.43037876319E+01  0.11287277909E+02  0.16023395535E+02  0.00000000000E+00 0.  1.
</event>
<event>
 7    1  0.6462830E-013  0.5052886E+02  0.7816164E-02  0.1300439E+00
        -11   -1    0    0    0    0  0.00000000000E+00  0.00000000000E+00  0.45593999997E+02  0.45594000000E+02  0.51100000000E-03 0.  1.
         11   -1    0    0    0    0 -0.00000000000E+00 -0.00000000000E+00 -0.45593999997E+02  0.45594000000E+02  0.51100000000E-03 0. -1.
    9900012    2    1    2    0    0  0.34145466602E+02 -0.20131801897E+02  0.90533453944E+01  0.50528863266E+02  0.30000010385E+02 0.  0.
         12    1    1    2    0    0 -0.34145466602E+02  0.20131801897E+02 -0.90533453944E+01  0.40659136734E+02  0.00000000000E+00 0. -1.
         11    1    3    3    0    0  0.98647864408E+01 -0.89722775145E+01 -0.67822558177E+01  0.14960440153E+02  0.51100000000E-03 0. -1.
        -11    1    3    3    0    0  0.38352878676E+01 -0.61808314923E+01 -0.24655345342E+01  0.76805580373E+01  0.51100000000E-03 0.  1.
        -12    1    3    3    0    0  0.20445392293E+02 -0.49786928906E+01  0.18301135746E+02  0.27887865077E+02  0.00000000000E+00 0.  1.
</event>
<event>
 7    1  0.6462830E-013  0.5052885E+02  0.7816164E-02  0.1300439E+00
        -11   -1    0    0    0    0  0.00000000000E+00  0.00000000000E+00  0.45593999997E+02  0.45594000000E+02  0.51100000000E-03 0. -1.
         11   -1    0    0    0    0 -0.00000000000E+00 -0.00000000000E+00 -0.45593999997E+02  0.45594000000E+02  0.51100000000E-03 0.  1.
    9900012    2    1    2    0    0 -0.19988121702E+02  0.10771285290E+02 -0.33728638224E+02  0.50528848111E+02  0.29999964317E+02 0.  0.
         12    1    1    2    0    0  0.19988121702E+02 -0.10771285290E+02  0.33728638224E+02  0.40659151889E+02  0.00000000000E+00 0. -1.
         11    1    3    3    0    0 -0.75356045244E+00 -0.50762531627E+01 -0.13666443828E+02  0.14598215189E+02  0.51100000000E-03 0. -1.
        -11    1    3    3    0    0  0.10084468671E+01  0.80288296018E+01 -0.59712773366E+01  0.10056600974E+02  0.51100000000E-03 0.  1.
        -12    1    3    3    0    0 -0.20243008116E+02  0.78187088505E+01 -0.14090917059E+02  0.25874031948E+02  0.00000000000E+00 0.  1.
</event>
<event>
 7    1  0.6462830E-013  0.5052889E+02  0.7816164E-02  0.1300439E+00
        -11   -1    0    0    0    0  0.00000000000E+00  0.00000000000E+00  0.45593999997E+02  0.45594000000E+02  0.51100000000E-03 0. -1.
         11   -1    0    0    0    0 -0.00000000000E+00 -0.00000000000E+00 -0.45593999997E+02  0.45594000000E+02  0.51100000000E-03 0.  1.
    9900012    2    1    2    0    0 -0.13376148873E+02  0.13661898757E+02 -0.35883069134E+02  0.50528886793E+02  0.30000081897E+02 0.  0.
         12    1    1    2    0    0  0.13376148873E+02 -0.13661898757E+02  0.35883069134E+02  0.40659113207E+02  0.00000000000E+00 0. -1.
         11    1    3    3    0    0  0.47164804132E+01  0.66091669480E+01 -0.92489371314E+01  0.12307278885E+02  0.51100000000E-03 0. -1.
        -11    1    3    3    0    0 -0.75838861899E+01  0.12480175347E+02 -0.95730897793E+01  0.17461791277E+02  0.51100000000E-03 0.  1.
        -12    1    3    3    0    0 -0.10508743096E+02 -0.54274435377E+01 -0.17061042223E+02  0.20759816631E+02  0.00000000000E+00 0.  1.
</event>
<event>
 7    1  0.6462830E-013  0.5052886E+02  0.7816164E-02  0.1300439E+00
        -11   -1    0    0    0    0  0.00000000000E+00  0.00000000000E+00  0.45593999997E+02  0.45594000000E+02  0.51100000000E-03 0.  1.
         11   -1    0    0    0    0 -0.00000000000E+00 -0.00000000000E+00 -0.45593999997E+02  0.45594000000E+02  0.51100000000E-03 0. -1.
    9900012    2    1    2    0    0  0.34102174646E+02  0.22140106301E+02  0.15201565492E+00  0.50528859191E+02  0.29999997996E+02 0.  0.
         12    1    1    2    0    0 -0.34102174646E+02 -0.22140106301E+02 -0.15201565492E+00  0.40659140809E+02  0.00000000000E+00 0. -1.
         11    1    3    3    0    0  0.94490464054E+01  0.20994718981E+01 -0.54346326956E+01  0.11100787946E+02  0.51100000000E-03 0. -1.
        -11    1    3    3    0    0  0.15295752132E+02  0.23522197928E+01 -0.56540512272E+01  0.16476081657E+02  0.51100000000E-03 0.  1.
         12    1    3    3    0    0  0.93573761088E+01  0.17688414610E+02  0.11240699578E+02  0.22951989588E+02  0.00000000000E+00 0. -1.
</event>
<event>
 7    1  0.6462830E-013  0.5052886E+02  0.7816164E-02  0.1300439E+00
        -11   -1    0    0    0    0  0.00000000000E+00  0.00000000000E+00  0.45593999997E+02  0.45594000000E+02  0.51100000000E-03 0.  1.
         11   -1    0    0    0    0 -0.00000000000E+00 -0.00000000000E+00 -0.45593999997E+02  0.45594000000E+02  0.51100000000E-03 0. -1.
    9900012    2    1    2    0    0  0.27525017260E+02  0.13485994830E+02  0.26714541634E+02  0.50528863679E+02  0.30000011638E+02 0.  0.
         12    1    1    2    0    0 -0.27525017260E+02 -0.13485994830E+02 -0.26714541634E+02  0.40659136321E+02  0.00000000000E+00 0. -1.
         11    1    3    3    0    0  0.19635335063E+02  0.55014145090E+01  0.95340992890E+01  0.22510241984E+02  0.51100000000E-03 0. -1.
        -11    1    3    3    0    0  0.10387369735E+02 -0.10016623179E+01  0.15274545772E+02  0.18498987167E+02  0.51100000000E-03 0.  1.
        -12    1    3    3    0    0 -0.24976875391E+01  0.89862426385E+01  0.19058965730E+01  0.95196345280E+01  0.00000000000E+00 0.  1.
</event>
<event>
 7    1  0.6462830E-013  0.5052886E+02  0.7816164E-02  0.1300439E+00
        -11   -1    0    0    0    0  0.00000000000E+00  0.00000000000E+00  0.45593999997E+02  0.45594000000E+02  0.51100000000E-03 0.  1.
         11   -1    0    0    0    0 -0.00000000000E+00 -0.00000000000E+00 -0.45593999997E+02  0.45594000000E+02  0.51100000000E-03 0. -1.
    9900012    2    1    2    0    0 -0.24447161215E+01 -0.20914702024E+02  0.34781661502E+02  0.50528863579E+02  0.30000011335E+02 0.  0.
         12    1    1    2    0    0  0.24447161215E+01  0.20914702024E+02 -0.34781661502E+02  0.40659136421E+02  0.00000000000E+00 0. -1.
         11    1    3    3    0    0 -0.67541719084E+00 -0.20532206619E+02  0.22910051560E+02  0.30771710381E+02  0.51100000000E-03 0. -1.
        -11    1    3    3    0    0 -0.98717743988E-01 -0.25870363835E+01  0.15206009790E+02  0.15424825329E+02  0.51100000000E-03 0.  1.
         12    1    3    3    0    0 -0.16705811867E+01  0.22045409788E+01 -0.33343998472E+01  0.43323278696E+01  0.00000000000E+00 0. -1.
</event>
<event>
 7    1  0.6462830E-013  0.5052886E+02  0.7816164E-02  0.1300439E+00
        -11   -1    0    0    0    0  0.00000000000E+00  0.00000000000E+00  0.45593999997E+02  0.45594000000E+02  0.51100000000E-03 0.  1.
         11   -1    0    0    0    0 -0.00000000000E+00 -0.00000000000E+00 -0.45593999997E+02  0.45594000000E+02  0.51100000000E-03 0. -1.
    9900012    2    1    2    0    0  0.13541751033E+02  0.36812101285E+02 -0.10707743542E+02  0.50528860881E+02  0.30000003135E+02 0.  0.
         12    1    1    2    0    0 -0.13541751033E+02 -0.36812101285E+02  0.10707743542E+02  0.40659139119E+02  0.00000000000E+00 0. -1.
         11    1    3    3    0    0 -0.12570865575E+01  0.85330514734E+00 -0.17161121201E+01  0.22920378177E+01  0.51100000000E-03 0. -1.
        -11    1    3    3    0    0  0.28472379743E+01  0.30467614632E+02  0.25926546012E+01  0.30710001036E+02  0.51100000000E-03 0.  1.
        -12    1    3    3    0    0  0.11951599617E+02  0.54911815057E+01 -0.11584286023E+02  0.17526822028E+02  0.00000000000E+00 0.  1.
</event>
<event>
 7    1  0.6462830E-013  0.5052886E+02  0.7816164E-02  0.1300439E+00
        -11   -1    0    0    0    0  0.00000000000E+00  0.00000000000E+00  0.45593999997E+02  0.45594000000E+02  0.51100000000E-03 0. -1.
         11   -1    0    0    0    0 -0.00000000000E+00 -0.00000000000E+00 -0.45593999997E+02  0.45594000000E+02  0.51100000000E-03 0.  1.
    9900012    2    1    2    0    0 -0.14069640610E+02 -0.35611594149E+02 -0.13675715728E+02  0.50528860493E+02  0.30000001956E+02 0.  0.
         12    1    1    2    0    0  0.14069640610E+02  0.35611594149E+02  0.13675715728E+02  0.40659139507E+02  0.00000000000E+00 0. -1.
         11    1    3    3    0    0 -0.20713094488E+01 -0.35946400033E+01 -0.76817381740E+01  0.87304559572E+01  0.51100000000E-03 0. -1.
        -11    1    3    3    0    0 -0.39293505875E+01 -0.17582225804E+01 -0.93594519405E+01  0.10301965034E+02  0.51100000000E-03 0.  1.
         12    1    3    3    0    0 -0.80689805739E+01 -0.30258731565E+02  0.33654743868E+01  0.31496439502E+02  0.00000000000E+00 0. -1.
</event>
<event>
 7    1  0.6462830E-013  0.5052885E+02  0.7816164E-02  0.1300439E+00
        -11   -1    0    0    0    0  0.00000000000E+00  0.00000000000E+00  0.45593999997E+02  0.45594000000E+02  0.51100000000E-03 0.  1.
         11   -1    0    0    0    0 -0.00000000000E+00 -0.00000000000E+00 -0.45593999997E+02  0.45594000000E+02  0.51100000000E-03 0. -1.
    9900012    2    1    2    0    0 -0.37618285320E+02 -0.11939126299E+02 -0.97718069897E+01  0.50528851718E+02  0.29999975282E+02 0.  0.
         12    1    1    2    0    0  0.37618285320E+02  0.11939126299E+02  0.97718069897E+01  0.40659148282E+02  0.00000000000E+00 0. -1.
         11    1    3    3    0    0  0.19509697248E+01 -0.78209883481E+01 -0.20811683533E+00  0.80633401570E+01  0.51100000000E-03 0. -1.
        -11    1    3    3    0    0 -0.50453805234E+01  0.27684045841E+01 -0.35210057246E+01  0.67466591837E+01  0.51100000000E-03 0.  1.
        -12    1    3    3    0    0 -0.34523874521E+02 -0.68865425352E+01 -0.60426844297E+01  0.35718852377E+02  0.00000000000E+00 0.  1.
</event>
<event>
 7    1  0.6462830E-013  0.5052886E+02  0.7816164E-02  0.1300439E+00
        -11   -1    0    0    0    0  0.00000000000E+00  0.00000000000E+00  0.45593999997E+02  0.45594000000E+02  0.51100000000E-03 0.  1.
         11   -1    0    0    0    0 -0.00000000000E+00 -0.00000000000E+00 -0.45593999997E+02  0.45594000000E+02  0.51100000000E-03 0. -1.
    9900012    2    1    2    0    0 -0.38525849014E+02  0.73408903020E+01  0.10725478696E+02  0.50528860733E+02  0.30000002684E+02 0.  0.
         12    1    1    2    0    0  0.38525849014E+02 -0.73408903020E+01 -0.10725478696E+02  0.40659139267E+02  0.00000000000E+00 0. -1.
         11    1    3    3    0    0 -0.12726016516E+02  0.47698663235E+01 -0.59432120499E+01  0.14833236020E+02  0.51100000000E-03 0. -1.
        -11    1    3    3    0    0  0.59497424523E+00  0.35944086596E+01  0.63819244878E+01  0.73486548697E+01  0.51100000000E-03 0.  1.
        -12    1    3    3    0    0 -0.26394806743E+02 -0.10233846811E+01  0.10286766258E+02  0.28346969843E+02  0.00000000000E+00 0.  1.
</event>
<event>
 7    1  0.6462830E-013  0.5052885E+02  0.7816164E-02  0.1300439E+00
        -11   -1    0    0    0    0  0.00000000000E+00  0.00000000000E+00  0.45593999997E+02  0.45594000000E+02  0.51100000000E-03 0.  1.
         11   -1    0    0    0    0 -0.00000000000E+00 -0.00000000000E+00 -0.45593999997E+02  0.45594000000E+02  0.51100000000E-03 0. -1.
    9900012    2    1    2    0    0  0.37021680193E+02  0.83445710153E+01 -0.14592117796E+02  0.50528848859E+02  0.29999966592E+02 0.  0.
         12    1    1    2    0    0 -0.37021680193E+02 -0.83445710153E+01  0.14592117796E+02  0.40659151141E+02  0.00000000000E+00 0. -1.
         11    1    3    3    0    0  0.10473230987E+02  0.76767308275E+01  0.21155551467E+01  0.13156608125E+02  0.51100000000E-03 0. -1.
        -11    1    3    3    0    0  0.25517398161E+02  0.42457486754E+01 -0.67400685928E+01  0.26731863303E+02  0.51100000000E-03 0.  1.
         12    1    3    3    0    0  0.10310510438E+01 -0.35779084876E+01 -0.99676043501E+01  0.10640377431E+02  0.00000000000E+00 0. -1.
</event>
<event>
 7    1  0.6462830E-013  0.5052885E+02  0.7816164E-02  0.1300439E+00
        -11   -1    0    0    0    0  0.00000000000E+00  0.00000000000E+00  0.45593999997E+02  0.45594000000E+02  0.51100000000E-03 0.  1.
         11   -1    0    0    0    0 -0.00000000000E+00 -0.00000000000E+00 -0.45593999997E+02  0.45594000000E+02  0.51100000000E-03 0. -1.
    9900012    2    1    2    0    0 -0.18174657795E+00 -0.36765946684E+02  0.17360825287E+02  0.50528854386E+02  0.29999983392E+02 0.  0.
         12    1    1    2    0    0  0.18174657795E+00  0.36765946684E+02 -0.17360825287E+02  0.40659145614E+02  0.00000000000E+00 0. -1.
         11    1    3    3    0    0  0.38972426202E+01 -0.50724015801E+01  0.36932474043E+01  0.73863275368E+01  0.51100000000E-03 0. -1.
        -11    1    3    3    0    0  0.27079579501E+01 -0.18460263998E+02 -0.49603626610E+01  0.19305946781E+02  0.51100000000E-03 0.  1.
        -12    1    3    3    0    0 -0.67869471483E+01 -0.13233281106E+02  0.18627940544E+02  0.23836580068E+02  0.00000000000E+00 0.  1.
</event>
<event>
 7    1  0.6462830E-013  0.5052886E+02  0.7816164E-02  0.1300439E+00
        -11   -1    0    0    0    0  0.00000000000E+00  0.00000000000E+00  0.45593999997E+02  0.45594000000E+02  0.51100000000E-03 0.  1.
         11   -1    0    0    0    0 -0.00000000000E+00 -0.00000000000E+00 -0.45593999997E+02  0.45594000000E+02  0.51100000000E-03 0. -1.
    9900012    2    1    2    0    0 -0.11151932897E+02 -0.36416672061E+02  0.14234691407E+02  0.50528855262E+02  0.29999986054E+02 0.  0.
         12    1    1    2    0    0  0.11151932897E+02  0.36416672061E+02 -0.14234691407E+02  0.40659144738E+02  0.00000000000E+00 0. -1.
         11    1    3    3    0    0  0.40894524386E+01 -0.34099806473E+01  0.42928160582E+01  0.68395803404E+01  0.51100000000E-03 0.  1.
        -11    1    3    3    0    0 -0.99626602861E+00 -0.13791309155E+02 -0.58637714739E+01  0.15019206716E+02  0.51100000000E-03 0. -1.
        -12    1    3    3    0    0 -0.14245119307E+02 -0.19215382259E+02  0.15805646823E+02  0.28670068206E+02  0.00000000000E+00 0.  1.
</event>
<event>
 7    1  0.6462830E-013  0.5052887E+02  0.7816164E-02  0.1300439E+00
        -11   -1    0    0    0    0  0.00000000000E+00  0.00000000000E+00  0.45593999997E+02  0.45594000000E+02  0.51100000000E-03 0.  1.
         11   -1    0    0    0    0 -0.00000000000E+00 -0.00000000000E+00 -0.45593999997E+02  0.45594000000E+02  0.51100000000E-03 0. -1.
    9900012    2    1    2    0    0  0.12276449587E+02  0.37350731108E+02  0.10362269693E+02  0.50528868653E+02  0.30000026757E+02 0.  0.
         12    1    1    2    0    0 -0.12276449587E+02 -0.37350731108E+02 -0.10362269693E+02  0.40659131347E+02  0.00000000000E+00 0. -1.
         11    1    3    3    0    0  0.12066792356E+01  0.28209332305E+02  0.22165090250E+00  0.28235998888E+02  0.51100000000E-03 0.  1.
        -11    1    3    3    0    0  0.59108373365E+01  0.12405578307E+02  0.67607076273E+01  0.15314814365E+02  0.51100000000E-03 0. -1.
         12    1    3    3    0    0  0.51589330145E+01 -0.32641795042E+01  0.33799111629E+01  0.69780553991E+01  0.00000000000E+00 0. -1.
</event>
<event>
 7    1  0.6462830E-013  0.5052886E+02  0.7816164E-02  0.1300439E+00
        -11   -1    0    0    0    0  0.00000000000E+00  0.00000000000E+00  0.45593999997E+02  0.45594000000E+02  0.51100000000E-03 0.  1.
         11   -1    0    0    0    0 -0.00000000000E+00 -0.00000000000E+00 -0.45593999997E+02  0.45594000000E+02  0.51100000000E-03 0. -1.
    9900012    2    1    2    0    0  0.61150168432E+01  0.25196995768E+00  0.40195877450E+02  0.50528862235E+02  0.30000007248E+02 0.  0.
         12    1    1    2    0    0 -0.61150168432E+01 -0.25196995768E+00 -0.40195877450E+02  0.40659137765E+02  0.00000000000E+00 0. -1.
         11    1    3    3    0    0  0.15399450428E+02  0.50439086583E+01  0.27699472950E+02  0.32091196457E+02  0.51100000000E-03 0. -1.
        -11    1    3    3    0    0  0.41666023149E+00 -0.32113703060E+01  0.54656043117E+01  0.63528997902E+01  0.51100000000E-03 0.  1.
         12    1    3    3    0    0 -0.97010938167E+01 -0.15805683947E+01  0.70308001882E+01  0.12084765988E+02  0.00000000000E+00 0. -1.
</event>
<event>
 7    1  0.6462830E-013  0.5052887E+02  0.7816164E-02  0.1300439E+00
        -11   -1    0    0    0    0  0.00000000000E+00  0.00000000000E+00  0.45593999997E+02  0.45594000000E+02  0.51100000000E-03 0.  1.
         11   -1    0    0    0    0 -0.00000000000E+00 -0.00000000000E+00 -0.45593999997E+02  0.45594000000E+02  0.51100000000E-03 0. -1.
    9900012    2    1    2    0    0 -0.16848466486E+02  0.30550816627E+02  0.20879209923E+02  0.50528872777E+02  0.30000039292E+02 0.  0.
         12    1    1    2    0    0  0.16848466486E+02 -0.30550816627E+02 -0.20879209923E+02  0.40659127223E+02  0.00000000000E+00 0. -1.
         11    1    3    3    0    0 -0.11766825381E+01  0.19569016715E+02  0.87423436438E+01  0.21465310844E+02  0.51100000000E-03 0.  1.
        -11    1    3    3    0    0  0.12501380243E+01  0.36695607061E+01  0.97287989499E+01  0.10472728877E+02  0.51100000000E-03 0. -1.
        -12    1    3    3    0    0 -0.16921921972E+02  0.73122392064E+01  0.24080673297E+01  0.18590833056E+02  0.00000000000E+00 0.  1.
</event>
<event>
 7    1  0.6462830E-013  0.5052886E+02  0.7816164E-02  0.1300439E+00
        -11   -1    0    0    0    0  0.00000000000E+00  0.00000000000E+00  0.45593999997E+02  0.45594000000E+02  0.51100000000E-03 0. -1.
         11   -1    0    0    0    0 -0.00000000000E+00 -0.00000000000E+00 -0.45593999997E+02  0.45594000000E+02  0.51100000000E-03 0.  1.
    9900012    2    1    2    0    0  0.32246108848E+02  0.16304483015E+02  0.18641834854E+02  0.50528859466E+02  0.29999998834E+02 0.  0.
         12    1    1    2    0    0 -0.32246108848E+02 -0.16304483015E+02 -0.18641834854E+02  0.40659140534E+02  0.00000000000E+00 0. -1.
         11    1    3    3    0    0  0.23164293586E+01 -0.33812064593E+01  0.19200516749E+01  0.45260358802E+01  0.51100000000E-03 0. -1.
        -11    1    3    3    0    0  0.22426600182E+02  0.39964684033E+01  0.17296461729E+02  0.28602303125E+02  0.51100000000E-03 0.  1.
         12    1    3    3    0    0  0.75030793071E+01  0.15689221071E+02 -0.57467854997E+00  0.17400520462E+02  0.00000000000E+00 0. -1.
</event>
<event>
 7    1  0.6462830E-013  0.5052887E+02  0.7816164E-02  0.1300439E+00
        -11   -1    0    0    0    0  0.00000000000E+00  0.00000000000E+00  0.45593999997E+02  0.45594000000E+02  0.51100000000E-03 0.  1.
         11   -1    0    0    0    0 -0.00000000000E+00 -0.00000000000E+00 -0.45593999997E+02  0.45594000000E+02  0.51100000000E-03 0. -1.
    9900012    2    1    2    0    0 -0.77649221843E+01  0.39519983262E+02  0.55715204979E+01  0.50528868993E+02  0.30000027791E+02 0.  0.
         12    1    1    2    0    0  0.77649221843E+01 -0.39519983262E+02 -0.55715204979E+01  0.40659131007E+02  0.00000000000E+00 0. -1.
         11    1    3    3    0    0 -0.71946272645E+01  0.63586567249E+01  0.66928696185E+01  0.11704259088E+02  0.51100000000E-03 0. -1.
        -11    1    3    3    0    0 -0.95999149286E+01  0.23452295434E+02  0.11750900499E+01  0.25368274767E+02  0.51100000000E-03 0.  1.
         12    1    3    3    0    0  0.90296200088E+01  0.97090311033E+01 -0.22964391705E+01  0.13456335137E+02  0.00000000000E+00 0. -1.
</event>
<event>
 7    1  0.6462830E-013  0.5052885E+02  0.7816164E-02  0.1300439E+00
        -11   -1    0    0    0    0  0.00000000000E+00  0.00000000000E+00  0.45593999997E+02  0.45594000000E+02  0.51100000000E-03 0. -1.
         11   -1    0    0    0    0 -0.00000000000E+00 -0.00000000000E+00 -0.45593999997E+02  0.45594000000E+02  0.51100000000E-03 0.  1.
    9900012    2    1    2    0    0 -0.15426201522E+02  0.27469615300E+02 -0.25702502296E+02  0.50528854874E+02  0.29999984874E+02 0.  0.
         12    1    1    2    0    0  0.15426201522E+02 -0.27469615300E+02  0.25702502296E+02  0.40659145126E+02  0.00000000000E+00 0. -1.
         11    1    3    3    0    0 -0.73398653200E+01 -0.43405417228E+01 -0.10984954308E+02  0.13906226906E+02  0.51100000000E-03 0. -1.
        -11    1    3    3    0    0 -0.37934794891E+01  0.57838904650E+01 -0.13367246453E+01  0.70449065702E+01  0.51100000000E-03 0.  1.
         12    1    3    3    0    0 -0.42928567132E+01  0.26026266558E+02 -0.13380823343E+02  0.29577721397E+02  0.00000000000E+00 0. -1.
</event>
<event>
 7    1  0.6462830E-013  0.5052885E+02  0.7816164E-02  0.1300439E+00
        -11   -1    0    0    0    0  0.00000000000E+00  0.00000000000E+00  0.45593999997E+02  0.45594000000E+02  0.51100000000E-03 0.  1.
         11   -1    0    0    0    0 -0.00000000000E+00 -0.00000000000E+00 -0.45593999997E+02  0.45594000000E+02  0.51100000000E-03 0. -1.
    9900012    2    1    2    0    0  0.50613058716E+01 -0.36167543723E+02  0.17873403140E+02  0.50528848805E+02  0.29999966429E+02 0.  0.
         12    1    1    2    0    0 -0.50613058716E+01  0.36167543723E+02 -0.17873403140E+02  0.40659151195E+02  0.00000000000E+00 0. -1.
         11    1    3    3    0    0  0.29255898689E+01  0.99263036846E+00  0.44538558205E+01  0.54204449135E+01  0.51100000000E-03 0. -1.
        -11    1    3    3    0    0  0.11803535798E+02 -0.18122669562E+02  0.53219009218E+01  0.22272791453E+02  0.51100000000E-03 0.  1.
         12    1    3    3    0    0 -0.96678197956E+01 -0.19037504529E+02  0.80976463974E+01  0.22835612439E+02  0.00000000000E+00 0. -1.
</event>
<event>
 7    1  0.6462830E-013  0.5052886E+02  0.7816164E-02  0.1300439E+00
        -11   -1    0    0    0    0  0.00000000000E+00  0.00000000000E+00  0.45593999997E+02  0.45594000000E+02  0.51100000000E-03 0.  1.
         11   -1    0    0    0    0 -0.00000000000E+00 -0.00000000000E+00 -0.45593999997E+02  0.45594000000E+02  0.51100000000E-03 0. -1.
    9900012    2    1    2    0    0 -0.21214094348E+02 -0.14711365413E+02  0.31411834932E+02  0.50528862710E+02  0.30000008695E+02 0.  0.
         12    1    1    2    0    0  0.21214094348E+02  0.14711365413E+02 -0.31411834932E+02  0.40659137290E+02  0.00000000000E+00 0. -1.
         11    1    3    3    0    0 -0.19974367537E+01 -0.45536340096E+01 -0.30207767206E+01  0.58181121109E+01  0.51100000000E-03 0. -1.
        -11    1    3    3    0    0 -0.49338398933E+01 -0.12977394143E+02  0.15149271384E+02  0.20548867573E+02  0.51100000000E-03 0.  1.
         12    1    3    3    0    0 -0.14282817701E+02  0.28196627392E+01  0.19283340269E+02  0.24161883026E+02  0.00000000000E+00 0. -1.
</event>
<event>
 7    1  0.6462830E-013  0.5052886E+02  0.7816164E-02  0.1300439E+00
        -11   -1    0    0    0    0  0.00000000000E+00  0.00000000000E+00  0.45593999997E+02  0.45594000000E+02  0.51100000000E-03 0. -1.
         11   -1    0    0    0    0 -0.00000000000E+00 -0.00000000000E+00 -0.45593999997E+02  0.45594000000E+02  0.51100000000E-03 0.  1.
    9900012    2    1    2    0    0  0.29137537354E+02  0.26420625467E+02 -0.10301450101E+02  0.50528863175E+02  0.30000010108E+02 0.  0.
         12    1    1    2    0    0 -0.29137537354E+02 -0.26420625467E+02  0.10301450101E+02  0.40659136825E+02  0.00000000000E+00 0. -1.
         11    1    3    3    0    0 -0.25806899039E+01 -0.34609634908E+01 -0.24252125500E+01  0.49517557330E+01  0.51100000000E-03 0. -1.
        -11    1    3    3    0    0  0.14351515866E+02  0.18674186937E+02 -0.81030487400E+01  0.24906839714E+02  0.51100000000E-03 0.  1.
        -12    1    3    3    0    0  0.17366711392E+02  0.11207402021E+02  0.22681118875E+00  0.20670267728E+02  0.00000000000E+00 0.  1.
</event>
<event>
 7    1  0.6462830E-013  0.5052891E+02  0.7816164E-02  0.1300439E+00
        -11   -1    0    0    0    0  0.00000000000E+00  0.00000000000E+00  0.45593999997E+02  0.45594000000E+02  0.51100000000E-03 0.  1.
         11   -1    0    0    0    0 -0.00000000000E+00 -0.00000000000E+00 -0.45593999997E+02  0.45594000000E+02  0.51100000000E-03 0. -1.
    9900012    2    1    2    0    0 -0.16884599897E+02  0.93800494481E+00  0.36975556921E+02  0.50528912743E+02  0.30000160772E+02 0.  0.
         12    1    1    2    0    0  0.16884599897E+02 -0.93800494481E+00 -0.36975556921E+02  0.40659087257E+02  0.00000000000E+00 0. -1.
         11    1    3    3    0    0 -0.14790758840E+02  0.46328346503E+01  0.33723871289E+02  0.37115080478E+02  0.51100000000E-03 0. -1.
        -11    1    3    3    0    0 -0.35556868917E+01  0.18314239377E+01  0.58887134643E+01  0.71185651249E+01  0.51100000000E-03 0.  1.
         12    1    3    3    0    0  0.14618458352E+01 -0.55262536431E+01 -0.26370278314E+01  0.62952671395E+01  0.00000000000E+00 0. -1.
</event>
<event>
 7    1  0.6462830E-013  0.5052886E+02  0.7816164E-02  0.1300439E+00
        -11   -1    0    0    0    0  0.00000000000E+00  0.00000000000E+00  0.45593999997E+02  0.45594000000E+02  0.51100000000E-03 0.  1.
         11   -1    0    0    0    0 -0.00000000000E+00 -0.00000000000E+00 -0.45593999997E+02  0.45594000000E+02  0.51100000000E-03 0. -1.
    9900012    2    1    2    0    0 -0.63932888613E+00 -0.21328346915E+02  0.34610089666E+02  0.50528862894E+02  0.30000009252E+02 0.  0.
         12    1    1    2    0    0  0.63932888613E+00  0.21328346915E+02 -0.34610089666E+02  0.40659137106E+02  0.00000000000E+00 0. -1.
         11    1    3    3    0    0 -0.54109915167E+01 -0.98758901832E+00  0.82313915127E+01  0.98999983717E+01  0.51100000000E-03 0.  1.
        -11    1    3    3    0    0  0.99583100218E+01 -0.10674855535E+02  0.31418455274E+01  0.14932905704E+02  0.51100000000E-03 0. -1.
         12    1    3    3    0    0 -0.51866473912E+01 -0.96659023617E+01  0.23236852626E+02  0.25695958818E+02  0.00000000000E+00 0. -1.
</event>
<event>
 7    1  0.6462830E-013  0.5052885E+02  0.7816164E-02  0.1300439E+00
        -11   -1    0    0    0    0  0.00000000000E+00  0.00000000000E+00  0.45593999997E+02  0.45594000000E+02  0.51100000000E-03 0. -1.
         11   -1    0    0    0    0 -0.00000000000E+00 -0.00000000000E+00 -0.45593999997E+02  0.45594000000E+02  0.51100000000E-03 0.  1.
    9900012    2    1    2    0    0  0.39268244619E+02 -0.18530901070E+01  0.10379682786E+02  0.50528846133E+02  0.29999958306E+02 0.  0.
         12    1    1    2    0    0 -0.39268244619E+02  0.18530901070E+01 -0.10379682786E+02  0.40659153867E+02  0.00000000000E+00 0. -1.
         11    1    3    3    0    0  0.13878108448E+02 -0.76809499733E+01  0.97688982249E+01  0.18628748196E+02  0.51100000000E-03 0. -1.
        -11    1    3    3    0    0  0.14720392383E+02  0.46598676387E+01  0.93570685522E+01  0.18054336057E+02  0.51100000000E-03 0.  1.
         12    1    3    3    0    0  0.10669743789E+02  0.11679922276E+01 -0.87462839913E+01  0.13845761880E+02  0.00000000000E+00 0. -1.
</event>
<event>
 7    1  0.6462830E-013  0.5052885E+02  0.7816164E-02  0.1300439E+00
        -11   -1    0    0    0    0  0.00000000000E+00  0.00000000000E+00  0.45593999997E+02  0.45594000000E+02  0.51100000000E-03 0.  1.
         11   -1    0    0    0    0 -0.00000000000E+00 -0.00000000000E+00 -0.45593999997E+02  0.45594000000E+02  0.51100000000E-03 0. -1.
    9900012    2    1    2    0    0 -0.27742685978E+01 -0.23581383568E+02  0.33005888300E+02  0.50528845069E+02  0.29999955071E+02 0.  0.
         12    1    1    2    0    0  0.27742685978E+01  0.23581383568E+02 -0.33005888300E+02  0.40659154931E+02  0.00000000000E+00 0. -1.
         11    1    3    3    0    0 -0.13670353883E+02 -0.10854066490E+02  0.16420037851E+02  0.23964702751E+02  0.51100000000E-03 0. -1.
        -11    1    3    3    0    0 -0.24006797257E+01 -0.32528230229E+01  0.14335031321E+01  0.42894116444E+01  0.51100000000E-03 0.  1.
        -12    1    3    3    0    0  0.13296765011E+02 -0.94744940548E+01  0.15152347317E+02  0.22274730673E+02  0.00000000000E+00 0.  1.
</event>
<event>
 7    1  0.6462830E-013  0.5052889E+02  0.7816164E-02  0.1300439E+00
        -11   -1    0    0    0    0  0.00000000000E+00  0.00000000000E+00  0.45593999997E+02  0.45594000000E+02  0.51100000000E-03 0.  1.
         11   -1    0    0    0    0 -0.00000000000E+00 -0.00000000000E+00 -0.45593999997E+02  0.45594000000E+02  0.51100000000E-03 0. -1.
    9900012    2    1    2    0    0 -0.11325720252E+02 -0.25296468357E+02  0.29748610458E+02  0.50528891860E+02  0.30000097298E+02 0.  0.
         12    1    1    2    0    0  0.11325720252E+02  0.25296468357E+02 -0.29748610458E+02  0.40659108140E+02  0.00000000000E+00 0. -1.
         11    1    3    3    0    0  0.50967842500E+01 -0.12710339897E+01  0.41801610703E+01  0.67131575230E+01  0.51100000000E-03 0. -1.
        -11    1    3    3    0    0 -0.10524460007E+01 -0.15163149703E+02  0.20199019597E+02  0.25279025781E+02  0.51100000000E-03 0.  1.
         12    1    3    3    0    0 -0.15370058502E+02 -0.88622846647E+01  0.53694297901E+01  0.18536708556E+02  0.00000000000E+00 0. -1.
</event>
<event>
 7    1  0.6462830E-013  0.5052886E+02  0.7816164E-02  0.1300439E+00
        -11   -1    0    0    0    0  0.00000000000E+00  0.00000000000E+00  0.45593999997E+02  0.45594000000E+02  0.51100000000E-03 0. -1.
         11   -1    0    0    0    0 -0.00000000000E+00 -0.00000000000E+00 -0.45593999997E+02  0.45594000000E+02  0.51100000000E-03 0.  1.
    9900012    2    1    2    0    0  0.30171722705E+02 -0.15263007919E+02 -0.22580382260E+02  0.50528856812E+02  0.29999990766E+02 0.  0.
         12    1    1    2    0    0 -0.30171722705E+02  0.15263007919E+02  0.22580382260E+02  0.40659143188E+02  0.00000000000E+00 0. -1.
         11    1    3    3    0    0  0.18424820167E+02 -0.74733634696E+01 -0.12067185579E+02  0.23258162605E+02  0.51100000000E-03 0. -1.
        -11    1    3    3    0    0  0.14530901620E+02 -0.47237856089E+01  0.72207775710E+00  0.15296491392E+02  0.51100000000E-03 0.  1.
         12    1    3    3    0    0 -0.27839990815E+01 -0.30658588410E+01 -0.11235274439E+02  0.11974202814E+02  0.00000000000E+00 0. -1.
</event>
<event>
 7    1  0.6462830E-013  0.5052884E+02  0.7816164E-02  0.1300439E+00
        -11   -1    0    0    0    0  0.00000000000E+00  0.00000000000E+00  0.45593999997E+02  0.45594000000E+02  0.51100000000E-03 0.  1.
         11   -1    0    0    0    0 -0.00000000000E+00 -0.00000000000E+00 -0.45593999997E+02  0.45594000000E+02  0.51100000000E-03 0. -1.
    9900012    2    1    2    0    0  0.40244210439E+02 -0.34540073269E+01  0.46519104254E+01  0.50528844683E+02  0.29999953899E+02 0.  0.
         12    1    1    2    0    0 -0.40244210439E+02  0.34540073269E+01 -0.46519104254E+01  0.40659155317E+02  0.00000000000E+00 0. -1.
         11    1    3    3    0    0  0.88703676096E+00  0.70758474035E+01 -0.40510364352E+01  0.82015454125E+01  0.51100000000E-03 0. -1.
        -11    1    3    3    0    0  0.10065659032E+02  0.57876482226E+00  0.16578006399E+01  0.10217669191E+02  0.51100000000E-03 0.  1.
        -12    1    3    3    0    0  0.29291514646E+02 -0.11108619553E+02  0.70451462207E+01  0.32109630080E+02  0.00000000000E+00 0.  1.
</event>
<event>
 7    1  0.6462830E-013  0.5052884E+02  0.7816164E-02  0.1300439E+00
        -11   -1    0    0    0    0  0.00000000000E+00  0.00000000000E+00  0.45593999997E+02  0.45594000000E+02  0.51100000000E-03 0. -1.
         11   -1    0    0    0    0 -0.00000000000E+00 -0.00000000000E+00 -0.45593999997E+02  0.45594000000E+02  0.51100000000E-03 0.  1.
    9900012    2    1    2    0    0 -0.36175773665E+02  0.15102890797E+02 -0.10788104867E+02  0.50528842147E+02  0.29999946191E+02 0.  0.
         12    1    1    2    0    0  0.36175773665E+02 -0.15102890797E+02  0.10788104867E+02  0.40659157853E+02  0.00000000000E+00 0. -1.
         11    1    3    3    0    0 -0.58963356839E+01  0.17274174065E+01  0.30433363816E+01  0.68565765500E+01  0.51100000000E-03 0. -1.
        -11    1    3    3    0    0 -0.19054680994E+01 -0.55593146532E+01  0.18046756949E+01  0.61476534317E+01  0.51100000000E-03 0.  1.
         12    1    3    3    0    0 -0.28373969882E+02  0.18934788044E+02 -0.15636116944E+02  0.37524612166E+02  0.00000000000E+00 0. -1.
</event>
<event>
 7    1  0.6462830E-013  0.5052885E+02  0.7816164E-02  0.1300439E+00
        -11   -1    0    0    0    0  0.00000000000E+00  0.00000000000E+00  0.45593999997E+02  0.45594000000E+02  0.51100000000E-03 0. -1.
         11   -1    0    0    0    0 -0.00000000000E+00 -0.00000000000E+00 -0.45593999997E+02  0.45594000000E+02  0.51100000000E-03 0.  1.
    9900012    2    1    2    0    0 -0.33094507207E+02  0.20293234058E+02 -0.12087362292E+02  0.50528854866E+02  0.29999984852E+02 0.  0.
         12    1    1    2    0    0  0.33094507207E+02 -0.20293234058E+02  0.12087362292E+02  0.40659145134E+02  0.00000000000E+00 0. -1.
         11    1    3    3    0    0 -0.24178180467E+01 -0.87011667869E+00 -0.58002301142E+01  0.63439433147E+01  0.51100000000E-03 0. -1.
        -11    1    3    3    0    0 -0.18978145317E+02  0.16254525398E+02 -0.14673001688E+02  0.28977173333E+02  0.51100000000E-03 0.  1.
        -12    1    3    3    0    0 -0.11698543844E+02  0.49088253382E+01  0.83858695109E+01  0.15207738218E+02  0.00000000000E+00 0.  1.
</event>
<event>
 7    1  0.6462830E-013  0.5052887E+02  0.7816164E-02  0.1300439E+00
        -11   -1    0    0    0    0  0.00000000000E+00  0.00000000000E+00  0.45593999997E+02  0.45594000000E+02  0.51100000000E-03 0.  1.
         11   -1    0    0    0    0 -0.00000000000E+00 -0.00000000000E+00 -0.45593999997E+02  0.45594000000E+02  0.51100000000E-03 0. -1.
    9900012    2    1    2    0    0 -0.17628293630E+02 -0.68039202659E+01  0.36001596090E+02  0.50528868328E+02  0.30000025770E+02 0.  0.
         12    1    1    2    0    0  0.17628293630E+02  0.68039202659E+01 -0.36001596090E+02  0.40659131672E+02  0.00000000000E+00 0. -1.
         11    1    3    3    0    0 -0.10898448590E+02 -0.10830452210E+02  0.56042294396E+01  0.16354885038E+02  0.51100000000E-03 0. -1.
        -11    1    3    3    0    0 -0.81770270198E+01 -0.27790134555E+01  0.15929054131E+02  0.18119642724E+02  0.51100000000E-03 0.  1.
         12    1    3    3    0    0  0.14471819797E+01  0.68055453991E+01  0.14468312520E+02  0.16054340567E+02  0.00000000000E+00 0. -1.
</event>
<event>
 7    1  0.6462830E-013  0.5052886E+02  0.7816164E-02  0.1300439E+00
        -11   -1    0    0    0    0  0.00000000000E+00  0.00000000000E+00  0.45593999997E+02  0.45594000000E+02  0.51100000000E-03 0.  1.
         11   -1    0    0    0    0 -0.00000000000E+00 -0.00000000000E+00 -0.45593999997E+02  0.45594000000E+02  0.51100000000E-03 0. -1.
    9900012    2    1    2    0    0  0.33504685486E+02 -0.15510595031E+02 -0.17030059968E+02  0.50528862647E+02  0.30000008503E+02 0.  0.
         12    1    1    2    0    0 -0.33504685486E+02  0.15510595031E+02  0.17030059968E+02  0.40659137353E+02  0.00000000000E+00 0. -1.
         11    1    3    3    0    0  0.86892587894E+01  0.64762710441E+01 -0.11102346275E+02  0.15514747759E+02  0.51100000000E-03 0. -1.
        -11    1    3    3    0    0  0.12528309020E+02 -0.82000611683E+01  0.16263152917E+01  0.15061355575E+02  0.51100000000E-03 0.  1.
        -12    1    3    3    0    0  0.12287117677E+02 -0.13786804906E+02 -0.75540289843E+01  0.19952759314E+02  0.00000000000E+00 0.  1.
</event>
<event>
 7    1  0.6462830E-013  0.5052886E+02  0.7816164E-02  0.1300439E+00
        -11   -1    0    0    0    0  0.00000000000E+00  0.00000000000E+00  0.45593999997E+02  0.45594000000E+02  0.51100000000E-03 0.  1.
         11   -1    0    0    0    0 -0.00000000000E+00 -0.00000000000E+00 -0.45593999997E+02  0.45594000000E+02  0.51100000000E-03 0. -1.
    9900012    2    1    2    0    0  0.25992537326E+02  0.31020742770E+02  0.39072814836E+01  0.50528864161E+02  0.30000013103E+02 0.  0.
         12    1    1    2    0    0 -0.25992537326E+02 -0.31020742770E+02 -0.39072814836E+01  0.40659135839E+02  0.00000000000E+00 0. -1.
         11    1    3    3    0    0 -0.16302771903E+01  0.24360302800E+01 -0.54289068448E+01  0.61696901894E+01  0.51100000000E-03 0. -1.
        -11    1    3    3    0    0  0.35251854378E+01  0.14793363202E+02  0.61800049358E+01  0.16415327851E+02  0.51100000000E-03 0.  1.
        -12    1    3    3    0    0  0.24097629078E+02  0.13791349288E+02  0.31561833926E+01  0.27943846120E+02  0.00000000000E+00 0.  1.
</event>
<event>
 7    1  0.6462830E-013  0.5052878E+02  0.7816164E-02  0.1300439E+00
        -11   -1    0    0    0    0  0.00000000000E+00  0.00000000000E+00  0.45593999997E+02  0.45594000000E+02  0.51100000000E-03 0.  1.
         11   -1    0    0    0    0 -0.00000000000E+00 -0.00000000000E+00 -0.45593999997E+02  0.45594000000E+02  0.51100000000E-03 0. -1.
    9900012    2    1    2    0    0 -0.39343231460E+02  0.16727222611E+01  0.10123460830E+02  0.50528778159E+02  0.29999751692E+02 0.  0.
         12    1    1    2    0    0  0.39343231460E+02 -0.16727222611E+01 -0.10123460830E+02  0.40659221841E+02  0.00000000000E+00 0. -1.
         11    1    3    3    0    0 -0.16531495001E+01 -0.86474310503E+01  0.18708540435E+01  0.90006145430E+01  0.51100000000E-03 0. -1.
        -11    1    3    3    0    0 -0.14614687695E+02 -0.47563972225E+00  0.64701945599E+01  0.15989957707E+02  0.51100000000E-03 0.  1.
        -12    1    3    3    0    0 -0.23075394265E+02  0.10795793034E+02  0.17824122265E+01  0.25538205909E+02  0.00000000000E+00 0.  1.
</event>
<event>
 7    1  0.6462830E-013  0.5052886E+02  0.7816164E-02  0.1300439E+00
        -11   -1    0    0    0    0  0.00000000000E+00  0.00000000000E+00  0.45593999997E+02  0.45594000000E+02  0.51100000000E-03 0.  1.
         11   -1    0    0    0    0 -0.00000000000E+00 -0.00000000000E+00 -0.45593999997E+02  0.45594000000E+02  0.51100000000E-03 0. -1.
    9900012    2    1    2    0    0  0.90419219203E+01 -0.35782581932E+02  0.17059199913E+02  0.50528858059E+02  0.29999994556E+02 0.  0.
         12    1    1    2    0    0 -0.90419219203E+01  0.35782581932E+02 -0.17059199913E+02  0.40659141941E+02  0.00000000000E+00 0. -1.
         11    1    3    3    0    0 -0.28708426409E+01  0.17933678764E+01  0.76971064178E+00  0.34713629228E+01  0.51100000000E-03 0. -1.
        -11    1    3    3    0    0  0.63906416721E+01 -0.34501906106E+01  0.92806176185E+01  0.11784480467E+02  0.51100000000E-03 0.  1.
        -12    1    3    3    0    0  0.55221228891E+01 -0.34125759198E+02  0.70088716528E+01  0.35273014669E+02  0.00000000000E+00 0.  1.
</event>
<event>
 7    1  0.6462830E-013  0.5052888E+02  0.7816164E-02  0.1300439E+00
        -11   -1    0    0    0    0  0.00000000000E+00  0.00000000000E+00  0.45593999997E+02  0.45594000000E+02  0.51100000000E-03 0.  1.
         11   -1    0    0    0    0 -0.00000000000E+00 -0.00000000000E+00 -0.45593999997E+02  0.45594000000E+02  0.51100000000E-03 0. -1.
    9900012    2    1    2    0    0 -0.45832350200E+01 -0.39248909179E+02 -0.95750370318E+01  0.50528877418E+02  0.30000053399E+02 0.  0.
         12    1    1    2    0    0  0.45832350200E+01  0.39248909179E+02  0.95750370318E+01  0.40659122582E+02  0.00000000000E+00 0. -1.
         11    1    3    3    0    0 -0.48733805526E+01 -0.14794095143E+01 -0.54051012079E+01  0.74265476400E+01  0.51100000000E-03 0. -1.
        -11    1    3    3    0    0 -0.89109194732E+01 -0.21242702412E+02  0.22055442834E+01  0.23141333528E+02  0.51100000000E-03 0.  1.
         12    1    3    3    0    0  0.92010650058E+01 -0.16526797253E+02 -0.63754801073E+01  0.19960996250E+02  0.00000000000E+00 0. -1.
</event>
<event>
 7    1  0.6462830E-013  0.5052886E+02  0.7816164E-02  0.1300439E+00
        -11   -1    0    0    0    0  0.00000000000E+00  0.00000000000E+00  0.45593999997E+02  0.45594000000E+02  0.51100000000E-03 0.  1.
         11   -1    0    0    0    0 -0.00000000000E+00 -0.00000000000E+00 -0.45593999997E+02  0.45594000000E+02  0.51100000000E-03 0. -1.
    9900012    2    1    2    0    0 -0.73788342563E+01 -0.47118149424E+01  0.39705376640E+02  0.50528864136E+02  0.30000013028E+02 0.  0.
         12    1    1    2    0    0  0.73788342563E+01  0.47118149424E+01 -0.39705376640E+02  0.40659135864E+02  0.00000000000E+00 0. -1.
         11    1    3    3    0    0 -0.51612741578E+00 -0.17834749448E+01 -0.36192408519E+01  0.40676866882E+01  0.51100000000E-03 0. -1.
        -11    1    3    3    0    0 -0.17576027388E+00  0.49815893707E+01  0.64046816997E+01  0.81158531448E+01  0.51100000000E-03 0.  1.
         12    1    3    3    0    0 -0.66869465667E+01 -0.79099293682E+01  0.36919935793E+02  0.38345324303E+02  0.00000000000E+00 0. -1.
</event>
<event>
 7    1  0.6462830E-013  0.5052883E+02  0.7816164E-02  0.1300439E+00
        -11   -1    0    0    0    0  0.00000000000E+00  0.00000000000E+00  0.45593999997E+02  0.45594000000E+02  0.51100000000E-03 0.  1.
         11   -1    0    0    0    0 -0.00000000000E+00 -0.00000000000E+00 -0.45593999997E+02  0.45594000000E+02  0.51100000000E-03 0. -1.
    9900012    2    1    2    0    0  0.35562195269E+01  0.16376482084E+02  0.37044999279E+02  0.50528833329E+02  0.29999919388E+02 0.  0.
         12    1    1    2    0    0 -0.35562195269E+01 -0.16376482084E+02 -0.37044999279E+02  0.40659166671E+02  0.00000000000E+00 0. -1.
         11    1    3    3    0    0 -0.11012577211E+01 -0.43310064058E+01  0.65728204725E+01  0.79481038166E+01  0.51100000000E-03 0. -1.
        -11    1    3    3    0    0  0.18638259458E+01  0.16413669524E+02  0.32973525480E+02  0.36880018672E+02  0.51100000000E-03 0.  1.
         12    1    3    3    0    0  0.27936513021E+01  0.42938189660E+01 -0.25013466736E+01  0.57007108409E+01  0.00000000000E+00 0. -1.
</event>
<event>
 7    1  0.6462830E-013  0.5052887E+02  0.7816164E-02  0.1300439E+00
        -11   -1    0    0    0    0  0.00000000000E+00  0.00000000000E+00  0.45593999997E+02  0.45594000000E+02  0.51100000000E-03 0.  1.
         11   -1    0    0    0    0 -0.00000000000E+00 -0.00000000000E+00 -0.45593999997E+02  0.45594000000E+02  0.51100000000E-03 0. -1.
    9900012    2    1    2    0    0 -0.16720025002E+00  0.31956642815E+02 -0.25137817262E+02  0.50528870243E+02  0.30000031591E+02 0.  0.
         12    1    1    2    0    0  0.16720025002E+00 -0.31956642815E+02  0.25137817262E+02  0.40659129757E+02  0.00000000000E+00 0. -1.
         11    1    3    3    0    0  0.29993422285E+01 -0.13602168966E+01 -0.15392177623E+01  0.36353040300E+01  0.51100000000E-03 0. -1.
        -11    1    3    3    0    0 -0.39827050346E+01  0.36074069826E+02 -0.17804631925E+02  0.40425306078E+02  0.51100000000E-03 0.  1.
         12    1    3    3    0    0  0.81616255608E+00 -0.27572101146E+01 -0.57939675738E+01  0.64682601355E+01  0.00000000000E+00 0. -1.
</event>
<event>
 7    1  0.6462830E-013  0.5052886E+02  0.7816164E-02  0.1300439E+00
        -11   -1    0    0    0    0  0.00000000000E+00  0.00000000000E+00  0.45593999997E+02  0.45594000000E+02  0.51100000000E-03 0. -1.
         11   -1    0    0    0    0 -0.00000000000E+00 -0.00000000000E+00 -0.45593999997E+02  0.45594000000E+02  0.51100000000E-03 0.  1.
    9900012    2    1    2    0    0 -0.31568397221E+02  0.25558940122E+02  0.18283150853E+01  0.50528857617E+02  0.29999993214E+02 0.  0.
         12    1    1    2    0    0  0.31568397221E+02 -0.25558940122E+02 -0.18283150853E+01  0.40659142383E+02  0.00000000000E+00 0. -1.
         11    1    3    3    0    0 -0.89599306738E+01  0.10749723885E+02 -0.10207181601E+02  0.17321185808E+02  0.51100000000E-03 0. -1.
        -11    1    3    3    0    0 -0.67822449197E+01  0.89318072921E+01 -0.18274308881E+01  0.11362901547E+02  0.51100000000E-03 0.  1.
         12    1    3    3    0    0 -0.15826221627E+02  0.58774089441E+01  0.13862927574E+02  0.21844770263E+02  0.00000000000E+00 0. -1.
</event>
<event>
 7    1  0.6462830E-013  0.5052884E+02  0.7816164E-02  0.1300439E+00
        -11   -1    0    0    0    0  0.00000000000E+00  0.00000000000E+00  0.45593999997E+02  0.45594000000E+02  0.51100000000E-03 0.  1.
         11   -1    0    0    0    0 -0.00000000000E+00 -0.00000000000E+00 -0.45593999997E+02  0.45594000000E+02  0.51100000000E-03 0. -1.
    9900012    2    1    2    0    0  0.34213934073E+02  0.17560176562E+02 -0.13199028745E+02  0.50528838112E+02  0.29999933925E+02 0.  0.
         12    1    1    2    0    0 -0.34213934073E+02 -0.17560176562E+02  0.13199028745E+02  0.40659161888E+02  0.00000000000E+00 0. -1.
         11    1    3    3    0    0  0.13778563152E+02  0.38185489247E+01 -0.15281862999E+01  0.14379341851E+02  0.51100000000E-03 0.  1.
        -11    1    3    3    0    0  0.55121231799E+01 -0.22962379904E+00  0.66903632175E+01  0.86716312931E+01  0.51100000000E-03 0. -1.
         12    1    3    3    0    0  0.14923247741E+02  0.13971251437E+02 -0.18361205662E+02  0.27477864968E+02  0.00000000000E+00 0. -1.
</event>
<event>
 7    1  0.6462830E-013  0.5052886E+02  0.7816164E-02  0.1300439E+00
        -11   -1    0    0    0    0  0.00000000000E+00  0.00000000000E+00  0.45593999997E+02  0.45594000000E+02  0.51100000000E-03 0. -1.
         11   -1    0    0    0    0 -0.00000000000E+00 -0.00000000000E+00 -0.45593999997E+02  0.45594000000E+02  0.51100000000E-03 0.  1.
    9900012    2    1    2    0    0 -0.14727028462E+02 -0.36310989140E+02 -0.10853228447E+02  0.50528857518E+02  0.29999992911E+02 0.  0.
         12    1    1    2    0    0  0.14727028462E+02  0.36310989140E+02  0.10853228447E+02  0.40659142482E+02  0.00000000000E+00 0. -1.
         11    1    3    3    0    0  0.17558013622E+01  0.18651344894E+01  0.35949179504E+00  0.25866580174E+01  0.51100000000E-03 0. -1.
        -11    1    3    3    0    0 -0.71759188438E+01 -0.67138657733E+01 -0.11505472696E+02  0.15130951956E+02  0.51100000000E-03 0.  1.
         12    1    3    3    0    0 -0.93069109800E+01 -0.31462257857E+02  0.29275245348E+00  0.32811247544E+02  0.00000000000E+00 0. -1.
</event>
<event>
 7    1  0.6462830E-013  0.5052884E+02  0.7816164E-02  0.1300439E+00
        -11   -1    0    0    0    0  0.00000000000E+00  0.00000000000E+00  0.45593999997E+02  0.45594000000E+02  0.51100000000E-03 0. -1.
         11   -1    0    0    0    0 -0.00000000000E+00 -0.00000000000E+00 -0.45593999997E+02  0.45594000000E+02  0.51100000000E-03 0.  1.
    9900012    2    1    2    0    0  0.98878544589E+01 -0.38836631955E+01 -0.39246841901E+02  0.50528842301E+02  0.29999946658E+02 0.  0.
         12    1    1    2    0    0 -0.98878544589E+01  0.38836631955E+01  0.39246841901E+02  0.40659157699E+02  0.00000000000E+00 0. -1.
         11    1    3    3    0    0  0.95494231735E+00 -0.64402158805E+01 -0.29938136855E+01  0.71659762811E+01  0.51100000000E-03 0. -1.
        -11    1    3    3    0    0  0.32737303150E+01 -0.61764718608E+01 -0.30860477014E+02  0.31642300115E+02  0.51100000000E-03 0.  1.
         12    1    3    3    0    0  0.56591818265E+01  0.87330245458E+01 -0.53925512016E+01  0.11720565905E+02  0.00000000000E+00 0. -1.
</event>
<event>
 7    1  0.6462830E-013  0.5052881E+02  0.7816164E-02  0.1300439E+00
        -11   -1    0    0    0    0  0.00000000000E+00  0.00000000000E+00  0.45593999997E+02  0.45594000000E+02  0.51100000000E-03 0.  1.
         11   -1    0    0    0    0 -0.00000000000E+00 -0.00000000000E+00 -0.45593999997E+02  0.45594000000E+02  0.51100000000E-03 0. -1.
    9900012    2    1    2    0    0 -0.29704072757E+02 -0.26968325198E+02 -0.65990186850E+01  0.50528812232E+02  0.29999855260E+02 0.  0.
         12    1    1    2    0    0  0.29704072757E+02  0.26968325198E+02  0.65990186850E+01  0.40659187768E+02  0.00000000000E+00 0. -1.
         11    1    3    3    0    0 -0.62452154002E+01  0.55936229219E+00 -0.50228948459E+01  0.80339949255E+01  0.51100000000E-03 0. -1.
        -11    1    3    3    0    0 -0.24204719694E+02 -0.13139762800E+02  0.21146640990E+01  0.27622339264E+02  0.51100000000E-03 0.  1.
         12    1    3    3    0    0  0.74586233746E+00 -0.14387924690E+02 -0.36907879381E+01  0.14872478042E+02  0.00000000000E+00 0. -1.
</event>
<event>
 7    1  0.6462830E-013  0.5052885E+02  0.7816164E-02  0.1300439E+00
        -11   -1    0    0    0    0  0.00000000000E+00  0.00000000000E+00  0.45593999997E+02  0.45594000000E+02  0.51100000000E-03 0. -1.
         11   -1    0    0    0    0 -0.00000000000E+00 -0.00000000000E+00 -0.45593999997E+02  0.45594000000E+02  0.51100000000E-03 0.  1.
    9900012    2    1    2    0    0 -0.35488975931E+02 -0.19780365657E+02 -0.15608967413E+01  0.50528847564E+02  0.29999962657E+02 0.  0.
         12    1    1    2    0    0  0.35488975931E+02  0.19780365657E+02  0.15608967413E+01  0.40659152436E+02  0.00000000000E+00 0. -1.
         11    1    3    3    0    0 -0.21168656879E+01 -0.95034137673E+01  0.13500934994E+01  0.98294835211E+01  0.51100000000E-03 0. -1.
        -11    1    3    3    0    0 -0.74719462848E+01 -0.65627911520E+01 -0.94616207853E+01  0.13726706711E+02  0.51100000000E-03 0.  1.
         12    1    3    3    0    0 -0.25900163958E+02 -0.37141607382E+01  0.65506305446E+01  0.26972657332E+02  0.00000000000E+00 0. -1.
</event>
<event>
 7    1  0.6462830E-013  0.5052885E+02  0.7816164E-02  0.1300439E+00
        -11   -1    0    0    0    0  0.00000000000E+00  0.00000000000E+00  0.45593999997E+02  0.45594000000E+02  0.51100000000E-03 0.  1.
         11   -1    0    0    0    0 -0.00000000000E+00 -0.00000000000E+00 -0.45593999997E+02  0.45594000000E+02  0.51100000000E-03 0. -1.
    9900012    2    1    2    0    0  0.65033528710E+01 -0.67993855021E+01  0.39555542721E+02  0.50528853406E+02  0.29999980413E+02 0.  0.
         12    1    1    2    0    0 -0.65033528710E+01  0.67993855021E+01 -0.39555542721E+02  0.40659146594E+02  0.00000000000E+00 0. -1.
         11    1    3    3    0    0  0.49588647640E+01 -0.14501475106E+02  0.12824679466E+02  0.19983881597E+02  0.51100000000E-03 0. -1.
        -11    1    3    3    0    0  0.47940404431E+01  0.46145508766E+01  0.49127306196E+01  0.82711441751E+01  0.51100000000E-03 0.  1.
        -12    1    3    3    0    0 -0.32495523362E+01  0.30875387272E+01  0.21818132636E+02  0.22273827634E+02  0.00000000000E+00 0.  1.
</event>
<event>
 7    1  0.6462830E-013  0.5052886E+02  0.7816164E-02  0.1300439E+00
        -11   -1    0    0    0    0  0.00000000000E+00  0.00000000000E+00  0.45593999997E+02  0.45594000000E+02  0.51100000000E-03 0. -1.
         11   -1    0    0    0    0 -0.00000000000E+00 -0.00000000000E+00 -0.45593999997E+02  0.45594000000E+02  0.51100000000E-03 0.  1.
    9900012    2    1    2    0    0 -0.12727881188E+02 -0.26239411941E+02 -0.28331249734E+02  0.50528863142E+02  0.30000010007E+02 0.  0.
         12    1    1    2    0    0  0.12727881188E+02  0.26239411941E+02  0.28331249734E+02  0.40659136858E+02  0.00000000000E+00 0. -1.
         11    1    3    3    0    0 -0.91165496801E+01 -0.16854117126E+02 -0.51943742399E+01  0.19853318770E+02  0.51100000000E-03 0. -1.
        -11    1    3    3    0    0 -0.43654276434E+01  0.78700552396E-01  0.12203089740E+01  0.45334651802E+01  0.51100000000E-03 0.  1.
        -12    1    3    3    0    0  0.75409613574E+00 -0.94639953673E+01 -0.24357184468E+02  0.26142079192E+02  0.00000000000E+00 0.  1.
</event>
<event>
 7    1  0.6462830E-013  0.5052881E+02  0.7816164E-02  0.1300439E+00
        -11   -1    0    0    0    0  0.00000000000E+00  0.00000000000E+00  0.45593999997E+02  0.45594000000E+02  0.51100000000E-03 0. -1.
         11   -1    0    0    0    0 -0.00000000000E+00 -0.00000000000E+00 -0.45593999997E+02  0.45594000000E+02  0.51100000000E-03 0.  1.
    9900012    2    1    2    0    0  0.97546842858E+01  0.30713270356E+01 -0.39352036667E+02  0.50528810323E+02  0.29999849459E+02 0.  0.
         12    1    1    2    0    0 -0.97546842858E+01 -0.30713270356E+01  0.39352036667E+02  0.40659189677E+02  0.00000000000E+00 0. -1.
         11    1    3    3    0    0  0.45279601421E+00  0.67530713809E+01 -0.20254454114E-01  0.67682647562E+01  0.51100000000E-03 0. -1.
        -11    1    3    3    0    0  0.91064109829E+01 -0.51147454536E+01 -0.10220007034E+02  0.14612867141E+02  0.51100000000E-03 0.  1.
         12    1    3    3    0    0  0.19547728867E+00  0.14330011084E+01 -0.29111775179E+02  0.29147678426E+02  0.00000000000E+00 0. -1.
</event>
<event>
 7    1  0.6462830E-013  0.5052886E+02  0.7816164E-02  0.1300439E+00
        -11   -1    0    0    0    0  0.00000000000E+00  0.00000000000E+00  0.45593999997E+02  0.45594000000E+02  0.51100000000E-03 0.  1.
         11   -1    0    0    0    0 -0.00000000000E+00 -0.00000000000E+00 -0.45593999997E+02  0.45594000000E+02  0.51100000000E-03 0. -1.
    9900012    2    1    2    0    0 -0.51550335264E+01  0.17956512374E+02  0.36113089229E+02  0.50528856859E+02  0.29999990908E+02 0.  0.
         12    1    1    2    0    0  0.51550335264E+01 -0.17956512374E+02 -0.36113089229E+02  0.40659143141E+02  0.00000000000E+00 0. -1.
         11    1    3    3    0    0 -0.29753394722E+00  0.13007210354E+02  0.48786078920E+01  0.13895210069E+02  0.51100000000E-03 0. -1.
        -11    1    3    3    0    0  0.36875867203E+01  0.22836883087E+01  0.25799641076E+02  0.26161708813E+02  0.51100000000E-03 0.  1.
         12    1    3    3    0    0 -0.85450862994E+01  0.26656137113E+01  0.54348402616E+01  0.10471937977E+02  0.00000000000E+00 0. -1.
</event>
<event>
 7    1  0.6462830E-013  0.5052884E+02  0.7816164E-02  0.1300439E+00
        -11   -1    0    0    0    0  0.00000000000E+00  0.00000000000E+00  0.45593999997E+02  0.45594000000E+02  0.51100000000E-03 0.  1.
         11   -1    0    0    0    0 -0.00000000000E+00 -0.00000000000E+00 -0.45593999997E+02  0.45594000000E+02  0.51100000000E-03 0. -1.
    9900012    2    1    2    0    0  0.10007714455E+02 -0.85483978053E+01  0.38469955903E+02  0.50528844071E+02  0.29999952038E+02 0.  0.
         12    1    1    2    0    0 -0.10007714455E+02  0.85483978053E+01 -0.38469955903E+02  0.40659155929E+02  0.00000000000E+00 0. -1.
         11    1    3    3    0    0 -0.10156260010E+01  0.42042269187E+01  0.75603640818E+01  0.87101162718E+01  0.51100000000E-03 0. -1.
        -11    1    3    3    0    0  0.36679038857E+01 -0.86457215716E+01  0.31976477756E+02  0.33327123343E+02  0.51100000000E-03 0.  1.
         12    1    3    3    0    0  0.73554365699E+01 -0.41069031524E+01 -0.10668859344E+01  0.84916044558E+01  0.00000000000E+00 0. -1.
</event>
<event>
 7    1  0.6462830E-013  0.5052886E+02  0.7816164E-02  0.1300439E+00
        -11   -1    0    0    0    0  0.00000000000E+00  0.00000000000E+00  0.45593999997E+02  0.45594000000E+02  0.51100000000E-03 0.  1.
         11   -1    0    0    0    0 -0.00000000000E+00 -0.00000000000E+00 -0.45593999997E+02  0.45594000000E+02  0.51100000000E-03 0. -1.
    9900012    2    1    2    0    0  0.32871199100E+02 -0.95368116717E+01  0.21947643365E+02  0.50528861342E+02  0.30000004535E+02 0.  0.
         12    1    1    2    0    0 -0.32871199100E+02  0.95368116717E+01 -0.21947643365E+02  0.40659138658E+02  0.00000000000E+00 0. -1.
         11    1    3    3    0    0  0.12183477880E+02 -0.11157402915E+02  0.10843395108E+02  0.19761173821E+02  0.51100000000E-03 0. -1.
        -11    1    3    3    0    0  0.23339466355E+02 -0.88976750450E+00  0.12917725826E+02  0.26690635375E+02  0.51100000000E-03 0.  1.
         12    1    3    3    0    0 -0.26517451345E+01  0.25103587483E+01 -0.18134775697E+01  0.40770521457E+01  0.00000000000E+00 0. -1.
</event>
<event>
 7    1  0.6462830E-013  0.5052885E+02  0.7816164E-02  0.1300439E+00
        -11   -1    0    0    0    0  0.00000000000E+00  0.00000000000E+00  0.45593999997E+02  0.45594000000E+02  0.51100000000E-03 0. -1.
         11   -1    0    0    0    0 -0.00000000000E+00 -0.00000000000E+00 -0.45593999997E+02  0.45594000000E+02  0.51100000000E-03 0.  1.
    9900012    2    1    2    0    0  0.10682058933E+02 -0.36166472834E+02  0.15200207104E+02  0.50528850522E+02  0.29999971646E+02 0.  0.
         12    1    1    2    0    0 -0.10682058933E+02  0.36166472834E+02 -0.15200207104E+02  0.40659149478E+02  0.00000000000E+00 0. -1.
         11    1    3    3    0    0 -0.49363214477E+00  0.14442853313E+01  0.22603936224E+01  0.27274552978E+01  0.51100000000E-03 0. -1.
        -11    1    3    3    0    0  0.13890573384E+02 -0.13183317390E+02  0.13135795457E+02  0.23222769190E+02  0.51100000000E-03 0.  1.
         12    1    3    3    0    0 -0.27148823060E+01 -0.24427440775E+02 -0.19598197516E+00  0.24578626034E+02  0.00000000000E+00 0. -1.
</event>
<event>
 7    1  0.6462830E-013  0.5052886E+02  0.7816164E-02  0.1300439E+00
        -11   -1    0    0    0    0  0.00000000000E+00  0.00000000000E+00  0.45593999997E+02  0.45594000000E+02  0.51100000000E-03 0.  1.
         11   -1    0    0    0    0 -0.00000000000E+00 -0.00000000000E+00 -0.45593999997E+02  0.45594000000E+02  0.51100000000E-03 0. -1.
    9900012    2    1    2    0    0 -0.40382021660E+02 -0.30920669649E+01 -0.35913092162E+01  0.50528855231E+02  0.29999985961E+02 0.  0.
         12    1    1    2    0    0  0.40382021660E+02  0.30920669649E+01  0.35913092162E+01  0.40659144769E+02  0.00000000000E+00 0. -1.
         11    1    3    3    0    0 -0.18451587997E+01 -0.62442393937E+01 -0.18151927218E+01  0.67594423942E+01  0.51100000000E-03 0.  1.
        -11    1    3    3    0    0 -0.27148788331E+02  0.92298814629E+01 -0.75142878233E+01  0.29643075775E+02  0.51100000000E-03 0. -1.
         12    1    3    3    0    0 -0.11388074529E+02 -0.60777090341E+01  0.57381713289E+01  0.14126337062E+02  0.00000000000E+00 0. -1.
</event>
<event>
 7    1  0.6462830E-013  0.5052886E+02  0.7816164E-02  0.1300439E+00
        -11   -1    0    0    0    0  0.00000000000E+00  0.00000000000E+00  0.45593999997E+02  0.45594000000E+02  0.51100000000E-03 0. -1.
         11   -1    0    0    0    0 -0.00000000000E+00 -0.00000000000E+00 -0.45593999997E+02  0.45594000000E+02  0.51100000000E-03 0.  1.
    9900012    2    1    2    0    0  0.37121576943E+02  0.14527468604E+02  0.80066567034E+01  0.50528863630E+02  0.30000011491E+02 0.  0.
         12    1    1    2    0    0 -0.37121576943E+02 -0.14527468604E+02 -0.80066567034E+01  0.40659136370E+02  0.00000000000E+00 0. -1.
         11    1    3    3    0    0  0.13350869606E+02  0.14825670152E+02  0.71961639690E+01  0.21209219477E+02  0.51100000000E-03 0.  1.
        -11    1    3    3    0    0  0.12088508827E+02  0.20932770243E+01  0.86835441130E+01  0.15030561965E+02  0.51100000000E-03 0. -1.
        -12    1    3    3    0    0  0.11682198510E+02 -0.23914785721E+01 -0.78730513785E+01  0.14289082189E+02  0.00000000000E+00 0.  1.
</event>
<event>
 7    1  0.6462830E-013  0.5052886E+02  0.7816164E-02  0.1300439E+00
        -11   -1    0    0    0    0  0.00000000000E+00  0.00000000000E+00  0.45593999997E+02  0.45594000000E+02  0.51100000000E-03 0.  1.
         11   -1    0    0    0    0 -0.00000000000E+00 -0.00000000000E+00 -0.45593999997E+02  0.45594000000E+02  0.51100000000E-03 0. -1.
    9900012    2    1    2    0    0 -0.14764125537E+02  0.37430108688E+02  0.58457838034E+01  0.50528860467E+02  0.30000001876E+02 0.  0.
         12    1    1    2    0    0  0.14764125537E+02 -0.37430108688E+02 -0.58457838034E+01  0.40659139533E+02  0.00000000000E+00 0. -1.
         11    1    3    3    0    0 -0.36944747946E+01  0.30017553126E+01 -0.75459964891E+01  0.89219808473E+01  0.51100000000E-03 0. -1.
        -11    1    3    3    0    0 -0.10856363330E+02  0.15082725069E+02  0.95625690337E+00  0.18608160785E+02  0.51100000000E-03 0.  1.
        -12    1    3    3    0    0 -0.21328741219E+00  0.19345628307E+02  0.12435523389E+02  0.22998718835E+02  0.00000000000E+00 0.  1.
</event>
<event>
 7    1  0.6462830E-013  0.5052886E+02  0.7816164E-02  0.1300439E+00
        -11   -1    0    0    0    0  0.00000000000E+00  0.00000000000E+00  0.45593999997E+02  0.45594000000E+02  0.51100000000E-03 0.  1.
         11   -1    0    0    0    0 -0.00000000000E+00 -0.00000000000E+00 -0.45593999997E+02  0.45594000000E+02  0.51100000000E-03 0. -1.
    9900012    2    1    2    0    0  0.24790025403E+02 -0.20682422595E+02  0.24715534650E+02  0.50528860598E+02  0.30000002274E+02 0.  0.
         12    1    1    2    0    0 -0.24790025403E+02  0.20682422595E+02 -0.24715534650E+02  0.40659139402E+02  0.00000000000E+00 0. -1.
         11    1    3    3    0    0 -0.34637587995E+01 -0.73359765729E+01  0.91274451409E+00  0.81637785436E+01  0.51100000000E-03 0. -1.
        -11    1    3    3    0    0  0.99309270759E+01 -0.13432299126E+02  0.12034496014E+02  0.20588323559E+02  0.51100000000E-03 0.  1.
         12    1    3    3    0    0  0.18322857127E+02  0.85853104166E-01  0.11768294122E+02  0.21776758496E+02  0.00000000000E+00 0. -1.
</event>
<event>
 7    1  0.6462830E-013  0.5052886E+02  0.7816164E-02  0.1300439E+00
        -11   -1    0    0    0    0  0.00000000000E+00  0.00000000000E+00  0.45593999997E+02  0.45594000000E+02  0.51100000000E-03 0.  1.
         11   -1    0    0    0    0 -0.00000000000E+00 -0.00000000000E+00 -0.45593999997E+02  0.45594000000E+02  0.51100000000E-03 0. -1.
    9900012    2    1    2    0    0 -0.40511378792E+02 -0.27163818728E+01 -0.21483158703E+01  0.50528858307E+02  0.29999995310E+02 0.  0.
         12    1    1    2    0    0  0.40511378792E+02  0.27163818728E+01  0.21483158703E+01  0.40659141693E+02  0.00000000000E+00 0. -1.
         11    1    3    3    0    0 -0.40870893881E+01  0.16643628542E+01 -0.41356626980E+01  0.60479839277E+01  0.51100000000E-03 0. -1.
        -11    1    3    3    0    0 -0.37694301750E+02 -0.67748210791E+01 -0.34013991586E+01  0.38449032518E+02  0.51100000000E-03 0.  1.
         12    1    3    3    0    0  0.12700123457E+01  0.23940763521E+01  0.53887459862E+01  0.60318418615E+01  0.00000000000E+00 0. -1.
</event>
<event>
 7    1  0.6462830E-013  0.5052872E+02  0.7816164E-02  0.1300439E+00
        -11   -1    0    0    0    0  0.00000000000E+00  0.00000000000E+00  0.45593999997E+02  0.45594000000E+02  0.51100000000E-03 0.  1.
         11   -1    0    0    0    0 -0.00000000000E+00 -0.00000000000E+00 -0.45593999997E+02  0.45594000000E+02  0.51100000000E-03 0. -1.
    9900012    2    1    2    0    0 -0.49224029573E+00  0.45542713442E+01  0.40400412370E+02  0.50528720522E+02  0.29999576497E+02 0.  0.
         12    1    1    2    0    0  0.49224029573E+00 -0.45542713442E+01 -0.40400412370E+02  0.40659279478E+02  0.00000000000E+00 0. -1.
         11    1    3    3    0    0  0.64929836945E+01  0.32573871916E+00 -0.28621933656E+00  0.65074468680E+01  0.51100000000E-03 0.  1.
        -11    1    3    3    0    0 -0.10993476857E+00 -0.51178076829E+01  0.10493764318E+02  0.11675749696E+02  0.51100000000E-03 0. -1.
        -12    1    3    3    0    0 -0.68752892216E+01  0.93463403079E+01  0.30192867389E+02  0.32345523959E+02  0.00000000000E+00 0.  1.
</event>
<event>
 7    1  0.6462830E-013  0.5052884E+02  0.7816164E-02  0.1300439E+00
        -11   -1    0    0    0    0  0.00000000000E+00  0.00000000000E+00  0.45593999997E+02  0.45594000000E+02  0.51100000000E-03 0.  1.
         11   -1    0    0    0    0 -0.00000000000E+00 -0.00000000000E+00 -0.45593999997E+02  0.45594000000E+02  0.51100000000E-03 0. -1.
    9900012    2    1    2    0    0 -0.25401016238E+02 -0.22915626917E+02  0.21973389114E+02  0.50528838522E+02  0.29999935172E+02 0.  0.
         12    1    1    2    0    0  0.25401016238E+02  0.22915626917E+02 -0.21973389114E+02  0.40659161478E+02  0.00000000000E+00 0. -1.
         11    1    3    3    0    0 -0.52607628481E+01  0.35983825726E+01  0.90772674499E-01  0.63743409717E+01  0.51100000000E-03 0. -1.
        -11    1    3    3    0    0  0.24567978856E+01 -0.20031028528E+01  0.69227580167E+01  0.76139907872E+01  0.51100000000E-03 0.  1.
         12    1    3    3    0    0 -0.22597051276E+02 -0.24510906637E+02  0.14959858423E+02  0.36540506763E+02  0.00000000000E+00 0. -1.
</event>
<event>
 7    1  0.6462830E-013  0.5052885E+02  0.7816164E-02  0.1300439E+00
        -11   -1    0    0    0    0  0.00000000000E+00  0.00000000000E+00  0.45593999997E+02  0.45594000000E+02  0.51100000000E-03 0.  1.
         11   -1    0    0    0    0 -0.00000000000E+00 -0.00000000000E+00 -0.45593999997E+02  0.45594000000E+02  0.51100000000E-03 0. -1.
    9900012    2    1    2    0    0 -0.19220360022E+02  0.31173884350E+02  0.17661624304E+02  0.50528852470E+02  0.29999977569E+02 0.  0.
         12    1    1    2    0    0  0.19220360022E+02 -0.31173884350E+02 -0.17661624304E+02  0.40659147530E+02  0.00000000000E+00 0. -1.
         11    1    3    3    0    0 -0.17301531858E+02  0.19637967969E+02  0.18160196579E+02  0.31855698558E+02  0.51100000000E-03 0. -1.
        -11    1    3    3    0    0 -0.39944487746E+01  0.10827760941E+02  0.51319233695E+01  0.12630624123E+02  0.51100000000E-03 0.  1.
         12    1    3    3    0    0  0.20756206111E+01  0.70815543988E+00 -0.56304956447E+01  0.60425297892E+01  0.00000000000E+00 0. -1.
</event>
<event>
 7    1  0.6462830E-013  0.5052889E+02  0.7816164E-02  0.1300439E+00
        -11   -1    0    0    0    0  0.00000000000E+00  0.00000000000E+00  0.45593999997E+02  0.45594000000E+02  0.51100000000E-03 0.  1.
         11   -1    0    0    0    0 -0.00000000000E+00 -0.00000000000E+00 -0.45593999997E+02  0.45594000000E+02  0.51100000000E-03 0. -1.
    9900012    2    1    2    0    0  0.12295065437E+02 -0.28614287605E+02  0.26138420155E+02  0.50528891581E+02  0.30000096448E+02 0.  0.
         12    1    1    2    0    0 -0.12295065437E+02  0.28614287605E+02 -0.26138420155E+02  0.40659108419E+02  0.00000000000E+00 0. -1.
         11    1    3    3    0    0 -0.58821806317E+01 -0.56820172838E+01  0.55110463183E+01  0.98618964292E+01  0.51100000000E-03 0. -1.
        -11    1    3    3    0    0  0.57972445620E+01 -0.20840915412E+02  0.17242681945E+02  0.27663367124E+02  0.51100000000E-03 0.  1.
         12    1    3    3    0    0  0.12380001507E+02 -0.20913549088E+01  0.33846918926E+01  0.13003628027E+02  0.00000000000E+00 0. -1.
</event>
<event>
 7    1  0.6462830E-013  0.5052886E+02  0.7816164E-02  0.1300439E+00
        -11   -1    0    0    0    0  0.00000000000E+00  0.00000000000E+00  0.45593999997E+02  0.45594000000E+02  0.51100000000E-03 0.  1.
         11   -1    0    0    0    0 -0.00000000000E+00 -0.00000000000E+00 -0.45593999997E+02  0.45594000000E+02  0.51100000000E-03 0. -1.
    9900012    2    1    2    0    0  0.30471616685E+02 -0.94520760423E+01  0.25205250559E+02  0.50528858092E+02  0.29999994658E+02 0.  0.
         12    1    1    2    0    0 -0.30471616685E+02  0.94520760423E+01 -0.25205250559E+02  0.40659141908E+02  0.00000000000E+00 0. -1.
         11    1    3    3    0    0  0.21827346727E+02 -0.16009185574E+02  0.67840363772E+01  0.27906096784E+02  0.51100000000E-03 0. -1.
        -11    1    3    3    0    0  0.83446531589E+01  0.50780701926E+01  0.96797850779E+01  0.13752027946E+02  0.51100000000E-03 0.  1.
        -12    1    3    3    0    0  0.29961679894E+00  0.14790393393E+01  0.87414291043E+01  0.88707333619E+01  0.00000000000E+00 0.  1.
</event>
<event>
 7    1  0.6462830E-013  0.5052887E+02  0.7816164E-02  0.1300439E+00
        -11   -1    0    0    0    0  0.00000000000E+00  0.00000000000E+00  0.45593999997E+02  0.45594000000E+02  0.51100000000E-03 0.  1.
         11   -1    0    0    0    0 -0.00000000000E+00 -0.00000000000E+00 -0.45593999997E+02  0.45594000000E+02  0.51100000000E-03 0. -1.
    9900012    2    1    2    0    0 -0.20444759772E+02  0.86389468569E+01  0.34066779076E+02  0.50528867674E+02  0.30000023782E+02 0.  0.
         12    1    1    2    0    0  0.20444759772E+02 -0.86389468569E+01 -0.34066779076E+02  0.40659132326E+02  0.00000000000E+00 0. -1.
         11    1    3    3    0    0 -0.39158549926E+01  0.65762372627E+00 -0.24073497364E+01  0.46434601649E+01  0.51100000000E-03 0. -1.
        -11    1    3    3    0    0 -0.17431020296E+00 -0.61002778561E+01  0.10173377611E+02  0.11863447486E+02  0.51100000000E-03 0.  1.
        -12    1    3    3    0    0 -0.16354594576E+02  0.14081600987E+02  0.26300751201E+02  0.34021960023E+02  0.00000000000E+00 0.  1.
</event>
<event>
 7    1  0.6462830E-013  0.5052887E+02  0.7816164E-02  0.1300439E+00
        -11   -1    0    0    0    0  0.00000000000E+00  0.00000000000E+00  0.45593999997E+02  0.45594000000E+02  0.51100000000E-03 0.  1.
         11   -1    0    0    0    0 -0.00000000000E+00 -0.00000000000E+00 -0.45593999997E+02  0.45594000000E+02  0.51100000000E-03 0. -1.
    9900012    2    1    2    0    0 -0.95329778943E+01 -0.76454147213E+01  0.38779313710E+02  0.50528865656E+02  0.30000017647E+02 0.  0.
         12    1    1    2    0    0  0.95329778943E+01  0.76454147213E+01 -0.38779313710E+02  0.40659134344E+02  0.00000000000E+00 0. -1.
         11    1    3    3    0    0  0.43979833283E+01  0.63986510211E+00  0.10191207555E+01  0.45596372751E+01  0.51100000000E-03 0. -1.
        -11    1    3    3    0    0  0.31399033669E+01 -0.67165953351E+01  0.19791990257E+02  0.21135149033E+02  0.51100000000E-03 0.  1.
        -12    1    3    3    0    0 -0.17070864590E+02 -0.15686844883E+01  0.17968202698E+02  0.24834079348E+02  0.00000000000E+00 0.  1.
</event>
<event>
 7    1  0.6462830E-013  0.5052885E+02  0.7816164E-02  0.1300439E+00
        -11   -1    0    0    0    0  0.00000000000E+00  0.00000000000E+00  0.45593999997E+02  0.45594000000E+02  0.51100000000E-03 0. -1.
         11   -1    0    0    0    0 -0.00000000000E+00 -0.00000000000E+00 -0.45593999997E+02  0.45594000000E+02  0.51100000000E-03 0.  1.
    9900012    2    1    2    0    0  0.16571337274E+02  0.21812817250E+02 -0.30045933821E+02  0.50528851526E+02  0.29999974700E+02 0.  0.
         12    1    1    2    0    0 -0.16571337274E+02 -0.21812817250E+02  0.30045933821E+02  0.40659148474E+02  0.00000000000E+00 0. -1.
         11    1    3    3    0    0  0.10302789324E+02 -0.75532327028E+00 -0.56221825449E+01  0.11761246444E+02  0.51100000000E-03 0. -1.
        -11    1    3    3    0    0  0.24080987959E+01  0.13581669374E+02 -0.15373481476E+01  0.13878909265E+02  0.51100000000E-03 0.  1.
        -12    1    3    3    0    0  0.38604491544E+01  0.89864711462E+01 -0.22886403129E+02  0.24888695818E+02  0.00000000000E+00 0.  1.
</event>
<event>
 7    1  0.6462830E-013  0.5052886E+02  0.7816164E-02  0.1300439E+00
        -11   -1    0    0    0    0  0.00000000000E+00  0.00000000000E+00  0.45593999997E+02  0.45594000000E+02  0.51100000000E-03 0. -1.
         11   -1    0    0    0    0 -0.00000000000E+00 -0.00000000000E+00 -0.45593999997E+02  0.45594000000E+02  0.51100000000E-03 0.  1.
    9900012    2    1    2    0    0 -0.26877473122E+02 -0.30243856299E+02 -0.40095059053E+01  0.50528861509E+02  0.30000005041E+02 0.  0.
         12    1    1    2    0    0  0.26877473122E+02  0.30243856299E+02  0.40095059053E+01  0.40659138491E+02  0.00000000000E+00 0. -1.
         11    1    3    3    0    0 -0.42575780029E+01 -0.11007290665E+02  0.52129082648E+01  0.12902008800E+02  0.51100000000E-03 0.  1.
        -11    1    3    3    0    0 -0.11991196170E+02 -0.22209125761E+02 -0.45707258976E+01  0.25650060198E+02  0.51100000000E-03 0. -1.
         12    1    3    3    0    0 -0.10628698949E+02  0.29725601272E+01 -0.46516882724E+01  0.11976792510E+02  0.00000000000E+00 0. -1.
</event>
<event>
 7    1  0.6462830E-013  0.5052885E+02  0.7816164E-02  0.1300439E+00
        -11   -1    0    0    0    0  0.00000000000E+00  0.00000000000E+00  0.45593999997E+02  0.45594000000E+02  0.51100000000E-03 0.  1.
         11   -1    0    0    0    0 -0.00000000000E+00 -0.00000000000E+00 -0.45593999997E+02  0.45594000000E+02  0.51100000000E-03 0. -1.
    9900012    2    1    2    0    0 -0.11730456161E+02  0.28667701341E+02  0.26338672430E+02  0.50528851371E+02  0.29999974226E+02 0.  0.
         12    1    1    2    0    0  0.11730456161E+02 -0.28667701341E+02 -0.26338672430E+02  0.40659148629E+02  0.00000000000E+00 0. -1.
         11    1    3    3    0    0  0.10003908154E+01  0.21306597016E+02  0.12438353695E+02  0.24691790155E+02  0.51100000000E-03 0.  1.
        -11    1    3    3    0    0  0.15541977565E+01 -0.21793858433E+01 -0.12299312860E+01  0.29458419085E+01  0.51100000000E-03 0. -1.
        -12    1    3    3    0    0 -0.14285044733E+02  0.95404901684E+01  0.15130250021E+02  0.22891219307E+02  0.00000000000E+00 0.  1.
</event>
<event>
 7    1  0.6462830E-013  0.5052886E+02  0.7816164E-02  0.1300439E+00
        -11   -1    0    0    0    0  0.00000000000E+00  0.00000000000E+00  0.45593999997E+02  0.45594000000E+02  0.51100000000E-03 0. -1.
         11   -1    0    0    0    0 -0.00000000000E+00 -0.00000000000E+00 -0.45593999997E+02  0.45594000000E+02  0.51100000000E-03 0.  1.
    9900012    2    1    2    0    0  0.19305030013E+02  0.33227695891E+02  0.13281636998E+02  0.50528857863E+02  0.29999993959E+02 0.  0.
         12    1    1    2    0    0 -0.19305030013E+02 -0.33227695891E+02 -0.13281636998E+02  0.40659142137E+02  0.00000000000E+00 0. -1.
         11    1    3    3    0    0  0.99621009899E+01  0.22092137255E+01 -0.35135104432E+01  0.10792072892E+02  0.51100000000E-03 0. -1.
        -11    1    3    3    0    0 -0.37200219825E+01  0.23183582329E+01  0.11284465932E+01  0.45262280567E+01  0.51100000000E-03 0.  1.
         12    1    3    3    0    0  0.13062951005E+02  0.28700123933E+02  0.15666700848E+02  0.35210556914E+02  0.00000000000E+00 0. -1.
</event>
<event>
 7    1  0.6462830E-013  0.5052887E+02  0.7816164E-02  0.1300439E+00
        -11   -1    0    0    0    0  0.00000000000E+00  0.00000000000E+00  0.45593999997E+02  0.45594000000E+02  0.51100000000E-03 0. -1.
         11   -1    0    0    0    0 -0.00000000000E+00 -0.00000000000E+00 -0.45593999997E+02  0.45594000000E+02  0.51100000000E-03 0.  1.
    9900012    2    1    2    0    0  0.25197657977E+02  0.12128762124E+02 -0.29515015411E+02  0.50528868517E+02  0.30000026346E+02 0.  0.
         12    1    1    2    0    0 -0.25197657977E+02 -0.12128762124E+02  0.29515015411E+02  0.40659131483E+02  0.00000000000E+00 0. -1.
         11    1    3    3    0    0  0.44569167400E+00 -0.23044621857E-01 -0.71355669604E+01  0.71495096496E+01  0.51100000000E-03 0. -1.
        -11    1    3    3    0    0 -0.12301285423E+01  0.37960426613E+01  0.38364311380E+01  0.55354638699E+01  0.51100000000E-03 0.  1.
        -12    1    3    3    0    0  0.25982094846E+02  0.83557640841E+01 -0.26215879589E+02  0.37843894998E+02  0.00000000000E+00 0.  1.
</event>
<event>
 7    1  0.6462830E-013  0.5052886E+02  0.7816164E-02  0.1300439E+00
        -11   -1    0    0    0    0  0.00000000000E+00  0.00000000000E+00  0.45593999997E+02  0.45594000000E+02  0.51100000000E-03 0. -1.
         11   -1    0    0    0    0 -0.00000000000E+00 -0.00000000000E+00 -0.45593999997E+02  0.45594000000E+02  0.51100000000E-03 0.  1.
    9900012    2    1    2    0    0 -0.18060631379E+02  0.36363628521E+02 -0.21600349179E+01  0.50528860365E+02  0.30000001565E+02 0.  0.
         12    1    1    2    0    0  0.18060631379E+02 -0.36363628521E+02  0.21600349179E+01  0.40659139635E+02  0.00000000000E+00 0. -1.
         11    1    3    3    0    0 -0.91716799599E+01  0.24010486844E+01 -0.18658248576E+01  0.96626109687E+01  0.51100000000E-03 0. -1.
        -11    1    3    3    0    0 -0.13857514988E+02  0.12025521354E+02 -0.83801342985E+00  0.18366985388E+02  0.51100000000E-03 0.  1.
        -12    1    3    3    0    0  0.49685635689E+01  0.21937058482E+02  0.54380336953E+00  0.22499264008E+02  0.00000000000E+00 0.  1.
</event>
<event>
 7    1  0.6462830E-013  0.5052885E+02  0.7816164E-02  0.1300439E+00
        -11   -1    0    0    0    0  0.00000000000E+00  0.00000000000E+00  0.45593999997E+02  0.45594000000E+02  0.51100000000E-03 0. -1.
         11   -1    0    0    0    0 -0.00000000000E+00 -0.00000000000E+00 -0.45593999997E+02  0.45594000000E+02  0.51100000000E-03 0.  1.
    9900012    2    1    2    0    0  0.37591232515E+02  0.13224973882E+02  0.80725132751E+01  0.50528853837E+02  0.29999981722E+02 0.  0.
         12    1    1    2    0    0 -0.37591232515E+02 -0.13224973882E+02 -0.80725132751E+01  0.40659146163E+02  0.00000000000E+00 0. -1.
         11    1    3    3    0    0  0.88640139468E+01  0.63480325315E+01  0.11448244427E+02  0.15809192294E+02  0.51100000000E-03 0. -1.
        -11    1    3    3    0    0  0.19021561236E+02  0.11992654479E+02  0.18594863116E+01  0.22563271991E+02  0.51100000000E-03 0.  1.
         12    1    3    3    0    0  0.97056573313E+01 -0.51157131290E+01 -0.52352174632E+01  0.12156389552E+02  0.00000000000E+00 0. -1.
</event>
<event>
 7    1  0.7592768E-013  0.5052885E+02  0.7816164E-02  0.1300439E+00
        -11   -1    0    0    0    0  0.00000000000E+00  0.00000000000E+00  0.45593999997E+02  0.45594000000E+02  0.51100000000E-03 0.  1.
         11   -1    0    0    0    0 -0.00000000000E+00 -0.00000000000E+00 -0.45593999997E+02  0.45594000000E+02  0.51100000000E-03 0. -1.
    9900012    2    1    2    0    0  0.85385469032E+01  0.26031785387E+02  0.30043396639E+02  0.50528852010E+02  0.29999976171E+02 0.  0.
         12    1    1    2    0    0 -0.85385469032E+01 -0.26031785387E+02 -0.30043396639E+02  0.40659147990E+02  0.00000000000E+00 0. -1.
         11    1    3    3    0    0 -0.25734449786E+01 -0.36954111990E+01  0.48402975886E+01  0.66111393871E+01  0.51100000000E-03 0. -1.
        -11    1    3    3    0    0  0.72705984036E+01  0.13203473079E+02  0.21977126805E+02  0.26649341556E+02  0.51100000000E-03 0.  1.
         12    1    3    3    0    0  0.38413934782E+01  0.16523723507E+02  0.32259722448E+01  0.17268371067E+02  0.00000000000E+00 0. -1.
</event>
<event>
 7    1  0.6462830E-013  0.5052887E+02  0.7816164E-02  0.1300439E+00
        -11   -1    0    0    0    0  0.00000000000E+00  0.00000000000E+00  0.45593999997E+02  0.45594000000E+02  0.51100000000E-03 0. -1.
         11   -1    0    0    0    0 -0.00000000000E+00 -0.00000000000E+00 -0.45593999997E+02  0.45594000000E+02  0.51100000000E-03 0.  1.
    9900012    2    1    2    0    0  0.16523769987E+01  0.38337425606E+02 -0.13441582825E+02  0.50528871865E+02  0.30000036521E+02 0.  0.
         12    1    1    2    0    0 -0.16523769987E+01 -0.38337425606E+02  0.13441582825E+02  0.40659128135E+02  0.00000000000E+00 0. -1.
         11    1    3    3    0    0 -0.21154947436E+01  0.38386320290E+02 -0.15965904502E+02  0.41628055566E+02  0.51100000000E-03 0.  1.
        -11    1    3    3    0    0 -0.14783219711E+01 -0.79838048511E-01  0.32816566621E+01  0.36001500904E+01  0.51100000000E-03 0. -1.
        -12    1    3    3    0    0  0.52461937134E+01  0.30943364988E-01 -0.75733498478E+00  0.53006662081E+01  0.00000000000E+00 0.  1.
</event>
<event>
 7    1  0.6462830E-013  0.5052887E+02  0.7816164E-02  0.1300439E+00
        -11   -1    0    0    0    0  0.00000000000E+00  0.00000000000E+00  0.45593999997E+02  0.45594000000E+02  0.51100000000E-03 0.  1.
         11   -1    0    0    0    0 -0.00000000000E+00 -0.00000000000E+00 -0.45593999997E+02  0.45594000000E+02  0.51100000000E-03 0. -1.
    9900012    2    1    2    0    0  0.20551423397E+02  0.11343902739E+02  0.33198185514E+02  0.50528872433E+02  0.30000038249E+02 0.  0.
         12    1    1    2    0    0 -0.20551423397E+02 -0.11343902739E+02 -0.33198185514E+02  0.40659127567E+02  0.00000000000E+00 0. -1.
         11    1    3    3    0    0  0.14427784079E+02  0.14473496735E+01  0.16438956008E+02  0.21920197294E+02  0.51100000000E-03 0. -1.
        -11    1    3    3    0    0  0.35177989687E+01  0.13813829171E-01  0.17975097118E+02  0.18316091752E+02  0.51100000000E-03 0.  1.
         12    1    3    3    0    0  0.26058403498E+01  0.98827392368E+01 -0.12158676112E+01  0.10292583388E+02  0.00000000000E+00 0. -1.
</event>
<event>
 7    1  0.6462830E-013  0.5052884E+02  0.7816164E-02  0.1300439E+00
        -11   -1    0    0    0    0  0.00000000000E+00  0.00000000000E+00  0.45593999997E+02  0.45594000000E+02  0.51100000000E-03 0.  1.
         11   -1    0    0    0    0 -0.00000000000E+00 -0.00000000000E+00 -0.45593999997E+02  0.45594000000E+02  0.51100000000E-03 0. -1.
    9900012    2    1    2    0    0  0.17055808418E+02 -0.10951748905E+02  0.35246644933E+02  0.50528838869E+02  0.29999936225E+02 0.  0.
         12    1    1    2    0    0 -0.17055808418E+02  0.10951748905E+02 -0.35246644933E+02  0.40659161131E+02  0.00000000000E+00 0. -1.
         11    1    3    3    0    0  0.11559184108E+02  0.53050150026E+01  0.28317583719E+02  0.31042607323E+02  0.51100000000E-03 0. -1.
        -11    1    3    3    0    0  0.43983296895E+01 -0.11273531435E+02  0.76740600432E+01  0.14329306085E+02  0.51100000000E-03 0.  1.
        -12    1    3    3    0    0  0.10982946206E+01 -0.49832324734E+01 -0.74499882962E+00  0.51569254614E+01  0.00000000000E+00 0.  1.
</event>
<event>
 7    1  0.6462830E-013  0.5052885E+02  0.7816164E-02  0.1300439E+00
        -11   -1    0    0    0    0  0.00000000000E+00  0.00000000000E+00  0.45593999997E+02  0.45594000000E+02  0.51100000000E-03 0. -1.
         11   -1    0    0    0    0 -0.00000000000E+00 -0.00000000000E+00 -0.45593999997E+02  0.45594000000E+02  0.51100000000E-03 0.  1.
    9900012    2    1    2    0    0 -0.10036844354E+02 -0.22257645574E+02 -0.32511931989E+02  0.50528846630E+02  0.29999959817E+02 0.  0.
         12    1    1    2    0    0  0.10036844354E+02  0.22257645574E+02  0.32511931989E+02  0.40659153370E+02  0.00000000000E+00 0. -1.
         11    1    3    3    0    0 -0.11066392670E+02 -0.29491228431E+01 -0.11636118929E+02  0.16326715416E+02  0.51100000000E-03 0. -1.
        -11    1    3    3    0    0 -0.19579339352E+01  0.78172313668E+00  0.24766774910E+01  0.32524649133E+01  0.51100000000E-03 0.  1.
        -12    1    3    3    0    0  0.29874822508E+01 -0.20090245867E+02 -0.23352490551E+02  0.30949666301E+02  0.00000000000E+00 0.  1.
</event>
<event>
 7    1  0.6462830E-013  0.5052886E+02  0.7816164E-02  0.1300439E+00
        -11   -1    0    0    0    0  0.00000000000E+00  0.00000000000E+00  0.45593999997E+02  0.45594000000E+02  0.51100000000E-03 0.  1.
         11   -1    0    0    0    0 -0.00000000000E+00 -0.00000000000E+00 -0.45593999997E+02  0.45594000000E+02  0.51100000000E-03 0. -1.
    9900012    2    1    2    0    0  0.29042508695E+02 -0.19482269768E+02  0.20739805548E+02  0.50528859812E+02  0.29999999886E+02 0.  0.
         12    1    1    2    0    0 -0.29042508695E+02  0.19482269768E+02 -0.20739805548E+02  0.40659140188E+02  0.00000000000E+00 0. -1.
         11    1    3    3    0    0  0.49518409755E+00  0.39123266485E+01  0.60766441210E+01  0.72441087188E+01  0.51100000000E-03 0. -1.
        -11    1    3    3    0    0  0.14741384486E+02 -0.18321399512E+01  0.77958980213E+01  0.16776208737E+02  0.51100000000E-03 0.  1.
         12    1    3    3    0    0  0.13805940111E+02 -0.21562456466E+02  0.68672634060E+01  0.26508542356E+02  0.00000000000E+00 0. -1.
</event>
<event>
 7    1  0.6462830E-013  0.5052886E+02  0.7816164E-02  0.1300439E+00
        -11   -1    0    0    0    0  0.00000000000E+00  0.00000000000E+00  0.45593999997E+02  0.45594000000E+02  0.51100000000E-03 0.  1.
         11   -1    0    0    0    0 -0.00000000000E+00 -0.00000000000E+00 -0.45593999997E+02  0.45594000000E+02  0.51100000000E-03 0. -1.
    9900012    2    1    2    0    0  0.30119962265E+01  0.21936623352E+01  0.40488042696E+02  0.50528857399E+02  0.29999992550E+02 0.  0.
         12    1    1    2    0    0 -0.30119962265E+01 -0.21936623352E+01 -0.40488042696E+02  0.40659142601E+02  0.00000000000E+00 0. -1.
         11    1    3    3    0    0 -0.61802196329E+01 -0.20290947293E+00 -0.12597333183E+01  0.63105637830E+01  0.51100000000E-03 0. -1.
        -11    1    3    3    0    0  0.10139178075E+02  0.16041883077E+01  0.20422218412E+02  0.22857019869E+02  0.51100000000E-03 0.  1.
        -12    1    3    3    0    0 -0.94696221543E+00  0.79238350051E+00  0.21325557602E+02  0.21361273747E+02  0.00000000000E+00 0.  1.
</event>
<event>
 7    1  0.6462830E-013  0.5052885E+02  0.7816164E-02  0.1300439E+00
        -11   -1    0    0    0    0  0.00000000000E+00  0.00000000000E+00  0.45593999997E+02  0.45594000000E+02  0.51100000000E-03 0.  1.
         11   -1    0    0    0    0 -0.00000000000E+00 -0.00000000000E+00 -0.45593999997E+02  0.45594000000E+02  0.51100000000E-03 0. -1.
    9900012    2    1    2    0    0  0.20111961168E+02  0.28269508981E+02  0.21201660290E+02  0.50528849504E+02  0.29999968551E+02 0.  0.
         12    1    1    2    0    0 -0.20111961168E+02 -0.28269508981E+02 -0.21201660290E+02  0.40659150496E+02  0.00000000000E+00 0. -1.
         11    1    3    3    0    0  0.11381719558E+01  0.19299223375E+02  0.79387583706E+01  0.20899266566E+02  0.51100000000E-03 0. -1.
        -11    1    3    3    0    0  0.16556610574E+02  0.13109906126E+02  0.81924932097E+01  0.22651885961E+02  0.51100000000E-03 0.  1.
         12    1    3    3    0    0  0.24171786384E+01 -0.41396205198E+01  0.50704087098E+01  0.69776969770E+01  0.00000000000E+00 0. -1.
</event>
<event>
 7    1  0.6462830E-013  0.5052886E+02  0.7816164E-02  0.1300439E+00
        -11   -1    0    0    0    0  0.00000000000E+00  0.00000000000E+00  0.45593999997E+02  0.45594000000E+02  0.51100000000E-03 0.  1.
         11   -1    0    0    0    0 -0.00000000000E+00 -0.00000000000E+00 -0.45593999997E+02  0.45594000000E+02  0.51100000000E-03 0. -1.
    9900012    2    1    2    0    0 -0.36951135010E+02 -0.70088858077E+01  0.15448446747E+02  0.50528863687E+02  0.30000011664E+02 0.  0.
         12    1    1    2    0    0  0.36951135010E+02  0.70088858077E+01 -0.15448446747E+02  0.40659136313E+02  0.00000000000E+00 0. -1.
         11    1    3    3    0    0 -0.23868144849E+02 -0.75750282398E+01  0.71680421040E+01  0.26047076981E+02  0.51100000000E-03 0. -1.
        -11    1    3    3    0    0 -0.10682542511E+02 -0.21759056173E+01  0.13972904956E+02  0.17722679056E+02  0.51100000000E-03 0.  1.
         12    1    3    3    0    0 -0.24004476494E+01  0.27420480493E+01 -0.56925003124E+01  0.67591076504E+01  0.00000000000E+00 0. -1.
</event>
<event>
 7    1  0.6462830E-013  0.5052886E+02  0.7816164E-02  0.1300439E+00
        -11   -1    0    0    0    0  0.00000000000E+00  0.00000000000E+00  0.45593999997E+02  0.45594000000E+02  0.51100000000E-03 0.  1.
         11   -1    0    0    0    0 -0.00000000000E+00 -0.00000000000E+00 -0.45593999997E+02  0.45594000000E+02  0.51100000000E-03 0. -1.
    9900012    2    1    2    0    0  0.28581625480E+02 -0.11027930597E+02  0.26732772365E+02  0.50528859740E+02  0.29999999665E+02 0.  0.
         12    1    1    2    0    0 -0.28581625480E+02  0.11027930597E+02 -0.26732772365E+02  0.40659140260E+02  0.00000000000E+00 0. -1.
         11    1    3    3    0    0  0.18895064571E+02 -0.12202760974E+02  0.15664734220E+02  0.27410121105E+02  0.51100000000E-03 0. -1.
        -11    1    3    3    0    0  0.11133428816E+02 -0.55696491276E+01  0.36141991632E+01  0.12962895681E+02  0.51100000000E-03 0.  1.
         12    1    3    3    0    0 -0.14468679060E+01  0.67444795047E+01  0.74538389818E+01  0.10155842953E+02  0.00000000000E+00 0. -1.
</event>
<event>
 7    1  0.6462830E-013  0.5052886E+02  0.7816164E-02  0.1300439E+00
        -11   -1    0    0    0    0  0.00000000000E+00  0.00000000000E+00  0.45593999997E+02  0.45594000000E+02  0.51100000000E-03 0. -1.
         11   -1    0    0    0    0 -0.00000000000E+00 -0.00000000000E+00 -0.45593999997E+02  0.45594000000E+02  0.51100000000E-03 0.  1.
    9900012    2    1    2    0    0  0.17835963586E+02  0.58940896621E+01 -0.36059724648E+02  0.50528860417E+02  0.30000001722E+02 0.  0.
         12    1    1    2    0    0 -0.17835963586E+02 -0.58940896621E+01  0.36059724648E+02  0.40659139583E+02  0.00000000000E+00 0. -1.
         11    1    3    3    0    0  0.15798472499E+02  0.17806752549E+01 -0.15341490767E+02  0.22093525678E+02  0.51100000000E-03 0.  1.
        -11    1    3    3    0    0  0.42958353255E+01  0.39455576462E+01  0.15635769196E+01  0.60387415351E+01  0.51100000000E-03 0. -1.
        -12    1    3    3    0    0 -0.22583442379E+01  0.16785676096E+00 -0.22281810800E+02  0.22396593204E+02  0.00000000000E+00 0.  1.
</event>
<event>
 7    1  0.6462830E-013  0.5052886E+02  0.7816164E-02  0.1300439E+00
        -11   -1    0    0    0    0  0.00000000000E+00  0.00000000000E+00  0.45593999997E+02  0.45594000000E+02  0.51100000000E-03 0. -1.
         11   -1    0    0    0    0 -0.00000000000E+00 -0.00000000000E+00 -0.45593999997E+02  0.45594000000E+02  0.51100000000E-03 0.  1.
    9900012    2    1    2    0    0  0.24549424627E+02  0.32398499603E+02 -0.91019892672E+00  0.50528862182E+02  0.30000007088E+02 0.  0.
         12    1    1    2    0    0 -0.24549424627E+02 -0.32398499603E+02  0.91019892672E+00  0.40659137818E+02  0.00000000000E+00 0. -1.
         11    1    3    3    0    0  0.19705058768E+01  0.57872097413E+01 -0.65785686921E+01  0.89806601260E+01  0.51100000000E-03 0. -1.
        -11    1    3    3    0    0  0.10871290289E+02  0.27347292860E+02  0.40126383138E+01  0.29701189300E+02  0.51100000000E-03 0.  1.
         12    1    3    3    0    0  0.11707628461E+02 -0.73600299844E+00  0.16557314516E+01  0.11847012756E+02  0.00000000000E+00 0. -1.
</event>
<event>
 7    1  0.6462830E-013  0.5052884E+02  0.7816164E-02  0.1300439E+00
        -11   -1    0    0    0    0  0.00000000000E+00  0.00000000000E+00  0.45593999997E+02  0.45594000000E+02  0.51100000000E-03 0.  1.
         11   -1    0    0    0    0 -0.00000000000E+00 -0.00000000000E+00 -0.45593999997E+02  0.45594000000E+02  0.51100000000E-03 0. -1.
    9900012    2    1    2    0    0  0.24367945935E+02  0.12698114581E+02  0.29968790936E+02  0.50528839493E+02  0.29999938121E+02 0.  0.
         12    1    1    2    0    0 -0.24367945935E+02 -0.12698114581E+02 -0.29968790936E+02  0.40659160507E+02  0.00000000000E+00 0. -1.
         11    1    3    3    0    0  0.11718892920E+01  0.11340124779E+02  0.22264141551E+02  0.25013271553E+02  0.51100000000E-03 0. -1.
        -11    1    3    3    0    0  0.14329806363E+02  0.46390228757E+00  0.83315654028E+01  0.16582326075E+02  0.51100000000E-03 0.  1.
        -12    1    3    3    0    0  0.88662502802E+01  0.89408751482E+00 -0.62691601830E+00  0.89332418645E+01  0.00000000000E+00 0.  1.
</event>
<event>
 7    1  0.6462830E-013  0.5052886E+02  0.7816164E-02  0.1300439E+00
        -11   -1    0    0    0    0  0.00000000000E+00  0.00000000000E+00  0.45593999997E+02  0.45594000000E+02  0.51100000000E-03 0. -1.
         11   -1    0    0    0    0 -0.00000000000E+00 -0.00000000000E+00 -0.45593999997E+02  0.45594000000E+02  0.51100000000E-03 0.  1.
    9900012    2    1    2    0    0 -0.61426992572E+00  0.39854353624E+02 -0.80261269831E+01  0.50528861487E+02  0.30000004975E+02 0.  0.
         12    1    1    2    0    0  0.61426992572E+00 -0.39854353624E+02  0.80261269831E+01  0.40659138513E+02  0.00000000000E+00 0. -1.
         11    1    3    3    0    0  0.16684416299E+01 -0.12032250418E+01  0.13717628348E+01  0.24724848857E+01  0.51100000000E-03 0. -1.
        -11    1    3    3    0    0  0.17405217654E+01 -0.21125053882E+01  0.18006693265E+01  0.32763554928E+01  0.51100000000E-03 0.  1.
        -12    1    3    3    0    0 -0.40232333210E+01  0.43170084054E+02 -0.11198559144E+02  0.44780021108E+02  0.00000000000E+00 0.  1.
</event>
<event>
 7    1  0.6462830E-013  0.5052887E+02  0.7816164E-02  0.1300439E+00
        -11   -1    0    0    0    0  0.00000000000E+00  0.00000000000E+00  0.45593999997E+02  0.45594000000E+02  0.51100000000E-03 0.  1.
         11   -1    0    0    0    0 -0.00000000000E+00 -0.00000000000E+00 -0.45593999997E+02  0.45594000000E+02  0.51100000000E-03 0. -1.
    9900012    2    1    2    0    0  0.19167747654E+02  0.17866133067E+02  0.31089607429E+02  0.50528868787E+02  0.30000027165E+02 0.  0.
         12    1    1    2    0    0 -0.19167747654E+02 -0.17866133067E+02 -0.31089607429E+02  0.40659131213E+02  0.00000000000E+00 0. -1.
         11    1    3    3    0    0 -0.10791931129E+01 -0.64156991540E+01  0.41145111308E+01  0.76977305432E+01  0.51100000000E-03 0. -1.
        -11    1    3    3    0    0 -0.49426357015E+00  0.46572486706E+01  0.31643633265E+01  0.56522081685E+01  0.51100000000E-03 0.  1.
        -12    1    3    3    0    0  0.20741204337E+02  0.19624583551E+02  0.23810732972E+02  0.37178930075E+02  0.00000000000E+00 0.  1.
</event>
<event>
 7    1  0.6462830E-013  0.5052886E+02  0.7816164E-02  0.1300439E+00
        -11   -1    0    0    0    0  0.00000000000E+00  0.00000000000E+00  0.45593999997E+02  0.45594000000E+02  0.51100000000E-03 0.  1.
         11   -1    0    0    0    0 -0.00000000000E+00 -0.00000000000E+00 -0.45593999997E+02  0.45594000000E+02  0.51100000000E-03 0. -1.
    9900012    2    1    2    0    0 -0.34662448128E+02 -0.19005346881E+02  0.95119384255E+01  0.50528862123E+02  0.30000006908E+02 0.  0.
         12    1    1    2    0    0  0.34662448128E+02  0.19005346881E+02 -0.95119384255E+01  0.40659137877E+02  0.00000000000E+00 0. -1.
         11    1    3    3    0    0 -0.21306018132E+02 -0.17256977700E+02  0.76240158877E+01  0.28458308216E+02  0.51100000000E-03 0. -1.
        -11    1    3    3    0    0 -0.17030695623E+02 -0.21542200753E+01  0.42487664693E+01  0.17684379387E+02  0.51100000000E-03 0.  1.
         12    1    3    3    0    0  0.36742656273E+01  0.40585089378E+00 -0.23608439316E+01  0.43861745197E+01  0.00000000000E+00 0. -1.
</event>
<event>
 7    1  0.6462830E-013  0.5052885E+02  0.7816164E-02  0.1300439E+00
        -11   -1    0    0    0    0  0.00000000000E+00  0.00000000000E+00  0.45593999997E+02  0.45594000000E+02  0.51100000000E-03 0.  1.
         11   -1    0    0    0    0 -0.00000000000E+00 -0.00000000000E+00 -0.45593999997E+02  0.45594000000E+02  0.51100000000E-03 0. -1.
    9900012    2    1    2    0    0 -0.14495450361E+02  0.33831320675E+02  0.17276878869E+02  0.50528845026E+02  0.29999954940E+02 0.  0.
         12    1    1    2    0    0  0.14495450361E+02 -0.33831320675E+02 -0.17276878869E+02  0.40659154974E+02  0.00000000000E+00 0. -1.
         11    1    3    3    0    0 -0.99038233170E+01  0.87183878251E+01  0.70664439716E+01  0.14967652896E+02  0.51100000000E-03 0. -1.
        -11    1    3    3    0    0 -0.54387923533E+01  0.87870799141E+01  0.15279029284E+02  0.18445649129E+02  0.51100000000E-03 0.  1.
         12    1    3    3    0    0  0.84716530885E+00  0.16325852936E+02 -0.50685943866E+01  0.17115543000E+02  0.00000000000E+00 0. -1.
</event>
<event>
 7    1  0.6462830E-013  0.5052886E+02  0.7816164E-02  0.1300439E+00
        -11   -1    0    0    0    0  0.00000000000E+00  0.00000000000E+00  0.45593999997E+02  0.45594000000E+02  0.51100000000E-03 0. -1.
         11   -1    0    0    0    0 -0.00000000000E+00 -0.00000000000E+00 -0.45593999997E+02  0.45594000000E+02  0.51100000000E-03 0.  1.
    9900012    2    1    2    0    0  0.27760906713E+02  0.26636985162E+02 -0.13151759306E+02  0.50528859664E+02  0.29999999433E+02 0.  0.
         12    1    1    2    0    0 -0.27760906713E+02 -0.26636985162E+02  0.13151759306E+02  0.40659140336E+02  0.00000000000E+00 0. -1.
         11    1    3    3    0    0 -0.10491340522E+01  0.65029676635E+01 -0.95919115309E+01  0.11635894369E+02  0.51100000000E-03 0. -1.
        -11    1    3    3    0    0  0.11056801499E+02  0.91016977932E+00  0.37718192945E+01  0.11717844916E+02  0.51100000000E-03 0.  1.
        -12    1    3    3    0    0  0.17753239266E+02  0.19223847719E+02 -0.73316670698E+01  0.27175120378E+02  0.00000000000E+00 0.  1.
</event>
<event>
 7    1  0.6462830E-013  0.5052886E+02  0.7816164E-02  0.1300439E+00
        -11   -1    0    0    0    0  0.00000000000E+00  0.00000000000E+00  0.45593999997E+02  0.45594000000E+02  0.51100000000E-03 0.  1.
         11   -1    0    0    0    0 -0.00000000000E+00 -0.00000000000E+00 -0.45593999997E+02  0.45594000000E+02  0.51100000000E-03 0. -1.
    9900012    2    1    2    0    0  0.17962771036E+02  0.36038046778E+02  0.56358976041E+01  0.50528864487E+02  0.30000014095E+02 0.  0.
         12    1    1    2    0    0 -0.17962771036E+02 -0.36038046778E+02 -0.56358976041E+01  0.40659135513E+02  0.00000000000E+00 0. -1.
         11    1    3    3    0    0  0.15848691895E+02  0.30197769012E+02  0.16782493416E+01  0.34145318994E+02  0.51100000000E-03 0. -1.
        -11    1    3    3    0    0 -0.17004148452E+01  0.10050621842E+02  0.29673052844E+01  0.10616558339E+02  0.51100000000E-03 0.  1.
         12    1    3    3    0    0  0.38144939862E+01 -0.42103440765E+01  0.99034297809E+00  0.57669871534E+01  0.00000000000E+00 0. -1.
</event>
<event>
 7    1  0.6462830E-013  0.5052886E+02  0.7816164E-02  0.1300439E+00
        -11   -1    0    0    0    0  0.00000000000E+00  0.00000000000E+00  0.45593999997E+02  0.45594000000E+02  0.51100000000E-03 0. -1.
         11   -1    0    0    0    0 -0.00000000000E+00 -0.00000000000E+00 -0.45593999997E+02  0.45594000000E+02  0.51100000000E-03 0.  1.
    9900012    2    1    2    0    0  0.33380134705E+02  0.11976477597E+02 -0.19887089250E+02  0.50528859239E+02  0.29999998143E+02 0.  0.
         12    1    1    2    0    0 -0.33380134705E+02 -0.11976477597E+02  0.19887089250E+02  0.40659140761E+02  0.00000000000E+00 0. -1.
         11    1    3    3    0    0  0.13667254558E+02  0.98216693313E+01 -0.89289306722E+01  0.19052161001E+02  0.51100000000E-03 0. -1.
        -11    1    3    3    0    0  0.22972323875E+02  0.79774323560E+00 -0.13916321462E+02  0.26870579855E+02  0.51100000000E-03 0.  1.
        -12    1    3    3    0    0 -0.32594437270E+01  0.13570650299E+01  0.29581628843E+01  0.46061183826E+01  0.00000000000E+00 0.  1.
</event>
<event>
 7    1  0.6462830E-013  0.5052887E+02  0.7816164E-02  0.1300439E+00
        -11   -1    0    0    0    0  0.00000000000E+00  0.00000000000E+00  0.45593999997E+02  0.45594000000E+02  0.51100000000E-03 0.  1.
         11   -1    0    0    0    0 -0.00000000000E+00 -0.00000000000E+00 -0.45593999997E+02  0.45594000000E+02  0.51100000000E-03 0. -1.
    9900012    2    1    2    0    0  0.25595845530E+02  0.12314890124E+02  0.29092282873E+02  0.50528871260E+02  0.30000034680E+02 0.  0.
         12    1    1    2    0    0 -0.25595845530E+02 -0.12314890124E+02 -0.29092282873E+02  0.40659128740E+02  0.00000000000E+00 0. -1.
         11    1    3    3    0    0  0.14897887643E+02  0.87991124466E+01  0.16935533931E+02  0.24211231812E+02  0.51100000000E-03 0. -1.
        -11    1    3    3    0    0  0.14822948797E+02  0.69069175509E+01  0.13026496497E+02  0.20907293760E+02  0.51100000000E-03 0.  1.
         12    1    3    3    0    0 -0.41249909106E+01 -0.33911398733E+01 -0.86974755472E+00  0.54103456878E+01  0.00000000000E+00 0. -1.
</event>
<event>
 7    1  0.6462830E-013  0.5052886E+02  0.7816164E-02  0.1300439E+00
        -11   -1    0    0    0    0  0.00000000000E+00  0.00000000000E+00  0.45593999997E+02  0.45594000000E+02  0.51100000000E-03 0.  1.
         11   -1    0    0    0    0 -0.00000000000E+00 -0.00000000000E+00 -0.45593999997E+02  0.45594000000E+02  0.51100000000E-03 0. -1.
    9900012    2    1    2    0    0 -0.13067023995E+02  0.35982120836E+02  0.13700571501E+02  0.50528858403E+02  0.29999995602E+02 0.  0.
         12    1    1    2    0    0  0.13067023995E+02 -0.35982120836E+02 -0.13700571501E+02  0.40659141597E+02  0.00000000000E+00 0. -1.
         11    1    3    3    0    0  0.23886138583E+01 -0.26408545592E+01  0.22227815133E+00  0.35677719664E+01  0.51100000000E-03 0. -1.
        -11    1    3    3    0    0 -0.75111358080E+01  0.33480548672E+01  0.56145214490E+01  0.99573833854E+01  0.51100000000E-03 0.  1.
         12    1    3    3    0    0 -0.79445020449E+01  0.35274920528E+02  0.78637719011E+01  0.37003703051E+02  0.00000000000E+00 0. -1.
</event>
<event>
 7    1  0.6462830E-013  0.5052887E+02  0.7816164E-02  0.1300439E+00
        -11   -1    0    0    0    0  0.00000000000E+00  0.00000000000E+00  0.45593999997E+02  0.45594000000E+02  0.51100000000E-03 0.  1.
         11   -1    0    0    0    0 -0.00000000000E+00 -0.00000000000E+00 -0.45593999997E+02  0.45594000000E+02  0.51100000000E-03 0. -1.
    9900012    2    1    2    0    0  0.25359323117E+02  0.12614194645E+02  0.29171077062E+02  0.50528869261E+02  0.30000028605E+02 0.  0.
         12    1    1    2    0    0 -0.25359323117E+02 -0.12614194645E+02 -0.29171077062E+02  0.40659130739E+02  0.00000000000E+00 0. -1.
         11    1    3    3    0    0  0.14215934389E+02 -0.12690043968E+01  0.13057778982E+02  0.19344476083E+02  0.51100000000E-03 0. -1.
        -11    1    3    3    0    0  0.15758971267E+02  0.73512845300E+01  0.62330039007E+01  0.18472598559E+02  0.51100000000E-03 0.  1.
         12    1    3    3    0    0 -0.46155825389E+01  0.65319145122E+01  0.98802941795E+01  0.12711794619E+02  0.00000000000E+00 0. -1.
</event>
<event>
 7    1  0.6462830E-013  0.5052885E+02  0.7816164E-02  0.1300439E+00
        -11   -1    0    0    0    0  0.00000000000E+00  0.00000000000E+00  0.45593999997E+02  0.45594000000E+02  0.51100000000E-03 0.  1.
         11   -1    0    0    0    0 -0.00000000000E+00 -0.00000000000E+00 -0.45593999997E+02  0.45594000000E+02  0.51100000000E-03 0. -1.
    9900012    2    1    2    0    0  0.37470480546E+01  0.15069750957E+02  0.37576971531E+02  0.50528849093E+02  0.29999967303E+02 0.  0.
         12    1    1    2    0    0 -0.37470480546E+01 -0.15069750957E+02 -0.37576971531E+02  0.40659150907E+02  0.00000000000E+00 0. -1.
         11    1    3    3    0    0  0.90953173133E+01  0.81698739813E+01  0.19478665122E+02  0.22997609291E+02  0.51100000000E-03 0. -1.
        -11    1    3    3    0    0 -0.23968444349E-01 -0.63687088088E+01  0.44826037998E+01  0.77881168112E+01  0.51100000000E-03 0.  1.
        -12    1    3    3    0    0 -0.53243008144E+01  0.13268585784E+02  0.13615702610E+02  0.19743122991E+02  0.00000000000E+00 0.  1.
</event>
<event>
 7    1  0.6462830E-013  0.5052887E+02  0.7816164E-02  0.1300439E+00
        -11   -1    0    0    0    0  0.00000000000E+00  0.00000000000E+00  0.45593999997E+02  0.45594000000E+02  0.51100000000E-03 0.  1.
         11   -1    0    0    0    0 -0.00000000000E+00 -0.00000000000E+00 -0.45593999997E+02  0.45594000000E+02  0.51100000000E-03 0. -1.
    9900012    2    1    2    0    0  0.72157575071E+01  0.28112310765E+02  0.28474475116E+02  0.50528869340E+02  0.30000028845E+02 0.  0.
         12    1    1    2    0    0 -0.72157575071E+01 -0.28112310765E+02 -0.28474475116E+02  0.40659130660E+02  0.00000000000E+00 0. -1.
         11    1    3    3    0    0  0.32052140177E+01 -0.35605839643E+01  0.36781636657E+01  0.60398711310E+01  0.51100000000E-03 0. -1.
        -11    1    3    3    0    0  0.79837203917E+01  0.69966731792E+01  0.23003782706E+01  0.10862088534E+02  0.51100000000E-03 0.  1.
        -12    1    3    3    0    0 -0.39731769022E+01  0.24676221550E+02  0.22495933180E+02  0.33626909675E+02  0.00000000000E+00 0.  1.
</event>
<event>
 7    1  0.6462830E-013  0.5052888E+02  0.7816164E-02  0.1300439E+00
        -11   -1    0    0    0    0  0.00000000000E+00  0.00000000000E+00  0.45593999997E+02  0.45594000000E+02  0.51100000000E-03 0.  1.
         11   -1    0    0    0    0 -0.00000000000E+00 -0.00000000000E+00 -0.45593999997E+02  0.45594000000E+02  0.51100000000E-03 0. -1.
    9900012    2    1    2    0    0  0.24613247062E+01  0.23476840081E+02  0.33105048116E+02  0.50528876175E+02  0.30000049620E+02 0.  0.
         12    1    1    2    0    0 -0.24613247062E+01 -0.23476840081E+02 -0.33105048116E+02  0.40659123825E+02  0.00000000000E+00 0. -1.
         11    1    3    3    0    0 -0.41908068518E+01  0.12249044181E+02 -0.53627836527E+00  0.12957219615E+02  0.51100000000E-03 0. -1.
        -11    1    3    3    0    0  0.51747393553E+01  0.41372418982E+00  0.16057728849E+02  0.16876011115E+02  0.51100000000E-03 0.  1.
        -12    1    3    3    0    0  0.14773922027E+01  0.10814071710E+02  0.17583597632E+02  0.20695645444E+02  0.00000000000E+00 0.  1.
</event>
<event>
 7    1  0.6462830E-013  0.5052886E+02  0.7816164E-02  0.1300439E+00
        -11   -1    0    0    0    0  0.00000000000E+00  0.00000000000E+00  0.45593999997E+02  0.45594000000E+02  0.51100000000E-03 0. -1.
         11   -1    0    0    0    0 -0.00000000000E+00 -0.00000000000E+00 -0.45593999997E+02  0.45594000000E+02  0.51100000000E-03 0.  1.
    9900012    2    1    2    0    0 -0.40161840203E+02 -0.15596619425E+01 -0.61449075609E+01  0.50528857820E+02  0.29999993830E+02 0.  0.
         12    1    1    2    0    0  0.40161840203E+02  0.15596619425E+01  0.61449075609E+01  0.40659142180E+02  0.00000000000E+00 0. -1.
         11    1    3    3    0    0 -0.47737353563E+01 -0.18080325699E+01  0.89452139512E+01  0.10299241910E+02  0.51100000000E-03 0. -1.
        -11    1    3    3    0    0 -0.11804602412E+02  0.25201532629E+01  0.12661923062E+00  0.12071281757E+02  0.51100000000E-03 0.  1.
         12    1    3    3    0    0 -0.23583502435E+02 -0.22717826356E+01 -0.15216740743E+02  0.28158334153E+02  0.00000000000E+00 0. -1.
</event>
<event>
 7    1  0.6462830E-013  0.5052888E+02  0.7816164E-02  0.1300439E+00
        -11   -1    0    0    0    0  0.00000000000E+00  0.00000000000E+00  0.45593999997E+02  0.45594000000E+02  0.51100000000E-03 0.  1.
         11   -1    0    0    0    0 -0.00000000000E+00 -0.00000000000E+00 -0.45593999997E+02  0.45594000000E+02  0.51100000000E-03 0. -1.
    9900012    2    1    2    0    0  0.16914559121E+02  0.20581517171E+02  0.30715846088E+02  0.50528876052E+02  0.30000049248E+02 0.  0.
         12    1    1    2    0    0 -0.16914559121E+02 -0.20581517171E+02 -0.30715846088E+02  0.40659123948E+02  0.00000000000E+00 0. -1.
         11    1    3    3    0    0  0.18921254436E+01  0.15027357044E+02  0.16573171196E+02  0.22451538971E+02  0.51100000000E-03 0. -1.
        -11    1    3    3    0    0 -0.31641017584E+00 -0.38194257936E+01 -0.16278299996E+01  0.41638875538E+01  0.51100000000E-03 0.  1.
        -12    1    3    3    0    0  0.15338843853E+02  0.93735859205E+01  0.15770504892E+02  0.23913449527E+02  0.00000000000E+00 0.  1.
</event>
<event>
 7    1  0.6462830E-013  0.5052885E+02  0.7816164E-02  0.1300439E+00
        -11   -1    0    0    0    0  0.00000000000E+00  0.00000000000E+00  0.45593999997E+02  0.45594000000E+02  0.51100000000E-03 0.  1.
         11   -1    0    0    0    0 -0.00000000000E+00 -0.00000000000E+00 -0.45593999997E+02  0.45594000000E+02  0.51100000000E-03 0. -1.
    9900012    2    1    2    0    0 -0.40191685274E+02 -0.61421488854E+01  0.26310113005E+00  0.50528846291E+02  0.29999958787E+02 0.  0.
         12    1    1    2    0    0  0.40191685274E+02  0.61421488854E+01 -0.26310113005E+00  0.40659153709E+02  0.00000000000E+00 0. -1.
         11    1    3    3    0    0 -0.23388991273E+02 -0.15591880233E+02 -0.35074458702E+01  0.28327615833E+02  0.51100000000E-03 0. -1.
        -11    1    3    3    0    0 -0.66164585874E+01  0.56198267775E+01 -0.32289994235E+01  0.92620955936E+01  0.51100000000E-03 0.  1.
        -12    1    3    3    0    0 -0.10186235414E+02  0.38299045701E+01  0.69995464238E+01  0.12939134865E+02  0.00000000000E+00 0.  1.
</event>
<event>
 7    1  0.6462830E-013  0.5052886E+02  0.7816164E-02  0.1300439E+00
        -11   -1    0    0    0    0  0.00000000000E+00  0.00000000000E+00  0.45593999997E+02  0.45594000000E+02  0.51100000000E-03 0.  1.
         11   -1    0    0    0    0 -0.00000000000E+00 -0.00000000000E+00 -0.45593999997E+02  0.45594000000E+02  0.51100000000E-03 0. -1.
    9900012    2    1    2    0    0 -0.17109852947E+02 -0.36604409827E+02  0.45316143380E+01  0.50528863079E+02  0.30000009814E+02 0.  0.
         12    1    1    2    0    0  0.17109852947E+02  0.36604409827E+02 -0.45316143380E+01  0.40659136921E+02  0.00000000000E+00 0. -1.
         11    1    3    3    0    0 -0.99145428076E+01 -0.34255114043E+01  0.63161932435E+01  0.12244451185E+02  0.51100000000E-03 0.  1.
        -11    1    3    3    0    0 -0.11927037740E+02 -0.29342405381E+02  0.75937949283E+00  0.31682923480E+02  0.51100000000E-03 0. -1.
         12    1    3    3    0    0  0.47317276002E+01 -0.38364930423E+01 -0.25439583983E+01  0.66014884139E+01  0.00000000000E+00 0. -1.
</event>
<event>
 7    1  0.6462830E-013  0.5052886E+02  0.7816164E-02  0.1300439E+00
        -11   -1    0    0    0    0  0.00000000000E+00  0.00000000000E+00  0.45593999997E+02  0.45594000000E+02  0.51100000000E-03 0. -1.
         11   -1    0    0    0    0 -0.00000000000E+00 -0.00000000000E+00 -0.45593999997E+02  0.45594000000E+02  0.51100000000E-03 0.  1.
    9900012    2    1    2    0    0 -0.17118886189E+01  0.40127313676E+02 -0.63272217552E+01  0.50528860798E+02  0.30000002883E+02 0.  0.
         12    1    1    2    0    0  0.17118886189E+01 -0.40127313676E+02  0.63272217552E+01  0.40659139202E+02  0.00000000000E+00 0. -1.
         11    1    3    3    0    0  0.18522770329E+01  0.71173914647E+01  0.51132096493E+01  0.89572933773E+01  0.51100000000E-03 0. -1.
        -11    1    3    3    0    0  0.14743558166E+01 -0.16574336511E+01 -0.56431973408E+01  0.60635375706E+01  0.51100000000E-03 0.  1.
        -12    1    3    3    0    0 -0.50385214684E+01  0.34667355862E+02 -0.57972340636E+01  0.35508029850E+02  0.00000000000E+00 0.  1.
</event>
<event>
 7    1  0.6462830E-013  0.5052888E+02  0.7816164E-02  0.1300439E+00
        -11   -1    0    0    0    0  0.00000000000E+00  0.00000000000E+00  0.45593999997E+02  0.45594000000E+02  0.51100000000E-03 0. -1.
         11   -1    0    0    0    0 -0.00000000000E+00 -0.00000000000E+00 -0.45593999997E+02  0.45594000000E+02  0.51100000000E-03 0.  1.
    9900012    2    1    2    0    0 -0.39836506173E+02 -0.77789041003E+01  0.23885711206E+01  0.50528882386E+02  0.30000068502E+02 0.  0.
         12    1    1    2    0    0  0.39836506173E+02  0.77789041003E+01 -0.23885711206E+01  0.40659117614E+02  0.00000000000E+00 0. -1.
         11    1    3    3    0    0 -0.28765373579E+02 -0.11130278671E+02  0.17150271700E+01  0.30891279334E+02  0.51100000000E-03 0.  1.
        -11    1    3    3    0    0 -0.11777183674E+02  0.39745116046E+01  0.62984150029E+01  0.13934447589E+02  0.51100000000E-03 0. -1.
         12    1    3    3    0    0  0.70605107975E+00 -0.62313703385E+00 -0.56248710523E+01  0.57031554639E+01  0.00000000000E+00 0. -1.
</event>
<event>
 7    1  0.6462830E-013  0.5052889E+02  0.7816164E-02  0.1300439E+00
        -11   -1    0    0    0    0  0.00000000000E+00  0.00000000000E+00  0.45593999997E+02  0.45594000000E+02  0.51100000000E-03 0.  1.
         11   -1    0    0    0    0 -0.00000000000E+00 -0.00000000000E+00 -0.45593999997E+02  0.45594000000E+02  0.51100000000E-03 0. -1.
    9900012    2    1    2    0    0 -0.10641165111E+02 -0.19257765831E+02  0.34191622845E+02  0.50528892625E+02  0.30000099624E+02 0.  0.
         12    1    1    2    0    0  0.10641165111E+02  0.19257765831E+02 -0.34191622845E+02  0.40659107375E+02  0.00000000000E+00 0. -1.
         11    1    3    3    0    0  0.19633319483E+01  0.24985214268E+01  0.54587597801E+01  0.63162758218E+01  0.51100000000E-03 0. -1.
        -11    1    3    3    0    0  0.13829465127E+01 -0.14504981261E+02  0.23425605769E+02  0.27587425185E+02  0.51100000000E-03 0.  1.
         12    1    3    3    0    0 -0.13987443572E+02 -0.72513059970E+01  0.53072572965E+01  0.16625191619E+02  0.00000000000E+00 0. -1.
</event>
<event>
 7    1  0.6462830E-013  0.5052886E+02  0.7816164E-02  0.1300439E+00
        -11   -1    0    0    0    0  0.00000000000E+00  0.00000000000E+00  0.45593999997E+02  0.45594000000E+02  0.51100000000E-03 0.  1.
         11   -1    0    0    0    0 -0.00000000000E+00 -0.00000000000E+00 -0.45593999997E+02  0.45594000000E+02  0.51100000000E-03 0. -1.
    9900012    2    1    2    0    0 -0.60900834756E+01  0.16638941352E+02  0.36595382297E+02  0.50528862140E+02  0.30000006960E+02 0.  0.
         12    1    1    2    0    0  0.60900834756E+01 -0.16638941352E+02 -0.36595382297E+02  0.40659137860E+02  0.00000000000E+00 0. -1.
         11    1    3    3    0    0 -0.19767611389E+01 -0.29061416692E-01 -0.28168419776E+01  0.34413700984E+01  0.51100000000E-03 0. -1.
        -11    1    3    3    0    0  0.66427552585E+01  0.64440206221E+01  0.23855639923E+02  0.25587949421E+02  0.51100000000E-03 0.  1.
        -12    1    3    3    0    0 -0.10756077595E+02  0.10223982147E+02  0.15556584352E+02  0.21499542620E+02  0.00000000000E+00 0.  1.
</event>
<event>
 7    1  0.6462830E-013  0.5052886E+02  0.7816164E-02  0.1300439E+00
        -11   -1    0    0    0    0  0.00000000000E+00  0.00000000000E+00  0.45593999997E+02  0.45594000000E+02  0.51100000000E-03 0.  1.
         11   -1    0    0    0    0 -0.00000000000E+00 -0.00000000000E+00 -0.45593999997E+02  0.45594000000E+02  0.51100000000E-03 0. -1.
    9900012    2    1    2    0    0 -0.34944506268E+02  0.19344371542E+02  0.76054319930E+01  0.50528858045E+02  0.29999994514E+02 0.  0.
         12    1    1    2    0    0  0.34944506268E+02 -0.19344371542E+02 -0.76054319930E+01  0.40659141955E+02  0.00000000000E+00 0. -1.
         11    1    3    3    0    0 -0.42032975201E+01 -0.21302848131E+01 -0.77166313122E+01  0.90416935636E+01  0.51100000000E-03 0. -1.
        -11    1    3    3    0    0 -0.52005666517E+01  0.58764630288E+01  0.67652519574E+01  0.10360856409E+02  0.51100000000E-03 0.  1.
        -12    1    3    3    0    0 -0.25540642097E+02  0.15598193327E+02  0.85568113478E+01  0.31126308072E+02  0.00000000000E+00 0.  1.
</event>
<event>
 7    1  0.6462830E-013  0.5052886E+02  0.7816164E-02  0.1300439E+00
        -11   -1    0    0    0    0  0.00000000000E+00  0.00000000000E+00  0.45593999997E+02  0.45594000000E+02  0.51100000000E-03 0. -1.
         11   -1    0    0    0    0 -0.00000000000E+00 -0.00000000000E+00 -0.45593999997E+02  0.45594000000E+02  0.51100000000E-03 0.  1.
    9900012    2    1    2    0    0  0.29896322903E+02 -0.66065813992E+00 -0.27548853936E+02  0.50528856557E+02  0.29999989992E+02 0.  0.
         12    1    1    2    0    0 -0.29896322903E+02  0.66065813992E+00  0.27548853936E+02  0.40659143443E+02  0.00000000000E+00 0. -1.
         11    1    3    3    0    0 -0.35347408015E+01 -0.70875817396E-01 -0.20608710894E+01  0.40922617003E+01  0.51100000000E-03 0. -1.
        -11    1    3    3    0    0  0.19120822389E+02 -0.10100204174E+02 -0.13687019030E+02  0.25592078137E+02  0.51100000000E-03 0.  1.
        -12    1    3    3    0    0  0.14310241315E+02  0.95104218512E+01 -0.11800963817E+02  0.20844516720E+02  0.00000000000E+00 0.  1.
</event>
<event>
 7    1  0.6462830E-013  0.5052886E+02  0.7816164E-02  0.1300439E+00
        -11   -1    0    0    0    0  0.00000000000E+00  0.00000000000E+00  0.45593999997E+02  0.45594000000E+02  0.51100000000E-03 0.  1.
         11   -1    0    0    0    0 -0.00000000000E+00 -0.00000000000E+00 -0.45593999997E+02  0.45594000000E+02  0.51100000000E-03 0. -1.
    9900012    2    1    2    0    0 -0.25810918931E+02 -0.14960977926E+02 -0.27624837400E+02  0.50528855421E+02  0.29999986537E+02 0.  0.
         12    1    1    2    0    0  0.25810918931E+02  0.14960977926E+02  0.27624837400E+02  0.40659144579E+02  0.00000000000E+00 0. -1.
         11    1    3    3    0    0 -0.33504568433E+00 -0.52522321853E+01 -0.10250034450E+02  0.11522213547E+02  0.51100000000E-03 0. -1.
        -11    1    3    3    0    0 -0.11266071000E+02 -0.48069258277E+01  0.39914514060E+01  0.12882646323E+02  0.51100000000E-03 0.  1.
         12    1    3    3    0    0 -0.14209802247E+02 -0.49018199130E+01 -0.21366254356E+02  0.26123995551E+02  0.00000000000E+00 0. -1.
</event>
<event>
 7    1  0.6462830E-013  0.5052887E+02  0.7816164E-02  0.1300439E+00
        -11   -1    0    0    0    0  0.00000000000E+00  0.00000000000E+00  0.45593999997E+02  0.45594000000E+02  0.51100000000E-03 0.  1.
         11   -1    0    0    0    0 -0.00000000000E+00 -0.00000000000E+00 -0.45593999997E+02  0.45594000000E+02  0.51100000000E-03 0. -1.
    9900012    2    1    2    0    0 -0.37487528755E+01  0.22859795420E+02  0.33414691725E+02  0.50528867965E+02  0.30000024667E+02 0.  0.
         12    1    1    2    0    0  0.37487528755E+01 -0.22859795420E+02 -0.33414691725E+02  0.40659132035E+02  0.00000000000E+00 0. -1.
         11    1    3    3    0    0 -0.74552130705E+01  0.13617050334E+01  0.12844831908E+02  0.14913891160E+02  0.51100000000E-03 0. -1.
        -11    1    3    3    0    0  0.99955064742E+01  0.57037268686E+01  0.11811735155E+02  0.16491201821E+02  0.51100000000E-03 0.  1.
         12    1    3    3    0    0 -0.62890462792E+01  0.15794363518E+02  0.87581246613E+01  0.19123774984E+02  0.00000000000E+00 0. -1.
</event>
<event>
 7    1  0.6462830E-013  0.5052886E+02  0.7816164E-02  0.1300439E+00
        -11   -1    0    0    0    0  0.00000000000E+00  0.00000000000E+00  0.45593999997E+02  0.45594000000E+02  0.51100000000E-03 0.  1.
         11   -1    0    0    0    0 -0.00000000000E+00 -0.00000000000E+00 -0.45593999997E+02  0.45594000000E+02  0.51100000000E-03 0. -1.
    9900012    2    1    2    0    0  0.36769282892E+02 -0.15650480421E+02  0.74998607325E+01  0.50528860648E+02  0.30000002427E+02 0.  0.
         12    1    1    2    0    0 -0.36769282892E+02  0.15650480421E+02 -0.74998607325E+01  0.40659139352E+02  0.00000000000E+00 0. -1.
         11    1    3    3    0    0  0.19840699901E+02 -0.72262391212E+01  0.42114396943E+01  0.21531561229E+02  0.51100000000E-03 0. -1.
        -11    1    3    3    0    0  0.15787675870E+02 -0.92325209577E+01 -0.62724109849E+01  0.19334769004E+02  0.51100000000E-03 0.  1.
         12    1    3    3    0    0  0.11409071215E+01  0.80827965811E+00  0.95608320230E+01  0.96625304159E+01  0.00000000000E+00 0. -1.
</event>
<event>
 7    1  0.6462830E-013  0.5052885E+02  0.7816164E-02  0.1300439E+00
        -11   -1    0    0    0    0  0.00000000000E+00  0.00000000000E+00  0.45593999997E+02  0.45594000000E+02  0.51100000000E-03 0.  1.
         11   -1    0    0    0    0 -0.00000000000E+00 -0.00000000000E+00 -0.45593999997E+02  0.45594000000E+02  0.51100000000E-03 0. -1.
    9900012    2    1    2    0    0 -0.30687256711E+02 -0.11943919736E+02  0.23849567511E+02  0.50528845883E+02  0.29999957546E+02 0.  0.
         12    1    1    2    0    0  0.30687256711E+02  0.11943919736E+02 -0.23849567511E+02  0.40659154117E+02  0.00000000000E+00 0. -1.
         11    1    3    3    0    0 -0.17345073915E+02 -0.56859149431E+01  0.15352300698E+02  0.23851087079E+02  0.51100000000E-03 0. -1.
        -11    1    3    3    0    0 -0.44321224809E+01  0.64462330895E+01  0.79460476615E+01  0.11150663856E+02  0.51100000000E-03 0.  1.
         12    1    3    3    0    0 -0.89100603144E+01 -0.12704237882E+02  0.55121915105E+00  0.15527094948E+02  0.00000000000E+00 0. -1.
</event>
<event>
 7    1  0.6462830E-013  0.5052886E+02  0.7816164E-02  0.1300439E+00
        -11   -1    0    0    0    0  0.00000000000E+00  0.00000000000E+00  0.45593999997E+02  0.45594000000E+02  0.51100000000E-03 0.  1.
         11   -1    0    0    0    0 -0.00000000000E+00 -0.00000000000E+00 -0.45593999997E+02  0.45594000000E+02  0.51100000000E-03 0. -1.
    9900012    2    1    2    0    0 -0.30926749697E+02  0.55941830568E+01  0.25795482738E+02  0.50528860061E+02  0.30000000641E+02 0.  0.
         12    1    1    2    0    0  0.30926749697E+02 -0.55941830568E+01 -0.25795482738E+02  0.40659139939E+02  0.00000000000E+00 0. -1.
         11    1    3    3    0    0 -0.18783730736E+02  0.50373173773E+01  0.60008586197E+01  0.20352233567E+02  0.51100000000E-03 0.  1.
        -11    1    3    3    0    0 -0.45095796933E+01  0.35428630803E+01  0.21109970169E+02  0.21875077797E+02  0.51100000000E-03 0. -1.
         12    1    3    3    0    0 -0.76334392676E+01 -0.29859974008E+01 -0.13153460514E+01  0.83015486968E+01  0.00000000000E+00 0. -1.
</event>
<event>
 7    1  0.6462830E-013  0.5052886E+02  0.7816164E-02  0.1300439E+00
        -11   -1    0    0    0    0  0.00000000000E+00  0.00000000000E+00  0.45593999997E+02  0.45594000000E+02  0.51100000000E-03 0.  1.
         11   -1    0    0    0    0 -0.00000000000E+00 -0.00000000000E+00 -0.45593999997E+02  0.45594000000E+02  0.51100000000E-03 0. -1.
    9900012    2    1    2    0    0  0.26673937553E+02 -0.11640247978E+02  0.28393156104E+02  0.50528860423E+02  0.30000001741E+02 0.  0.
         12    1    1    2    0    0 -0.26673937553E+02  0.11640247978E+02 -0.28393156104E+02  0.40659139577E+02  0.00000000000E+00 0. -1.
         11    1    3    3    0    0 -0.71994123539E+00 -0.60310663176E+01  0.64133948136E+01  0.88331030565E+01  0.51100000000E-03 0. -1.
        -11    1    3    3    0    0  0.26368676370E+02 -0.32121287204E+01  0.25826322171E+02  0.37048937658E+02  0.51100000000E-03 0.  1.
         12    1    3    3    0    0  0.10252024189E+01 -0.23970529404E+01 -0.38465608805E+01  0.46468197088E+01  0.00000000000E+00 0. -1.
</event>
<event>
 7    1  0.6462830E-013  0.5052885E+02  0.7816164E-02  0.1300439E+00
        -11   -1    0    0    0    0  0.00000000000E+00  0.00000000000E+00  0.45593999997E+02  0.45594000000E+02  0.51100000000E-03 0.  1.
         11   -1    0    0    0    0 -0.00000000000E+00 -0.00000000000E+00 -0.45593999997E+02  0.45594000000E+02  0.51100000000E-03 0. -1.
    9900012    2    1    2    0    0  0.15920369749E+02  0.34566415525E+02  0.14313309979E+02  0.50528854685E+02  0.29999984301E+02 0.  0.
         12    1    1    2    0    0 -0.15920369749E+02 -0.34566415525E+02 -0.14313309979E+02  0.40659145315E+02  0.00000000000E+00 0. -1.
         11    1    3    3    0    0  0.56815448973E+01  0.24878193600E+02 -0.89408597282E+00  0.25534366239E+02  0.51100000000E-03 0. -1.
        -11    1    3    3    0    0  0.52038312619E+01  0.12866293653E+02  0.10837127232E+02  0.17608654096E+02  0.51100000000E-03 0.  1.
        -12    1    3    3    0    0  0.50349935898E+01 -0.31780717290E+01  0.43702687205E+01  0.73858343506E+01  0.00000000000E+00 0.  1.
</event>
<event>
 7    1  0.1178604E-012  0.5052885E+02  0.7816164E-02  0.1300439E+00
        -11   -1    0    0    0    0  0.00000000000E+00  0.00000000000E+00  0.45593999997E+02  0.45594000000E+02  0.51100000000E-03 0.  1.
         11   -1    0    0    0    0 -0.00000000000E+00 -0.00000000000E+00 -0.45593999997E+02  0.45594000000E+02  0.51100000000E-03 0. -1.
    9900012    2    1    2    0    0 -0.34358512432E+02  0.13279934549E+02  0.17213426400E+02  0.50528854822E+02  0.29999984718E+02 0.  0.
         12    1    1    2    0    0  0.34358512432E+02 -0.13279934549E+02 -0.17213426400E+02  0.40659145178E+02  0.00000000000E+00 0. -1.
         11    1    3    3    0    0 -0.15332684088E+02 -0.49496502409E+00 -0.23653542417E+01  0.15521955182E+02  0.51100000000E-03 0. -1.
        -11    1    3    3    0    0 -0.21814910212E+02  0.10660929718E+02  0.13973349567E+02  0.28014286148E+02  0.51100000000E-03 0.  1.
         12    1    3    3    0    0  0.27890818679E+01  0.31139698547E+01  0.56054310752E+01  0.69926134928E+01  0.00000000000E+00 0. -1.
</event>
<event>
 7    1  0.6462830E-013  0.5052887E+02  0.7816164E-02  0.1300439E+00
        -11   -1    0    0    0    0  0.00000000000E+00  0.00000000000E+00  0.45593999997E+02  0.45594000000E+02  0.51100000000E-03 0. -1.
         11   -1    0    0    0    0 -0.00000000000E+00 -0.00000000000E+00 -0.45593999997E+02  0.45594000000E+02  0.51100000000E-03 0.  1.
    9900012    2    1    2    0    0  0.36602789640E+02  0.16918898785E+02 -0.52107217255E+01  0.50528868598E+02  0.30000026589E+02 0.  0.
         12    1    1    2    0    0 -0.36602789640E+02 -0.16918898785E+02  0.52107217255E+01  0.40659131402E+02  0.00000000000E+00 0. -1.
         11    1    3    3    0    0  0.89724614043E+01  0.19906546324E+01  0.64611268167E+01  0.11234497297E+02  0.51100000000E-03 0. -1.
        -11    1    3    3    0    0  0.19373496894E+01 -0.16217620572E+01 -0.81470780180E+01  0.85298485615E+01  0.51100000000E-03 0.  1.
         12    1    3    3    0    0  0.25692978546E+02  0.16550006209E+02 -0.35247705243E+01  0.30764522739E+02  0.00000000000E+00 0. -1.
</event>
<event>
 7    1  0.6462830E-013  0.5052886E+02  0.7816164E-02  0.1300439E+00
        -11   -1    0    0    0    0  0.00000000000E+00  0.00000000000E+00  0.45593999997E+02  0.45594000000E+02  0.51100000000E-03 0. -1.
         11   -1    0    0    0    0 -0.00000000000E+00 -0.00000000000E+00 -0.45593999997E+02  0.45594000000E+02  0.51100000000E-03 0.  1.
    9900012    2    1    2    0    0 -0.30533288432E+02  0.18578613568E+02 -0.19383482963E+02  0.50528855932E+02  0.29999988090E+02 0.  0.
         12    1    1    2    0    0  0.30533288432E+02 -0.18578613568E+02  0.19383482963E+02  0.40659144068E+02  0.00000000000E+00 0. -1.
         11    1    3    3    0    0 -0.16321422742E+02 -0.19023848854E+00 -0.95390651263E+01  0.18905522864E+02  0.51100000000E-03 0. -1.
        -11    1    3    3    0    0 -0.82262247111E+01  0.60810963938E+01 -0.13677841842E+02  0.17080218502E+02  0.51100000000E-03 0.  1.
         12    1    3    3    0    0 -0.59856409786E+01  0.12687755663E+02  0.38334240051E+01  0.14543114566E+02  0.00000000000E+00 0. -1.
</event>
<event>
 7    1  0.6462830E-013  0.5052886E+02  0.7816164E-02  0.1300439E+00
        -11   -1    0    0    0    0  0.00000000000E+00  0.00000000000E+00  0.45593999997E+02  0.45594000000E+02  0.51100000000E-03 0.  1.
         11   -1    0    0    0    0 -0.00000000000E+00 -0.00000000000E+00 -0.45593999997E+02  0.45594000000E+02  0.51100000000E-03 0. -1.
    9900012    2    1    2    0    0 -0.19080162542E+02  0.34927761100E+02  0.83165372979E+01  0.50528857231E+02  0.29999992039E+02 0.  0.
         12    1    1    2    0    0  0.19080162542E+02 -0.34927761100E+02 -0.83165372979E+01  0.40659142769E+02  0.00000000000E+00 0. -1.
         11    1    3    3    0    0 -0.78631144443E+01  0.80335879199E+01 -0.88006911706E+01  0.14276528604E+02  0.51100000000E-03 0. -1.
        -11    1    3    3    0    0 -0.66394791911E+01  0.24697955781E+01  0.32310828441E+01  0.77860433297E+01  0.51100000000E-03 0.  1.
         12    1    3    3    0    0 -0.45775689063E+01  0.24424377602E+02  0.13886145624E+02  0.28466285298E+02  0.00000000000E+00 0. -1.
</event>
<event>
 7    1  0.6462830E-013  0.5052885E+02  0.7816164E-02  0.1300439E+00
        -11   -1    0    0    0    0  0.00000000000E+00  0.00000000000E+00  0.45593999997E+02  0.45594000000E+02  0.51100000000E-03 0.  1.
         11   -1    0    0    0    0 -0.00000000000E+00 -0.00000000000E+00 -0.45593999997E+02  0.45594000000E+02  0.51100000000E-03 0. -1.
    9900012    2    1    2    0    0  0.79738990262E+01 -0.23309085310E+01  0.39801389955E+02  0.50528845525E+02  0.29999956458E+02 0.  0.
         12    1    1    2    0    0 -0.79738990262E+01  0.23309085310E+01 -0.39801389955E+02  0.40659154475E+02  0.00000000000E+00 0. -1.
         11    1    3    3    0    0  0.78704399492E+00  0.76274485385E+00  0.10236149131E+00  0.11007706837E+01  0.51100000000E-03 0. -1.
        -11    1    3    3    0    0 -0.66171162864E+01  0.89443679818E+01  0.15457062981E+02  0.19044913831E+02  0.51100000000E-03 0.  1.
         12    1    3    3    0    0  0.13803971318E+02 -0.12038021367E+02  0.24241965482E+02  0.30383161011E+02  0.00000000000E+00 0. -1.
</event>
<event>
 7    1  0.6462830E-013  0.5052886E+02  0.7816164E-02  0.1300439E+00
        -11   -1    0    0    0    0  0.00000000000E+00  0.00000000000E+00  0.45593999997E+02  0.45594000000E+02  0.51100000000E-03 0. -1.
         11   -1    0    0    0    0 -0.00000000000E+00 -0.00000000000E+00 -0.45593999997E+02  0.45594000000E+02  0.51100000000E-03 0.  1.
    9900012    2    1    2    0    0 -0.17320276379E+02 -0.17671650920E+02 -0.32262767592E+02  0.50528863354E+02  0.30000010652E+02 0.  0.
         12    1    1    2    0    0  0.17320276379E+02  0.17671650920E+02  0.32262767592E+02  0.40659136646E+02  0.00000000000E+00 0. -1.
         11    1    3    3    0    0 -0.21588628713E+01 -0.28816248102E+01 -0.17635214296E+02  0.17999034251E+02  0.51100000000E-03 0. -1.
        -11    1    3    3    0    0  0.67605269831E+00 -0.11731185935E+02 -0.17301256149E+01  0.11877335795E+02  0.51100000000E-03 0.  1.
         12    1    3    3    0    0 -0.15837466206E+02 -0.30588401744E+01 -0.12897427682E+02  0.20652493308E+02  0.00000000000E+00 0. -1.
</event>
<event>
 7    1  0.6462830E-013  0.5052887E+02  0.7816164E-02  0.1300439E+00
        -11   -1    0    0    0    0  0.00000000000E+00  0.00000000000E+00  0.45593999997E+02  0.45594000000E+02  0.51100000000E-03 0.  1.
         11   -1    0    0    0    0 -0.00000000000E+00 -0.00000000000E+00 -0.45593999997E+02  0.45594000000E+02  0.51100000000E-03 0. -1.
    9900012    2    1    2    0    0  0.36176345020E+02 -0.16408131048E+02  0.86723964861E+01  0.50528866164E+02  0.30000019191E+02 0.  0.
         12    1    1    2    0    0 -0.36176345020E+02  0.16408131048E+02 -0.86723964861E+01  0.40659133836E+02  0.00000000000E+00 0. -1.
         11    1    3    3    0    0  0.96856351658E+01  0.52554409441E+01 -0.24422578384E+01  0.11286975312E+02  0.51100000000E-03 0. -1.
        -11    1    3    3    0    0  0.77149382547E+01 -0.33054311306E+01  0.98656752361E+01  0.12952902970E+02  0.51100000000E-03 0.  1.
         12    1    3    3    0    0  0.18775771600E+02 -0.18358140862E+02  0.12489790884E+01  0.26288987881E+02  0.00000000000E+00 0. -1.
</event>
<event>
 7    1  0.6462830E-013  0.5052886E+02  0.7816164E-02  0.1300439E+00
        -11   -1    0    0    0    0  0.00000000000E+00  0.00000000000E+00  0.45593999997E+02  0.45594000000E+02  0.51100000000E-03 0.  1.
         11   -1    0    0    0    0 -0.00000000000E+00 -0.00000000000E+00 -0.45593999997E+02  0.45594000000E+02  0.51100000000E-03 0. -1.
    9900012    2    1    2    0    0 -0.12766895230E+02  0.35688423750E+02  0.14714236717E+02  0.50528856308E+02  0.29999989234E+02 0.  0.
         12    1    1    2    0    0  0.12766895230E+02 -0.35688423750E+02 -0.14714236717E+02  0.40659143692E+02  0.00000000000E+00 0. -1.
         11    1    3    3    0    0 -0.80258025977E+01  0.93616489507E+00  0.40462870065E+01  0.90367223510E+01  0.51100000000E-03 0. -1.
        -11    1    3    3    0    0 -0.19314632168E+00  0.85092733701E+01  0.12129524836E+02  0.14817908482E+02  0.51100000000E-03 0.  1.
         12    1    3    3    0    0 -0.45479463104E+01  0.26242985485E+02 -0.14615751255E+01  0.26674225475E+02  0.00000000000E+00 0. -1.
</event>
<event>
 7    1  0.6462830E-013  0.5052885E+02  0.7816164E-02  0.1300439E+00
        -11   -1    0    0    0    0  0.00000000000E+00  0.00000000000E+00  0.45593999997E+02  0.45594000000E+02  0.51100000000E-03 0.  1.
         11   -1    0    0    0    0 -0.00000000000E+00 -0.00000000000E+00 -0.45593999997E+02  0.45594000000E+02  0.51100000000E-03 0. -1.
    9900012    2    1    2    0    0 -0.37228941997E+02 -0.13441007593E+02  0.93011446417E+01  0.50528854670E+02  0.29999984256E+02 0.  0.
         12    1    1    2    0    0  0.37228941997E+02  0.13441007593E+02 -0.93011446417E+01  0.40659145330E+02  0.00000000000E+00 0. -1.
         11    1    3    3    0    0 -0.17173488462E+02 -0.85475429693E+01  0.10706273651E+02  0.21968465866E+02  0.51100000000E-03 0. -1.
        -11    1    3    3    0    0 -0.15586739316E+02  0.38508280581E+01  0.50239367966E+01  0.16823057404E+02  0.51100000000E-03 0.  1.
         12    1    3    3    0    0 -0.44687142190E+01 -0.87442926814E+01 -0.64290658054E+01  0.11737331400E+02  0.00000000000E+00 0. -1.
</event>
<event>
 7    1  0.6462830E-013  0.5052888E+02  0.7816164E-02  0.1300439E+00
        -11   -1    0    0    0    0  0.00000000000E+00  0.00000000000E+00  0.45593999997E+02  0.45594000000E+02  0.51100000000E-03 0.  1.
         11   -1    0    0    0    0 -0.00000000000E+00 -0.00000000000E+00 -0.45593999997E+02  0.45594000000E+02  0.51100000000E-03 0. -1.
    9900012    2    1    2    0    0 -0.98213438534E+01  0.33784329097E+02  0.20379516192E+02  0.50528875958E+02  0.30000048962E+02 0.  0.
         12    1    1    2    0    0  0.98213438534E+01 -0.33784329097E+02 -0.20379516192E+02  0.40659124042E+02  0.00000000000E+00 0. -1.
         11    1    3    3    0    0 -0.11317896858E+02  0.24318401828E+02  0.13938844514E+02  0.30228642765E+02  0.51100000000E-03 0. -1.
        -11    1    3    3    0    0  0.63126558255E+01  0.12182716947E+02  0.45069935541E+01  0.14442340771E+02  0.51100000000E-03 0.  1.
         12    1    3    3    0    0 -0.48161028210E+01 -0.27167896783E+01  0.19336781244E+01  0.58578924219E+01  0.00000000000E+00 0. -1.
</event>
<event>
 7    1  0.6462830E-013  0.5052887E+02  0.7816164E-02  0.1300439E+00
        -11   -1    0    0    0    0  0.00000000000E+00  0.00000000000E+00  0.45593999997E+02  0.45594000000E+02  0.51100000000E-03 0.  1.
         11   -1    0    0    0    0 -0.00000000000E+00 -0.00000000000E+00 -0.45593999997E+02  0.45594000000E+02  0.51100000000E-03 0. -1.
    9900012    2    1    2    0    0  0.62240992820E+01 -0.86984937995E+00  0.40170495802E+02  0.50528870855E+02  0.30000033452E+02 0.  0.
         12    1    1    2    0    0 -0.62240992820E+01  0.86984937995E+00 -0.40170495802E+02  0.40659129145E+02  0.00000000000E+00 0. -1.
         11    1    3    3    0    0  0.33401033168E+01 -0.87742629311E+00  0.17410099499E+01  0.38674646700E+01  0.51100000000E-03 0. -1.
        -11    1    3    3    0    0 -0.44003326313E+01 -0.21550489343E+01  0.38747610963E+02  0.39056171327E+02  0.51100000000E-03 0.  1.
        -12    1    3    3    0    0  0.72843285965E+01  0.21626258474E+01 -0.31812511050E+00  0.76052348579E+01  0.00000000000E+00 0.  1.
</event>
<event>
 7    1  0.6462830E-013  0.5052886E+02  0.7816164E-02  0.1300439E+00
        -11   -1    0    0    0    0  0.00000000000E+00  0.00000000000E+00  0.45593999997E+02  0.45594000000E+02  0.51100000000E-03 0.  1.
         11   -1    0    0    0    0 -0.00000000000E+00 -0.00000000000E+00 -0.45593999997E+02  0.45594000000E+02  0.51100000000E-03 0. -1.
    9900012    2    1    2    0    0  0.81597531168E+01  0.39012595606E+02  0.80375114657E+01  0.50528858624E+02  0.29999996274E+02 0.  0.
         12    1    1    2    0    0 -0.81597531168E+01 -0.39012595606E+02 -0.80375114657E+01  0.40659141376E+02  0.00000000000E+00 0. -1.
         11    1    3    3    0    0 -0.36689713331E+01  0.14532711033E+02  0.94648013655E+00  0.15018550713E+02  0.51100000000E-03 0.  1.
        -11    1    3    3    0    0  0.10271595379E+02  0.22497787390E+02 -0.31792957577E+01  0.24935196627E+02  0.51100000000E-03 0. -1.
         12    1    3    3    0    0  0.15571290711E+01  0.19820971832E+01  0.10270327087E+02  0.10575111284E+02  0.00000000000E+00 0. -1.
</event>
<event>
 7    1  0.6462830E-013  0.5052885E+02  0.7816164E-02  0.1300439E+00
        -11   -1    0    0    0    0  0.00000000000E+00  0.00000000000E+00  0.45593999997E+02  0.45594000000E+02  0.51100000000E-03 0.  1.
         11   -1    0    0    0    0 -0.00000000000E+00 -0.00000000000E+00 -0.45593999997E+02  0.45594000000E+02  0.51100000000E-03 0. -1.
    9900012    2    1    2    0    0  0.11124579237E+02 -0.21770645145E+02  0.32487679121E+02  0.50528849149E+02  0.29999967474E+02 0.  0.
         12    1    1    2    0    0 -0.11124579237E+02  0.21770645145E+02 -0.32487679121E+02  0.40659150851E+02  0.00000000000E+00 0. -1.
         11    1    3    3    0    0 -0.23453412092E+01 -0.71004715443E+00 -0.13421152012E+01  0.27939337543E+01  0.51100000000E-03 0. -1.
        -11    1    3    3    0    0  0.99749151705E+00 -0.13725311406E+02  0.29627432718E+02  0.32667475144E+02  0.51100000000E-03 0.  1.
         12    1    3    3    0    0  0.12472428930E+02 -0.73352865844E+01  0.42023616040E+01  0.15067440251E+02  0.00000000000E+00 0. -1.
</event>
<event>
 7    1  0.6462830E-013  0.5052886E+02  0.7816164E-02  0.1300439E+00
        -11   -1    0    0    0    0  0.00000000000E+00  0.00000000000E+00  0.45593999997E+02  0.45594000000E+02  0.51100000000E-03 0. -1.
         11   -1    0    0    0    0 -0.00000000000E+00 -0.00000000000E+00 -0.45593999997E+02  0.45594000000E+02  0.51100000000E-03 0.  1.
    9900012    2    1    2    0    0  0.13736469427E+02  0.38122434415E+02 -0.33399740586E+01  0.50528855583E+02  0.29999987029E+02 0.  0.
         12    1    1    2    0    0 -0.13736469427E+02 -0.38122434415E+02  0.33399740586E+01  0.40659144417E+02  0.00000000000E+00 0. -1.
         11    1    3    3    0    0  0.31074904263E+01  0.15408723993E+02 -0.80727397592E+01  0.17670721528E+02  0.51100000000E-03 0. -1.
        -11    1    3    3    0    0  0.20345393365E+01  0.23239717131E+02  0.67243617869E+00  0.23338294139E+02  0.51100000000E-03 0.  1.
        -12    1    3    3    0    0  0.85944396642E+01 -0.52600670893E+00  0.40603295219E+01  0.95198399160E+01  0.00000000000E+00 0.  1.
</event>
<event>
 7    1  0.6462830E-013  0.5052881E+02  0.7816164E-02  0.1300439E+00
        -11   -1    0    0    0    0  0.00000000000E+00  0.00000000000E+00  0.45593999997E+02  0.45594000000E+02  0.51100000000E-03 0.  1.
         11   -1    0    0    0    0 -0.00000000000E+00 -0.00000000000E+00 -0.45593999997E+02  0.45594000000E+02  0.51100000000E-03 0. -1.
    9900012    2    1    2    0    0 -0.53470088302E+01  0.29728577986E+01  0.40196280573E+02  0.50528814582E+02  0.29999862404E+02 0.  0.
         12    1    1    2    0    0  0.53470088302E+01 -0.29728577986E+01 -0.40196280573E+02  0.40659185418E+02  0.00000000000E+00 0. -1.
         11    1    3    3    0    0  0.24776718561E+01  0.51065898322E+01  0.34045363015E+01  0.66186845543E+01  0.51100000000E-03 0. -1.
        -11    1    3    3    0    0 -0.10862082634E+01 -0.47975451494E+01 -0.13382536936E+01  0.50977653008E+01  0.51100000000E-03 0.  1.
         12    1    3    3    0    0 -0.67384724229E+01  0.26638131159E+01  0.38129997965E+02  0.38812364727E+02  0.00000000000E+00 0. -1.
</event>
<event>
 7    1  0.6462830E-013  0.5052886E+02  0.7816164E-02  0.1300439E+00
        -11   -1    0    0    0    0  0.00000000000E+00  0.00000000000E+00  0.45593999997E+02  0.45594000000E+02  0.51100000000E-03 0. -1.
         11   -1    0    0    0    0 -0.00000000000E+00 -0.00000000000E+00 -0.45593999997E+02  0.45594000000E+02  0.51100000000E-03 0.  1.
    9900012    2    1    2    0    0  0.20773697265E+02  0.24967248500E+02 -0.24459259478E+02  0.50528863635E+02  0.30000011506E+02 0.  0.
         12    1    1    2    0    0 -0.20773697265E+02 -0.24967248500E+02  0.24459259478E+02  0.40659136365E+02  0.00000000000E+00 0. -1.
         11    1    3    3    0    0 -0.62973938556E-01 -0.16488253301E+01 -0.20915951719E+01  0.26640873316E+01  0.51100000000E-03 0. -1.
        -11    1    3    3    0    0  0.22783276391E+02  0.19768233767E+02 -0.70547899430E+01  0.30977908431E+02  0.51100000000E-03 0.  1.
         12    1    3    3    0    0 -0.19466051878E+01  0.68478400630E+01 -0.15312874363E+02  0.16886867873E+02  0.00000000000E+00 0. -1.
</event>
<event>
 7    1  0.6462830E-013  0.5052886E+02  0.7816164E-02  0.1300439E+00
        -11   -1    0    0    0    0  0.00000000000E+00  0.00000000000E+00  0.45593999997E+02  0.45594000000E+02  0.51100000000E-03 0.  1.
         11   -1    0    0    0    0 -0.00000000000E+00 -0.00000000000E+00 -0.45593999997E+02  0.45594000000E+02  0.51100000000E-03 0. -1.
    9900012    2    1    2    0    0 -0.21267420429E+02 -0.10852378921E+02  0.32910313113E+02  0.50528855775E+02  0.29999987614E+02 0.  0.
         12    1    1    2    0    0  0.21267420429E+02  0.10852378921E+02 -0.32910313113E+02  0.40659144225E+02  0.00000000000E+00 0. -1.
         11    1    3    3    0    0 -0.48446447976E+01  0.36290605230E+01 -0.91066634951E+00  0.61212724948E+01  0.51100000000E-03 0. -1.
        -11    1    3    3    0    0 -0.14392707748E+02 -0.37008245002E+00  0.19051264282E+02  0.23879649670E+02  0.51100000000E-03 0.  1.
        -12    1    3    3    0    0 -0.20300678830E+01 -0.14111356994E+02  0.14769715180E+02  0.20527933610E+02  0.00000000000E+00 0.  1.
</event>
<event>
 7    1  0.6462830E-013  0.5052879E+02  0.7816164E-02  0.1300439E+00
        -11   -1    0    0    0    0  0.00000000000E+00  0.00000000000E+00  0.45593999997E+02  0.45594000000E+02  0.51100000000E-03 0. -1.
         11   -1    0    0    0    0 -0.00000000000E+00 -0.00000000000E+00 -0.45593999997E+02  0.45594000000E+02  0.51100000000E-03 0.  1.
    9900012    2    1    2    0    0  0.34652137133E+02  0.19673809270E+02  0.80834523385E+01  0.50528787258E+02  0.29999779350E+02 0.  0.
         12    1    1    2    0    0 -0.34652137133E+02 -0.19673809270E+02 -0.80834523385E+01  0.40659212742E+02  0.00000000000E+00 0. -1.
         11    1    3    3    0    0  0.11080653928E+02 -0.36592191421E+01  0.11532040504E+02  0.16406057864E+02  0.51100000000E-03 0. -1.
        -11    1    3    3    0    0  0.28534941597E+01  0.14174203651E+01 -0.23234700560E+01  0.39433517182E+01  0.51100000000E-03 0.  1.
         12    1    3    3    0    0  0.20717989045E+02  0.21915608047E+02 -0.11251181094E+01  0.30179377676E+02  0.00000000000E+00 0. -1.
</event>
<event>
 7    1  0.6462830E-013  0.5052886E+02  0.7816164E-02  0.1300439E+00
        -11   -1    0    0    0    0  0.00000000000E+00  0.00000000000E+00  0.45593999997E+02  0.45594000000E+02  0.51100000000E-03 0. -1.
         11   -1    0    0    0    0 -0.00000000000E+00 -0.00000000000E+00 -0.45593999997E+02  0.45594000000E+02  0.51100000000E-03 0.  1.
    9900012    2    1    2    0    0 -0.80937235617E+00 -0.80633450616E+01 -0.39843354337E+02  0.50528862011E+02  0.30000006569E+02 0.  0.
         12    1    1    2    0    0  0.80937235617E+00  0.80633450616E+01  0.39843354337E+02  0.40659137989E+02  0.00000000000E+00 0. -1.
         11    1    3    3    0    0 -0.43244078362E+01 -0.28828931325E+01 -0.12472802396E+01  0.53448371542E+01  0.51100000000E-03 0. -1.
        -11    1    3    3    0    0 -0.10280315538E+01 -0.13711151131E+02 -0.20821970029E+02  0.24952093106E+02  0.51100000000E-03 0.  1.
         12    1    3    3    0    0  0.45430670339E+01  0.85306992019E+01 -0.17774104069E+02  0.20231931751E+02  0.00000000000E+00 0. -1.
</event>
<event>
 7    1  0.6462830E-013  0.5052886E+02  0.7816164E-02  0.1300439E+00
        -11   -1    0    0    0    0  0.00000000000E+00  0.00000000000E+00  0.45593999997E+02  0.45594000000E+02  0.51100000000E-03 0.  1.
         11   -1    0    0    0    0 -0.00000000000E+00 -0.00000000000E+00 -0.45593999997E+02  0.45594000000E+02  0.51100000000E-03 0. -1.
    9900012    2    1    2    0    0 -0.28058103493E+02  0.26731294716E+02  0.12302297590E+02  0.50528858164E+02  0.29999994877E+02 0.  0.
         12    1    1    2    0    0  0.28058103493E+02 -0.26731294716E+02 -0.12302297590E+02  0.40659141836E+02  0.00000000000E+00 0. -1.
         11    1    3    3    0    0 -0.47090536728E+01  0.31153945477E+01  0.85613250703E+01  0.10255591495E+02  0.51100000000E-03 0. -1.
        -11    1    3    3    0    0 -0.10624942148E+02 -0.25020707809E+01 -0.42329687855E+00  0.10923778392E+02  0.51100000000E-03 0.  1.
         12    1    3    3    0    0 -0.12724107672E+02  0.26117970950E+02  0.41642693978E+01  0.29349488278E+02  0.00000000000E+00 0. -1.
</event>
<event>
 7    1  0.6462830E-013  0.5052886E+02  0.7816164E-02  0.1300439E+00
        -11   -1    0    0    0    0  0.00000000000E+00  0.00000000000E+00  0.45593999997E+02  0.45594000000E+02  0.51100000000E-03 0.  1.
         11   -1    0    0    0    0 -0.00000000000E+00 -0.00000000000E+00 -0.45593999997E+02  0.45594000000E+02  0.51100000000E-03 0. -1.
    9900012    2    1    2    0    0  0.38123204619E+02 -0.13656933660E+02 -0.36434618666E+01  0.50528863490E+02  0.30000011063E+02 0.  0.
         12    1    1    2    0    0 -0.38123204619E+02  0.13656933660E+02  0.36434618666E+01  0.40659136510E+02  0.00000000000E+00 0. -1.
         11    1    3    3    0    0  0.12105360412E+01 -0.15689094728E+01  0.12645339061E+01  0.23507276962E+01  0.51100000000E-03 0. -1.
        -11    1    3    3    0    0  0.31360817261E+02 -0.17824957749E+02  0.39090803457E+01  0.36283755145E+02  0.51100000000E-03 0.  1.
         12    1    3    3    0    0  0.55518513165E+01  0.57369335613E+01 -0.88170761185E+01  0.11894380648E+02  0.00000000000E+00 0. -1.
</event>
<event>
 7    1  0.6462830E-013  0.5052886E+02  0.7816164E-02  0.1300439E+00
        -11   -1    0    0    0    0  0.00000000000E+00  0.00000000000E+00  0.45593999997E+02  0.45594000000E+02  0.51100000000E-03 0.  1.
         11   -1    0    0    0    0 -0.00000000000E+00 -0.00000000000E+00 -0.45593999997E+02  0.45594000000E+02  0.51100000000E-03 0. -1.
    9900012    2    1    2    0    0 -0.96338436039E+01  0.28601153806E+02  0.27245707393E+02  0.50528861877E+02  0.30000006160E+02 0.  0.
         12    1    1    2    0    0  0.96338436039E+01 -0.28601153806E+02 -0.27245707393E+02  0.40659138123E+02  0.00000000000E+00 0. -1.
         11    1    3    3    0    0  0.20945501253E+01  0.12436504088E+02  0.16760145161E+02  0.20975133855E+02  0.51100000000E-03 0. -1.
        -11    1    3    3    0    0 -0.21834670104E+01  0.13915975671E+02  0.13277776172E+02  0.19357718031E+02  0.51100000000E-03 0.  1.
         12    1    3    3    0    0 -0.95449267188E+01  0.22486740474E+01 -0.27922139399E+01  0.10196009990E+02  0.00000000000E+00 0. -1.
</event>
<event>
 7    1  0.6462830E-013  0.5052887E+02  0.7816164E-02  0.1300439E+00
        -11   -1    0    0    0    0  0.00000000000E+00  0.00000000000E+00  0.45593999997E+02  0.45594000000E+02  0.51100000000E-03 0. -1.
         11   -1    0    0    0    0 -0.00000000000E+00 -0.00000000000E+00 -0.45593999997E+02  0.45594000000E+02  0.51100000000E-03 0.  1.
    9900012    2    1    2    0    0  0.24451514267E+02 -0.32485201261E+02  0.48010208110E-02  0.50528869735E+02  0.30000030046E+02 0.  0.
         12    1    1    2    0    0 -0.24451514267E+02  0.32485201261E+02 -0.48010208110E-02  0.40659130265E+02  0.00000000000E+00 0. -1.
         11    1    3    3    0    0  0.20521577172E+02 -0.27392911685E+02  0.11043454758E+02  0.35964769337E+02  0.51100000000E-03 0.  1.
        -11    1    3    3    0    0  0.90060423036E+00  0.17774375076E+01 -0.23061748522E+01  0.30477556962E+01  0.51100000000E-03 0. -1.
        -12    1    3    3    0    0  0.30293328645E+01 -0.68697270830E+01 -0.87324788852E+01  0.11516344701E+02  0.00000000000E+00 0.  1.
</event>
<event>
 7    1  0.6462830E-013  0.5052886E+02  0.7816164E-02  0.1300439E+00
        -11   -1    0    0    0    0  0.00000000000E+00  0.00000000000E+00  0.45593999997E+02  0.45594000000E+02  0.51100000000E-03 0.  1.
         11   -1    0    0    0    0 -0.00000000000E+00 -0.00000000000E+00 -0.45593999997E+02  0.45594000000E+02  0.51100000000E-03 0. -1.
    9900012    2    1    2    0    0 -0.12326629813E+02 -0.37896598036E+02 -0.80664416999E+01  0.50528862934E+02  0.30000009374E+02 0.  0.
         12    1    1    2    0    0  0.12326629813E+02  0.37896598036E+02  0.80664416999E+01  0.40659137066E+02  0.00000000000E+00 0. -1.
         11    1    3    3    0    0 -0.67155037039E+00 -0.15245570119E+02 -0.42866565674E+01  0.15850987759E+02  0.51100000000E-03 0. -1.
        -11    1    3    3    0    0 -0.33771966800E+01 -0.15365633190E+02 -0.12917930611E+02  0.20356352136E+02  0.51100000000E-03 0.  1.
         12    1    3    3    0    0 -0.82778827625E+01 -0.72853947272E+01  0.91381454787E+01  0.14321523039E+02  0.00000000000E+00 0. -1.
</event>
<event>
 7    1  0.6462830E-013  0.5052884E+02  0.7816164E-02  0.1300439E+00
        -11   -1    0    0    0    0  0.00000000000E+00  0.00000000000E+00  0.45593999997E+02  0.45594000000E+02  0.51100000000E-03 0. -1.
         11   -1    0    0    0    0 -0.00000000000E+00 -0.00000000000E+00 -0.45593999997E+02  0.45594000000E+02  0.51100000000E-03 0.  1.
    9900012    2    1    2    0    0 -0.35752907721E+02  0.18939761005E+02 -0.40226854881E+01  0.50528844131E+02  0.29999952221E+02 0.  0.
         12    1    1    2    0    0  0.35752907721E+02 -0.18939761005E+02  0.40226854881E+01  0.40659155869E+02  0.00000000000E+00 0. -1.
         11    1    3    3    0    0 -0.28269032501E+01  0.65070536033E+01 -0.86844866664E+01  0.11213984016E+02  0.51100000000E-03 0. -1.
        -11    1    3    3    0    0 -0.14907725046E+02 -0.23582161274E+00 -0.43276185714E+01  0.15524952838E+02  0.51100000000E-03 0.  1.
         12    1    3    3    0    0 -0.18018279425E+02  0.12668529015E+02  0.89894197496E+01  0.23789907277E+02  0.00000000000E+00 0. -1.
</event>
<event>
 7    1  0.6462830E-013  0.5052887E+02  0.7816164E-02  0.1300439E+00
        -11   -1    0    0    0    0  0.00000000000E+00  0.00000000000E+00  0.45593999997E+02  0.45594000000E+02  0.51100000000E-03 0.  1.
         11   -1    0    0    0    0 -0.00000000000E+00 -0.00000000000E+00 -0.45593999997E+02  0.45594000000E+02  0.51100000000E-03 0. -1.
    9900012    2    1    2    0    0 -0.29815825147E+01 -0.38494055215E+02  0.12746881551E+02  0.50528866826E+02  0.30000021203E+02 0.  0.
         12    1    1    2    0    0  0.29815825147E+01  0.38494055215E+02 -0.12746881551E+02  0.40659133174E+02  0.00000000000E+00 0. -1.
         11    1    3    3    0    0 -0.38065665896E+01 -0.12704545220E+02  0.17517334593E+02  0.21971627840E+02  0.51100000000E-03 0. -1.
        -11    1    3    3    0    0  0.12418349321E+01 -0.11574552026E+02  0.34369219670E+01  0.12137744497E+02  0.51100000000E-03 0.  1.
        -12    1    3    3    0    0 -0.41685085729E+00 -0.14214957969E+02 -0.82073750091E+01  0.16419494488E+02  0.00000000000E+00 0.  1.
</event>
<event>
 7    1  0.6462830E-013  0.5052888E+02  0.7816164E-02  0.1300439E+00
        -11   -1    0    0    0    0  0.00000000000E+00  0.00000000000E+00  0.45593999997E+02  0.45594000000E+02  0.51100000000E-03 0.  1.
         11   -1    0    0    0    0 -0.00000000000E+00 -0.00000000000E+00 -0.45593999997E+02  0.45594000000E+02  0.51100000000E-03 0. -1.
    9900012    2    1    2    0    0  0.31180003235E+02  0.24470203931E+02  0.90653437455E+01  0.50528881227E+02  0.30000064979E+02 0.  0.
         12    1    1    2    0    0 -0.31180003235E+02 -0.24470203931E+02 -0.90653437455E+01  0.40659118773E+02  0.00000000000E+00 0. -1.
         11    1    3    3    0    0  0.28744891855E+00 -0.53396447042E+00 -0.47816101216E+01  0.48199108449E+01  0.51100000000E-03 0. -1.
        -11    1    3    3    0    0  0.20669200913E+02  0.24829663319E+02  0.60924792281E+01  0.32876227739E+02  0.51100000000E-03 0.  1.
         12    1    3    3    0    0  0.10223353403E+02  0.17450508203E+00  0.77544746390E+01  0.12832742644E+02  0.00000000000E+00 0. -1.
</event>
<event>
 7    1  0.6462830E-013  0.5052886E+02  0.7816164E-02  0.1300439E+00
        -11   -1    0    0    0    0  0.00000000000E+00  0.00000000000E+00  0.45593999997E+02  0.45594000000E+02  0.51100000000E-03 0.  1.
         11   -1    0    0    0    0 -0.00000000000E+00 -0.00000000000E+00 -0.45593999997E+02  0.45594000000E+02  0.51100000000E-03 0. -1.
    9900012    2    1    2    0    0  0.43427448883E+01  0.38150328670E+02  0.13373807984E+02  0.50528858952E+02  0.29999997270E+02 0.  0.
         12    1    1    2    0    0 -0.43427448883E+01 -0.38150328670E+02 -0.13373807984E+02  0.40659141048E+02  0.00000000000E+00 0. -1.
         11    1    3    3    0    0  0.81565457081E+01  0.15390570147E+02  0.44971468266E+01  0.17989530766E+02  0.51100000000E-03 0. -1.
        -11    1    3    3    0    0  0.30557706653E+01  0.91711605568E+01  0.13520286306E+02  0.16620651684E+02  0.51100000000E-03 0.  1.
         12    1    3    3    0    0 -0.68695714851E+01  0.13588597966E+02 -0.46436251488E+01  0.15918676502E+02  0.00000000000E+00 0. -1.
</event>
<event>
 7    1  0.6462830E-013  0.5052890E+02  0.7816164E-02  0.1300439E+00
        -11   -1    0    0    0    0  0.00000000000E+00  0.00000000000E+00  0.45593999997E+02  0.45594000000E+02  0.51100000000E-03 0. -1.
         11   -1    0    0    0    0 -0.00000000000E+00 -0.00000000000E+00 -0.45593999997E+02  0.45594000000E+02  0.51100000000E-03 0.  1.
    9900012    2    1    2    0    0 -0.16728334575E+02  0.19411860212E+02 -0.31567469280E+02  0.50528897560E+02  0.30000114622E+02 0.  0.
         12    1    1    2    0    0  0.16728334575E+02 -0.19411860212E+02  0.31567469280E+02  0.40659102440E+02  0.00000000000E+00 0. -1.
         11    1    3    3    0    0 -0.11790514752E+02  0.10263109471E+02 -0.61626106341E+01  0.16802542195E+02  0.51100000000E-03 0. -1.
        -11    1    3    3    0    0 -0.78172547735E+01 -0.39356533751E+01 -0.91490229756E+01  0.12661100322E+02  0.51100000000E-03 0.  1.
        -12    1    3    3    0    0  0.28794349509E+01  0.13084404116E+02 -0.16255835670E+02  0.21065255043E+02  0.00000000000E+00 0.  1.
</event>
<event>
 7    1  0.6462830E-013  0.5052881E+02  0.7816164E-02  0.1300439E+00
        -11   -1    0    0    0    0  0.00000000000E+00  0.00000000000E+00  0.45593999997E+02  0.45594000000E+02  0.51100000000E-03 0.  1.
         11   -1    0    0    0    0 -0.00000000000E+00 -0.00000000000E+00 -0.45593999997E+02  0.45594000000E+02  0.51100000000E-03 0. -1.
    9900012    2    1    2    0    0  0.15993250800E+02  0.37378979826E+02 -0.44443462480E+00  0.50528810066E+02  0.29999848676E+02 0.  0.
         12    1    1    2    0    0 -0.15993250800E+02 -0.37378979826E+02  0.44443462480E+00  0.40659189934E+02  0.00000000000E+00 0. -1.
         11    1    3    3    0    0  0.16949277289E+02  0.39688991921E+02 -0.47380999887E+01  0.43415937996E+02  0.51100000000E-03 0. -1.
        -11    1    3    3    0    0  0.28145917299E+00 -0.10649391230E+01 -0.10295104348E+01  0.15077156888E+01  0.51100000000E-03 0.  1.
        -12    1    3    3    0    0 -0.12374856622E+01 -0.12450729723E+01  0.53231757986E+01  0.56051563808E+01  0.00000000000E+00 0.  1.
</event>
<event>
 7    1  0.6462830E-013  0.5052883E+02  0.7816164E-02  0.1300439E+00
        -11   -1    0    0    0    0  0.00000000000E+00  0.00000000000E+00  0.45593999997E+02  0.45594000000E+02  0.51100000000E-03 0.  1.
         11   -1    0    0    0    0 -0.00000000000E+00 -0.00000000000E+00 -0.45593999997E+02  0.45594000000E+02  0.51100000000E-03 0. -1.
    9900012    2    1    2    0    0 -0.52836609937E+01 -0.76098195326E+01  0.39589662762E+02  0.50528833451E+02  0.29999919759E+02 0.  0.
         12    1    1    2    0    0  0.52836609937E+01  0.76098195326E+01 -0.39589662762E+02  0.40659166549E+02  0.00000000000E+00 0. -1.
         11    1    3    3    0    0  0.75574942481E+01 -0.58862847211E+01  0.64033503754E+01  0.11522454748E+02  0.51100000000E-03 0. -1.
        -11    1    3    3    0    0 -0.17458626562E+01 -0.75597630059E+01  0.15423566572E+02  0.17265122623E+02  0.51100000000E-03 0.  1.
        -12    1    3    3    0    0 -0.11095292586E+02  0.58362281943E+01  0.17762745814E+02  0.21741256080E+02  0.00000000000E+00 0.  1.
</event>
<event>
 7    1  0.6462830E-013  0.5052885E+02  0.7816164E-02  0.1300439E+00
        -11   -1    0    0    0    0  0.00000000000E+00  0.00000000000E+00  0.45593999997E+02  0.45594000000E+02  0.51100000000E-03 0.  1.
         11   -1    0    0    0    0 -0.00000000000E+00 -0.00000000000E+00 -0.45593999997E+02  0.45594000000E+02  0.51100000000E-03 0. -1.
    9900012    2    1    2    0    0 -0.25983332195E+02 -0.36942001137E+01  0.31054563385E+02  0.50528848835E+02  0.29999966518E+02 0.  0.
         12    1    1    2    0    0  0.25983332195E+02  0.36942001137E+01 -0.31054563385E+02  0.40659151165E+02  0.00000000000E+00 0. -1.
         11    1    3    3    0    0 -0.15494829760E+02  0.95604544536E+01  0.10247551293E+02  0.20892686433E+02  0.51100000000E-03 0. -1.
        -11    1    3    3    0    0 -0.88246280528E+01 -0.31365735393E+01  0.45420622003E+01  0.10408769530E+02  0.51100000000E-03 0.  1.
         12    1    3    3    0    0 -0.16638743831E+01 -0.10118081028E+02  0.16264949892E+02  0.19227392871E+02  0.00000000000E+00 0. -1.
</event>
<event>
 7    1  0.6462830E-013  0.5052886E+02  0.7816164E-02  0.1300439E+00
        -11   -1    0    0    0    0  0.00000000000E+00  0.00000000000E+00  0.45593999997E+02  0.45594000000E+02  0.51100000000E-03 0. -1.
         11   -1    0    0    0    0 -0.00000000000E+00 -0.00000000000E+00 -0.45593999997E+02  0.45594000000E+02  0.51100000000E-03 0.  1.
    9900012    2    1    2    0    0  0.29885162199E+02  0.26633011216E+02  0.71221533050E+01  0.50528864818E+02  0.30000015100E+02 0.  0.
         12    1    1    2    0    0 -0.29885162199E+02 -0.26633011216E+02 -0.71221533050E+01  0.40659135182E+02  0.00000000000E+00 0. -1.
         11    1    3    3    0    0  0.63540160471E+01  0.12495054349E+02  0.65259120921E+01  0.15462452328E+02  0.51100000000E-03 0. -1.
        -11    1    3    3    0    0  0.12779057512E+02  0.17225542071E+02 -0.57493081248E+01  0.22205363197E+02  0.51100000000E-03 0.  1.
        -12    1    3    3    0    0  0.10752088639E+02 -0.30875852044E+01  0.63455493377E+01  0.12861049292E+02  0.00000000000E+00 0.  1.
</event>
<event>
 7    1  0.6462830E-013  0.5052888E+02  0.7816164E-02  0.1300439E+00
        -11   -1    0    0    0    0  0.00000000000E+00  0.00000000000E+00  0.45593999997E+02  0.45594000000E+02  0.51100000000E-03 0.  1.
         11   -1    0    0    0    0 -0.00000000000E+00 -0.00000000000E+00 -0.45593999997E+02  0.45594000000E+02  0.51100000000E-03 0. -1.
    9900012    2    1    2    0    0  0.18299001133E+02 -0.26981622367E+02  0.24296140407E+02  0.50528882613E+02  0.30000069190E+02 0.  0.
         12    1    1    2    0    0 -0.18299001133E+02  0.26981622367E+02 -0.24296140407E+02  0.40659117387E+02  0.00000000000E+00 0. -1.
         11    1    3    3    0    0 -0.42981905909E+01 -0.74948138882E+01 -0.16076058835E+01  0.87881212163E+01  0.51100000000E-03 0. -1.
        -11    1    3    3    0    0 -0.65479086184E-01 -0.37746163905E+01  0.80442706802E+01  0.88860737924E+01  0.51100000000E-03 0.  1.
         12    1    3    3    0    0  0.22662670810E+02 -0.15712192088E+02  0.17859475611E+02  0.32854687604E+02  0.00000000000E+00 0. -1.
</event>
<event>
 7    1  0.6462830E-013  0.5052886E+02  0.7816164E-02  0.1300439E+00
        -11   -1    0    0    0    0  0.00000000000E+00  0.00000000000E+00  0.45593999997E+02  0.45594000000E+02  0.51100000000E-03 0. -1.
         11   -1    0    0    0    0 -0.00000000000E+00 -0.00000000000E+00 -0.45593999997E+02  0.45594000000E+02  0.51100000000E-03 0.  1.
    9900012    2    1    2    0    0 -0.18524752427E+02 -0.18592970416E+02 -0.31053191199E+02  0.50528859761E+02  0.29999999729E+02 0.  0.
         12    1    1    2    0    0  0.18524752427E+02  0.18592970416E+02  0.31053191199E+02  0.40659140239E+02  0.00000000000E+00 0. -1.
         11    1    3    3    0    0 -0.11173592439E+02 -0.60454320243E+01 -0.15594978307E+02  0.20114665421E+02  0.51100000000E-03 0. -1.
        -11    1    3    3    0    0 -0.10703060212E+02 -0.26265211195E+01 -0.16552033797E+02  0.19885269275E+02  0.51100000000E-03 0.  1.
         12    1    3    3    0    0  0.33519002240E+01 -0.99210172723E+01  0.10938209053E+01  0.10528925064E+02  0.00000000000E+00 0. -1.
</event>
<event>
 7    1  0.6462830E-013  0.5052886E+02  0.7816164E-02  0.1300439E+00
        -11   -1    0    0    0    0  0.00000000000E+00  0.00000000000E+00  0.45593999997E+02  0.45594000000E+02  0.51100000000E-03 0.  1.
         11   -1    0    0    0    0 -0.00000000000E+00 -0.00000000000E+00 -0.45593999997E+02  0.45594000000E+02  0.51100000000E-03 0. -1.
    9900012    2    1    2    0    0 -0.34643755058E+02 -0.20175395897E+02 -0.67771406077E+01  0.50528855900E+02  0.29999987994E+02 0.  0.
         12    1    1    2    0    0  0.34643755058E+02  0.20175395897E+02  0.67771406077E+01  0.40659144100E+02  0.00000000000E+00 0. -1.
         11    1    3    3    0    0 -0.96926807168E+01 -0.15895844905E+02 -0.17887722313E+01  0.18703626683E+02  0.51100000000E-03 0. -1.
        -11    1    3    3    0    0 -0.54501462656E+01 -0.39368745268E+01  0.63643161740E+01  0.92578397037E+01  0.51100000000E-03 0.  1.
        -12    1    3    3    0    0 -0.19500928075E+02 -0.34267646515E+00 -0.11352684550E+02  0.22567389514E+02  0.00000000000E+00 0.  1.
</event>
<event>
 7    1  0.6462830E-013  0.5052883E+02  0.7816164E-02  0.1300439E+00
        -11   -1    0    0    0    0  0.00000000000E+00  0.00000000000E+00  0.45593999997E+02  0.45594000000E+02  0.51100000000E-03 0.  1.
         11   -1    0    0    0    0 -0.00000000000E+00 -0.00000000000E+00 -0.45593999997E+02  0.45594000000E+02  0.51100000000E-03 0. -1.
    9900012    2    1    2    0    0  0.32343908987E+01  0.29740349038E+02  0.27535764166E+02  0.50528831863E+02  0.29999914931E+02 0.  0.
         12    1    1    2    0    0 -0.32343908987E+01 -0.29740349038E+02 -0.27535764166E+02  0.40659168137E+02  0.00000000000E+00 0. -1.
         11    1    3    3    0    0  0.88377541317E+00 -0.20094567060E+01  0.21484338288E+01  0.30716027432E+01  0.51100000000E-03 0. -1.
        -11    1    3    3    0    0  0.12990693667E+02  0.13350109366E+02  0.94253768905E+01  0.20876332816E+02  0.51100000000E-03 0.  1.
        -12    1    3    3    0    0 -0.10640078182E+02  0.18399696377E+02  0.15961953447E+02  0.26580896304E+02  0.00000000000E+00 0.  1.
</event>
<event>
 7    1  0.6462830E-013  0.5052887E+02  0.7816164E-02  0.1300439E+00
        -11   -1    0    0    0    0  0.00000000000E+00  0.00000000000E+00  0.45593999997E+02  0.45594000000E+02  0.51100000000E-03 0.  1.
         11   -1    0    0    0    0 -0.00000000000E+00 -0.00000000000E+00 -0.45593999997E+02  0.45594000000E+02  0.51100000000E-03 0. -1.
    9900012    2    1    2    0    0  0.59201463304E+01 -0.11602756617E+02  0.38516136986E+02  0.50528869389E+02  0.30000028996E+02 0.  0.
         12    1    1    2    0    0 -0.59201463304E+01  0.11602756617E+02 -0.38516136986E+02  0.40659130611E+02  0.00000000000E+00 0. -1.
         11    1    3    3    0    0  0.53049161576E+01  0.61896852603E+01  0.15234871647E+02  0.17278763076E+02  0.51100000000E-03 0. -1.
        -11    1    3    3    0    0  0.72275363881E+01 -0.37613396508E+01  0.67420845491E+01  0.10575474577E+02  0.51100000000E-03 0.  1.
        -12    1    3    3    0    0 -0.66123062152E+01 -0.14031102226E+02  0.16539180790E+02  0.22674631736E+02  0.00000000000E+00 0.  1.
</event>
<event>
 7    1  0.6462830E-013  0.5052886E+02  0.7816164E-02  0.1300439E+00
        -11   -1    0    0    0    0  0.00000000000E+00  0.00000000000E+00  0.45593999997E+02  0.45594000000E+02  0.51100000000E-03 0.  1.
         11   -1    0    0    0    0 -0.00000000000E+00 -0.00000000000E+00 -0.45593999997E+02  0.45594000000E+02  0.51100000000E-03 0. -1.
    9900012    2    1    2    0    0 -0.18163968489E+02  0.46201549329E+00  0.36373374830E+02  0.50528860731E+02  0.30000002678E+02 0.  0.
         12    1    1    2    0    0  0.18163968489E+02 -0.46201549329E+00 -0.36373374830E+02  0.40659139269E+02  0.00000000000E+00 0. -1.
         11    1    3    3    0    0 -0.17503360406E+02  0.16100700496E+01  0.69749356069E+01  0.18910570537E+02  0.51100000000E-03 0. -1.
        -11    1    3    3    0    0 -0.19866280627E+01  0.49279720705E+01  0.11444976103E+02  0.12618204232E+02  0.51100000000E-03 0.  1.
        -12    1    3    3    0    0  0.13260199796E+01 -0.60760266268E+01  0.17953463120E+02  0.19000085962E+02  0.00000000000E+00 0.  1.
</event>
<event>
 7    1  0.6462830E-013  0.5052883E+02  0.7816164E-02  0.1300439E+00
        -11   -1    0    0    0    0  0.00000000000E+00  0.00000000000E+00  0.45593999997E+02  0.45594000000E+02  0.51100000000E-03 0.  1.
         11   -1    0    0    0    0 -0.00000000000E+00 -0.00000000000E+00 -0.45593999997E+02  0.45594000000E+02  0.51100000000E-03 0. -1.
    9900012    2    1    2    0    0  0.63688890442E+01  0.37640198663E+02 -0.13993596217E+02  0.50528830824E+02  0.29999911772E+02 0.  0.
         12    1    1    2    0    0 -0.63688890442E+01 -0.37640198663E+02  0.13993596217E+02  0.40659169176E+02  0.00000000000E+00 0. -1.
         11    1    3    3    0    0 -0.40492727663E+01  0.13470160415E+02  0.25740653615E+01  0.14299218310E+02  0.51100000000E-03 0. -1.
        -11    1    3    3    0    0  0.53572770714E+01  0.23039841049E+02 -0.59164534702E+01  0.24383172786E+02  0.51100000000E-03 0.  1.
         12    1    3    3    0    0  0.50608847391E+01  0.11301971988E+01 -0.10651208108E+02  0.11846439728E+02  0.00000000000E+00 0. -1.
</event>
<event>
 7    1  0.6462830E-013  0.5052886E+02  0.7816164E-02  0.1300439E+00
        -11   -1    0    0    0    0  0.00000000000E+00  0.00000000000E+00  0.45593999997E+02  0.45594000000E+02  0.51100000000E-03 0. -1.
         11   -1    0    0    0    0 -0.00000000000E+00 -0.00000000000E+00 -0.45593999997E+02  0.45594000000E+02  0.51100000000E-03 0.  1.
    9900012    2    1    2    0    0 -0.13506220136E+02  0.12888013170E+01 -0.38328664580E+02  0.50528861794E+02  0.30000005909E+02 0.  0.
         12    1    1    2    0    0  0.13506220136E+02 -0.12888013170E+01  0.38328664580E+02  0.40659138206E+02  0.00000000000E+00 0. -1.
         11    1    3    3    0    0  0.19344651802E+00 -0.15133121319E+00 -0.13545920409E+02  0.13548146835E+02  0.51100000000E-03 0. -1.
        -11    1    3    3    0    0 -0.14390672135E+02  0.36255222402E+01 -0.28775460936E+02  0.32376890035E+02  0.51100000000E-03 0.  1.
         12    1    3    3    0    0  0.69100548083E+00 -0.21853897100E+01  0.39927167652E+01  0.46038249235E+01  0.00000000000E+00 0. -1.
</event>
<event>
 7    1  0.6462830E-013  0.5052885E+02  0.7816164E-02  0.1300439E+00
        -11   -1    0    0    0    0  0.00000000000E+00  0.00000000000E+00  0.45593999997E+02  0.45594000000E+02  0.51100000000E-03 0.  1.
         11   -1    0    0    0    0 -0.00000000000E+00 -0.00000000000E+00 -0.45593999997E+02  0.45594000000E+02  0.51100000000E-03 0. -1.
    9900012    2    1    2    0    0 -0.14436349195E+02 -0.13263758079E+02  0.35620653754E+02  0.50528850595E+02  0.29999971870E+02 0.  0.
         12    1    1    2    0    0  0.14436349195E+02  0.13263758079E+02 -0.35620653754E+02  0.40659149405E+02  0.00000000000E+00 0. -1.
         11    1    3    3    0    0  0.12054051777E+01 -0.43917466508E+01 -0.29602823611E+01  0.54317319711E+01  0.51100000000E-03 0. -1.
        -11    1    3    3    0    0 -0.70020734628E+01 -0.10181884303E+02  0.12440162043E+02  0.17534464140E+02  0.51100000000E-03 0.  1.
         12    1    3    3    0    0 -0.86396809095E+01  0.13098728750E+01  0.26140774072E+02  0.27562654485E+02  0.00000000000E+00 0. -1.
</event>
<event>
 7    1  0.6462830E-013  0.5052886E+02  0.7816164E-02  0.1300439E+00
        -11   -1    0    0    0    0  0.00000000000E+00  0.00000000000E+00  0.45593999997E+02  0.45594000000E+02  0.51100000000E-03 0.  1.
         11   -1    0    0    0    0 -0.00000000000E+00 -0.00000000000E+00 -0.45593999997E+02  0.45594000000E+02  0.51100000000E-03 0. -1.
    9900012    2    1    2    0    0  0.21040949850E+02  0.31966396768E+02  0.13732937787E+02  0.50528859906E+02  0.30000000170E+02 0.  0.
         12    1    1    2    0    0 -0.21040949850E+02 -0.31966396768E+02 -0.13732937787E+02  0.40659140094E+02  0.00000000000E+00 0. -1.
         11    1    3    3    0    0 -0.19004518637E+01 -0.18167503744E+01  0.43417425993E+01  0.50757293337E+01  0.51100000000E-03 0. -1.
        -11    1    3    3    0    0  0.44474973034E+01  0.10199676390E+02  0.10723616325E+02  0.15453464922E+02  0.51100000000E-03 0.  1.
        -12    1    3    3    0    0  0.18493904411E+02  0.23583470752E+02 -0.13324211378E+01  0.29999665651E+02  0.00000000000E+00 0.  1.
</event>
<event>
 7    1  0.6462830E-013  0.5052885E+02  0.7816164E-02  0.1300439E+00
        -11   -1    0    0    0    0  0.00000000000E+00  0.00000000000E+00  0.45593999997E+02  0.45594000000E+02  0.51100000000E-03 0.  1.
         11   -1    0    0    0    0 -0.00000000000E+00 -0.00000000000E+00 -0.45593999997E+02  0.45594000000E+02  0.51100000000E-03 0. -1.
    9900012    2    1    2    0    0  0.81766998890E+01  0.36381218062E+02  0.16208474110E+02  0.50528854881E+02  0.29999984898E+02 0.  0.
         12    1    1    2    0    0 -0.81766998890E+01 -0.36381218062E+02 -0.16208474110E+02  0.40659145119E+02  0.00000000000E+00 0. -1.
         11    1    3    3    0    0 -0.83219065123E+00  0.86138767664E+01 -0.44398890190E+01  0.97264602497E+01  0.51100000000E-03 0. -1.
        -11    1    3    3    0    0  0.67701740229E+01  0.25075281645E+02  0.72670984991E+01  0.26970645649E+02  0.51100000000E-03 0.  1.
        -12    1    3    3    0    0  0.22387165173E+01  0.26920596511E+01  0.13381264630E+02  0.13831748983E+02  0.00000000000E+00 0.  1.
</event>
<event>
 7    1  0.6462830E-013  0.5052886E+02  0.7816164E-02  0.1300439E+00
        -11   -1    0    0    0    0  0.00000000000E+00  0.00000000000E+00  0.45593999997E+02  0.45594000000E+02  0.51100000000E-03 0.  1.
         11   -1    0    0    0    0 -0.00000000000E+00 -0.00000000000E+00 -0.45593999997E+02  0.45594000000E+02  0.51100000000E-03 0. -1.
    9900012    2    1    2    0    0 -0.16857579739E+02 -0.31211756312E+02 -0.19869924557E+02  0.50528860454E+02  0.30000001835E+02 0.  0.
         12    1    1    2    0    0  0.16857579739E+02  0.31211756312E+02  0.19869924557E+02  0.40659139546E+02  0.00000000000E+00 0. -1.
         11    1    3    3    0    0 -0.12644774828E+02 -0.10902758034E+02 -0.56530312701E+01  0.17627172945E+02  0.51100000000E-03 0.  1.
        -11    1    3    3    0    0 -0.75453254587E+01 -0.15350317439E+02 -0.18766729232E+02  0.25392012683E+02  0.51100000000E-03 0. -1.
         12    1    3    3    0    0  0.33325205479E+01 -0.49586808388E+01  0.45498359453E+01  0.75096748260E+01  0.00000000000E+00 0. -1.
</event>
<event>
 7    1  0.6462830E-013  0.5052886E+02  0.7816164E-02  0.1300439E+00
        -11   -1    0    0    0    0  0.00000000000E+00  0.00000000000E+00  0.45593999997E+02  0.45594000000E+02  0.51100000000E-03 0.  1.
         11   -1    0    0    0    0 -0.00000000000E+00 -0.00000000000E+00 -0.45593999997E+02  0.45594000000E+02  0.51100000000E-03 0. -1.
    9900012    2    1    2    0    0  0.25218496948E+02 -0.53818576056E+01  0.31436101014E+02  0.50528862939E+02  0.30000009388E+02 0.  0.
         12    1    1    2    0    0 -0.25218496948E+02  0.53818576056E+01 -0.31436101014E+02  0.40659137061E+02  0.00000000000E+00 0. -1.
         11    1    3    3    0    0  0.15333342254E+02 -0.28321257683E+01  0.94259327342E+01  0.18220332851E+02  0.51100000000E-03 0. -1.
        -11    1    3    3    0    0  0.16233627267E+02  0.10864956438E+01  0.16271467607E+02  0.23010253918E+02  0.51100000000E-03 0.  1.
        -12    1    3    3    0    0 -0.63484725730E+01 -0.36362274811E+01  0.57387006732E+01  0.92982761693E+01  0.00000000000E+00 0.  1.
</event>
<event>
 7    1  0.6462830E-013  0.5052886E+02  0.7816164E-02  0.1300439E+00
        -11   -1    0    0    0    0  0.00000000000E+00  0.00000000000E+00  0.45593999997E+02  0.45594000000E+02  0.51100000000E-03 0.  1.
         11   -1    0    0    0    0 -0.00000000000E+00 -0.00000000000E+00 -0.45593999997E+02  0.45594000000E+02  0.51100000000E-03 0. -1.
    9900012    2    1    2    0    0  0.31355505606E+02 -0.11640756581E+02  0.23119053829E+02  0.50528860861E+02  0.30000003073E+02 0.  0.
         12    1    1    2    0    0 -0.31355505606E+02  0.11640756581E+02 -0.23119053829E+02  0.40659139139E+02  0.00000000000E+00 0. -1.
         11    1    3    3    0    0 -0.39629206418E+01 -0.20958975977E+01  0.52537308527E+01  0.69064618212E+01  0.51100000000E-03 0. -1.
        -11    1    3    3    0    0  0.24823541682E+02 -0.65637916426E+01  0.19948626132E+02  0.32515215933E+02  0.51100000000E-03 0.  1.
         12    1    3    3    0    0  0.10494884565E+02 -0.29810673406E+01 -0.20833031554E+01  0.11107183107E+02  0.00000000000E+00 0. -1.
</event>
<event>
 7    1  0.6462830E-013  0.5052886E+02  0.7816164E-02  0.1300439E+00
        -11   -1    0    0    0    0  0.00000000000E+00  0.00000000000E+00  0.45593999997E+02  0.45594000000E+02  0.51100000000E-03 0. -1.
         11   -1    0    0    0    0 -0.00000000000E+00 -0.00000000000E+00 -0.45593999997E+02  0.45594000000E+02  0.51100000000E-03 0.  1.
    9900012    2    1    2    0    0 -0.34843241330E+02  0.12627071475E+02 -0.16723376083E+02  0.50528859478E+02  0.29999998868E+02 0.  0.
         12    1    1    2    0    0  0.34843241330E+02 -0.12627071475E+02  0.16723376083E+02  0.40659140522E+02  0.00000000000E+00 0. -1.
         11    1    3    3    0    0 -0.26742247510E+01  0.11100561906E+02 -0.60098306248E+01  0.12903178564E+02  0.51100000000E-03 0. -1.
        -11    1    3    3    0    0 -0.14191640558E+01  0.86935887652E+00  0.33997997678E+01  0.37852939378E+01  0.51100000000E-03 0.  1.
        -12    1    3    3    0    0 -0.30749852523E+02  0.65715069296E+00 -0.14113345226E+02  0.33840386976E+02  0.00000000000E+00 0.  1.
</event>
<event>
 7    1  0.7653250E-013  0.5052887E+02  0.7816164E-02  0.1300439E+00
        -11   -1    0    0    0    0  0.00000000000E+00  0.00000000000E+00  0.45593999997E+02  0.45594000000E+02  0.51100000000E-03 0.  1.
         11   -1    0    0    0    0 -0.00000000000E+00 -0.00000000000E+00 -0.45593999997E+02  0.45594000000E+02  0.51100000000E-03 0. -1.
    9900012    2    1    2    0    0  0.38381420617E+02  0.10692193559E+02  0.81060587854E+01  0.50528872603E+02  0.30000038764E+02 0.  0.
         12    1    1    2    0    0 -0.38381420617E+02 -0.10692193559E+02 -0.81060587854E+01  0.40659127397E+02  0.00000000000E+00 0. -1.
         11    1    3    3    0    0  0.61530069359E+00  0.97779573061E+00 -0.39189331026E+01  0.40856720815E+01  0.51100000000E-03 0. -1.
        -11    1    3    3    0    0  0.85181088375E+01  0.12856871625E+02  0.48044480649E+01  0.16153638835E+02  0.51100000000E-03 0.  1.
         12    1    3    3    0    0  0.29248011086E+02 -0.31424737969E+01  0.72205438231E+01  0.30289561686E+02  0.00000000000E+00 0. -1.
</event>
<event>
 7    1  0.6462830E-013  0.5052886E+02  0.7816164E-02  0.1300439E+00
        -11   -1    0    0    0    0  0.00000000000E+00  0.00000000000E+00  0.45593999997E+02  0.45594000000E+02  0.51100000000E-03 0. -1.
         11   -1    0    0    0    0 -0.00000000000E+00 -0.00000000000E+00 -0.45593999997E+02  0.45594000000E+02  0.51100000000E-03 0.  1.
    9900012    2    1    2    0    0  0.60160711281E+01  0.33277644457E+02 -0.22573680784E+02  0.50528858388E+02  0.29999995558E+02 0.  0.
         12    1    1    2    0    0 -0.60160711281E+01 -0.33277644457E+02  0.22573680784E+02  0.40659141612E+02  0.00000000000E+00 0. -1.
         11    1    3    3    0    0  0.86647727411E+01  0.77537029060E+01  0.14953192062E+01  0.11723232285E+02  0.51100000000E-03 0. -1.
        -11    1    3    3    0    0  0.66098606385E+01  0.12142206755E+02 -0.13969811022E+02  0.19653983382E+02  0.51100000000E-03 0.  1.
        -12    1    3    3    0    0 -0.92585622515E+01  0.13381734796E+02 -0.10099188968E+02  0.19151642722E+02  0.00000000000E+00 0.  1.
</event>
<event>
 7    1  0.6462830E-013  0.5052886E+02  0.7816164E-02  0.1300439E+00
        -11   -1    0    0    0    0  0.00000000000E+00  0.00000000000E+00  0.45593999997E+02  0.45594000000E+02  0.51100000000E-03 0. -1.
         11   -1    0    0    0    0 -0.00000000000E+00 -0.00000000000E+00 -0.45593999997E+02  0.45594000000E+02  0.51100000000E-03 0.  1.
    9900012    2    1    2    0    0 -0.27765691339E+02  0.28985352228E+02 -0.64870080168E+01  0.50528861638E+02  0.30000005436E+02 0.  0.
         12    1    1    2    0    0  0.27765691339E+02 -0.28985352228E+02  0.64870080168E+01  0.40659138362E+02  0.00000000000E+00 0. -1.
         11    1    3    3    0    0  0.22348625597E+01  0.45429116458E-01  0.96686823636E-01  0.22374143712E+01  0.51100000000E-03 0. -1.
        -11    1    3    3    0    0 -0.11580349578E+02  0.14530119457E+02 -0.14534666655E+02  0.23589942832E+02  0.51100000000E-03 0.  1.
        -12    1    3    3    0    0 -0.18420204320E+02  0.14409803654E+02  0.79509718147E+01  0.24701504435E+02  0.00000000000E+00 0.  1.
</event>
<event>
 7    1  0.6462830E-013  0.5052885E+02  0.7816164E-02  0.1300439E+00
        -11   -1    0    0    0    0  0.00000000000E+00  0.00000000000E+00  0.45593999997E+02  0.45594000000E+02  0.51100000000E-03 0.  1.
         11   -1    0    0    0    0 -0.00000000000E+00 -0.00000000000E+00 -0.45593999997E+02  0.45594000000E+02  0.51100000000E-03 0. -1.
    9900012    2    1    2    0    0 -0.16443735477E+01 -0.29097440481E+02  0.28351394797E+02  0.50528848584E+02  0.29999965757E+02 0.  0.
         12    1    1    2    0    0  0.16443735477E+01  0.29097440481E+02 -0.28351394797E+02  0.40659151416E+02  0.00000000000E+00 0. -1.
         11    1    3    3    0    0  0.74554232343E+01 -0.91353763552E+01  0.81623254822E+01  0.14340920274E+02  0.51100000000E-03 0. -1.
        -11    1    3    3    0    0 -0.25888413879E+01 -0.21356073243E+02  0.20228580119E+02  0.29529297621E+02  0.51100000000E-03 0.  1.
         12    1    3    3    0    0 -0.65109553942E+01  0.13940091169E+01 -0.39510804141E-01  0.66586306900E+01  0.00000000000E+00 0. -1.
</event>
<event>
 7    1  0.6462830E-013  0.5052886E+02  0.7816164E-02  0.1300439E+00
        -11   -1    0    0    0    0  0.00000000000E+00  0.00000000000E+00  0.45593999997E+02  0.45594000000E+02  0.51100000000E-03 0.  1.
         11   -1    0    0    0    0 -0.00000000000E+00 -0.00000000000E+00 -0.45593999997E+02  0.45594000000E+02  0.51100000000E-03 0. -1.
    9900012    2    1    2    0    0 -0.23837759140E+02  0.29243092939E+02  0.15158107555E+02  0.50528862403E+02  0.30000007761E+02 0.  0.
         12    1    1    2    0    0  0.23837759140E+02 -0.29243092939E+02 -0.15158107555E+02  0.40659137597E+02  0.00000000000E+00 0. -1.
         11    1    3    3    0    0 -0.99627341309E+01  0.22103485621E+02  0.11484590614E+02  0.26827522618E+02  0.51100000000E-03 0. -1.
        -11    1    3    3    0    0  0.20260729709E+01  0.36844157524E+00  0.59248896811E+01  0.62725623849E+01  0.51100000000E-03 0.  1.
        -12    1    3    3    0    0 -0.15901097980E+02  0.67711657431E+01 -0.22513727403E+01  0.17428777401E+02  0.00000000000E+00 0.  1.
</event>
<event>
 7    1  0.6462830E-013  0.5052883E+02  0.7816164E-02  0.1300439E+00
        -11   -1    0    0    0    0  0.00000000000E+00  0.00000000000E+00  0.45593999997E+02  0.45594000000E+02  0.51100000000E-03 0.  1.
         11   -1    0    0    0    0 -0.00000000000E+00 -0.00000000000E+00 -0.45593999997E+02  0.45594000000E+02  0.51100000000E-03 0. -1.
    9900012    2    1    2    0    0 -0.17532742419E+02  0.54593436955E+01  0.36276257202E+02  0.50528827272E+02  0.29999900977E+02 0.  0.
         12    1    1    2    0    0  0.17532742419E+02 -0.54593436955E+01 -0.36276257202E+02  0.40659172728E+02  0.00000000000E+00 0. -1.
         11    1    3    3    0    0 -0.14294085082E+02  0.95620651106E+00  0.13238137941E+02  0.19505986149E+02  0.51100000000E-03 0. -1.
        -11    1    3    3    0    0 -0.11847943368E+01 -0.17867108216E+01  0.24208670868E+02  0.24303411667E+02  0.51100000000E-03 0.  1.
         12    1    3    3    0    0 -0.20538630000E+01  0.62898480060E+01 -0.11705516072E+01  0.67194294569E+01  0.00000000000E+00 0. -1.
</event>
<event>
 7    1  0.6462830E-013  0.5052886E+02  0.7816164E-02  0.1300439E+00
        -11   -1    0    0    0    0  0.00000000000E+00  0.00000000000E+00  0.45593999997E+02  0.45594000000E+02  0.51100000000E-03 0. -1.
         11   -1    0    0    0    0 -0.00000000000E+00 -0.00000000000E+00 -0.45593999997E+02  0.45594000000E+02  0.51100000000E-03 0.  1.
    9900012    2    1    2    0    0 -0.25089462214E+02  0.10857020256E+02 -0.30096666850E+02  0.50528863776E+02  0.30000011932E+02 0.  0.
         12    1    1    2    0    0  0.25089462214E+02 -0.10857020256E+02  0.30096666850E+02  0.40659136224E+02  0.00000000000E+00 0. -1.
         11    1    3    3    0    0 -0.11836852366E+02  0.81977735896E+01 -0.17254922878E+02  0.22473249199E+02  0.51100000000E-03 0. -1.
        -11    1    3    3    0    0 -0.18311177187E+01 -0.81662030088E+01 -0.80337355269E+01  0.11600895244E+02  0.51100000000E-03 0.  1.
         12    1    3    3    0    0 -0.11421492129E+02  0.10825449675E+02 -0.48080084455E+01  0.16454719333E+02  0.00000000000E+00 0. -1.
</event>
<event>
 7    1  0.6462830E-013  0.5052889E+02  0.7816164E-02  0.1300439E+00
        -11   -1    0    0    0    0  0.00000000000E+00  0.00000000000E+00  0.45593999997E+02  0.45594000000E+02  0.51100000000E-03 0.  1.
         11   -1    0    0    0    0 -0.00000000000E+00 -0.00000000000E+00 -0.45593999997E+02  0.45594000000E+02  0.51100000000E-03 0. -1.
    9900012    2    1    2    0    0 -0.16206975210E+02 -0.36916254666E+02  0.52618663315E+01  0.50528891041E+02  0.30000094809E+02 0.  0.
         12    1    1    2    0    0  0.16206975210E+02  0.36916254666E+02 -0.52618663315E+01  0.40659108959E+02  0.00000000000E+00 0. -1.
         11    1    3    3    0    0 -0.78130053917E+01 -0.86546801302E+01 -0.58868532252E+01  0.13061454075E+02  0.51100000000E-03 0. -1.
        -11    1    3    3    0    0 -0.13319919473E+02 -0.23262401162E+02  0.34128841142E+01  0.27022348914E+02  0.51100000000E-03 0.  1.
         12    1    3    3    0    0  0.49259496546E+01 -0.49991733737E+01  0.77358354425E+01  0.10445088052E+02  0.00000000000E+00 0. -1.
</event>
<event>
 7    1  0.6462830E-013  0.5052882E+02  0.7816164E-02  0.1300439E+00
        -11   -1    0    0    0    0  0.00000000000E+00  0.00000000000E+00  0.45593999997E+02  0.45594000000E+02  0.51100000000E-03 0.  1.
         11   -1    0    0    0    0 -0.00000000000E+00 -0.00000000000E+00 -0.45593999997E+02  0.45594000000E+02  0.51100000000E-03 0. -1.
    9900012    2    1    2    0    0 -0.37803280801E+02 -0.89830200286E+01 -0.11974384619E+02  0.50528824219E+02  0.29999891697E+02 0.  0.
         12    1    1    2    0    0  0.37803280801E+02  0.89830200286E+01  0.11974384619E+02  0.40659175781E+02  0.00000000000E+00 0. -1.
         11    1    3    3    0    0 -0.19865747825E+02 -0.10917429247E+02 -0.39357922855E+01  0.23007143655E+02  0.51100000000E-03 0. -1.
        -11    1    3    3    0    0 -0.20492422321E+02  0.26950527321E+01 -0.18116336541E+01  0.20748125182E+02  0.51100000000E-03 0.  1.
         12    1    3    3    0    0  0.25548893449E+01 -0.76064351414E+00 -0.62269586796E+01  0.67735553823E+01  0.00000000000E+00 0. -1.
</event>
<event>
 7    1  0.6462830E-013  0.5052888E+02  0.7816164E-02  0.1300439E+00
        -11   -1    0    0    0    0  0.00000000000E+00  0.00000000000E+00  0.45593999997E+02  0.45594000000E+02  0.51100000000E-03 0.  1.
         11   -1    0    0    0    0 -0.00000000000E+00 -0.00000000000E+00 -0.45593999997E+02  0.45594000000E+02  0.51100000000E-03 0. -1.
    9900012    2    1    2    0    0 -0.22086230336E+02 -0.75744045305E+01  0.33286499437E+02  0.50528877786E+02  0.30000054517E+02 0.  0.
         12    1    1    2    0    0  0.22086230336E+02  0.75744045305E+01 -0.33286499437E+02  0.40659122214E+02  0.00000000000E+00 0. -1.
         11    1    3    3    0    0 -0.75900698636E+01 -0.28770563993E+01 -0.23796466732E+01  0.84586838580E+01  0.51100000000E-03 0. -1.
        -11    1    3    3    0    0  0.33755650840E+01 -0.26342581246E+01  0.59045995530E+01  0.72936994486E+01  0.51100000000E-03 0.  1.
        -12    1    3    3    0    0 -0.17871725557E+02 -0.20630900065E+01  0.29761546558E+02  0.34776494479E+02  0.00000000000E+00 0.  1.
</event>
<event>
 7    1  0.6462830E-013  0.5052887E+02  0.7816164E-02  0.1300439E+00
        -11   -1    0    0    0    0  0.00000000000E+00  0.00000000000E+00  0.45593999997E+02  0.45594000000E+02  0.51100000000E-03 0. -1.
         11   -1    0    0    0    0 -0.00000000000E+00 -0.00000000000E+00 -0.45593999997E+02  0.45594000000E+02  0.51100000000E-03 0.  1.
    9900012    2    1    2    0    0 -0.13051816848E+02  0.38506828182E+02 -0.19702569862E+00  0.50528873610E+02  0.30000041826E+02 0.  0.
         12    1    1    2    0    0  0.13051816848E+02 -0.38506828182E+02  0.19702569862E+00  0.40659126390E+02  0.00000000000E+00 0. -1.
         11    1    3    3    0    0 -0.93615417094E+00  0.24110804325E+01 -0.40180534758E+01  0.47785403084E+01  0.51100000000E-03 0. -1.
        -11    1    3    3    0    0 -0.24641152898E+01  0.14250186976E+01  0.89553812219E+01  0.93968822244E+01  0.51100000000E-03 0.  1.
        -12    1    3    3    0    0 -0.96515473875E+01  0.34670729052E+02 -0.51343534447E+01  0.36353451077E+02  0.00000000000E+00 0.  1.
</event>
<event>
 7    1  0.6462830E-013  0.5052887E+02  0.7816164E-02  0.1300439E+00
        -11   -1    0    0    0    0  0.00000000000E+00  0.00000000000E+00  0.45593999997E+02  0.45594000000E+02  0.51100000000E-03 0.  1.
         11   -1    0    0    0    0 -0.00000000000E+00 -0.00000000000E+00 -0.45593999997E+02  0.45594000000E+02  0.51100000000E-03 0. -1.
    9900012    2    1    2    0    0  0.38945307196E+02 -0.64616344472E+01  0.97301324510E+01  0.50528866341E+02  0.30000019732E+02 0.  0.
         12    1    1    2    0    0 -0.38945307196E+02  0.64616344472E+01 -0.97301324510E+01  0.40659133659E+02  0.00000000000E+00 0. -1.
         11    1    3    3    0    0  0.23987182505E+02  0.51630939883E+01  0.25710706346E+01  0.24670891117E+02  0.51100000000E-03 0. -1.
        -11    1    3    3    0    0  0.10105042459E+02 -0.38032143071E+01 -0.38905844687E+01  0.11476627115E+02  0.51100000000E-03 0.  1.
         12    1    3    3    0    0  0.48530822326E+01 -0.78215141284E+01  0.11049646285E+02  0.14381348109E+02  0.00000000000E+00 0. -1.
</event>
<event>
 7    1  0.6462830E-013  0.5052886E+02  0.7816164E-02  0.1300439E+00
        -11   -1    0    0    0    0  0.00000000000E+00  0.00000000000E+00  0.45593999997E+02  0.45594000000E+02  0.51100000000E-03 0. -1.
         11   -1    0    0    0    0 -0.00000000000E+00 -0.00000000000E+00 -0.45593999997E+02  0.45594000000E+02  0.51100000000E-03 0.  1.
    9900012    2    1    2    0    0 -0.39739242498E+02  0.85998530022E+01 -0.25938878862E-01  0.50528861559E+02  0.30000005195E+02 0.  0.
         12    1    1    2    0    0  0.39739242498E+02 -0.85998530022E+01  0.25938878862E-01  0.40659138441E+02  0.00000000000E+00 0. -1.
         11    1    3    3    0    0  0.18575094688E+01 -0.12508553967E+01 -0.38206248304E+00  0.22717730195E+01  0.51100000000E-03 0. -1.
        -11    1    3    3    0    0 -0.24204060993E+02 -0.24339907815E+01  0.80386579984E+01  0.25619931740E+02  0.51100000000E-03 0.  1.
         12    1    3    3    0    0 -0.17392690973E+02  0.12284699181E+02 -0.76825343942E+01  0.22637156799E+02  0.00000000000E+00 0. -1.
</event>
<event>
 7    1  0.6462830E-013  0.5052887E+02  0.7816164E-02  0.1300439E+00
        -11   -1    0    0    0    0  0.00000000000E+00  0.00000000000E+00  0.45593999997E+02  0.45594000000E+02  0.51100000000E-03 0.  1.
         11   -1    0    0    0    0 -0.00000000000E+00 -0.00000000000E+00 -0.45593999997E+02  0.45594000000E+02  0.51100000000E-03 0. -1.
    9900012    2    1    2    0    0  0.13263796672E+02 -0.13272500907E+02  0.36070454298E+02  0.50528865040E+02  0.30000015774E+02 0.  0.
         12    1    1    2    0    0 -0.13263796672E+02  0.13272500907E+02 -0.36070454298E+02  0.40659134960E+02  0.00000000000E+00 0. -1.
         11    1    3    3    0    0  0.69139295311E+01  0.30172121480E+01  0.11022183286E+02  0.13356440969E+02  0.51100000000E-03 0. -1.
        -11    1    3    3    0    0  0.18942021475E+01  0.29180973206E+01  0.14296518649E+02  0.14713726227E+02  0.51100000000E-03 0.  1.
         12    1    3    3    0    0  0.44556649931E+01 -0.19207810375E+02  0.10751752363E+02  0.22458697843E+02  0.00000000000E+00 0. -1.
</event>
<event>
 7    1  0.6462830E-013  0.5052886E+02  0.7816164E-02  0.1300439E+00
        -11   -1    0    0    0    0  0.00000000000E+00  0.00000000000E+00  0.45593999997E+02  0.45594000000E+02  0.51100000000E-03 0.  1.
         11   -1    0    0    0    0 -0.00000000000E+00 -0.00000000000E+00 -0.45593999997E+02  0.45594000000E+02  0.51100000000E-03 0. -1.
    9900012    2    1    2    0    0 -0.15158879265E+01 -0.26167616803E+02  0.31082525489E+02  0.50528862329E+02  0.30000007537E+02 0.  0.
         12    1    1    2    0    0  0.15158879265E+01  0.26167616803E+02 -0.31082525489E+02  0.40659137671E+02  0.00000000000E+00 0. -1.
         11    1    3    3    0    0  0.79543174551E+01  0.65733407646E+00  0.11243251902E+02  0.13788182181E+02  0.51100000000E-03 0. -1.
        -11    1    3    3    0    0 -0.33503050149E+01 -0.38023309432E+01  0.95090487920E+01  0.10775169302E+02  0.51100000000E-03 0.  1.
        -12    1    3    3    0    0 -0.61199003667E+01 -0.23022619936E+02  0.10330224796E+02  0.25965510847E+02  0.00000000000E+00 0.  1.
</event>
<event>
 7    1  0.6462830E-013  0.5052888E+02  0.7816164E-02  0.1300439E+00
        -11   -1    0    0    0    0  0.00000000000E+00  0.00000000000E+00  0.45593999997E+02  0.45594000000E+02  0.51100000000E-03 0.  1.
         11   -1    0    0    0    0 -0.00000000000E+00 -0.00000000000E+00 -0.45593999997E+02  0.45594000000E+02  0.51100000000E-03 0. -1.
    9900012    2    1    2    0    0 -0.75790503494E+00 -0.39996548645E+02  0.72708773792E+01  0.50528880710E+02  0.30000063406E+02 0.  0.
         12    1    1    2    0    0  0.75790503494E+00  0.39996548645E+02 -0.72708773792E+01  0.40659119290E+02  0.00000000000E+00 0. -1.
         11    1    3    3    0    0  0.92245664728E+00 -0.38635263504E+02 -0.22645168504E+01  0.38712563195E+02  0.51100000000E-03 0. -1.
        -11    1    3    3    0    0  0.21241189695E+01 -0.10018622440E+01  0.11795716345E+01  0.26281169789E+01  0.51100000000E-03 0.  1.
         12    1    3    3    0    0 -0.38044806517E+01 -0.35942289673E+00  0.83558225951E+01  0.91882005360E+01  0.00000000000E+00 0. -1.
</event>
<event>
 7    1  0.6462830E-013  0.5052886E+02  0.7816164E-02  0.1300439E+00
        -11   -1    0    0    0    0  0.00000000000E+00  0.00000000000E+00  0.45593999997E+02  0.45594000000E+02  0.51100000000E-03 0.  1.
         11   -1    0    0    0    0 -0.00000000000E+00 -0.00000000000E+00 -0.45593999997E+02  0.45594000000E+02  0.51100000000E-03 0. -1.
    9900012    2    1    2    0    0 -0.31762003840E+01  0.27472168901E+02  0.29805329146E+02  0.50528856397E+02  0.29999989505E+02 0.  0.
         12    1    1    2    0    0  0.31762003840E+01 -0.27472168901E+02 -0.29805329146E+02  0.40659143603E+02  0.00000000000E+00 0. -1.
         11    1    3    3    0    0  0.77660461355E+01  0.12798185490E+02  0.10291352891E+02  0.18166369175E+02  0.51100000000E-03 0. -1.
        -11    1    3    3    0    0 -0.28994989089E+00  0.85732222589E+01 -0.81282679000E+00  0.86165479451E+01  0.51100000000E-03 0.  1.
         12    1    3    3    0    0 -0.10652296629E+02  0.61007611519E+01  0.20326803045E+02  0.23745939277E+02  0.00000000000E+00 0. -1.
</event>
<event>
 7    1  0.6462830E-013  0.5052886E+02  0.7816164E-02  0.1300439E+00
        -11   -1    0    0    0    0  0.00000000000E+00  0.00000000000E+00  0.45593999997E+02  0.45594000000E+02  0.51100000000E-03 0.  1.
         11   -1    0    0    0    0 -0.00000000000E+00 -0.00000000000E+00 -0.45593999997E+02  0.45594000000E+02  0.51100000000E-03 0. -1.
    9900012    2    1    2    0    0 -0.27874639944E+02 -0.24554873349E+02  0.16529620955E+02  0.50528859255E+02  0.29999998191E+02 0.  0.
         12    1    1    2    0    0  0.27874639944E+02  0.24554873349E+02 -0.16529620955E+02  0.40659140745E+02  0.00000000000E+00 0. -1.
         11    1    3    3    0    0 -0.11666960109E+02  0.16031526965E+01 -0.20395991748E+01  0.11951904526E+02  0.51100000000E-03 0. -1.
        -11    1    3    3    0    0 -0.17309430938E+02 -0.21316148163E+02  0.11121656769E+02  0.29625762800E+02  0.51100000000E-03 0.  1.
        -12    1    3    3    0    0  0.11017511030E+01 -0.48418778826E+01  0.74475633614E+01  0.89511919288E+01  0.00000000000E+00 0.  1.
</event>
<event>
 7    1  0.6462830E-013  0.5052886E+02  0.7816164E-02  0.1300439E+00
        -11   -1    0    0    0    0  0.00000000000E+00  0.00000000000E+00  0.45593999997E+02  0.45594000000E+02  0.51100000000E-03 0. -1.
         11   -1    0    0    0    0 -0.00000000000E+00 -0.00000000000E+00 -0.45593999997E+02  0.45594000000E+02  0.51100000000E-03 0.  1.
    9900012    2    1    2    0    0  0.19206082460E+02  0.33306978773E+02  0.13226383851E+02  0.50528859967E+02  0.30000000356E+02 0.  0.
         12    1    1    2    0    0 -0.19206082460E+02 -0.33306978773E+02 -0.13226383851E+02  0.40659140033E+02  0.00000000000E+00 0. -1.
         11    1    3    3    0    0 -0.45181086606E+00  0.47639694119E+01 -0.31242589593E+00  0.47955341535E+01  0.51100000000E-03 0. -1.
        -11    1    3    3    0    0 -0.49090559558E+01  0.14330717777E+02  0.29011211265E+01  0.15423514724E+02  0.51100000000E-03 0.  1.
        -12    1    3    3    0    0  0.24566949282E+02  0.14212291584E+02  0.10637688620E+02  0.30309811089E+02  0.00000000000E+00 0.  1.
</event>
<event>
 7    1  0.6462830E-013  0.5052887E+02  0.7816164E-02  0.1300439E+00
        -11   -1    0    0    0    0  0.00000000000E+00  0.00000000000E+00  0.45593999997E+02  0.45594000000E+02  0.51100000000E-03 0.  1.
         11   -1    0    0    0    0 -0.00000000000E+00 -0.00000000000E+00 -0.45593999997E+02  0.45594000000E+02  0.51100000000E-03 0. -1.
    9900012    2    1    2    0    0  0.13842459927E+02  0.38021849686E+02  0.39862381224E+01  0.50528870093E+02  0.30000031136E+02 0.  0.
         12    1    1    2    0    0 -0.13842459927E+02 -0.38021849686E+02 -0.39862381224E+01  0.40659129907E+02  0.00000000000E+00 0. -1.
         11    1    3    3    0    0  0.15887098812E+02  0.29821460050E+02  0.13199126055E+02  0.36275836546E+02  0.51100000000E-03 0. -1.
        -11    1    3    3    0    0 -0.13504294761E+01  0.55511405478E-01  0.60227379230E+00  0.14796875576E+01  0.51100000000E-03 0.  1.
         12    1    3    3    0    0 -0.69420940876E+00  0.81448782303E+01 -0.98151617253E+01  0.12773345990E+02  0.00000000000E+00 0. -1.
</event>
<event>
 7    1  0.6462830E-013  0.5052886E+02  0.7816164E-02  0.1300439E+00
        -11   -1    0    0    0    0  0.00000000000E+00  0.00000000000E+00  0.45593999997E+02  0.45594000000E+02  0.51100000000E-03 0. -1.
         11   -1    0    0    0    0 -0.00000000000E+00 -0.00000000000E+00 -0.45593999997E+02  0.45594000000E+02  0.51100000000E-03 0.  1.
    9900012    2    1    2    0    0 -0.16718528899E+02  0.33889685840E+01 -0.36907606277E+02  0.50528859359E+02  0.29999998506E+02 0.  0.
         12    1    1    2    0    0  0.16718528899E+02 -0.33889685840E+01  0.36907606277E+02  0.40659140641E+02  0.00000000000E+00 0. -1.
         11    1    3    3    0    0 -0.15198306541E+02  0.70739258895E+00 -0.46009169070E+01  0.15895199358E+02  0.51100000000E-03 0. -1.
        -11    1    3    3    0    0 -0.36275376769E+01  0.52233976468E+01 -0.85881143799E+01  0.10686375505E+02  0.51100000000E-03 0.  1.
        -12    1    3    3    0    0  0.21073153185E+01 -0.25418216517E+01 -0.23718574990E+02  0.23947284496E+02  0.00000000000E+00 0.  1.
</event>
<event>
 7    1  0.6462830E-013  0.5052883E+02  0.7816164E-02  0.1300439E+00
        -11   -1    0    0    0    0  0.00000000000E+00  0.00000000000E+00  0.45593999997E+02  0.45594000000E+02  0.51100000000E-03 0. -1.
         11   -1    0    0    0    0 -0.00000000000E+00 -0.00000000000E+00 -0.45593999997E+02  0.45594000000E+02  0.51100000000E-03 0.  1.
    9900012    2    1    2    0    0  0.32127201042E+02 -0.24910274020E+02  0.69960154982E+00  0.50528828330E+02  0.29999904193E+02 0.  0.
         12    1    1    2    0    0 -0.32127201042E+02  0.24910274020E+02 -0.69960154982E+00  0.40659171670E+02  0.00000000000E+00 0. -1.
         11    1    3    3    0    0  0.26384405879E+02 -0.20850861723E+02  0.56105591226E+01  0.34093601776E+02  0.51100000000E-03 0. -1.
        -11    1    3    3    0    0  0.39967136575E+01  0.43776851037E+01  0.96590181080E+00  0.60058982256E+01  0.51100000000E-03 0.  1.
        -12    1    3    3    0    0  0.17460815060E+01 -0.84370974002E+01 -0.58768593836E+01  0.10429328328E+02  0.00000000000E+00 0.  1.
</event>
<event>
 7    1  0.6462830E-013  0.5052886E+02  0.7816164E-02  0.1300439E+00
        -11   -1    0    0    0    0  0.00000000000E+00  0.00000000000E+00  0.45593999997E+02  0.45594000000E+02  0.51100000000E-03 0. -1.
         11   -1    0    0    0    0 -0.00000000000E+00 -0.00000000000E+00 -0.45593999997E+02  0.45594000000E+02  0.51100000000E-03 0.  1.
    9900012    2    1    2    0    0  0.77594442914E+01 -0.11143008150E+02 -0.38324800315E+02  0.50528856803E+02  0.29999990738E+02 0.  0.
         12    1    1    2    0    0 -0.77594442914E+01  0.11143008150E+02  0.38324800315E+02  0.40659143197E+02  0.00000000000E+00 0. -1.
         11    1    3    3    0    0  0.35000012766E+00 -0.65816413294E+01 -0.24872966653E+02  0.25731400527E+02  0.51100000000E-03 0. -1.
        -11    1    3    3    0    0  0.67853326224E+01 -0.11496254552E+02 -0.61172644597E+01  0.14684193279E+02  0.51100000000E-03 0.  1.
         12    1    3    3    0    0  0.62411154127E+00  0.69348877319E+01 -0.73345692022E+01  0.10113262997E+02  0.00000000000E+00 0. -1.
</event>
<event>
 7    1  0.6462830E-013  0.5052885E+02  0.7816164E-02  0.1300439E+00
        -11   -1    0    0    0    0  0.00000000000E+00  0.00000000000E+00  0.45593999997E+02  0.45594000000E+02  0.51100000000E-03 0.  1.
         11   -1    0    0    0    0 -0.00000000000E+00 -0.00000000000E+00 -0.45593999997E+02  0.45594000000E+02  0.51100000000E-03 0. -1.
    9900012    2    1    2    0    0  0.45833933134E+01 -0.11975279300E+02  0.38584339732E+02  0.50528854889E+02  0.29999984921E+02 0.  0.
         12    1    1    2    0    0 -0.45833933134E+01  0.11975279300E+02 -0.38584339732E+02  0.40659145111E+02  0.00000000000E+00 0. -1.
         11    1    3    3    0    0 -0.74286093128E+01 -0.37828007770E+01  0.91847110147E+01  0.12403738740E+02  0.51100000000E-03 0. -1.
        -11    1    3    3    0    0 -0.16154285952E+00  0.51952928703E+01  0.26614834958E+01  0.58395769335E+01  0.51100000000E-03 0.  1.
        -12    1    3    3    0    0  0.12173545486E+02 -0.13387771393E+02  0.26738145222E+02  0.32285539216E+02  0.00000000000E+00 0.  1.
</event>
<event>
 7    1  0.6462830E-013  0.5052882E+02  0.7816164E-02  0.1300439E+00
        -11   -1    0    0    0    0  0.00000000000E+00  0.00000000000E+00  0.45593999997E+02  0.45594000000E+02  0.51100000000E-03 0.  1.
         11   -1    0    0    0    0 -0.00000000000E+00 -0.00000000000E+00 -0.45593999997E+02  0.45594000000E+02  0.51100000000E-03 0. -1.
    9900012    2    1    2    0    0  0.35856860202E+01  0.37385778659E+01  0.40327838255E+02  0.50528823336E+02  0.29999889011E+02 0.  0.
         12    1    1    2    0    0 -0.35856860202E+01 -0.37385778659E+01 -0.40327838255E+02  0.40659176664E+02  0.00000000000E+00 0. -1.
         11    1    3    3    0    0 -0.25932741536E+01 -0.34967244633E+00 -0.68213529031E+00  0.27041912785E+01  0.51100000000E-03 0. -1.
        -11    1    3    3    0    0  0.44888123936E+01 -0.61934242061E+01  0.34936607684E+02  0.35764151001E+02  0.51100000000E-03 0.  1.
         12    1    3    3    0    0  0.16901477802E+01  0.10281674518E+02  0.60733658614E+01  0.12060481056E+02  0.00000000000E+00 0. -1.
</event>
<event>
 7    1  0.6462830E-013  0.5052886E+02  0.7816164E-02  0.1300439E+00
        -11   -1    0    0    0    0  0.00000000000E+00  0.00000000000E+00  0.45593999997E+02  0.45594000000E+02  0.51100000000E-03 0.  1.
         11   -1    0    0    0    0 -0.00000000000E+00 -0.00000000000E+00 -0.45593999997E+02  0.45594000000E+02  0.51100000000E-03 0. -1.
    9900012    2    1    2    0    0 -0.81827882617E+01 -0.32875186772E+02  0.22481767404E+02  0.50528858412E+02  0.29999995629E+02 0.  0.
         12    1    1    2    0    0  0.81827882617E+01  0.32875186772E+02 -0.22481767404E+02  0.40659141588E+02  0.00000000000E+00 0. -1.
         11    1    3    3    0    0 -0.71736479550E+01 -0.36567510398E+01  0.11177288976E+02  0.13775516044E+02  0.51100000000E-03 0. -1.
        -11    1    3    3    0    0 -0.10054158428E+02 -0.16136524384E+02  0.71784465647E+01  0.20322490404E+02  0.51100000000E-03 0.  1.
        -12    1    3    3    0    0  0.90450181209E+01 -0.13081911349E+02  0.41260318634E+01  0.16430851965E+02  0.00000000000E+00 0.  1.
</event>
<event>
 7    1  0.6462830E-013  0.5052886E+02  0.7816164E-02  0.1300439E+00
        -11   -1    0    0    0    0  0.00000000000E+00  0.00000000000E+00  0.45593999997E+02  0.45594000000E+02  0.51100000000E-03 0. -1.
         11   -1    0    0    0    0 -0.00000000000E+00 -0.00000000000E+00 -0.45593999997E+02  0.45594000000E+02  0.51100000000E-03 0.  1.
    9900012    2    1    2    0    0 -0.24378509491E+02 -0.31558523079E+02  0.79317882427E+01  0.50528863650E+02  0.30000011552E+02 0.  0.
         12    1    1    2    0    0  0.24378509491E+02  0.31558523079E+02 -0.79317882427E+01  0.40659136350E+02  0.00000000000E+00 0. -1.
         11    1    3    3    0    0 -0.16234392569E+02 -0.24482031081E+01 -0.45175143530E+01  0.17028127811E+02  0.51100000000E-03 0. -1.
        -11    1    3    3    0    0 -0.60969298274E+01 -0.17389797641E+02  0.38632092632E+01  0.18828223532E+02  0.51100000000E-03 0.  1.
        -12    1    3    3    0    0 -0.20471870948E+01 -0.11720522331E+02  0.85860933325E+01  0.14672512308E+02  0.00000000000E+00 0.  1.
</event>
<event>
 7    1  0.6462830E-013  0.5052886E+02  0.7816164E-02  0.1300439E+00
        -11   -1    0    0    0    0  0.00000000000E+00  0.00000000000E+00  0.45593999997E+02  0.45594000000E+02  0.51100000000E-03 0. -1.
         11   -1    0    0    0    0 -0.00000000000E+00 -0.00000000000E+00 -0.45593999997E+02  0.45594000000E+02  0.51100000000E-03 0.  1.
    9900012    2    1    2    0    0 -0.30847345112E+02 -0.16495112710E+02  0.20724815393E+02  0.50528863058E+02  0.30000009752E+02 0.  0.
         12    1    1    2    0    0  0.30847345112E+02  0.16495112710E+02 -0.20724815393E+02  0.40659136942E+02  0.00000000000E+00 0. -1.
         11    1    3    3    0    0 -0.17442034435E+02 -0.37605393115E+01  0.97628638871E+01  0.20339118287E+02  0.51100000000E-03 0. -1.
        -11    1    3    3    0    0 -0.99045296567E+01 -0.10765168127E+02  0.17318917856E+02  0.22670100760E+02  0.51100000000E-03 0.  1.
        -12    1    3    3    0    0 -0.35007810200E+01 -0.19694052718E+01 -0.63569663503E+01  0.75196440111E+01  0.00000000000E+00 0.  1.
</event>
<event>
 7    1  0.6462830E-013  0.5052886E+02  0.7816164E-02  0.1300439E+00
        -11   -1    0    0    0    0  0.00000000000E+00  0.00000000000E+00  0.45593999997E+02  0.45594000000E+02  0.51100000000E-03 0.  1.
         11   -1    0    0    0    0 -0.00000000000E+00 -0.00000000000E+00 -0.45593999997E+02  0.45594000000E+02  0.51100000000E-03 0. -1.
    9900012    2    1    2    0    0  0.73970160713E+01 -0.33363104544E+02  0.22030733316E+02  0.50528858322E+02  0.29999995354E+02 0.  0.
         12    1    1    2    0    0 -0.73970160713E+01  0.33363104544E+02 -0.22030733316E+02  0.40659141678E+02  0.00000000000E+00 0. -1.
         11    1    3    3    0    0  0.34383308342E+01 -0.18213252251E+02  0.11422082989E+02  0.21771739861E+02  0.51100000000E-03 0. -1.
        -11    1    3    3    0    0 -0.49680112360E+01 -0.11854694152E+02  0.13667516996E+02  0.18762087576E+02  0.51100000000E-03 0.  1.
         12    1    3    3    0    0  0.89266964731E+01 -0.32951581410E+01 -0.30588666697E+01  0.99950308854E+01  0.00000000000E+00 0. -1.
</event>
<event>
 7    1  0.6462830E-013  0.5052886E+02  0.7816164E-02  0.1300439E+00
        -11   -1    0    0    0    0  0.00000000000E+00  0.00000000000E+00  0.45593999997E+02  0.45594000000E+02  0.51100000000E-03 0.  1.
         11   -1    0    0    0    0 -0.00000000000E+00 -0.00000000000E+00 -0.45593999997E+02  0.45594000000E+02  0.51100000000E-03 0. -1.
    9900012    2    1    2    0    0 -0.31899072599E+02  0.13577883306E+02  0.21242791058E+02  0.50528856875E+02  0.29999990957E+02 0.  0.
         12    1    1    2    0    0  0.31899072599E+02 -0.13577883306E+02 -0.21242791058E+02  0.40659143125E+02  0.00000000000E+00 0. -1.
         11    1    3    3    0    0 -0.14135956638E+02  0.10071378563E+02 -0.16550245333E+01  0.17435510967E+02  0.51100000000E-03 0. -1.
        -11    1    3    3    0    0 -0.11752500251E+02  0.86216835837E+01  0.90575751692E+01  0.17160837922E+02  0.51100000000E-03 0.  1.
        -12    1    3    3    0    0 -0.60106157098E+01 -0.51151788404E+01  0.13840240422E+02  0.15932507985E+02  0.00000000000E+00 0.  1.
</event>
<event>
 7    1  0.6462830E-013  0.5052886E+02  0.7816164E-02  0.1300439E+00
        -11   -1    0    0    0    0  0.00000000000E+00  0.00000000000E+00  0.45593999997E+02  0.45594000000E+02  0.51100000000E-03 0.  1.
         11   -1    0    0    0    0 -0.00000000000E+00 -0.00000000000E+00 -0.45593999997E+02  0.45594000000E+02  0.51100000000E-03 0. -1.
    9900012    2    1    2    0    0 -0.40230073563E+02 -0.56727307105E+01  0.15896819357E+01  0.50528858577E+02  0.29999996131E+02 0.  0.
         12    1    1    2    0    0  0.40230073563E+02  0.56727307105E+01 -0.15896819357E+01  0.40659141423E+02  0.00000000000E+00 0. -1.
         11    1    3    3    0    0 -0.64267445030E+01  0.54124495078E+01  0.64631186687E+01  0.10600450829E+02  0.51100000000E-03 0. -1.
        -11    1    3    3    0    0 -0.25045130848E+02 -0.62977470213E-01 -0.61598143302E+01  0.25791585027E+02  0.51100000000E-03 0.  1.
         12    1    3    3    0    0 -0.87581982118E+01 -0.11022202748E+02  0.12863775971E+01  0.14136822722E+02  0.00000000000E+00 0. -1.
</event>
<event>
 7    1  0.6462830E-013  0.5052887E+02  0.7816164E-02  0.1300439E+00
        -11   -1    0    0    0    0  0.00000000000E+00  0.00000000000E+00  0.45593999997E+02  0.45594000000E+02  0.51100000000E-03 0.  1.
         11   -1    0    0    0    0 -0.00000000000E+00 -0.00000000000E+00 -0.45593999997E+02  0.45594000000E+02  0.51100000000E-03 0. -1.
    9900012    2    1    2    0    0 -0.44297911302E+01  0.34444819540E+02  0.21144649111E+02  0.50528870292E+02  0.30000031739E+02 0.  0.
         12    1    1    2    0    0  0.44297911302E+01 -0.34444819540E+02 -0.21144649111E+02  0.40659129708E+02  0.00000000000E+00 0. -1.
         11    1    3    3    0    0 -0.39581638314E+01  0.37300438234E+01  0.42934471531E+01  0.69292118281E+01  0.51100000000E-03 0. -1.
        -11    1    3    3    0    0  0.60215226919E+01  0.15081378531E+02  0.20630226992E+02  0.26254770613E+02  0.51100000000E-03 0.  1.
        -12    1    3    3    0    0 -0.64931499906E+01  0.15633397185E+02 -0.37790250337E+01  0.17344887851E+02  0.00000000000E+00 0.  1.
</event>
<event>
 7    1  0.6462830E-013  0.5052884E+02  0.7816164E-02  0.1300439E+00
        -11   -1    0    0    0    0  0.00000000000E+00  0.00000000000E+00  0.45593999997E+02  0.45594000000E+02  0.51100000000E-03 0.  1.
         11   -1    0    0    0    0 -0.00000000000E+00 -0.00000000000E+00 -0.45593999997E+02  0.45594000000E+02  0.51100000000E-03 0. -1.
    9900012    2    1    2    0    0 -0.52522630481E+01 -0.82870131340E+01  0.39457653397E+02  0.50528840326E+02  0.29999940655E+02 0.  0.
         12    1    1    2    0    0  0.52522630481E+01  0.82870131340E+01 -0.39457653397E+02  0.40659159674E+02  0.00000000000E+00 0. -1.
         11    1    3    3    0    0 -0.15339514816E+02 -0.34429971557E+01  0.20174105986E+02  0.25576346432E+02  0.51100000000E-03 0. -1.
        -11    1    3    3    0    0 -0.42485502389E+00 -0.52460802026E+01  0.74115083598E+01  0.90902318844E+01  0.51100000000E-03 0.  1.
         12    1    3    3    0    0  0.10512106792E+02  0.40206422428E+00  0.11872039051E+02  0.15862262010E+02  0.00000000000E+00 0. -1.
</event>
<event>
 7    1  0.6462830E-013  0.5052886E+02  0.7816164E-02  0.1300439E+00
        -11   -1    0    0    0    0  0.00000000000E+00  0.00000000000E+00  0.45593999997E+02  0.45594000000E+02  0.51100000000E-03 0.  1.
         11   -1    0    0    0    0 -0.00000000000E+00 -0.00000000000E+00 -0.45593999997E+02  0.45594000000E+02  0.51100000000E-03 0. -1.
    9900012    2    1    2    0    0  0.39735267848E+02 -0.67407302689E+01 -0.53699721950E+01  0.50528861336E+02  0.30000004517E+02 0.  0.
         12    1    1    2    0    0 -0.39735267848E+02  0.67407302689E+01  0.53699721950E+01  0.40659138664E+02  0.00000000000E+00 0. -1.
         11    1    3    3    0    0  0.74061502461E+01  0.81605154009E+00 -0.73258436499E+01  0.10449162025E+02  0.51100000000E-03 0. -1.
        -11    1    3    3    0    0  0.19578937791E+02 -0.14410957445E+02 -0.35971901749E+01  0.24575399832E+02  0.51100000000E-03 0.  1.
         12    1    3    3    0    0  0.12750179811E+02  0.68541756358E+01  0.55530616298E+01  0.15504299479E+02  0.00000000000E+00 0. -1.
</event>
<event>
 7    1  0.6462830E-013  0.5052888E+02  0.7816164E-02  0.1300439E+00
        -11   -1    0    0    0    0  0.00000000000E+00  0.00000000000E+00  0.45593999997E+02  0.45594000000E+02  0.51100000000E-03 0.  1.
         11   -1    0    0    0    0 -0.00000000000E+00 -0.00000000000E+00 -0.45593999997E+02  0.45594000000E+02  0.51100000000E-03 0. -1.
    9900012    2    1    2    0    0  0.25321171292E+02 -0.12138176698E+01  0.31788821638E+02  0.50528877407E+02  0.30000053366E+02 0.  0.
         12    1    1    2    0    0 -0.25321171292E+02  0.12138176698E+01 -0.31788821638E+02  0.40659122593E+02  0.00000000000E+00 0. -1.
         11    1    3    3    0    0 -0.27142246283E+01 -0.42422605345E+01  0.64739115726E+01  0.82021534420E+01  0.51100000000E-03 0.  1.
        -11    1    3    3    0    0  0.17837235802E+02 -0.43462234450E+01  0.23166951797E+02  0.29559504311E+02  0.51100000000E-03 0. -1.
         12    1    3    3    0    0  0.10198160119E+02  0.73746663096E+01  0.21479582683E+01  0.12767219654E+02  0.00000000000E+00 0. -1.
</event>
<event>
 7    1  0.6462830E-013  0.5052886E+02  0.7816164E-02  0.1300439E+00
        -11   -1    0    0    0    0  0.00000000000E+00  0.00000000000E+00  0.45593999997E+02  0.45594000000E+02  0.51100000000E-03 0.  1.
         11   -1    0    0    0    0 -0.00000000000E+00 -0.00000000000E+00 -0.45593999997E+02  0.45594000000E+02  0.51100000000E-03 0. -1.
    9900012    2    1    2    0    0 -0.16065623212E+02 -0.11544942448E+02  0.35521482922E+02  0.50528859646E+02  0.29999999381E+02 0.  0.
         12    1    1    2    0    0  0.16065623212E+02  0.11544942448E+02 -0.35521482922E+02  0.40659140354E+02  0.00000000000E+00 0. -1.
         11    1    3    3    0    0 -0.89207715979E+01 -0.17140761534E+01  0.21754823391E+01  0.93408215180E+01  0.51100000000E-03 0. -1.
        -11    1    3    3    0    0  0.38933485116E+01 -0.10317019707E+02  0.82635990719E+01  0.13779917567E+02  0.51100000000E-03 0.  1.
         12    1    3    3    0    0 -0.11038200126E+02  0.48615341290E+00  0.25082401511E+02  0.27408120561E+02  0.00000000000E+00 0. -1.
</event>
<event>
 7    1  0.6462830E-013  0.5052886E+02  0.7816164E-02  0.1300439E+00
        -11   -1    0    0    0    0  0.00000000000E+00  0.00000000000E+00  0.45593999997E+02  0.45594000000E+02  0.51100000000E-03 0.  1.
         11   -1    0    0    0    0 -0.00000000000E+00 -0.00000000000E+00 -0.45593999997E+02  0.45594000000E+02  0.51100000000E-03 0. -1.
    9900012    2    1    2    0    0  0.43238939072E+01  0.40142006000E+02  0.48050972389E+01  0.50528860023E+02  0.30000000526E+02 0.  0.
         12    1    1    2    0    0 -0.43238939072E+01 -0.40142006000E+02 -0.48050972389E+01  0.40659139977E+02  0.00000000000E+00 0. -1.
         11    1    3    3    0    0 -0.20955070962E+01  0.52742726981E+01  0.46176629617E+01  0.73165506883E+01  0.51100000000E-03 0. -1.
        -11    1    3    3    0    0  0.14449912199E+02  0.19853048418E+02  0.58972457232E+01  0.25253138447E+02  0.51100000000E-03 0.  1.
         12    1    3    3    0    0 -0.80305111959E+01  0.15014684884E+02 -0.57098114460E+01  0.17959170888E+02  0.00000000000E+00 0. -1.
</event>
<event>
 7    1  0.6462830E-013  0.5052886E+02  0.7816164E-02  0.1300439E+00
        -11   -1    0    0    0    0  0.00000000000E+00  0.00000000000E+00  0.45593999997E+02  0.45594000000E+02  0.51100000000E-03 0.  1.
         11   -1    0    0    0    0 -0.00000000000E+00 -0.00000000000E+00 -0.45593999997E+02  0.45594000000E+02  0.51100000000E-03 0. -1.
    9900012    2    1    2    0    0 -0.24834671696E+02  0.11198161442E+02  0.30182878850E+02  0.50528856949E+02  0.29999991182E+02 0.  0.
         12    1    1    2    0    0  0.24834671696E+02 -0.11198161442E+02 -0.30182878850E+02  0.40659143051E+02  0.00000000000E+00 0. -1.
         11    1    3    3    0    0 -0.92486775334E+01  0.15064751482E+02  0.22098081283E+02  0.28298586007E+02  0.51100000000E-03 0. -1.
        -11    1    3    3    0    0  0.18553880966E+01 -0.15386287273E+01  0.31288154825E+01  0.39495987055E+01  0.51100000000E-03 0.  1.
        -12    1    3    3    0    0 -0.17441382260E+02 -0.23279613129E+01  0.49559820851E+01  0.18280672237E+02  0.00000000000E+00 0.  1.
</event>
<event>
 7    1  0.6462830E-013  0.5052885E+02  0.7816164E-02  0.1300439E+00
        -11   -1    0    0    0    0  0.00000000000E+00  0.00000000000E+00  0.45593999997E+02  0.45594000000E+02  0.51100000000E-03 0.  1.
         11   -1    0    0    0    0 -0.00000000000E+00 -0.00000000000E+00 -0.45593999997E+02  0.45594000000E+02  0.51100000000E-03 0. -1.
    9900012    2    1    2    0    0 -0.68623219927E+01  0.19416286467E+02  0.35058280183E+02  0.50528847861E+02  0.29999963558E+02 0.  0.
         12    1    1    2    0    0  0.68623219927E+01 -0.19416286467E+02 -0.35058280183E+02  0.40659152139E+02  0.00000000000E+00 0. -1.
         11    1    3    3    0    0  0.12021548963E+01  0.88664659965E+01  0.23691674096E+01  0.92559359407E+01  0.51100000000E-03 0. -1.
        -11    1    3    3    0    0  0.73945654720E+01  0.38299504288E+01  0.10196850882E+02  0.13165253016E+02  0.51100000000E-03 0.  1.
        -12    1    3    3    0    0 -0.15459042361E+02  0.67198700413E+01  0.22492261891E+02  0.28107658904E+02  0.00000000000E+00 0.  1.
</event>
<event>
 7    1  0.6462830E-013  0.5052886E+02  0.7816164E-02  0.1300439E+00
        -11   -1    0    0    0    0  0.00000000000E+00  0.00000000000E+00  0.45593999997E+02  0.45594000000E+02  0.51100000000E-03 0.  1.
         11   -1    0    0    0    0 -0.00000000000E+00 -0.00000000000E+00 -0.45593999997E+02  0.45594000000E+02  0.51100000000E-03 0. -1.
    9900012    2    1    2    0    0 -0.51130416481E+01  0.19076623841E+02  0.35540182318E+02  0.50528864111E+02  0.30000012952E+02 0.  0.
         12    1    1    2    0    0  0.51130416481E+01 -0.19076623841E+02 -0.35540182318E+02  0.40659135889E+02  0.00000000000E+00 0. -1.
         11    1    3    3    0    0  0.39734315914E+01  0.29934715978E+01  0.89586837280E+01  0.10247294532E+02  0.51100000000E-03 0. -1.
        -11    1    3    3    0    0 -0.85268778284E+01  0.14763536157E+02  0.31140735933E+02  0.35502324996E+02  0.51100000000E-03 0.  1.
         12    1    3    3    0    0 -0.55959541118E+00  0.13196160859E+01 -0.45592373434E+01  0.47792445838E+01  0.00000000000E+00 0. -1.
</event>
<event>
 7    1  0.6462830E-013  0.5052885E+02  0.7816164E-02  0.1300439E+00
        -11   -1    0    0    0    0  0.00000000000E+00  0.00000000000E+00  0.45593999997E+02  0.45594000000E+02  0.51100000000E-03 0.  1.
         11   -1    0    0    0    0 -0.00000000000E+00 -0.00000000000E+00 -0.45593999997E+02  0.45594000000E+02  0.51100000000E-03 0. -1.
    9900012    2    1    2    0    0  0.16192864848E+02  0.26679183951E+02  0.26061056878E+02  0.50528850797E+02  0.29999972483E+02 0.  0.
         12    1    1    2    0    0 -0.16192864848E+02 -0.26679183951E+02 -0.26061056878E+02  0.40659149203E+02  0.00000000000E+00 0. -1.
         11    1    3    3    0    0  0.15638634760E+02  0.25553425057E+02  0.76336484394E+01  0.30916290496E+02  0.51100000000E-03 0. -1.
        -11    1    3    3    0    0  0.29364936464E+01  0.18907858404E+01  0.60583737616E+01  0.69929935597E+01  0.51100000000E-03 0.  1.
        -12    1    3    3    0    0 -0.23822635577E+01 -0.76502694681E+00  0.12369034677E+02  0.12619566741E+02  0.00000000000E+00 0.  1.
</event>
<event>
 7    1  0.6462830E-013  0.5052897E+02  0.7816164E-02  0.1300438E+00
        -11   -1    0    0    0    0  0.00000000000E+00  0.00000000000E+00  0.45593999997E+02  0.45594000000E+02  0.51100000000E-03 0.  1.
         11   -1    0    0    0    0 -0.00000000000E+00 -0.00000000000E+00 -0.45593999997E+02  0.45594000000E+02  0.51100000000E-03 0. -1.
    9900012    2    1    2    0    0  0.31523407208E+02  0.12278123074E+01 -0.25650031941E+02  0.50528968240E+02  0.30000329461E+02 0.  0.
         12    1    1    2    0    0 -0.31523407208E+02 -0.12278123074E+01  0.25650031941E+02  0.40659031760E+02  0.00000000000E+00 0. -1.
         11    1    3    3    0    0  0.15982240097E+01  0.71537645338E+01 -0.35320117272E+01  0.81366930686E+01  0.51100000000E-03 0.  1.
        -11    1    3    3    0    0  0.24557019036E+01  0.54982284927E+01 -0.15305976895E+01  0.62131890318E+01  0.51100000000E-03 0. -1.
         12    1    3    3    0    0  0.27469481295E+02 -0.11424180719E+02 -0.20587422524E+02  0.36179086140E+02  0.00000000000E+00 0. -1.
</event>
<event>
 7    1  0.6462830E-013  0.5052886E+02  0.7816164E-02  0.1300439E+00
        -11   -1    0    0    0    0  0.00000000000E+00  0.00000000000E+00  0.45593999997E+02  0.45594000000E+02  0.51100000000E-03 0.  1.
         11   -1    0    0    0    0 -0.00000000000E+00 -0.00000000000E+00 -0.45593999997E+02  0.45594000000E+02  0.51100000000E-03 0. -1.
    9900012    2    1    2    0    0  0.39662441677E+02  0.62662836508E+01 -0.63866800620E+01  0.50528864829E+02  0.30000015136E+02 0.  0.
         12    1    1    2    0    0 -0.39662441677E+02 -0.62662836508E+01  0.63866800620E+01  0.40659135171E+02  0.00000000000E+00 0. -1.
         11    1    3    3    0    0  0.16056600931E+02  0.36945024980E+01 -0.80401056983E+01  0.18333223450E+02  0.51100000000E-03 0. -1.
        -11    1    3    3    0    0  0.11700921937E+02 -0.69853226563E+01 -0.62641102548E+01  0.14998179367E+02  0.51100000000E-03 0.  1.
        -12    1    3    3    0    0  0.11904918810E+02  0.95571038091E+01  0.79175358911E+01  0.17197462013E+02  0.00000000000E+00 0.  1.
</event>
<event>
 7    1  0.7832908E-013  0.5052886E+02  0.7816164E-02  0.1300439E+00
        -11   -1    0    0    0    0  0.00000000000E+00  0.00000000000E+00  0.45593999997E+02  0.45594000000E+02  0.51100000000E-03 0. -1.
         11   -1    0    0    0    0 -0.00000000000E+00 -0.00000000000E+00 -0.45593999997E+02  0.45594000000E+02  0.51100000000E-03 0.  1.
    9900012    2    1    2    0    0  0.85564983434E+01 -0.23166961711E+02 -0.32299280345E+02  0.50528864623E+02  0.30000014507E+02 0.  0.
         12    1    1    2    0    0 -0.85564983434E+01  0.23166961711E+02  0.32299280345E+02  0.40659135377E+02  0.00000000000E+00 0. -1.
         11    1    3    3    0    0  0.14047886396E+02 -0.64428029167E+01 -0.10728906194E+02  0.18813884501E+02  0.51100000000E-03 0. -1.
        -11    1    3    3    0    0  0.20018918260E+01 -0.28814158230E+01 -0.13650333435E+02  0.14094031757E+02  0.51100000000E-03 0.  1.
         12    1    3    3    0    0 -0.74932798791E+01 -0.13842742972E+02 -0.79200407160E+01  0.17620948365E+02  0.00000000000E+00 0. -1.
</event>
<event>
 7    1  0.6462830E-013  0.5052886E+02  0.7816164E-02  0.1300439E+00
        -11   -1    0    0    0    0  0.00000000000E+00  0.00000000000E+00  0.45593999997E+02  0.45594000000E+02  0.51100000000E-03 0.  1.
         11   -1    0    0    0    0 -0.00000000000E+00 -0.00000000000E+00 -0.45593999997E+02  0.45594000000E+02  0.51100000000E-03 0. -1.
    9900012    2    1    2    0    0  0.27737569382E+02  0.29720564445E+02  0.69366865258E+00  0.50528857334E+02  0.29999992351E+02 0.  0.
         12    1    1    2    0    0 -0.27737569382E+02 -0.29720564445E+02 -0.69366865258E+00  0.40659142666E+02  0.00000000000E+00 0. -1.
         11    1    3    3    0    0  0.25332327505E+01 -0.47588976249E+01 -0.28002395834E+00  0.53984061028E+01  0.51100000000E-03 0. -1.
        -11    1    3    3    0    0  0.81688477294E+01  0.12295428237E+02  0.72781713497E+01  0.16458414481E+02  0.51100000000E-03 0.  1.
        -12    1    3    3    0    0  0.17035488902E+02  0.22184033833E+02 -0.63044787388E+01  0.28672036750E+02  0.00000000000E+00 0.  1.
</event>
<event>
 7    1  0.6462830E-013  0.5052884E+02  0.7816164E-02  0.1300439E+00
        -11   -1    0    0    0    0  0.00000000000E+00  0.00000000000E+00  0.45593999997E+02  0.45594000000E+02  0.51100000000E-03 0. -1.
         11   -1    0    0    0    0 -0.00000000000E+00 -0.00000000000E+00 -0.45593999997E+02  0.45594000000E+02  0.51100000000E-03 0.  1.
    9900012    2    1    2    0    0 -0.29287067378E+02 -0.27284817698E+02 -0.71395799005E+01  0.50528841209E+02  0.29999943339E+02 0.  0.
         12    1    1    2    0    0  0.29287067378E+02  0.27284817698E+02  0.71395799005E+01  0.40659158791E+02  0.00000000000E+00 0. -1.
         11    1    3    3    0    0 -0.29915197379E+02 -0.11346049386E+02 -0.19272144277E+01  0.32052551015E+02  0.51100000000E-03 0. -1.
        -11    1    3    3    0    0 -0.29727261736E+01 -0.66572471626E+01 -0.43348370756E+01  0.84821491039E+01  0.51100000000E-03 0.  1.
        -12    1    3    3    0    0  0.36008561746E+01 -0.92815211496E+01 -0.87752839729E+00  0.99941410900E+01  0.00000000000E+00 0.  1.
</event>
<event>
 7    1  0.6462830E-013  0.5052885E+02  0.7816164E-02  0.1300439E+00
        -11   -1    0    0    0    0  0.00000000000E+00  0.00000000000E+00  0.45593999997E+02  0.45594000000E+02  0.51100000000E-03 0.  1.
         11   -1    0    0    0    0 -0.00000000000E+00 -0.00000000000E+00 -0.45593999997E+02  0.45594000000E+02  0.51100000000E-03 0. -1.
    9900012    2    1    2    0    0  0.48553717638E+01  0.30035207530E+02  0.26971803806E+02  0.50528849408E+02  0.29999968260E+02 0.  0.
         12    1    1    2    0    0 -0.48553717638E+01 -0.30035207530E+02 -0.26971803806E+02  0.40659150592E+02  0.00000000000E+00 0. -1.
         11    1    3    3    0    0  0.36537438383E+01  0.82452629448E+01  0.12867245854E+02  0.15713058938E+02  0.51100000000E-03 0. -1.
        -11    1    3    3    0    0  0.11504406943E+02  0.90731417976E+01  0.27796297620E+01  0.14913068868E+02  0.51100000000E-03 0.  1.
         12    1    3    3    0    0 -0.10302779018E+02  0.12716802788E+02  0.11324928190E+02  0.19902721601E+02  0.00000000000E+00 0. -1.
</event>
<event>
 7    1  0.6462830E-013  0.5052887E+02  0.7816164E-02  0.1300439E+00
        -11   -1    0    0    0    0  0.00000000000E+00  0.00000000000E+00  0.45593999997E+02  0.45594000000E+02  0.51100000000E-03 0. -1.
         11   -1    0    0    0    0 -0.00000000000E+00 -0.00000000000E+00 -0.45593999997E+02  0.45594000000E+02  0.51100000000E-03 0.  1.
    9900012    2    1    2    0    0 -0.38797613977E+02 -0.55173205168E+01  0.10838304734E+02  0.50528874019E+02  0.30000043069E+02 0.  0.
         12    1    1    2    0    0  0.38797613977E+02  0.55173205168E+01 -0.10838304734E+02  0.40659125981E+02  0.00000000000E+00 0. -1.
         11    1    3    3    0    0  0.14469532084E+00  0.39504016262E+01  0.46957535712E+01  0.61381358413E+01  0.51100000000E-03 0. -1.
        -11    1    3    3    0    0 -0.21624037151E+02 -0.88586681800E+01  0.11777786496E+02  0.26168516191E+02  0.51100000000E-03 0.  1.
         12    1    3    3    0    0 -0.17318272147E+02 -0.60905396293E+00 -0.56352353332E+01  0.18222221987E+02  0.00000000000E+00 0. -1.
</event>
<event>
 7    1  0.6462830E-013  0.5052886E+02  0.7816164E-02  0.1300439E+00
        -11   -1    0    0    0    0  0.00000000000E+00  0.00000000000E+00  0.45593999997E+02  0.45594000000E+02  0.51100000000E-03 0.  1.
         11   -1    0    0    0    0 -0.00000000000E+00 -0.00000000000E+00 -0.45593999997E+02  0.45594000000E+02  0.51100000000E-03 0. -1.
    9900012    2    1    2    0    0 -0.21463560105E+02  0.11362760142E+02  0.32609341609E+02  0.50528857232E+02  0.29999992043E+02 0.  0.
         12    1    1    2    0    0  0.21463560105E+02 -0.11362760142E+02 -0.32609341609E+02  0.40659142768E+02  0.00000000000E+00 0. -1.
         11    1    3    3    0    0  0.12338201869E+01  0.51919407723E+01 -0.14788538837E+01  0.55376502514E+01  0.51100000000E-03 0. -1.
        -11    1    3    3    0    0 -0.84332146956E+01 -0.20719724756E+01  0.19855638645E+01  0.89081223702E+01  0.51100000000E-03 0.  1.
        -12    1    3    3    0    0 -0.14264165596E+02  0.82427918449E+01  0.32102631628E+02  0.36083084611E+02  0.00000000000E+00 0.  1.
</event>
<event>
 7    1  0.6462830E-013  0.5052886E+02  0.7816164E-02  0.1300439E+00
        -11   -1    0    0    0    0  0.00000000000E+00  0.00000000000E+00  0.45593999997E+02  0.45594000000E+02  0.51100000000E-03 0.  1.
         11   -1    0    0    0    0 -0.00000000000E+00 -0.00000000000E+00 -0.45593999997E+02  0.45594000000E+02  0.51100000000E-03 0. -1.
    9900012    2    1    2    0    0 -0.12867511404E+02  0.17138425753E+02  0.34552384777E+02  0.50528858583E+02  0.29999996148E+02 0.  0.
         12    1    1    2    0    0  0.12867511404E+02 -0.17138425753E+02 -0.34552384777E+02  0.40659141417E+02  0.00000000000E+00 0. -1.
         11    1    3    3    0    0  0.17658006066E+01  0.44241761626E+01  0.28099801485E+01  0.55305854298E+01  0.51100000000E-03 0. -1.
        -11    1    3    3    0    0 -0.12929371019E+02  0.85585673916E+01  0.35757027880E+02  0.38974129289E+02  0.51100000000E-03 0.  1.
         12    1    3    3    0    0 -0.17039409919E+01  0.41556821990E+01 -0.40146232516E+01  0.60241438641E+01  0.00000000000E+00 0. -1.
</event>
<event>
 7    1  0.6462830E-013  0.5052886E+02  0.7816164E-02  0.1300439E+00
        -11   -1    0    0    0    0  0.00000000000E+00  0.00000000000E+00  0.45593999997E+02  0.45594000000E+02  0.51100000000E-03 0. -1.
         11   -1    0    0    0    0 -0.00000000000E+00 -0.00000000000E+00 -0.45593999997E+02  0.45594000000E+02  0.51100000000E-03 0.  1.
    9900012    2    1    2    0    0  0.17531829216E+02  0.51002071029E+01 -0.36328888774E+02  0.50528864401E+02  0.30000013832E+02 0.  0.
         12    1    1    2    0    0 -0.17531829216E+02 -0.51002071029E+01  0.36328888774E+02  0.40659135599E+02  0.00000000000E+00 0. -1.
         11    1    3    3    0    0  0.30273508169E+01  0.44449369667E+00 -0.36538345093E+00  0.30815471669E+01  0.51100000000E-03 0. -1.
        -11    1    3    3    0    0  0.13935728367E+02  0.12307383967E+02 -0.35107771534E+02  0.39726966252E+02  0.51100000000E-03 0.  1.
        -12    1    3    3    0    0  0.56875003244E+00 -0.76516705606E+01 -0.85573378889E+00  0.77203509820E+01  0.00000000000E+00 0.  1.
</event>
<event>
 7    1  0.6462830E-013  0.5052886E+02  0.7816164E-02  0.1300439E+00
        -11   -1    0    0    0    0  0.00000000000E+00  0.00000000000E+00  0.45593999997E+02  0.45594000000E+02  0.51100000000E-03 0. -1.
         11   -1    0    0    0    0 -0.00000000000E+00 -0.00000000000E+00 -0.45593999997E+02  0.45594000000E+02  0.51100000000E-03 0.  1.
    9900012    2    1    2    0    0 -0.25507876785E+02  0.88738628923E+01 -0.30393565254E+02  0.50528855523E+02  0.29999986848E+02 0.  0.
         12    1    1    2    0    0  0.25507876785E+02 -0.88738628923E+01  0.30393565254E+02  0.40659144477E+02  0.00000000000E+00 0. -1.
         11    1    3    3    0    0 -0.58136033552E+01  0.18672506883E+01  0.48443521572E+01  0.77943798463E+01  0.51100000000E-03 0. -1.
        -11    1    3    3    0    0 -0.45088462965E+01  0.62037592274E+01 -0.58511786854E+01  0.96463783746E+01  0.51100000000E-03 0.  1.
         12    1    3    3    0    0 -0.15185427134E+02  0.80285297662E+00 -0.29386738726E+02  0.33088097302E+02  0.00000000000E+00 0. -1.
</event>
<event>
 7    1  0.6462830E-013  0.5052890E+02  0.7816164E-02  0.1300439E+00
        -11   -1    0    0    0    0  0.00000000000E+00  0.00000000000E+00  0.45593999997E+02  0.45594000000E+02  0.51100000000E-03 0. -1.
         11   -1    0    0    0    0 -0.00000000000E+00 -0.00000000000E+00 -0.45593999997E+02  0.45594000000E+02  0.51100000000E-03 0.  1.
    9900012    2    1    2    0    0  0.23228761191E+02  0.33365160855E+02 -0.59394775919E+00  0.50528904101E+02  0.30000134505E+02 0.  0.
         12    1    1    2    0    0 -0.23228761191E+02 -0.33365160855E+02  0.59394775919E+00  0.40659095899E+02  0.00000000000E+00 0. -1.
         11    1    3    3    0    0  0.15168435870E+02  0.36274838959E+01 -0.50459528298E+01  0.16392123913E+02  0.51100000000E-03 0. -1.
        -11    1    3    3    0    0  0.92786002968E+01  0.99673284691E+01  0.44584957371E+01  0.14328930343E+02  0.51100000000E-03 0.  1.
        -12    1    3    3    0    0 -0.12182749753E+01  0.19770348490E+02 -0.64906664503E-02  0.19807849845E+02  0.00000000000E+00 0.  1.
</event>
<event>
 7    1  0.6462830E-013  0.5052887E+02  0.7816164E-02  0.1300439E+00
        -11   -1    0    0    0    0  0.00000000000E+00  0.00000000000E+00  0.45593999997E+02  0.45594000000E+02  0.51100000000E-03 0.  1.
         11   -1    0    0    0    0 -0.00000000000E+00 -0.00000000000E+00 -0.45593999997E+02  0.45594000000E+02  0.51100000000E-03 0. -1.
    9900012    2    1    2    0    0  0.27610962464E+02 -0.23814492804E+02  0.17990820645E+02  0.50528868883E+02  0.30000027456E+02 0.  0.
         12    1    1    2    0    0 -0.27610962464E+02  0.23814492804E+02 -0.17990820645E+02  0.40659131117E+02  0.00000000000E+00 0. -1.
         11    1    3    3    0    0  0.26996852276E+01 -0.20131400880E+02  0.12530680896E+02  0.23865866121E+02  0.51100000000E-03 0. -1.
        -11    1    3    3    0    0  0.47394062252E+01 -0.24461413220E+01 -0.10394751393E+01  0.54337912695E+01  0.51100000000E-03 0.  1.
        -12    1    3    3    0    0  0.20171871011E+02 -0.12369506026E+01  0.64996148884E+01  0.21229211493E+02  0.00000000000E+00 0.  1.
</event>
<event>
 7    1  0.6462830E-013  0.5052878E+02  0.7816164E-02  0.1300439E+00
        -11   -1    0    0    0    0  0.00000000000E+00  0.00000000000E+00  0.45593999997E+02  0.45594000000E+02  0.51100000000E-03 0. -1.
         11   -1    0    0    0    0 -0.00000000000E+00 -0.00000000000E+00 -0.45593999997E+02  0.45594000000E+02  0.51100000000E-03 0.  1.
    9900012    2    1    2    0    0 -0.30262395457E+02 -0.25979214717E+02 -0.79018874074E+01  0.50528782094E+02  0.29999763653E+02 0.  0.
         12    1    1    2    0    0  0.30262395457E+02  0.25979214717E+02  0.79018874074E+01  0.40659217906E+02  0.00000000000E+00 0. -1.
         11    1    3    3    0    0 -0.98801893035E+00 -0.47100010378E+01 -0.33187952416E+01  0.58459125293E+01  0.51100000000E-03 0. -1.
        -11    1    3    3    0    0 -0.11180581815E+02 -0.19474306045E+02 -0.11500035475E+02  0.25229047185E+02  0.51100000000E-03 0.  1.
        -12    1    3    3    0    0 -0.18093794711E+02 -0.17949076345E+01  0.69169433092E+01  0.19453822380E+02  0.00000000000E+00 0.  1.
</event>
<event>
 7    1  0.6462830E-013  0.5052886E+02  0.7816164E-02  0.1300439E+00
        -11   -1    0    0    0    0  0.00000000000E+00  0.00000000000E+00  0.45593999997E+02  0.45594000000E+02  0.51100000000E-03 0.  1.
         11   -1    0    0    0    0 -0.00000000000E+00 -0.00000000000E+00 -0.45593999997E+02  0.45594000000E+02  0.51100000000E-03 0. -1.
    9900012    2    1    2    0    0 -0.60002915850E+01  0.17954323822E+02  0.35983389599E+02  0.50528861174E+02  0.30000004025E+02 0.  0.
         12    1    1    2    0    0  0.60002915850E+01 -0.17954323822E+02 -0.35983389599E+02  0.40659138826E+02  0.00000000000E+00 0. -1.
         11    1    3    3    0    0  0.49562416600E+01  0.75675416910E+01  0.18105511619E+01  0.92255143167E+01  0.51100000000E-03 0. -1.
        -11    1    3    3    0    0 -0.58102045851E+00 -0.33817755219E+01  0.49182601500E+00  0.34663934491E+01  0.51100000000E-03 0.  1.
        -12    1    3    3    0    0 -0.10375512787E+02  0.13768557653E+02  0.33681012423E+02  0.37836953408E+02  0.00000000000E+00 0.  1.
</event>
<event>
 7    1  0.6462830E-013  0.5052886E+02  0.7816164E-02  0.1300439E+00
        -11   -1    0    0    0    0  0.00000000000E+00  0.00000000000E+00  0.45593999997E+02  0.45594000000E+02  0.51100000000E-03 0.  1.
         11   -1    0    0    0    0 -0.00000000000E+00 -0.00000000000E+00 -0.45593999997E+02  0.45594000000E+02  0.51100000000E-03 0. -1.
    9900012    2    1    2    0    0  0.14069260031E+02 -0.25523849920E+02  0.28350563007E+02  0.50528863076E+02  0.30000009806E+02 0.  0.
         12    1    1    2    0    0 -0.14069260031E+02  0.25523849920E+02 -0.28350563007E+02  0.40659136924E+02  0.00000000000E+00 0. -1.
         11    1    3    3    0    0 -0.38252505781E+01  0.69373488963E-01  0.30377489307E+01  0.48852096673E+01  0.51100000000E-03 0. -1.
        -11    1    3    3    0    0  0.20002200248E+02 -0.10517097799E+02  0.13049348735E+02  0.26095648364E+02  0.51100000000E-03 0.  1.
         12    1    3    3    0    0 -0.21076896391E+01 -0.15076125611E+02  0.12263465341E+02  0.19548005044E+02  0.00000000000E+00 0. -1.
</event>
<event>
 7    1  0.6462830E-013  0.5052874E+02  0.7816164E-02  0.1300439E+00
        -11   -1    0    0    0    0  0.00000000000E+00  0.00000000000E+00  0.45593999997E+02  0.45594000000E+02  0.51100000000E-03 0.  1.
         11   -1    0    0    0    0 -0.00000000000E+00 -0.00000000000E+00 -0.45593999997E+02  0.45594000000E+02  0.51100000000E-03 0. -1.
    9900012    2    1    2    0    0  0.38717599178E+02  0.32630812488E+01  0.11978105661E+02  0.50528742744E+02  0.29999644043E+02 0.  0.
         12    1    1    2    0    0 -0.38717599178E+02 -0.32630812488E+01 -0.11978105661E+02  0.40659257256E+02  0.00000000000E+00 0. -1.
         11    1    3    3    0    0  0.11524421255E+02 -0.94120442500E+01  0.70338336233E+01  0.16458240426E+02  0.51100000000E-03 0. -1.
        -11    1    3    3    0    0  0.17210870879E+02  0.16070228779E+01 -0.24052877463E+01  0.17452278027E+02  0.51100000000E-03 0.  1.
        -12    1    3    3    0    0  0.99823070449E+01  0.11068102621E+02  0.73495597840E+01  0.16618224291E+02  0.00000000000E+00 0.  1.
</event>
<event>
 7    1  0.6462830E-013  0.5052886E+02  0.7816164E-02  0.1300439E+00
        -11   -1    0    0    0    0  0.00000000000E+00  0.00000000000E+00  0.45593999997E+02  0.45594000000E+02  0.51100000000E-03 0. -1.
         11   -1    0    0    0    0 -0.00000000000E+00 -0.00000000000E+00 -0.45593999997E+02  0.45594000000E+02  0.51100000000E-03 0.  1.
    9900012    2    1    2    0    0  0.24903614152E+02 -0.27770070500E+02 -0.16180210062E+02  0.50528855751E+02  0.29999987542E+02 0.  0.
         12    1    1    2    0    0 -0.24903614152E+02  0.27770070500E+02  0.16180210062E+02  0.40659144249E+02  0.00000000000E+00 0. -1.
         11    1    3    3    0    0 -0.73144803197E+00 -0.23539310489E+01  0.11994986825E+01  0.27413144579E+01  0.51100000000E-03 0. -1.
        -11    1    3    3    0    0  0.28337039458E+02 -0.19874168392E+02 -0.64047612566E+01  0.35199308822E+02  0.51100000000E-03 0.  1.
         12    1    3    3    0    0 -0.27019772738E+01 -0.55419710584E+01 -0.10974947487E+02  0.12588232471E+02  0.00000000000E+00 0. -1.
</event>
<event>
 7    1  0.6462830E-013  0.5052886E+02  0.7816164E-02  0.1300439E+00
        -11   -1    0    0    0    0  0.00000000000E+00  0.00000000000E+00  0.45593999997E+02  0.45594000000E+02  0.51100000000E-03 0.  1.
         11   -1    0    0    0    0 -0.00000000000E+00 -0.00000000000E+00 -0.45593999997E+02  0.45594000000E+02  0.51100000000E-03 0. -1.
    9900012    2    1    2    0    0  0.13624467943E+02 -0.12740925136E+01  0.38287290035E+02  0.50528855681E+02  0.29999987329E+02 0.  0.
         12    1    1    2    0    0 -0.13624467943E+02  0.12740925136E+01 -0.38287290035E+02  0.40659144319E+02  0.00000000000E+00 0. -1.
         11    1    3    3    0    0  0.91492025473E+01  0.12223794636E+02  0.22747180144E+02  0.27396409752E+02  0.51100000000E-03 0. -1.
        -11    1    3    3    0    0 -0.24713474553E+01 -0.74537873247E+00  0.28734109849E+01  0.38625948078E+01  0.51100000000E-03 0.  1.
        -12    1    3    3    0    0  0.69466128511E+01 -0.12752508418E+02  0.12666698907E+02  0.19269851121E+02  0.00000000000E+00 0.  1.
</event>
<event>
 7    1  0.6462830E-013  0.5052885E+02  0.7816164E-02  0.1300439E+00
        -11   -1    0    0    0    0  0.00000000000E+00  0.00000000000E+00  0.45593999997E+02  0.45594000000E+02  0.51100000000E-03 0.  1.
         11   -1    0    0    0    0 -0.00000000000E+00 -0.00000000000E+00 -0.45593999997E+02  0.45594000000E+02  0.51100000000E-03 0. -1.
    9900012    2    1    2    0    0  0.27205881069E+02 -0.12168185700E+01  0.30191487555E+02  0.50528849333E+02  0.29999968032E+02 0.  0.
         12    1    1    2    0    0 -0.27205881069E+02  0.12168185700E+01 -0.30191487555E+02  0.40659150667E+02  0.00000000000E+00 0. -1.
         11    1    3    3    0    0  0.75909552462E+01 -0.22417937683E+01 -0.27154882163E+01  0.83679219262E+01  0.51100000000E-03 0. -1.
        -11    1    3    3    0    0  0.17093876294E+02 -0.66007570426E+01  0.23046071205E+02  0.29443029710E+02  0.51100000000E-03 0.  1.
        -12    1    3    3    0    0  0.25210495288E+01  0.76257322409E+01  0.98609045671E+01  0.12717897696E+02  0.00000000000E+00 0.  1.
</event>
<event>
 7    1  0.6462830E-013  0.5052887E+02  0.7816164E-02  0.1300439E+00
        -11   -1    0    0    0    0  0.00000000000E+00  0.00000000000E+00  0.45593999997E+02  0.45594000000E+02  0.51100000000E-03 0.  1.
         11   -1    0    0    0    0 -0.00000000000E+00 -0.00000000000E+00 -0.45593999997E+02  0.45594000000E+02  0.51100000000E-03 0. -1.
    9900012    2    1    2    0    0  0.83861767255E+01  0.93240258868E+01  0.38676863085E+02  0.50528866255E+02  0.30000019470E+02 0.  0.
         12    1    1    2    0    0 -0.83861767255E+01 -0.93240258868E+01 -0.38676863085E+02  0.40659133745E+02  0.00000000000E+00 0. -1.
         11    1    3    3    0    0 -0.48789634693E+00  0.55874601010E+01  0.73314921681E+01  0.92308467054E+01  0.51100000000E-03 0. -1.
        -11    1    3    3    0    0 -0.36236023113E+01 -0.74928259535E+01  0.18035644832E+02  0.19863469467E+02  0.51100000000E-03 0.  1.
         12    1    3    3    0    0  0.12497675384E+02  0.11229391739E+02  0.13309726084E+02  0.21434550083E+02  0.00000000000E+00 0. -1.
</event>
<event>
 7    1  0.7857328E-013  0.5052886E+02  0.7816164E-02  0.1300439E+00
        -11   -1    0    0    0    0  0.00000000000E+00  0.00000000000E+00  0.45593999997E+02  0.45594000000E+02  0.51100000000E-03 0.  1.
         11   -1    0    0    0    0 -0.00000000000E+00 -0.00000000000E+00 -0.45593999997E+02  0.45594000000E+02  0.51100000000E-03 0. -1.
    9900012    2    1    2    0    0  0.22197944018E+01  0.39197258362E+02 -0.10574171014E+02  0.50528860279E+02  0.30000001303E+02 0.  0.
         12    1    1    2    0    0 -0.22197944018E+01 -0.39197258362E+02  0.10574171014E+02  0.40659139721E+02  0.00000000000E+00 0. -1.
         11    1    3    3    0    0 -0.14599615048E+01  0.23733554808E+02 -0.85382467876E+01  0.25264892042E+02  0.51100000000E-03 0. -1.
        -11    1    3    3    0    0  0.24097886383E+01  0.18306228643E+02  0.36126207535E+01  0.18814253038E+02  0.51100000000E-03 0.  1.
         12    1    3    3    0    0  0.12699672683E+01 -0.28425250898E+01 -0.56485449798E+01  0.64497151982E+01  0.00000000000E+00 0. -1.
</event>
<event>
 7    1  0.6462830E-013  0.5052886E+02  0.7816164E-02  0.1300439E+00
        -11   -1    0    0    0    0  0.00000000000E+00  0.00000000000E+00  0.45593999997E+02  0.45594000000E+02  0.51100000000E-03 0. -1.
         11   -1    0    0    0    0 -0.00000000000E+00 -0.00000000000E+00 -0.45593999997E+02  0.45594000000E+02  0.51100000000E-03 0.  1.
    9900012    2    1    2    0    0 -0.25173827576E+02 -0.19734264864E+02 -0.25099865085E+02  0.50528855496E+02  0.29999986765E+02 0.  0.
         12    1    1    2    0    0  0.25173827576E+02  0.19734264864E+02  0.25099865085E+02  0.40659144504E+02  0.00000000000E+00 0. -1.
         11    1    3    3    0    0 -0.24635562343E+02 -0.20095178290E+02 -0.17608316371E+02  0.36342536072E+02  0.51100000000E-03 0. -1.
        -11    1    3    3    0    0 -0.34275067743E+01 -0.44203979417E+01 -0.63898977221E+01  0.84922619961E+01  0.51100000000E-03 0.  1.
         12    1    3    3    0    0  0.28892415417E+01  0.47813113673E+01 -0.11016509914E+01  0.56940574272E+01  0.00000000000E+00 0. -1.
</event>
<event>
 7    1  0.6462830E-013  0.5052886E+02  0.7816164E-02  0.1300439E+00
        -11   -1    0    0    0    0  0.00000000000E+00  0.00000000000E+00  0.45593999997E+02  0.45594000000E+02  0.51100000000E-03 0. -1.
         11   -1    0    0    0    0 -0.00000000000E+00 -0.00000000000E+00 -0.45593999997E+02  0.45594000000E+02  0.51100000000E-03 0.  1.
    9900012    2    1    2    0    0  0.24225172834E+02  0.15928483684E+02 -0.28505966425E+02  0.50528859415E+02  0.29999998677E+02 0.  0.
         12    1    1    2    0    0 -0.24225172834E+02 -0.15928483684E+02  0.28505966425E+02  0.40659140585E+02  0.00000000000E+00 0. -1.
         11    1    3    3    0    0 -0.34907058517E+01 -0.44385079562E+00  0.21049819516E+01  0.41003634168E+01  0.51100000000E-03 0. -1.
        -11    1    3    3    0    0  0.38617373184E+01  0.85442219131E+01 -0.11720601933E+02  0.15009638675E+02  0.51100000000E-03 0.  1.
         12    1    3    3    0    0  0.23854141367E+02  0.78281125669E+01 -0.18890346444E+02  0.31418857323E+02  0.00000000000E+00 0. -1.
</event>
<event>
 7    1  0.6462830E-013  0.5052887E+02  0.7816164E-02  0.1300439E+00
        -11   -1    0    0    0    0  0.00000000000E+00  0.00000000000E+00  0.45593999997E+02  0.45594000000E+02  0.51100000000E-03 0.  1.
         11   -1    0    0    0    0 -0.00000000000E+00 -0.00000000000E+00 -0.45593999997E+02  0.45594000000E+02  0.51100000000E-03 0. -1.
    9900012    2    1    2    0    0 -0.39688878806E+02 -0.84008633206E+01 -0.27171892299E+01  0.50528871594E+02  0.30000035698E+02 0.  0.
         12    1    1    2    0    0  0.39688878806E+02  0.84008633206E+01  0.27171892299E+01  0.40659128406E+02  0.00000000000E+00 0. -1.
         11    1    3    3    0    0 -0.11415650904E+02  0.79257686234E+00 -0.86054895047E+01  0.14317811059E+02  0.51100000000E-03 0. -1.
        -11    1    3    3    0    0 -0.26943436660E+02 -0.24512600088E+01  0.92085607860E+01  0.28578926619E+02  0.51100000000E-03 0.  1.
         12    1    3    3    0    0 -0.13297912410E+01 -0.67421801741E+01 -0.33202605112E+01  0.76321339157E+01  0.00000000000E+00 0. -1.
</event>
<event>
 7    1  0.6462830E-013  0.5052885E+02  0.7816164E-02  0.1300439E+00
        -11   -1    0    0    0    0  0.00000000000E+00  0.00000000000E+00  0.45593999997E+02  0.45594000000E+02  0.51100000000E-03 0. -1.
         11   -1    0    0    0    0 -0.00000000000E+00 -0.00000000000E+00 -0.45593999997E+02  0.45594000000E+02  0.51100000000E-03 0.  1.
    9900012    2    1    2    0    0  0.19813164973E+02  0.70221478305E+01 -0.34803658141E+02  0.50528847446E+02  0.29999962296E+02 0.  0.
         12    1    1    2    0    0 -0.19813164973E+02 -0.70221478305E+01  0.34803658141E+02  0.40659152554E+02  0.00000000000E+00 0. -1.
         11    1    3    3    0    0 -0.28638567856E+01 -0.23244087325E+01 -0.22993893905E+01  0.43464633295E+01  0.51100000000E-03 0. -1.
        -11    1    3    3    0    0  0.12991583681E+01  0.44447614088E+01 -0.20825554844E+02  0.21334185038E+02  0.51100000000E-03 0.  1.
         12    1    3    3    0    0  0.21377863391E+02  0.49017951542E+01 -0.11678713907E+02  0.24848199078E+02  0.00000000000E+00 0. -1.
</event>
<event>
 7    1  0.6462830E-013  0.5052886E+02  0.7816164E-02  0.1300439E+00
        -11   -1    0    0    0    0  0.00000000000E+00  0.00000000000E+00  0.45593999997E+02  0.45594000000E+02  0.51100000000E-03 0. -1.
         11   -1    0    0    0    0 -0.00000000000E+00 -0.00000000000E+00 -0.45593999997E+02  0.45594000000E+02  0.51100000000E-03 0.  1.
    9900012    2    1    2    0    0 -0.30498527753E+02  0.19004372409E+02 -0.19022083691E+02  0.50528855472E+02  0.29999986693E+02 0.  0.
         12    1    1    2    0    0  0.30498527753E+02 -0.19004372409E+02  0.19022083691E+02  0.40659144528E+02  0.00000000000E+00 0. -1.
         11    1    3    3    0    0 -0.15062403370E+02 -0.12104733400E+00 -0.14576343458E+02  0.20960926426E+02  0.51100000000E-03 0.  1.
        -11    1    3    3    0    0 -0.16402452192E+02  0.11949070831E+02 -0.75997579746E+01  0.21669726652E+02  0.51100000000E-03 0. -1.
        -12    1    3    3    0    0  0.96632780929E+00  0.71763489126E+01  0.31540177417E+01  0.78982023946E+01  0.00000000000E+00 0.  1.
</event>
<event>
 7    1  0.6462830E-013  0.5052886E+02  0.7816164E-02  0.1300439E+00
        -11   -1    0    0    0    0  0.00000000000E+00  0.00000000000E+00  0.45593999997E+02  0.45594000000E+02  0.51100000000E-03 0. -1.
         11   -1    0    0    0    0 -0.00000000000E+00 -0.00000000000E+00 -0.45593999997E+02  0.45594000000E+02  0.51100000000E-03 0.  1.
    9900012    2    1    2    0    0 -0.35363596428E+02  0.10581243937E+02 -0.17047548800E+02  0.50528860859E+02  0.30000003067E+02 0.  0.
         12    1    1    2    0    0  0.35363596428E+02 -0.10581243937E+02  0.17047548800E+02  0.40659139141E+02  0.00000000000E+00 0. -1.
         11    1    3    3    0    0 -0.72250649856E+01  0.50346521201E+01 -0.12596728989E+02  0.15369673630E+02  0.51100000000E-03 0.  1.
        -11    1    3    3    0    0  0.10689747824E+01 -0.40015329603E+01 -0.73861176118E+00  0.42071986776E+01  0.51100000000E-03 0. -1.
        -12    1    3    3    0    0 -0.29207506225E+02  0.95481247776E+01 -0.37122080496E+01  0.30951988551E+02  0.00000000000E+00 0.  1.
</event>
<event>
 7    1  0.6462830E-013  0.5052886E+02  0.7816164E-02  0.1300439E+00
        -11   -1    0    0    0    0  0.00000000000E+00  0.00000000000E+00  0.45593999997E+02  0.45594000000E+02  0.51100000000E-03 0.  1.
         11   -1    0    0    0    0 -0.00000000000E+00 -0.00000000000E+00 -0.45593999997E+02  0.45594000000E+02  0.51100000000E-03 0. -1.
    9900012    2    1    2    0    0  0.10806288079E+01 -0.39883301628E+02 -0.78307248410E+01  0.50528858852E+02  0.29999996965E+02 0.  0.
         12    1    1    2    0    0 -0.10806288079E+01  0.39883301628E+02  0.78307248410E+01  0.40659141148E+02  0.00000000000E+00 0. -1.
         11    1    3    3    0    0 -0.51759137054E+01  0.60044428847E+00 -0.50935551960E+01  0.72866261621E+01  0.51100000000E-03 0. -1.
        -11    1    3    3    0    0  0.79407534905E+01 -0.10779153384E+02 -0.32328574731E+00  0.13392170385E+02  0.51100000000E-03 0.  1.
         12    1    3    3    0    0 -0.16842109771E+01 -0.29704592532E+02 -0.24138838977E+01  0.29850062305E+02  0.00000000000E+00 0. -1.
</event>
<event>
 7    1  0.6462830E-013  0.5052886E+02  0.7816164E-02  0.1300439E+00
        -11   -1    0    0    0    0  0.00000000000E+00  0.00000000000E+00  0.45593999997E+02  0.45594000000E+02  0.51100000000E-03 0.  1.
         11   -1    0    0    0    0 -0.00000000000E+00 -0.00000000000E+00 -0.45593999997E+02  0.45594000000E+02  0.51100000000E-03 0. -1.
    9900012    2    1    2    0    0 -0.20243991474E+02  0.24492991609E+01  0.35175948702E+02  0.50528860508E+02  0.30000001999E+02 0.  0.
         12    1    1    2    0    0  0.20243991474E+02 -0.24492991609E+01 -0.35175948702E+02  0.40659139492E+02  0.00000000000E+00 0. -1.
         11    1    3    3    0    0 -0.14282703928E+02 -0.38352933548E+01  0.95061909669E+01  0.17580465682E+02  0.51100000000E-03 0. -1.
        -11    1    3    3    0    0 -0.20898083243E+01  0.22717770293E+01 -0.26602029686E+01  0.40749171523E+01  0.51100000000E-03 0.  1.
        -12    1    3    3    0    0 -0.38714792212E+01  0.40128154864E+01  0.28329960704E+02  0.28873477674E+02  0.00000000000E+00 0.  1.
</event>
<event>
 7    1  0.6462830E-013  0.5052886E+02  0.7816164E-02  0.1300439E+00
        -11   -1    0    0    0    0  0.00000000000E+00  0.00000000000E+00  0.45593999997E+02  0.45594000000E+02  0.51100000000E-03 0. -1.
         11   -1    0    0    0    0 -0.00000000000E+00 -0.00000000000E+00 -0.45593999997E+02  0.45594000000E+02  0.51100000000E-03 0.  1.
    9900012    2    1    2    0    0  0.75309278959E+01 -0.32676434969E+02 -0.22993506624E+02  0.50528860510E+02  0.30000002005E+02 0.  0.
         12    1    1    2    0    0 -0.75309278959E+01  0.32676434969E+02  0.22993506624E+02  0.40659139490E+02  0.00000000000E+00 0. -1.
         11    1    3    3    0    0  0.89183767056E+00 -0.86163135103E+01 -0.13996998779E+02  0.16460625991E+02  0.51100000000E-03 0.  1.
        -11    1    3    3    0    0  0.12064654325E+02 -0.85602875213E+01 -0.96002248789E+01  0.17635155923E+02  0.51100000000E-03 0. -1.
        -12    1    3    3    0    0 -0.54255640996E+01 -0.15499833937E+02  0.60371703432E+00  0.16433078596E+02  0.00000000000E+00 0.  1.
</event>
<event>
 7    1  0.6462830E-013  0.5052886E+02  0.7816164E-02  0.1300439E+00
        -11   -1    0    0    0    0  0.00000000000E+00  0.00000000000E+00  0.45593999997E+02  0.45594000000E+02  0.51100000000E-03 0. -1.
         11   -1    0    0    0    0 -0.00000000000E+00 -0.00000000000E+00 -0.45593999997E+02  0.45594000000E+02  0.51100000000E-03 0.  1.
    9900012    2    1    2    0    0 -0.10770239031E+02 -0.18096416493E+02 -0.34780557020E+02  0.50528862216E+02  0.30000007193E+02 0.  0.
         12    1    1    2    0    0  0.10770239031E+02  0.18096416493E+02  0.34780557020E+02  0.40659137784E+02  0.00000000000E+00 0. -1.
         11    1    3    3    0    0  0.20472499340E+01  0.54755651701E+00  0.35094411988E+01  0.40996619642E+01  0.51100000000E-03 0. -1.
        -11    1    3    3    0    0 -0.11947416738E+02 -0.60932783943E+01 -0.16444789839E+02  0.21220271473E+02  0.51100000000E-03 0.  1.
        -12    1    3    3    0    0 -0.87007222731E+00 -0.12550694616E+02 -0.21845208380E+02  0.25208928779E+02  0.00000000000E+00 0.  1.
</event>
<event>
 7    1  0.6462830E-013  0.5052886E+02  0.7816164E-02  0.1300439E+00
        -11   -1    0    0    0    0  0.00000000000E+00  0.00000000000E+00  0.45593999997E+02  0.45594000000E+02  0.51100000000E-03 0.  1.
         11   -1    0    0    0    0 -0.00000000000E+00 -0.00000000000E+00 -0.45593999997E+02  0.45594000000E+02  0.51100000000E-03 0. -1.
    9900012    2    1    2    0    0  0.15629889769E+02 -0.23565253626E+02  0.29215593416E+02  0.50528861651E+02  0.30000005474E+02 0.  0.
         12    1    1    2    0    0 -0.15629889769E+02  0.23565253626E+02 -0.29215593416E+02  0.40659138349E+02  0.00000000000E+00 0. -1.
         11    1    3    3    0    0  0.20877775273E+01  0.68667770837E+00 -0.19293450488E+01  0.29245023264E+01  0.51100000000E-03 0. -1.
        -11    1    3    3    0    0  0.13918253969E+02 -0.40025338094E+01  0.19342569988E+02  0.24163465903E+02  0.51100000000E-03 0.  1.
        -12    1    3    3    0    0 -0.37614172779E+00 -0.20249397525E+02  0.11802368477E+02  0.23440893421E+02  0.00000000000E+00 0.  1.
</event>
<event>
 7    1  0.6462830E-013  0.5052886E+02  0.7816164E-02  0.1300439E+00
        -11   -1    0    0    0    0  0.00000000000E+00  0.00000000000E+00  0.45593999997E+02  0.45594000000E+02  0.51100000000E-03 0. -1.
         11   -1    0    0    0    0 -0.00000000000E+00 -0.00000000000E+00 -0.45593999997E+02  0.45594000000E+02  0.51100000000E-03 0.  1.
    9900012    2    1    2    0    0 -0.32452952383E+02 -0.29046518859E+01 -0.24321489162E+02  0.50528856428E+02  0.29999989598E+02 0.  0.
         12    1    1    2    0    0  0.32452952383E+02  0.29046518859E+01  0.24321489162E+02  0.40659143572E+02  0.00000000000E+00 0. -1.
         11    1    3    3    0    0 -0.18561861278E+02 -0.81260795519E+01 -0.13144926164E+02  0.24152949035E+02  0.51100000000E-03 0. -1.
        -11    1    3    3    0    0 -0.15883258148E+02 -0.22988714463E+01 -0.84111134052E+01  0.18119313682E+02  0.51100000000E-03 0.  1.
         12    1    3    3    0    0  0.19921670421E+01  0.75202991123E+01 -0.27654495921E+01  0.82565937110E+01  0.00000000000E+00 0. -1.
</event>
<event>
 7    1  0.6462830E-013  0.5052883E+02  0.7816164E-02  0.1300439E+00
        -11   -1    0    0    0    0  0.00000000000E+00  0.00000000000E+00  0.45593999997E+02  0.45594000000E+02  0.51100000000E-03 0.  1.
         11   -1    0    0    0    0 -0.00000000000E+00 -0.00000000000E+00 -0.45593999997E+02  0.45594000000E+02  0.51100000000E-03 0. -1.
    9900012    2    1    2    0    0  0.21404528906E+02 -0.65115504516E+01  0.33950164318E+02  0.50528833701E+02  0.29999920516E+02 0.  0.
         12    1    1    2    0    0 -0.21404528906E+02  0.65115504516E+01 -0.33950164318E+02  0.40659166299E+02  0.00000000000E+00 0. -1.
         11    1    3    3    0    0 -0.53784173741E+01 -0.72726091560E-01  0.94836079716E+01  0.10902819954E+02  0.51100000000E-03 0. -1.
        -11    1    3    3    0    0  0.42618467334E+01 -0.69201067548E+01  0.34881456953E+01  0.88441153164E+01  0.51100000000E-03 0.  1.
         12    1    3    3    0    0  0.22521099546E+02  0.48128239478E+00  0.20978410651E+02  0.30781898430E+02  0.00000000000E+00 0. -1.
</event>
<event>
 7    1  0.6462830E-013  0.5052884E+02  0.7816164E-02  0.1300439E+00
        -11   -1    0    0    0    0  0.00000000000E+00  0.00000000000E+00  0.45593999997E+02  0.45594000000E+02  0.51100000000E-03 0. -1.
         11   -1    0    0    0    0 -0.00000000000E+00 -0.00000000000E+00 -0.45593999997E+02  0.45594000000E+02  0.51100000000E-03 0.  1.
    9900012    2    1    2    0    0 -0.33642014434E+01  0.38963507611E+02 -0.11121790982E+02  0.50528843450E+02  0.29999950151E+02 0.  0.
         12    1    1    2    0    0  0.33642014434E+01 -0.38963507611E+02  0.11121790982E+02  0.40659156550E+02  0.00000000000E+00 0. -1.
         11    1    3    3    0    0  0.47066485164E-02  0.91250393573E+00 -0.49770609488E+01  0.50600218907E+01  0.51100000000E-03 0. -1.
        -11    1    3    3    0    0 -0.12644360900E+02  0.30426182852E+02 -0.58081527543E+01  0.33456944036E+02  0.51100000000E-03 0.  1.
         12    1    3    3    0    0  0.92754528082E+01  0.76248208229E+01 -0.33657727900E+00  0.12011877524E+02  0.00000000000E+00 0. -1.
</event>
<event>
 7    1  0.6462830E-013  0.5052887E+02  0.7816164E-02  0.1300439E+00
        -11   -1    0    0    0    0  0.00000000000E+00  0.00000000000E+00  0.45593999997E+02  0.45594000000E+02  0.51100000000E-03 0. -1.
         11   -1    0    0    0    0 -0.00000000000E+00 -0.00000000000E+00 -0.45593999997E+02  0.45594000000E+02  0.51100000000E-03 0.  1.
    9900012    2    1    2    0    0  0.93461410107E+01  0.26882364683E+02 -0.29037099022E+02  0.50528868156E+02  0.30000025246E+02 0.  0.
         12    1    1    2    0    0 -0.93461410107E+01 -0.26882364683E+02  0.29037099022E+02  0.40659131844E+02  0.00000000000E+00 0. -1.
         11    1    3    3    0    0 -0.44243383932E+00 -0.22602990763E+01  0.11310623237E+01  0.25659309924E+01  0.51100000000E-03 0. -1.
        -11    1    3    3    0    0 -0.24030124512E+01  0.12356240002E+02 -0.16480457172E+01  0.12695164071E+02  0.51100000000E-03 0.  1.
        -12    1    3    3    0    0  0.12191587301E+02  0.16786423757E+02 -0.28520115628E+02  0.35267773093E+02  0.00000000000E+00 0.  1.
</event>
<event>
 7    1  0.6462830E-013  0.5052886E+02  0.7816164E-02  0.1300439E+00
        -11   -1    0    0    0    0  0.00000000000E+00  0.00000000000E+00  0.45593999997E+02  0.45594000000E+02  0.51100000000E-03 0.  1.
         11   -1    0    0    0    0 -0.00000000000E+00 -0.00000000000E+00 -0.45593999997E+02  0.45594000000E+02  0.51100000000E-03 0. -1.
    9900012    2    1    2    0    0  0.78585728336E+01  0.18479678145E+02  0.35354070352E+02  0.50528856357E+02  0.29999989383E+02 0.  0.
         12    1    1    2    0    0 -0.78585728336E+01 -0.18479678145E+02 -0.35354070352E+02  0.40659143643E+02  0.00000000000E+00 0. -1.
         11    1    3    3    0    0 -0.28798287326E+01  0.59088855509E+01  0.32698836024E+01  0.73416946966E+01  0.51100000000E-03 0. -1.
        -11    1    3    3    0    0 -0.50467295128E+01 -0.28870434690E-01  0.17663306835E+02  0.18370158434E+02  0.51100000000E-03 0.  1.
        -12    1    3    3    0    0  0.15785131079E+02  0.12599663029E+02  0.14420879914E+02  0.24817003226E+02  0.00000000000E+00 0.  1.
</event>
<event>
 7    1  0.6462830E-013  0.5052886E+02  0.7816164E-02  0.1300439E+00
        -11   -1    0    0    0    0  0.00000000000E+00  0.00000000000E+00  0.45593999997E+02  0.45594000000E+02  0.51100000000E-03 0.  1.
         11   -1    0    0    0    0 -0.00000000000E+00 -0.00000000000E+00 -0.45593999997E+02  0.45594000000E+02  0.51100000000E-03 0. -1.
    9900012    2    1    2    0    0  0.10288838842E+02  0.26361283467E+02  0.29195683886E+02  0.50528862917E+02  0.30000009323E+02 0.  0.
         12    1    1    2    0    0 -0.10288838842E+02 -0.26361283467E+02 -0.29195683886E+02  0.40659137083E+02  0.00000000000E+00 0. -1.
         11    1    3    3    0    0  0.20733733511E+01  0.60961948259E+01  0.27512796365E+01  0.70022859345E+01  0.51100000000E-03 0. -1.
        -11    1    3    3    0    0  0.26781457206E+01  0.11493733858E+02  0.30255428434E+02  0.32475672934E+02  0.51100000000E-03 0.  1.
         12    1    3    3    0    0  0.55373197699E+01  0.87713547831E+01 -0.38110241847E+01  0.11050904049E+02  0.00000000000E+00 0. -1.
</event>
<event>
 7    1  0.6462830E-013  0.5052887E+02  0.7816164E-02  0.1300439E+00
        -11   -1    0    0    0    0  0.00000000000E+00  0.00000000000E+00  0.45593999997E+02  0.45594000000E+02  0.51100000000E-03 0. -1.
         11   -1    0    0    0    0 -0.00000000000E+00 -0.00000000000E+00 -0.45593999997E+02  0.45594000000E+02  0.51100000000E-03 0.  1.
    9900012    2    1    2    0    0 -0.22598593515E+02  0.28669054701E+02  0.17904010797E+02  0.50528871518E+02  0.30000035467E+02 0.  0.
         12    1    1    2    0    0  0.22598593515E+02 -0.28669054701E+02 -0.17904010797E+02  0.40659128482E+02  0.00000000000E+00 0. -1.
         11    1    3    3    0    0 -0.98855649948E+01  0.14683465953E+02  0.20438071324E+02  0.27037812917E+02  0.51100000000E-03 0. -1.
        -11    1    3    3    0    0 -0.57792682149E+01 -0.37035255717E+00  0.31166872652E+01  0.65765372261E+01  0.51100000000E-03 0.  1.
        -12    1    3    3    0    0 -0.69337603051E+01  0.14355941305E+02 -0.56507477921E+01  0.16914521375E+02  0.00000000000E+00 0.  1.
</event>
<event>
 7    1  0.6462830E-013  0.5052886E+02  0.7816164E-02  0.1300439E+00
        -11   -1    0    0    0    0  0.00000000000E+00  0.00000000000E+00  0.45593999997E+02  0.45594000000E+02  0.51100000000E-03 0.  1.
         11   -1    0    0    0    0 -0.00000000000E+00 -0.00000000000E+00 -0.45593999997E+02  0.45594000000E+02  0.51100000000E-03 0. -1.
    9900012    2    1    2    0    0  0.31749206902E+02 -0.30938084065E+01  0.25210752402E+02  0.50528858026E+02  0.29999994455E+02 0.  0.
         12    1    1    2    0    0 -0.31749206902E+02  0.30938084065E+01 -0.25210752402E+02  0.40659141974E+02  0.00000000000E+00 0. -1.
         11    1    3    3    0    0  0.10491652886E+02 -0.46590976442E+01 -0.10196615182E+01  0.11524828893E+02  0.51100000000E-03 0. -1.
        -11    1    3    3    0    0  0.12527195919E+02  0.10512464017E+02  0.14306104000E+02  0.21728026813E+02  0.51100000000E-03 0.  1.
         12    1    3    3    0    0  0.87303580974E+01 -0.89471747794E+01  0.11924309921E+02  0.17276002319E+02  0.00000000000E+00 0. -1.
</event>
<event>
 7    1  0.6462830E-013  0.5052886E+02  0.7816164E-02  0.1300439E+00
        -11   -1    0    0    0    0  0.00000000000E+00  0.00000000000E+00  0.45593999997E+02  0.45594000000E+02  0.51100000000E-03 0. -1.
         11   -1    0    0    0    0 -0.00000000000E+00 -0.00000000000E+00 -0.45593999997E+02  0.45594000000E+02  0.51100000000E-03 0.  1.
    9900012    2    1    2    0    0  0.17559634114E+02  0.23300671932E+01 -0.36597757125E+02  0.50528858470E+02  0.29999995807E+02 0.  0.
         12    1    1    2    0    0 -0.17559634114E+02 -0.23300671932E+01  0.36597757125E+02  0.40659141530E+02  0.00000000000E+00 0. -1.
         11    1    3    3    0    0  0.72317349072E+01 -0.11001295442E+01 -0.32268050544E+02  0.33086785292E+02  0.51100000000E-03 0. -1.
        -11    1    3    3    0    0  0.90518152686E+00 -0.42211500059E+01  0.56581009127E+00  0.43540328765E+01  0.51100000000E-03 0.  1.
         12    1    3    3    0    0  0.94227176798E+01  0.76513467433E+01 -0.48955166726E+01  0.13088040302E+02  0.00000000000E+00 0. -1.
</event>
<event>
 7    1  0.6462830E-013  0.5052887E+02  0.7816164E-02  0.1300439E+00
        -11   -1    0    0    0    0  0.00000000000E+00  0.00000000000E+00  0.45593999997E+02  0.45594000000E+02  0.51100000000E-03 0. -1.
         11   -1    0    0    0    0 -0.00000000000E+00 -0.00000000000E+00 -0.45593999997E+02  0.45594000000E+02  0.51100000000E-03 0.  1.
    9900012    2    1    2    0    0  0.12462924758E+02  0.33009081528E+02 -0.20204974104E+02  0.50528868979E+02  0.30000027749E+02 0.  0.
         12    1    1    2    0    0 -0.12462924758E+02 -0.33009081528E+02  0.20204974104E+02  0.40659131021E+02  0.00000000000E+00 0. -1.
         11    1    3    3    0    0  0.92029028464E+01  0.13334491944E+02  0.32956505847E+01  0.16533705248E+02  0.51100000000E-03 0. -1.
        -11    1    3    3    0    0  0.41413560419E+01 -0.47304005746E+00 -0.24120807943E+01  0.48158831777E+01  0.51100000000E-03 0.  1.
         12    1    3    3    0    0 -0.88133413010E+00  0.20147629641E+02 -0.21088543895E+02  0.29179280553E+02  0.00000000000E+00 0. -1.
</event>
<event>
 7    1  0.6462830E-013  0.5052886E+02  0.7816164E-02  0.1300439E+00
        -11   -1    0    0    0    0  0.00000000000E+00  0.00000000000E+00  0.45593999997E+02  0.45594000000E+02  0.51100000000E-03 0.  1.
         11   -1    0    0    0    0 -0.00000000000E+00 -0.00000000000E+00 -0.45593999997E+02  0.45594000000E+02  0.51100000000E-03 0. -1.
    9900012    2    1    2    0    0  0.33480201628E+02 -0.23068979788E+02  0.25261195897E+00  0.50528861515E+02  0.30000005061E+02 0.  0.
         12    1    1    2    0    0 -0.33480201628E+02  0.23068979788E+02 -0.25261195897E+00  0.40659138485E+02  0.00000000000E+00 0. -1.
         11    1    3    3    0    0  0.26433501117E+01 -0.62888351413E+01  0.35497432955E+00  0.68310141475E+01  0.51100000000E-03 0. -1.
        -11    1    3    3    0    0  0.19057625895E+02 -0.14240012515E+02  0.11977750937E+02  0.26635269455E+02  0.51100000000E-03 0.  1.
         12    1    3    3    0    0  0.11779225622E+02 -0.25401321319E+01 -0.12080113308E+02  0.17062577913E+02  0.00000000000E+00 0. -1.
</event>
<event>
 7    1  0.6462830E-013  0.5052893E+02  0.7816164E-02  0.1300439E+00
        -11   -1    0    0    0    0  0.00000000000E+00  0.00000000000E+00  0.45593999997E+02  0.45594000000E+02  0.51100000000E-03 0.  1.
         11   -1    0    0    0    0 -0.00000000000E+00 -0.00000000000E+00 -0.45593999997E+02  0.45594000000E+02  0.51100000000E-03 0. -1.
    9900012    2    1    2    0    0  0.81511084973E+01 -0.39733052488E+02  0.28291825850E+01  0.50528925935E+02  0.30000200870E+02 0.  0.
         12    1    1    2    0    0 -0.81511084973E+01  0.39733052488E+02 -0.28291825850E+01  0.40659074065E+02  0.00000000000E+00 0. -1.
         11    1    3    3    0    0  0.87269668516E+01 -0.12237799096E+02 -0.38262437438E+01  0.15510119877E+02  0.51100000000E-03 0. -1.
        -11    1    3    3    0    0 -0.34331594235E+00  0.18813159576E+01  0.52726984164E+01  0.56087934906E+01  0.51100000000E-03 0.  1.
        -12    1    3    3    0    0 -0.23254241196E+00 -0.29376569350E+02  0.13827279124E+01  0.29410012567E+02  0.00000000000E+00 0.  1.
</event>
<event>
 7    1  0.6462830E-013  0.5052888E+02  0.7816164E-02  0.1300439E+00
        -11   -1    0    0    0    0  0.00000000000E+00  0.00000000000E+00  0.45593999997E+02  0.45594000000E+02  0.51100000000E-03 0. -1.
         11   -1    0    0    0    0 -0.00000000000E+00 -0.00000000000E+00 -0.45593999997E+02  0.45594000000E+02  0.51100000000E-03 0.  1.
    9900012    2    1    2    0    0 -0.33357448765E+02 -0.21119382965E+02  0.97167859631E+01  0.50528884732E+02  0.30000075631E+02 0.  0.
         12    1    1    2    0    0  0.33357448765E+02  0.21119382965E+02 -0.97167859631E+01  0.40659115268E+02  0.00000000000E+00 0. -1.
         11    1    3    3    0    0  0.11639798889E+01  0.18609838194E+01  0.26133962539E+01  0.34129093452E+01  0.51100000000E-03 0. -1.
        -11    1    3    3    0    0  0.12598905831E+01 -0.64235838725E+01  0.37580948391E+01  0.75480481668E+01  0.51100000000E-03 0.  1.
         12    1    3    3    0    0 -0.35781319237E+02 -0.16556782912E+02  0.33452948701E+01  0.39567927220E+02  0.00000000000E+00 0. -1.
</event>
<event>
 7    1  0.6462830E-013  0.5052886E+02  0.7816164E-02  0.1300439E+00
        -11   -1    0    0    0    0  0.00000000000E+00  0.00000000000E+00  0.45593999997E+02  0.45594000000E+02  0.51100000000E-03 0.  1.
         11   -1    0    0    0    0 -0.00000000000E+00 -0.00000000000E+00 -0.45593999997E+02  0.45594000000E+02  0.51100000000E-03 0. -1.
    9900012    2    1    2    0    0 -0.18534952040E+02  0.26004204429E+01  0.36095141169E+02  0.50528857737E+02  0.29999993576E+02 0.  0.
         12    1    1    2    0    0  0.18534952040E+02 -0.26004204429E+01 -0.36095141169E+02  0.40659142263E+02  0.00000000000E+00 0. -1.
         11    1    3    3    0    0  0.22175794150E+01  0.24264921199E+01 -0.23793835996E+01  0.40579538002E+01  0.51100000000E-03 0. -1.
        -11    1    3    3    0    0 -0.43641928043E+01 -0.65632749571E+01  0.16136443447E+02  0.17958495604E+02  0.51100000000E-03 0.  1.
         12    1    3    3    0    0 -0.16388338651E+02  0.67372032800E+01  0.22338081321E+02  0.28512408332E+02  0.00000000000E+00 0. -1.
</event>
<event>
 7    1  0.6462830E-013  0.5052887E+02  0.7816164E-02  0.1300439E+00
        -11   -1    0    0    0    0  0.00000000000E+00  0.00000000000E+00  0.45593999997E+02  0.45594000000E+02  0.51100000000E-03 0.  1.
         11   -1    0    0    0    0 -0.00000000000E+00 -0.00000000000E+00 -0.45593999997E+02  0.45594000000E+02  0.51100000000E-03 0. -1.
    9900012    2    1    2    0    0 -0.38724513064E+02  0.18988311703E+01  0.12246294166E+02  0.50528865815E+02  0.30000018131E+02 0.  0.
         12    1    1    2    0    0  0.38724513064E+02 -0.18988311703E+01 -0.12246294166E+02  0.40659134185E+02  0.00000000000E+00 0. -1.
         11    1    3    3    0    0 -0.14605127251E+02 -0.56812129347E+01  0.54345507084E+01  0.16586749654E+02  0.51100000000E-03 0.  1.
        -11    1    3    3    0    0  0.27012044568E+00 -0.55339573017E+01  0.70574451156E+00  0.55853132453E+01  0.51100000000E-03 0. -1.
        -12    1    3    3    0    0 -0.24389506259E+02  0.13114001407E+02  0.61059989457E+01  0.28356802915E+02  0.00000000000E+00 0.  1.
</event>
<event>
 7    1  0.6462830E-013  0.5052888E+02  0.7816164E-02  0.1300439E+00
        -11   -1    0    0    0    0  0.00000000000E+00  0.00000000000E+00  0.45593999997E+02  0.45594000000E+02  0.51100000000E-03 0.  1.
         11   -1    0    0    0    0 -0.00000000000E+00 -0.00000000000E+00 -0.45593999997E+02  0.45594000000E+02  0.51100000000E-03 0. -1.
    9900012    2    1    2    0    0  0.34335652731E+01  0.11881437844E+02  0.38732498309E+02  0.50528876043E+02  0.30000049220E+02 0.  0.
         12    1    1    2    0    0 -0.34335652731E+01 -0.11881437844E+02 -0.38732498309E+02  0.40659123957E+02  0.00000000000E+00 0. -1.
         11    1    3    3    0    0 -0.42651534175E+01  0.11064109898E+01  0.34089222651E+00  0.44194894189E+01  0.51100000000E-03 0. -1.
        -11    1    3    3    0    0 -0.40465142400E+01  0.12955651362E+02  0.19539960664E+02  0.23791453144E+02  0.51100000000E-03 0.  1.
        -12    1    3    3    0    0  0.11745232931E+02 -0.21806245070E+01  0.18851645418E+02  0.22317933480E+02  0.00000000000E+00 0.  1.
</event>
<event>
 7    1  0.6462830E-013  0.5052886E+02  0.7816164E-02  0.1300439E+00
        -11   -1    0    0    0    0  0.00000000000E+00  0.00000000000E+00  0.45593999997E+02  0.45594000000E+02  0.51100000000E-03 0.  1.
         11   -1    0    0    0    0 -0.00000000000E+00 -0.00000000000E+00 -0.45593999997E+02  0.45594000000E+02  0.51100000000E-03 0. -1.
    9900012    2    1    2    0    0  0.66490420862E+01  0.18023155085E+02  0.35834645549E+02  0.50528859558E+02  0.29999999111E+02 0.  0.
         12    1    1    2    0    0 -0.66490420862E+01 -0.18023155085E+02 -0.35834645549E+02  0.40659140442E+02  0.00000000000E+00 0. -1.
         11    1    3    3    0    0 -0.55869627463E+01  0.10682440483E+01  0.74648905702E+00  0.57369455504E+01  0.51100000000E-03 0. -1.
        -11    1    3    3    0    0 -0.22074309118E+01  0.71693885847E+01  0.21214824291E+02  0.22502036661E+02  0.51100000000E-03 0.  1.
        -12    1    3    3    0    0  0.14443435744E+02  0.97855224523E+01  0.13873332201E+02  0.22289877346E+02  0.00000000000E+00 0.  1.
</event>
<event>
 7    1  0.6462830E-013  0.5052886E+02  0.7816164E-02  0.1300439E+00
        -11   -1    0    0    0    0  0.00000000000E+00  0.00000000000E+00  0.45593999997E+02  0.45594000000E+02  0.51100000000E-03 0. -1.
         11   -1    0    0    0    0 -0.00000000000E+00 -0.00000000000E+00 -0.45593999997E+02  0.45594000000E+02  0.51100000000E-03 0.  1.
    9900012    2    1    2    0    0  0.40308370020E+02 -0.29635605843E+01  0.44292831965E+01  0.50528856690E+02  0.29999990396E+02 0.  0.
         12    1    1    2    0    0 -0.40308370020E+02  0.29635605843E+01 -0.44292831965E+01  0.40659143310E+02  0.00000000000E+00 0. -1.
         11    1    3    3    0    0  0.34160421447E+01  0.26425506166E+00  0.78113988012E+01  0.85297787876E+01  0.51100000000E-03 0. -1.
        -11    1    3    3    0    0  0.23025609017E+02 -0.88401390760E+01  0.45289369894E+01  0.25076642518E+02  0.51100000000E-03 0.  1.
         12    1    3    3    0    0  0.13866718859E+02  0.56123234300E+01 -0.79110525942E+01  0.16922435385E+02  0.00000000000E+00 0. -1.
</event>
<event>
 7    1  0.6462830E-013  0.5052886E+02  0.7816164E-02  0.1300439E+00
        -11   -1    0    0    0    0  0.00000000000E+00  0.00000000000E+00  0.45593999997E+02  0.45594000000E+02  0.51100000000E-03 0. -1.
         11   -1    0    0    0    0 -0.00000000000E+00 -0.00000000000E+00 -0.45593999997E+02  0.45594000000E+02  0.51100000000E-03 0.  1.
    9900012    2    1    2    0    0 -0.39003897535E+02 -0.99261833125E+01 -0.57734373619E+01  0.50528859367E+02  0.29999998532E+02 0.  0.
         12    1    1    2    0    0  0.39003897535E+02  0.99261833125E+01  0.57734373619E+01  0.40659140633E+02  0.00000000000E+00 0. -1.
         11    1    3    3    0    0 -0.38928894923E+01  0.34759107910E+01 -0.71880763194E+01  0.88828478463E+01  0.51100000000E-03 0. -1.
        -11    1    3    3    0    0 -0.20899199009E+02 -0.74314745421E+01 -0.80042303881E+01  0.23581158527E+02  0.51100000000E-03 0.  1.
         12    1    3    3    0    0 -0.14211809033E+02 -0.59706195614E+01  0.94188693455E+01  0.18064852994E+02  0.00000000000E+00 0. -1.
</event>
<event>
 7    1  0.6462830E-013  0.5052886E+02  0.7816164E-02  0.1300439E+00
        -11   -1    0    0    0    0  0.00000000000E+00  0.00000000000E+00  0.45593999997E+02  0.45594000000E+02  0.51100000000E-03 0.  1.
         11   -1    0    0    0    0 -0.00000000000E+00 -0.00000000000E+00 -0.45593999997E+02  0.45594000000E+02  0.51100000000E-03 0. -1.
    9900012    2    1    2    0    0  0.35424056171E+02  0.20933450011E+01  0.19847421629E+02  0.50528855958E+02  0.29999988170E+02 0.  0.
         12    1    1    2    0    0 -0.35424056171E+02 -0.20933450011E+01 -0.19847421629E+02  0.40659144042E+02  0.00000000000E+00 0. -1.
         11    1    3    3    0    0  0.86273191575E+01 -0.49119796618E+01  0.10811690797E+02  0.14678243703E+02  0.51100000000E-03 0.  1.
        -11    1    3    3    0    0  0.81732375401E+01 -0.37857123081E+01  0.11022921355E+02  0.14235105375E+02  0.51100000000E-03 0. -1.
        -12    1    3    3    0    0  0.18623499473E+02  0.10791036971E+02 -0.19871905230E+01  0.21615506881E+02  0.00000000000E+00 0.  1.
</event>
<event>
 7    1  0.6462830E-013  0.5052889E+02  0.7816164E-02  0.1300439E+00
        -11   -1    0    0    0    0  0.00000000000E+00  0.00000000000E+00  0.45593999997E+02  0.45594000000E+02  0.51100000000E-03 0. -1.
         11   -1    0    0    0    0 -0.00000000000E+00 -0.00000000000E+00 -0.45593999997E+02  0.45594000000E+02  0.51100000000E-03 0.  1.
    9900012    2    1    2    0    0  0.19680616656E+02  0.31333193468E+02  0.16854304655E+02  0.50528889456E+02  0.30000089989E+02 0.  0.
         12    1    1    2    0    0 -0.19680616656E+02 -0.31333193468E+02 -0.16854304655E+02  0.40659110544E+02  0.00000000000E+00 0. -1.
         11    1    3    3    0    0  0.11579370099E+01  0.19881963757E+01 -0.51634327741E+01  0.56528560234E+01  0.51100000000E-03 0. -1.
        -11    1    3    3    0    0  0.18712209081E+02  0.28515772095E+02  0.14090176194E+02  0.36902968611E+02  0.51100000000E-03 0.  1.
         12    1    3    3    0    0 -0.18952943446E+00  0.82922499656E+00  0.79275612352E+01  0.79730648210E+01  0.00000000000E+00 0. -1.
</event>
<event>
 7    1  0.6462830E-013  0.5052886E+02  0.7816164E-02  0.1300439E+00
        -11   -1    0    0    0    0  0.00000000000E+00  0.00000000000E+00  0.45593999997E+02  0.45594000000E+02  0.51100000000E-03 0.  1.
         11   -1    0    0    0    0 -0.00000000000E+00 -0.00000000000E+00 -0.45593999997E+02  0.45594000000E+02  0.51100000000E-03 0. -1.
    9900012    2    1    2    0    0 -0.29315838180E+02 -0.12546482787E+02  0.25225650422E+02  0.50528855423E+02  0.29999986544E+02 0.  0.
         12    1    1    2    0    0  0.29315838180E+02  0.12546482787E+02 -0.25225650422E+02  0.40659144577E+02  0.00000000000E+00 0. -1.
         11    1    3    3    0    0 -0.11972422734E+02 -0.13595681242E+02  0.13366827877E+02  0.22513408056E+02  0.51100000000E-03 0. -1.
        -11    1    3    3    0    0  0.21531503426E+01 -0.38454892080E+01 -0.47316046768E+00  0.44325754067E+01  0.51100000000E-03 0.  1.
         12    1    3    3    0    0 -0.19496565789E+02  0.48946876627E+01  0.12331983013E+02  0.23582871961E+02  0.00000000000E+00 0. -1.
</event>
<event>
 7    1  0.6462830E-013  0.5052885E+02  0.7816164E-02  0.1300439E+00
        -11   -1    0    0    0    0  0.00000000000E+00  0.00000000000E+00  0.45593999997E+02  0.45594000000E+02  0.51100000000E-03 0.  1.
         11   -1    0    0    0    0 -0.00000000000E+00 -0.00000000000E+00 -0.45593999997E+02  0.45594000000E+02  0.51100000000E-03 0. -1.
    9900012    2    1    2    0    0  0.36046186522E+02 -0.18807706201E+02  0.32977180996E+00  0.50528854353E+02  0.29999983291E+02 0.  0.
         12    1    1    2    0    0 -0.36046186522E+02  0.18807706201E+02 -0.32977180996E+00  0.40659145647E+02  0.00000000000E+00 0. -1.
         11    1    3    3    0    0  0.88345032861E+01 -0.10512774858E+01 -0.11954237249E+02  0.14901591228E+02  0.51100000000E-03 0. -1.
        -11    1    3    3    0    0  0.17713212843E+02 -0.72026729697E+01  0.55376312647E+01  0.19907329490E+02  0.51100000000E-03 0.  1.
        -12    1    3    3    0    0  0.94984703930E+01 -0.10553755745E+02  0.67463777944E+01  0.15719933635E+02  0.00000000000E+00 0.  1.
</event>
<event>
 7    1  0.6462830E-013  0.5052886E+02  0.7816164E-02  0.1300439E+00
        -11   -1    0    0    0    0  0.00000000000E+00  0.00000000000E+00  0.45593999997E+02  0.45594000000E+02  0.51100000000E-03 0.  1.
         11   -1    0    0    0    0 -0.00000000000E+00 -0.00000000000E+00 -0.45593999997E+02  0.45594000000E+02  0.51100000000E-03 0. -1.
    9900012    2    1    2    0    0 -0.63577425970E+01  0.31563558046E+02  0.24829140181E+02  0.50528864623E+02  0.30000014509E+02 0.  0.
         12    1    1    2    0    0  0.63577425970E+01 -0.31563558046E+02 -0.24829140181E+02  0.40659135377E+02  0.00000000000E+00 0. -1.
         11    1    3    3    0    0  0.99073757444E+00 -0.23938117350E+01  0.10160101958E+01  0.27828353425E+01  0.51100000000E-03 0. -1.
        -11    1    3    3    0    0  0.68705386836E+01  0.13793906766E+02  0.15113093689E+02  0.21584294447E+02  0.51100000000E-03 0.  1.
        -12    1    3    3    0    0 -0.14219018855E+02  0.20163463015E+02  0.87000362964E+01  0.26161734834E+02  0.00000000000E+00 0.  1.
</event>
<event>
 7    1  0.6462830E-013  0.5052885E+02  0.7816164E-02  0.1300439E+00
        -11   -1    0    0    0    0  0.00000000000E+00  0.00000000000E+00  0.45593999997E+02  0.45594000000E+02  0.51100000000E-03 0. -1.
         11   -1    0    0    0    0 -0.00000000000E+00 -0.00000000000E+00 -0.45593999997E+02  0.45594000000E+02  0.51100000000E-03 0.  1.
    9900012    2    1    2    0    0 -0.36975939594E+02 -0.37715531079E+01 -0.16483991555E+02  0.50528847288E+02  0.29999961817E+02 0.  0.
         12    1    1    2    0    0  0.36975939594E+02  0.37715531079E+01  0.16483991555E+02  0.40659152712E+02  0.00000000000E+00 0. -1.
         11    1    3    3    0    0 -0.38741442360E+01  0.29812482926E+01 -0.11089283857E+02  0.12118954231E+02  0.51100000000E-03 0. -1.
        -11    1    3    3    0    0 -0.24128725255E+02  0.22759528326E+01  0.80909527827E+00  0.24249329458E+02  0.51100000000E-03 0.  1.
         12    1    3    3    0    0 -0.89730701026E+01 -0.90287542331E+01 -0.62038029759E+01  0.14160563599E+02  0.00000000000E+00 0. -1.
</event>
<event>
 7    1  0.6462830E-013  0.5052887E+02  0.7816164E-02  0.1300439E+00
        -11   -1    0    0    0    0  0.00000000000E+00  0.00000000000E+00  0.45593999997E+02  0.45594000000E+02  0.51100000000E-03 0. -1.
         11   -1    0    0    0    0 -0.00000000000E+00 -0.00000000000E+00 -0.45593999997E+02  0.45594000000E+02  0.51100000000E-03 0.  1.
    9900012    2    1    2    0    0 -0.31559231027E+02  0.22218669486E+02  0.12787133832E+02  0.50528866605E+02  0.30000020534E+02 0.  0.
         12    1    1    2    0    0  0.31559231027E+02 -0.22218669486E+02 -0.12787133832E+02  0.40659133395E+02  0.00000000000E+00 0. -1.
         11    1    3    3    0    0 -0.16269154164E+02  0.11558930771E+02  0.13823397335E+02  0.24277161529E+02  0.51100000000E-03 0. -1.
        -11    1    3    3    0    0 -0.77079752081E+01  0.15298461759E+02 -0.22612738331E+01  0.17279154308E+02  0.51100000000E-03 0.  1.
        -12    1    3    3    0    0 -0.75821016552E+01 -0.46387230434E+01  0.12250103304E+01  0.89725507685E+01  0.00000000000E+00 0.  1.
</event>
<event>
 7    1  0.6462830E-013  0.5052886E+02  0.7816164E-02  0.1300439E+00
        -11   -1    0    0    0    0  0.00000000000E+00  0.00000000000E+00  0.45593999997E+02  0.45594000000E+02  0.51100000000E-03 0.  1.
         11   -1    0    0    0    0 -0.00000000000E+00 -0.00000000000E+00 -0.45593999997E+02  0.45594000000E+02  0.51100000000E-03 0. -1.
    9900012    2    1    2    0    0 -0.11461475378E+02 -0.67474316104E+00  0.39004419279E+02  0.50528863026E+02  0.30000009653E+02 0.  0.
         12    1    1    2    0    0  0.11461475378E+02  0.67474316104E+00 -0.39004419279E+02  0.40659136974E+02  0.00000000000E+00 0. -1.
         11    1    3    3    0    0 -0.32680609587E+00 -0.42036965434E+00 -0.10354009207E+01  0.11642887092E+01  0.51100000000E-03 0. -1.
        -11    1    3    3    0    0 -0.19292539060E+02 -0.26247615866E+01  0.33070218131E+02  0.38376174435E+02  0.51100000000E-03 0.  1.
        -12    1    3    3    0    0  0.81578697779E+01  0.23703880799E+01  0.69696020693E+01  0.10988399882E+02  0.00000000000E+00 0.  1.
</event>
<event>
 7    1  0.6462830E-013  0.5052886E+02  0.7816164E-02  0.1300439E+00
        -11   -1    0    0    0    0  0.00000000000E+00  0.00000000000E+00  0.45593999997E+02  0.45594000000E+02  0.51100000000E-03 0. -1.
         11   -1    0    0    0    0 -0.00000000000E+00 -0.00000000000E+00 -0.45593999997E+02  0.45594000000E+02  0.51100000000E-03 0.  1.
    9900012    2    1    2    0    0  0.19617357604E+02 -0.30461793563E+02  0.18450047746E+02  0.50528857753E+02  0.29999993627E+02 0.  0.
         12    1    1    2    0    0 -0.19617357604E+02  0.30461793563E+02 -0.18450047746E+02  0.40659142247E+02  0.00000000000E+00 0. -1.
         11    1    3    3    0    0 -0.20973610449E+01 -0.83514193311E+00  0.28763215644E+01  0.36564479216E+01  0.51100000000E-03 0. -1.
        -11    1    3    3    0    0  0.13320738866E+02 -0.31676866092E+02  0.16614073487E+02  0.38169272556E+02  0.51100000000E-03 0.  1.
         12    1    3    3    0    0  0.83939797821E+01  0.20502144623E+01 -0.10403473053E+01  0.87031372757E+01  0.00000000000E+00 0. -1.
</event>
<event>
 7    1  0.6462830E-013  0.5052886E+02  0.7816164E-02  0.1300439E+00
        -11   -1    0    0    0    0  0.00000000000E+00  0.00000000000E+00  0.45593999997E+02  0.45594000000E+02  0.51100000000E-03 0.  1.
         11   -1    0    0    0    0 -0.00000000000E+00 -0.00000000000E+00 -0.45593999997E+02  0.45594000000E+02  0.51100000000E-03 0. -1.
    9900012    2    1    2    0    0 -0.39022242946E+02  0.78057711295E+01  0.83366938976E+01  0.50528856224E+02  0.29999988979E+02 0.  0.
         12    1    1    2    0    0  0.39022242946E+02 -0.78057711295E+01 -0.83366938976E+01  0.40659143776E+02  0.00000000000E+00 0. -1.
         11    1    3    3    0    0 -0.14281875801E+02  0.11583384050E+02 -0.59789223726E+01  0.19336345969E+02  0.51100000000E-03 0. -1.
        -11    1    3    3    0    0  0.22816235913E+00  0.60260982072E+00  0.36230119315E+01  0.36798658094E+01  0.51100000000E-03 0.  1.
         12    1    3    3    0    0 -0.24968529504E+02 -0.43802227409E+01  0.10692604339E+02  0.27512644446E+02  0.00000000000E+00 0. -1.
</event>
<event>
 7    1  0.6462830E-013  0.5052887E+02  0.7816164E-02  0.1300439E+00
        -11   -1    0    0    0    0  0.00000000000E+00  0.00000000000E+00  0.45593999997E+02  0.45594000000E+02  0.51100000000E-03 0.  1.
         11   -1    0    0    0    0 -0.00000000000E+00 -0.00000000000E+00 -0.45593999997E+02  0.45594000000E+02  0.51100000000E-03 0. -1.
    9900012    2    1    2    0    0 -0.16725064888E+02  0.31513329576E+02  0.19502498708E+02  0.50528865819E+02  0.30000018144E+02 0.  0.
         12    1    1    2    0    0  0.16725064888E+02 -0.31513329576E+02 -0.19502498708E+02  0.40659134181E+02  0.00000000000E+00 0. -1.
         11    1    3    3    0    0 -0.11914044643E+02  0.38138536757E+00  0.11798178458E+01  0.11978392420E+02  0.51100000000E-03 0. -1.
        -11    1    3    3    0    0 -0.42181225099E+01  0.49672945227E+01  0.82367799306E+01  0.10502909895E+02  0.51100000000E-03 0.  1.
         12    1    3    3    0    0 -0.59289773464E+00  0.26164649686E+02  0.10085900932E+02  0.28047563504E+02  0.00000000000E+00 0. -1.
</event>
<event>
 7    1  0.6462830E-013  0.5052887E+02  0.7816164E-02  0.1300439E+00
        -11   -1    0    0    0    0  0.00000000000E+00  0.00000000000E+00  0.45593999997E+02  0.45594000000E+02  0.51100000000E-03 0. -1.
         11   -1    0    0    0    0 -0.00000000000E+00 -0.00000000000E+00 -0.45593999997E+02  0.45594000000E+02  0.51100000000E-03 0.  1.
    9900012    2    1    2    0    0  0.85818352049E+01 -0.29124536205E+02 -0.27042164710E+02  0.50528866010E+02  0.30000018724E+02 0.  0.
         12    1    1    2    0    0 -0.85818352049E+01  0.29124536205E+02  0.27042164710E+02  0.40659133990E+02  0.00000000000E+00 0. -1.
         11    1    3    3    0    0  0.37028761006E+01 -0.82348351996E+01 -0.11404042566E+01  0.91007870159E+01  0.51100000000E-03 0. -1.
        -11    1    3    3    0    0  0.13341168658E+02 -0.51080788966E+01 -0.13416886269E+02  0.19598267490E+02  0.51100000000E-03 0.  1.
        -12    1    3    3    0    0 -0.84622095538E+01 -0.15781622109E+02 -0.12484874184E+02  0.21829811504E+02  0.00000000000E+00 0.  1.
</event>
<event>
 7    1  0.6462830E-013  0.5052886E+02  0.7816164E-02  0.1300439E+00
        -11   -1    0    0    0    0  0.00000000000E+00  0.00000000000E+00  0.45593999997E+02  0.45594000000E+02  0.51100000000E-03 0. -1.
         11   -1    0    0    0    0 -0.00000000000E+00 -0.00000000000E+00 -0.45593999997E+02  0.45594000000E+02  0.51100000000E-03 0.  1.
    9900012    2    1    2    0    0  0.50416450260E+01  0.33916968527E+02 -0.21849175739E+02  0.50528863031E+02  0.30000009669E+02 0.  0.
         12    1    1    2    0    0 -0.50416450260E+01 -0.33916968527E+02  0.21849175739E+02  0.40659136969E+02  0.00000000000E+00 0. -1.
         11    1    3    3    0    0  0.24027735254E+01 -0.17870660477E+01  0.96167393682E-01  0.29960263854E+01  0.51100000000E-03 0. -1.
        -11    1    3    3    0    0 -0.21828689202E+01  0.44848881285E+01 -0.14139367119E+02  0.14993359898E+02  0.51100000000E-03 0.  1.
         12    1    3    3    0    0  0.48217404208E+01  0.31219146446E+02 -0.78059760134E+01  0.32539476748E+02  0.00000000000E+00 0. -1.
</event>
<event>
 7    1  0.6462830E-013  0.5052887E+02  0.7816164E-02  0.1300439E+00
        -11   -1    0    0    0    0  0.00000000000E+00  0.00000000000E+00  0.45593999997E+02  0.45594000000E+02  0.51100000000E-03 0.  1.
         11   -1    0    0    0    0 -0.00000000000E+00 -0.00000000000E+00 -0.45593999997E+02  0.45594000000E+02  0.51100000000E-03 0. -1.
    9900012    2    1    2    0    0 -0.30898656145E+02 -0.11024415988E+02  0.24018744938E+02  0.50528870548E+02  0.30000032517E+02 0.  0.
         12    1    1    2    0    0  0.30898656145E+02  0.11024415988E+02 -0.24018744938E+02  0.40659129452E+02  0.00000000000E+00 0. -1.
         11    1    3    3    0    0 -0.13896238456E+02 -0.11436669426E+02  0.63215141708E+00  0.18008399886E+02  0.51100000000E-03 0. -1.
        -11    1    3    3    0    0 -0.86865089363E+01 -0.71474597677E+01  0.10096550315E+02  0.15115619311E+02  0.51100000000E-03 0.  1.
        -12    1    3    3    0    0 -0.83159087525E+01  0.75597132056E+01  0.13290043206E+02  0.17404851351E+02  0.00000000000E+00 0.  1.
</event>
<event>
 7    1  0.6462830E-013  0.5052885E+02  0.7816164E-02  0.1300439E+00
        -11   -1    0    0    0    0  0.00000000000E+00  0.00000000000E+00  0.45593999997E+02  0.45594000000E+02  0.51100000000E-03 0. -1.
         11   -1    0    0    0    0 -0.00000000000E+00 -0.00000000000E+00 -0.45593999997E+02  0.45594000000E+02  0.51100000000E-03 0.  1.
    9900012    2    1    2    0    0  0.25912750820E+02  0.27094647381E+02 -0.15734553216E+02  0.50528846828E+02  0.29999960419E+02 0.  0.
         12    1    1    2    0    0 -0.25912750820E+02 -0.27094647381E+02  0.15734553216E+02  0.40659153172E+02  0.00000000000E+00 0. -1.
         11    1    3    3    0    0  0.32676786629E+01 -0.24377566533E+01 -0.36997248985E+01  0.55053016203E+01  0.51100000000E-03 0. -1.
        -11    1    3    3    0    0  0.14466700016E+02  0.64161254273E+01  0.32135089897E+01  0.16148644374E+02  0.51100000000E-03 0.  1.
        -12    1    3    3    0    0  0.81783721416E+01  0.23116278607E+02 -0.15248337307E+02  0.28874900833E+02  0.00000000000E+00 0.  1.
</event>
<event>
 7    1  0.6462830E-013  0.5052885E+02  0.7816164E-02  0.1300439E+00
        -11   -1    0    0    0    0  0.00000000000E+00  0.00000000000E+00  0.45593999997E+02  0.45594000000E+02  0.51100000000E-03 0.  1.
         11   -1    0    0    0    0 -0.00000000000E+00 -0.00000000000E+00 -0.45593999997E+02  0.45594000000E+02  0.51100000000E-03 0. -1.
    9900012    2    1    2    0    0 -0.18438242280E+02 -0.18501102649E+02  0.31159376337E+02  0.50528852059E+02  0.29999976317E+02 0.  0.
         12    1    1    2    0    0  0.18438242280E+02  0.18501102649E+02 -0.31159376337E+02  0.40659147941E+02  0.00000000000E+00 0. -1.
         11    1    3    3    0    0  0.32176087413E+01 -0.41214416361E+01  0.14179325159E+02  0.15112661890E+02  0.51100000000E-03 0. -1.
        -11    1    3    3    0    0 -0.42632629108E+01 -0.11759688446E+02  0.11504781553E+02  0.16994872221E+02  0.51100000000E-03 0.  1.
         12    1    3    3    0    0 -0.17392588111E+02 -0.26199725671E+01  0.54752696250E+01  0.18421317947E+02  0.00000000000E+00 0. -1.
</event>
<event>
 7    1  0.6462830E-013  0.5052886E+02  0.7816164E-02  0.1300439E+00
        -11   -1    0    0    0    0  0.00000000000E+00  0.00000000000E+00  0.45593999997E+02  0.45594000000E+02  0.51100000000E-03 0.  1.
         11   -1    0    0    0    0 -0.00000000000E+00 -0.00000000000E+00 -0.45593999997E+02  0.45594000000E+02  0.51100000000E-03 0. -1.
    9900012    2    1    2    0    0 -0.71483616203E+01 -0.12808902128E+02  0.37920948257E+02  0.50528863704E+02  0.30000011715E+02 0.  0.
         12    1    1    2    0    0  0.71483616203E+01  0.12808902128E+02 -0.37920948257E+02  0.40659136296E+02  0.00000000000E+00 0. -1.
         11    1    3    3    0    0  0.10920380583E+01 -0.18342601172E+01 -0.80053875349E+00  0.22798947027E+01  0.51100000000E-03 0. -1.
        -11    1    3    3    0    0  0.56859970291E+01 -0.33788149140E+01  0.28774962366E+02  0.29525335085E+02  0.51100000000E-03 0.  1.
        -12    1    3    3    0    0 -0.13926396708E+02 -0.75958270968E+01  0.99465246448E+01  0.18723633917E+02  0.00000000000E+00 0.  1.
</event>
<event>
 7    1  0.6462830E-013  0.5052886E+02  0.7816164E-02  0.1300439E+00
        -11   -1    0    0    0    0  0.00000000000E+00  0.00000000000E+00  0.45593999997E+02  0.45594000000E+02  0.51100000000E-03 0.  1.
         11   -1    0    0    0    0 -0.00000000000E+00 -0.00000000000E+00 -0.45593999997E+02  0.45594000000E+02  0.51100000000E-03 0. -1.
    9900012    2    1    2    0    0 -0.11059185549E+02 -0.34843331729E+02  0.17798938038E+02  0.50528861467E+02  0.30000004915E+02 0.  0.
         12    1    1    2    0    0  0.11059185549E+02  0.34843331729E+02 -0.17798938038E+02  0.40659138533E+02  0.00000000000E+00 0. -1.
         11    1    3    3    0    0 -0.58874194359E+01 -0.19820648709E+02  0.78207690951E+01  0.22106203934E+02  0.51100000000E-03 0. -1.
        -11    1    3    3    0    0 -0.64180870016E+01 -0.92148250177E+01 -0.50128261178E+01  0.12297693557E+02  0.51100000000E-03 0.  1.
         12    1    3    3    0    0  0.12463208884E+01 -0.58078580020E+01  0.14990995060E+02  0.16124963976E+02  0.00000000000E+00 0. -1.
</event>
<event>
 7    1  0.6462830E-013  0.5052885E+02  0.7816164E-02  0.1300439E+00
        -11   -1    0    0    0    0  0.00000000000E+00  0.00000000000E+00  0.45593999997E+02  0.45594000000E+02  0.51100000000E-03 0.  1.
         11   -1    0    0    0    0 -0.00000000000E+00 -0.00000000000E+00 -0.45593999997E+02  0.45594000000E+02  0.51100000000E-03 0. -1.
    9900012    2    1    2    0    0 -0.68930573916E+00 -0.12423661036E+02  0.38708444440E+02  0.50528853834E+02  0.29999981714E+02 0.  0.
         12    1    1    2    0    0  0.68930573916E+00  0.12423661036E+02 -0.38708444440E+02  0.40659146166E+02  0.00000000000E+00 0. -1.
         11    1    3    3    0    0  0.51679937585E+00 -0.10199543757E+02  0.19722258426E+01  0.10401319603E+02  0.51100000000E-03 0. -1.
        -11    1    3    3    0    0 -0.67411645610E+01 -0.52861475653E+01  0.13044858064E+02  0.15606248040E+02  0.51100000000E-03 0.  1.
        -12    1    3    3    0    0  0.55350594460E+01  0.30620302859E+01  0.23691360534E+02  0.24521286191E+02  0.00000000000E+00 0.  1.
</event>
<event>
 7    1  0.6462830E-013  0.5052885E+02  0.7816164E-02  0.1300439E+00
        -11   -1    0    0    0    0  0.00000000000E+00  0.00000000000E+00  0.45593999997E+02  0.45594000000E+02  0.51100000000E-03 0. -1.
         11   -1    0    0    0    0 -0.00000000000E+00 -0.00000000000E+00 -0.45593999997E+02  0.45594000000E+02  0.51100000000E-03 0.  1.
    9900012    2    1    2    0    0 -0.21518483302E+02 -0.33852259904E+02 -0.66442198320E+01  0.50528852426E+02  0.29999977436E+02 0.  0.
         12    1    1    2    0    0  0.21518483302E+02  0.33852259904E+02  0.66442198320E+01  0.40659147574E+02  0.00000000000E+00 0. -1.
         11    1    3    3    0    0  0.78272744142E+00  0.18254994691E+01  0.18331101121E+01  0.27028509954E+01  0.51100000000E-03 0. -1.
        -11    1    3    3    0    0 -0.66463231984E+01 -0.51086964094E+01 -0.10483511020E+02  0.13422980095E+02  0.51100000000E-03 0.  1.
        -12    1    3    3    0    0 -0.15654887545E+02 -0.30569062964E+02  0.20061810762E+01  0.34403021336E+02  0.00000000000E+00 0.  1.
</event>
<event>
 7    1  0.6462830E-013  0.5052886E+02  0.7816164E-02  0.1300439E+00
        -11   -1    0    0    0    0  0.00000000000E+00  0.00000000000E+00  0.45593999997E+02  0.45594000000E+02  0.51100000000E-03 0.  1.
         11   -1    0    0    0    0 -0.00000000000E+00 -0.00000000000E+00 -0.45593999997E+02  0.45594000000E+02  0.51100000000E-03 0. -1.
    9900012    2    1    2    0    0  0.26474627749E+02 -0.95105570781E+01  0.29356587915E+02  0.50528857555E+02  0.29999993023E+02 0.  0.
         12    1    1    2    0    0 -0.26474627749E+02  0.95105570781E+01 -0.29356587915E+02  0.40659142445E+02  0.00000000000E+00 0. -1.
         11    1    3    3    0    0  0.26234016756E+01 -0.11793652981E-01  0.17294735523E+02  0.17492577069E+02  0.51100000000E-03 0. -1.
        -11    1    3    3    0    0  0.21504086840E+02 -0.34654119965E+01  0.14446892902E+02  0.26137091382E+02  0.51100000000E-03 0.  1.
         12    1    3    3    0    0  0.23471392335E+01 -0.60333514286E+01 -0.23850405107E+01  0.68991891031E+01  0.00000000000E+00 0. -1.
</event>
<event>
 7    1  0.6462830E-013  0.5052890E+02  0.7816164E-02  0.1300439E+00
        -11   -1    0    0    0    0  0.00000000000E+00  0.00000000000E+00  0.45593999997E+02  0.45594000000E+02  0.51100000000E-03 0. -1.
         11   -1    0    0    0    0 -0.00000000000E+00 -0.00000000000E+00 -0.45593999997E+02  0.45594000000E+02  0.51100000000E-03 0.  1.
    9900012    2    1    2    0    0  0.67732852557E+00  0.54196624361E+00 -0.40649849898E+02  0.50528895262E+02  0.30000107639E+02 0.  0.
         12    1    1    2    0    0 -0.67732852557E+00 -0.54196624361E+00  0.40649849898E+02  0.40659104738E+02  0.00000000000E+00 0. -1.
         11    1    3    3    0    0 -0.22211728666E+01  0.11214885070E+02 -0.93715498032E+01  0.14782868531E+02  0.51100000000E-03 0. -1.
        -11    1    3    3    0    0  0.29221020413E+01 -0.56343559829E+01 -0.29963367554E+01  0.70187379132E+01  0.51100000000E-03 0.  1.
        -12    1    3    3    0    0 -0.23600649111E-01 -0.50385628432E+01 -0.28281963339E+02  0.28727288818E+02  0.00000000000E+00 0.  1.
</event>
<event>
 7    1  0.6462830E-013  0.5052886E+02  0.7816164E-02  0.1300439E+00
        -11   -1    0    0    0    0  0.00000000000E+00  0.00000000000E+00  0.45593999997E+02  0.45594000000E+02  0.51100000000E-03 0. -1.
         11   -1    0    0    0    0 -0.00000000000E+00 -0.00000000000E+00 -0.45593999997E+02  0.45594000000E+02  0.51100000000E-03 0.  1.
    9900012    2    1    2    0    0 -0.27558091610E+02  0.29895044342E+02 -0.62916587483E-01  0.50528855298E+02  0.29999986163E+02 0.  0.
         12    1    1    2    0    0  0.27558091610E+02 -0.29895044342E+02  0.62916587483E-01  0.40659144702E+02  0.00000000000E+00 0. -1.
         11    1    3    3    0    0 -0.13597914666E+01 -0.47412305891E+01 -0.37562783439E+01  0.61998328679E+01  0.51100000000E-03 0. -1.
        -11    1    3    3    0    0 -0.12769677524E+02  0.13180969344E+02 -0.17619918057E+01  0.18436573226E+02  0.51100000000E-03 0.  1.
        -12    1    3    3    0    0 -0.13428622619E+02  0.21455305587E+02  0.54553535621E+01  0.25892449204E+02  0.00000000000E+00 0.  1.
</event>
<event>
 7    1  0.6462830E-013  0.5052886E+02  0.7816164E-02  0.1300439E+00
        -11   -1    0    0    0    0  0.00000000000E+00  0.00000000000E+00  0.45593999997E+02  0.45594000000E+02  0.51100000000E-03 0.  1.
         11   -1    0    0    0    0 -0.00000000000E+00 -0.00000000000E+00 -0.45593999997E+02  0.45594000000E+02  0.51100000000E-03 0. -1.
    9900012    2    1    2    0    0 -0.14758899672E+02 -0.37381556834E+02  0.61611425008E+01  0.50528860956E+02  0.30000003363E+02 0.  0.
         12    1    1    2    0    0  0.14758899672E+02  0.37381556834E+02 -0.61611425008E+01  0.40659139044E+02  0.00000000000E+00 0. -1.
         11    1    3    3    0    0  0.59805562505E+01 -0.66104059263E+01 -0.37815263623E+00  0.89223045931E+01  0.51100000000E-03 0. -1.
        -11    1    3    3    0    0 -0.20050816766E+02 -0.33060116526E+02  0.57574094101E+01  0.39091614460E+02  0.51100000000E-03 0.  1.
         12    1    3    3    0    0 -0.68863915632E+00  0.22889656182E+01  0.78188572690E+00  0.25149419036E+01  0.00000000000E+00 0. -1.
</event>
<event>
 7    1  0.6462830E-013  0.5052887E+02  0.7816164E-02  0.1300439E+00
        -11   -1    0    0    0    0  0.00000000000E+00  0.00000000000E+00  0.45593999997E+02  0.45594000000E+02  0.51100000000E-03 0.  1.
         11   -1    0    0    0    0 -0.00000000000E+00 -0.00000000000E+00 -0.45593999997E+02  0.45594000000E+02  0.51100000000E-03 0. -1.
    9900012    2    1    2    0    0 -0.93556100893E+01  0.74407046308E+01  0.38862239021E+02  0.50528866374E+02  0.30000019830E+02 0.  0.
         12    1    1    2    0    0  0.93556100893E+01 -0.74407046308E+01 -0.38862239021E+02  0.40659133626E+02  0.00000000000E+00 0. -1.
         11    1    3    3    0    0 -0.58191416451E+01 -0.49845885711E+01  0.49677003626E+01  0.91316252585E+01  0.51100000000E-03 0. -1.
        -11    1    3    3    0    0 -0.94242728342E+01  0.22216550545E+01  0.24452645949E+02  0.26299896650E+02  0.51100000000E-03 0.  1.
         12    1    3    3    0    0  0.58878043900E+01  0.10203638147E+02  0.94418927094E+01  0.15097344466E+02  0.00000000000E+00 0. -1.
</event>
<event>
 7    1  0.6462830E-013  0.5052886E+02  0.7816164E-02  0.1300439E+00
        -11   -1    0    0    0    0  0.00000000000E+00  0.00000000000E+00  0.45593999997E+02  0.45594000000E+02  0.51100000000E-03 0.  1.
         11   -1    0    0    0    0 -0.00000000000E+00 -0.00000000000E+00 -0.45593999997E+02  0.45594000000E+02  0.51100000000E-03 0. -1.
    9900012    2    1    2    0    0 -0.81037709623E+01  0.78245066692E+01  0.39067524887E+02  0.50528861922E+02  0.30000006300E+02 0.  0.
         12    1    1    2    0    0  0.81037709623E+01 -0.78245066692E+01 -0.39067524887E+02  0.40659138078E+02  0.00000000000E+00 0. -1.
         11    1    3    3    0    0  0.12536468630E+01  0.79022276948E+01  0.10788211386E+02  0.13431393754E+02  0.51100000000E-03 0. -1.
        -11    1    3    3    0    0 -0.41039695874E+01  0.10874883678E+02  0.16447581409E+02  0.20140223332E+02  0.51100000000E-03 0.  1.
         12    1    3    3    0    0 -0.52534482379E+01 -0.10952604703E+02  0.11831732091E+02  0.16957244837E+02  0.00000000000E+00 0. -1.
</event>
<event>
 7    1  0.6462830E-013  0.5052883E+02  0.7816164E-02  0.1300439E+00
        -11   -1    0    0    0    0  0.00000000000E+00  0.00000000000E+00  0.45593999997E+02  0.45594000000E+02  0.51100000000E-03 0.  1.
         11   -1    0    0    0    0 -0.00000000000E+00 -0.00000000000E+00 -0.45593999997E+02  0.45594000000E+02  0.51100000000E-03 0. -1.
    9900012    2    1    2    0    0  0.46273474346E+01 -0.21849690918E+02  0.33975675148E+02  0.50528833269E+02  0.29999919205E+02 0.  0.
         12    1    1    2    0    0 -0.46273474346E+01  0.21849690918E+02 -0.33975675148E+02  0.40659166731E+02  0.00000000000E+00 0. -1.
         11    1    3    3    0    0 -0.38909291510E+01 -0.17339545299E+02  0.41953424717E+01  0.18259245865E+02  0.51100000000E-03 0. -1.
        -11    1    3    3    0    0  0.77512058939E+01 -0.32863087770E+01  0.13397520911E+02  0.15823229285E+02  0.51100000000E-03 0.  1.
        -12    1    3    3    0    0  0.76707069168E+00 -0.12238368418E+01  0.16382811765E+02  0.16446358119E+02  0.00000000000E+00 0.  1.
</event>
<event>
 7    1  0.6462830E-013  0.5052886E+02  0.7816164E-02  0.1300439E+00
        -11   -1    0    0    0    0  0.00000000000E+00  0.00000000000E+00  0.45593999997E+02  0.45594000000E+02  0.51100000000E-03 0.  1.
         11   -1    0    0    0    0 -0.00000000000E+00 -0.00000000000E+00 -0.45593999997E+02  0.45594000000E+02  0.51100000000E-03 0. -1.
    9900012    2    1    2    0    0 -0.24315733953E+02  0.21607046483E+01  0.32515259258E+02  0.50528860230E+02  0.30000001155E+02 0.  0.
         12    1    1    2    0    0  0.24315733953E+02 -0.21607046483E+01 -0.32515259258E+02  0.40659139770E+02  0.00000000000E+00 0. -1.
         11    1    3    3    0    0 -0.15283570393E+02  0.44334468007E+01  0.19624913559E+02  0.25266187029E+02  0.51100000000E-03 0. -1.
        -11    1    3    3    0    0 -0.67053382915E+01  0.39138137842E+01  0.16130350635E+02  0.17901611989E+02  0.51100000000E-03 0.  1.
         12    1    3    3    0    0 -0.23268252679E+01 -0.61865559366E+01 -0.32400049363E+01  0.73610612123E+01  0.00000000000E+00 0. -1.
</event>
<event>
 7    1  0.6462830E-013  0.5052884E+02  0.7816164E-02  0.1300439E+00
        -11   -1    0    0    0    0  0.00000000000E+00  0.00000000000E+00  0.45593999997E+02  0.45594000000E+02  0.51100000000E-03 0. -1.
         11   -1    0    0    0    0 -0.00000000000E+00 -0.00000000000E+00 -0.45593999997E+02  0.45594000000E+02  0.51100000000E-03 0.  1.
    9900012    2    1    2    0    0 -0.29618300231E+02  0.25190401062E+02 -0.11889813601E+02  0.50528835206E+02  0.29999925094E+02 0.  0.
         12    1    1    2    0    0  0.29618300231E+02 -0.25190401062E+02  0.11889813601E+02  0.40659164794E+02  0.00000000000E+00 0. -1.
         11    1    3    3    0    0 -0.16618660995E+02  0.88968689955E+01 -0.10572726434E+02  0.21612883096E+02  0.51100000000E-03 0. -1.
        -11    1    3    3    0    0  0.25145104336E+01  0.10974355819E+02 -0.46479929311E+01  0.12180438699E+02  0.51100000000E-03 0.  1.
         12    1    3    3    0    0 -0.15514149670E+02  0.53191762475E+01  0.33309057648E+01  0.16735513412E+02  0.00000000000E+00 0. -1.
</event>
<event>
 7    1  0.6462830E-013  0.5052886E+02  0.7816164E-02  0.1300439E+00
        -11   -1    0    0    0    0  0.00000000000E+00  0.00000000000E+00  0.45593999997E+02  0.45594000000E+02  0.51100000000E-03 0.  1.
         11   -1    0    0    0    0 -0.00000000000E+00 -0.00000000000E+00 -0.45593999997E+02  0.45594000000E+02  0.51100000000E-03 0. -1.
    9900012    2    1    2    0    0  0.46530441602E+01 -0.25674909455E+02  0.31181947959E+02  0.50528859896E+02  0.30000000140E+02 0.  0.
         12    1    1    2    0    0 -0.46530441602E+01  0.25674909455E+02 -0.31181947959E+02  0.40659140104E+02  0.00000000000E+00 0. -1.
         11    1    3    3    0    0 -0.90869448836E+01 -0.13202322290E+02  0.18437380792E+02  0.24429713300E+02  0.51100000000E-03 0. -1.
        -11    1    3    3    0    0  0.47501390718E+01 -0.11874335501E+02  0.36557933480E+01  0.13301446916E+02  0.51100000000E-03 0.  1.
        -12    1    3    3    0    0  0.89898499720E+01 -0.59825166352E+00  0.90887738188E+01  0.12797699680E+02  0.00000000000E+00 0.  1.
</event>
<event>
 7    1  0.6462830E-013  0.5052887E+02  0.7816164E-02  0.1300439E+00
        -11   -1    0    0    0    0  0.00000000000E+00  0.00000000000E+00  0.45593999997E+02  0.45594000000E+02  0.51100000000E-03 0.  1.
         11   -1    0    0    0    0 -0.00000000000E+00 -0.00000000000E+00 -0.45593999997E+02  0.45594000000E+02  0.51100000000E-03 0. -1.
    9900012    2    1    2    0    0  0.29119444528E+02  0.16605950228E+01  0.28327815917E+02  0.50528870889E+02  0.30000033553E+02 0.  0.
         12    1    1    2    0    0 -0.29119444528E+02 -0.16605950228E+01 -0.28327815917E+02  0.40659129111E+02  0.00000000000E+00 0. -1.
         11    1    3    3    0    0  0.15991670474E+02  0.84746128784E+01  0.80491723098E+01  0.19807618815E+02  0.51100000000E-03 0. -1.
        -11    1    3    3    0    0 -0.24256725982E+00 -0.38469179816E+00 -0.30451180293E+01  0.30788911525E+01  0.51100000000E-03 0.  1.
        -12    1    3    3    0    0  0.13370341314E+02 -0.64293260575E+01  0.23323761637E+02  0.27642360921E+02  0.00000000000E+00 0.  1.
</event>
<event>
 7    1  0.6462830E-013  0.5052886E+02  0.7816164E-02  0.1300439E+00
        -11   -1    0    0    0    0  0.00000000000E+00  0.00000000000E+00  0.45593999997E+02  0.45594000000E+02  0.51100000000E-03 0.  1.
         11   -1    0    0    0    0 -0.00000000000E+00 -0.00000000000E+00 -0.45593999997E+02  0.45594000000E+02  0.51100000000E-03 0. -1.
    9900012    2    1    2    0    0  0.22794126970E+02  0.30443572934E+02  0.14379919660E+02  0.50528862691E+02  0.30000008635E+02 0.  0.
         12    1    1    2    0    0 -0.22794126970E+02 -0.30443572934E+02 -0.14379919660E+02  0.40659137309E+02  0.00000000000E+00 0. -1.
         11    1    3    3    0    0 -0.55847844928E+00  0.99616893235E+01  0.69658553362E+01  0.12168413750E+02  0.51100000000E-03 0. -1.
        -11    1    3    3    0    0  0.16086058989E+02  0.13120707590E+02  0.14933988873E+02  0.25572217060E+02  0.51100000000E-03 0.  1.
        -12    1    3    3    0    0  0.72665464305E+01  0.73611760207E+01 -0.75199245488E+01  0.12788231881E+02  0.00000000000E+00 0.  1.
</event>
<event>
 7    1  0.6462830E-013  0.5052886E+02  0.7816164E-02  0.1300439E+00
        -11   -1    0    0    0    0  0.00000000000E+00  0.00000000000E+00  0.45593999997E+02  0.45594000000E+02  0.51100000000E-03 0.  1.
         11   -1    0    0    0    0 -0.00000000000E+00 -0.00000000000E+00 -0.45593999997E+02  0.45594000000E+02  0.51100000000E-03 0. -1.
    9900012    2    1    2    0    0 -0.18204144915E+01 -0.20988625255E+02  0.34775414020E+02  0.50528859339E+02  0.29999998448E+02 0.  0.
         12    1    1    2    0    0  0.18204144915E+01  0.20988625255E+02 -0.34775414020E+02  0.40659140661E+02  0.00000000000E+00 0. -1.
         11    1    3    3    0    0 -0.94636747502E+01 -0.31383889055E+01  0.15563806496E+02  0.18483579134E+02  0.51100000000E-03 0. -1.
        -11    1    3    3    0    0  0.28450208615E+01 -0.15266663304E+02  0.42181500341E+01  0.16092170211E+02  0.51100000000E-03 0.  1.
         12    1    3    3    0    0  0.47982393972E+01 -0.25835730464E+01  0.14993457489E+02  0.15953109994E+02  0.00000000000E+00 0. -1.
</event>
<event>
 7    1  0.6462830E-013  0.5052886E+02  0.7816164E-02  0.1300439E+00
        -11   -1    0    0    0    0  0.00000000000E+00  0.00000000000E+00  0.45593999997E+02  0.45594000000E+02  0.51100000000E-03 0.  1.
         11   -1    0    0    0    0 -0.00000000000E+00 -0.00000000000E+00 -0.45593999997E+02  0.45594000000E+02  0.51100000000E-03 0. -1.
    9900012    2    1    2    0    0 -0.31239337635E+02 -0.25977796903E+02  0.15567822738E+01  0.50528859344E+02  0.29999998463E+02 0.  0.
         12    1    1    2    0    0  0.31239337635E+02  0.25977796903E+02 -0.15567822738E+01  0.40659140656E+02  0.00000000000E+00 0. -1.
         11    1    3    3    0    0 -0.27488102431E+01 -0.11132621783E+02  0.35983933178E+01  0.12018305216E+02  0.51100000000E-03 0. -1.
        -11    1    3    3    0    0 -0.13336906186E+02 -0.14895767805E+02  0.66134825970E+01  0.21059323765E+02  0.51100000000E-03 0.  1.
         12    1    3    3    0    0 -0.15153621206E+02  0.50592685258E-01 -0.86550936409E+01  0.17451230364E+02  0.00000000000E+00 0. -1.
</event>
<event>
 7    1  0.6462830E-013  0.5052886E+02  0.7816164E-02  0.1300439E+00
        -11   -1    0    0    0    0  0.00000000000E+00  0.00000000000E+00  0.45593999997E+02  0.45594000000E+02  0.51100000000E-03 0. -1.
         11   -1    0    0    0    0 -0.00000000000E+00 -0.00000000000E+00 -0.45593999997E+02  0.45594000000E+02  0.51100000000E-03 0.  1.
    9900012    2    1    2    0    0 -0.19224006631E+02  0.23629543006E+02 -0.26930430287E+02  0.50528858235E+02  0.29999995090E+02 0.  0.
         12    1    1    2    0    0  0.19224006631E+02 -0.23629543006E+02  0.26930430287E+02  0.40659141765E+02  0.00000000000E+00 0. -1.
         11    1    3    3    0    0 -0.20009797386E+02  0.92712432150E+01 -0.26238561568E+02  0.34275502266E+02  0.51100000000E-03 0.  1.
        -11    1    3    3    0    0  0.14497582604E+01 -0.31814462464E+00  0.35013173038E+00  0.15249942640E+01  0.51100000000E-03 0. -1.
        -12    1    3    3    0    0 -0.66396750524E+00  0.14676444416E+02 -0.10420004494E+01  0.14728361704E+02  0.00000000000E+00 0.  1.
</event>
<event>
 7    1  0.6462830E-013  0.5052887E+02  0.7816164E-02  0.1300439E+00
        -11   -1    0    0    0    0  0.00000000000E+00  0.00000000000E+00  0.45593999997E+02  0.45594000000E+02  0.51100000000E-03 0.  1.
         11   -1    0    0    0    0 -0.00000000000E+00 -0.00000000000E+00 -0.45593999997E+02  0.45594000000E+02  0.51100000000E-03 0. -1.
    9900012    2    1    2    0    0 -0.30564559466E+02 -0.57499093760E+01  0.26189911741E+02  0.50528865353E+02  0.30000016727E+02 0.  0.
         12    1    1    2    0    0  0.30564559466E+02  0.57499093760E+01 -0.26189911741E+02  0.40659134647E+02  0.00000000000E+00 0. -1.
         11    1    3    3    0    0 -0.10200869032E+02  0.43108361404E+00  0.46417852871E+01  0.11215602213E+02  0.51100000000E-03 0. -1.
        -11    1    3    3    0    0 -0.15021303911E+02 -0.10322240413E+02  0.25605323895E+02  0.31429617089E+02  0.51100000000E-03 0.  1.
         12    1    3    3    0    0 -0.53423865231E+01  0.41412474228E+01 -0.40571974407E+01  0.78836460506E+01  0.00000000000E+00 0. -1.
</event>
<event>
 7    1  0.6462830E-013  0.5052886E+02  0.7816164E-02  0.1300439E+00
        -11   -1    0    0    0    0  0.00000000000E+00  0.00000000000E+00  0.45593999997E+02  0.45594000000E+02  0.51100000000E-03 0. -1.
         11   -1    0    0    0    0 -0.00000000000E+00 -0.00000000000E+00 -0.45593999997E+02  0.45594000000E+02  0.51100000000E-03 0.  1.
    9900012    2    1    2    0    0  0.18095397344E+02  0.28760938061E+02 -0.22327800006E+02  0.50528860606E+02  0.30000002297E+02 0.  0.
         12    1    1    2    0    0 -0.18095397344E+02 -0.28760938061E+02  0.22327800006E+02  0.40659139394E+02  0.00000000000E+00 0. -1.
         11    1    3    3    0    0  0.63923346314E+01  0.15259400757E+02 -0.18202653712E+01  0.16644056590E+02  0.51100000000E-03 0. -1.
        -11    1    3    3    0    0  0.16230866970E+02  0.10612845941E+02 -0.20885787132E+02  0.28500695535E+02  0.51100000000E-03 0.  1.
         12    1    3    3    0    0 -0.45278042569E+01  0.28886913634E+01  0.37825249756E+00  0.53841084809E+01  0.00000000000E+00 0. -1.
</event>
<event>
 7    1  0.6462830E-013  0.5052882E+02  0.7816164E-02  0.1300439E+00
        -11   -1    0    0    0    0  0.00000000000E+00  0.00000000000E+00  0.45593999997E+02  0.45594000000E+02  0.51100000000E-03 0.  1.
         11   -1    0    0    0    0 -0.00000000000E+00 -0.00000000000E+00 -0.45593999997E+02  0.45594000000E+02  0.51100000000E-03 0. -1.
    9900012    2    1    2    0    0  0.38480915083E+01 -0.40428661259E+02  0.19710002334E+01  0.50528815289E+02  0.29999864553E+02 0.  0.
         12    1    1    2    0    0 -0.38480915083E+01  0.40428661259E+02 -0.19710002334E+01  0.40659184711E+02  0.00000000000E+00 0. -1.
         11    1    3    3    0    0 -0.28734526877E+01 -0.50371290076E+01  0.21359336427E+01  0.61799362274E+01  0.51100000000E-03 0. -1.
        -11    1    3    3    0    0  0.10577001267E+02 -0.88914547812E+01  0.84759103370E+01  0.16210243065E+02  0.51100000000E-03 0.  1.
         12    1    3    3    0    0 -0.38554570707E+01 -0.26500077470E+02 -0.86408437462E+01  0.28138635997E+02  0.00000000000E+00 0. -1.
</event>
<event>
 7    1  0.6462830E-013  0.5052886E+02  0.7816164E-02  0.1300439E+00
        -11   -1    0    0    0    0  0.00000000000E+00  0.00000000000E+00  0.45593999997E+02  0.45594000000E+02  0.51100000000E-03 0.  1.
         11   -1    0    0    0    0 -0.00000000000E+00 -0.00000000000E+00 -0.45593999997E+02  0.45594000000E+02  0.51100000000E-03 0. -1.
    9900012    2    1    2    0    0 -0.37865119856E+02 -0.42844756493E+01 -0.14178918831E+02  0.50528858684E+02  0.29999996456E+02 0.  0.
         12    1    1    2    0    0  0.37865119856E+02  0.42844756493E+01  0.14178918831E+02  0.40659141316E+02  0.00000000000E+00 0. -1.
         11    1    3    3    0    0 -0.27875779670E+02 -0.15278693239E+01  0.18391119344E+01  0.27978130921E+02  0.51100000000E-03 0. -1.
        -11    1    3    3    0    0 -0.10671973231E+02  0.54925263640E+00 -0.66336000354E+01  0.12577652435E+02  0.51100000000E-03 0.  1.
         12    1    3    3    0    0  0.68263304457E+00 -0.33058589617E+01 -0.93844307304E+01  0.99730753272E+01  0.00000000000E+00 0. -1.
</event>
<event>
 7    1  0.6462830E-013  0.5052887E+02  0.7816164E-02  0.1300439E+00
        -11   -1    0    0    0    0  0.00000000000E+00  0.00000000000E+00  0.45593999997E+02  0.45594000000E+02  0.51100000000E-03 0.  1.
         11   -1    0    0    0    0 -0.00000000000E+00 -0.00000000000E+00 -0.45593999997E+02  0.45594000000E+02  0.51100000000E-03 0. -1.
    9900012    2    1    2    0    0  0.13054682033E+02  0.12721967866E+02  0.36344072936E+02  0.50528870312E+02  0.30000031801E+02 0.  0.
         12    1    1    2    0    0 -0.13054682033E+02 -0.12721967866E+02 -0.36344072936E+02  0.40659129688E+02  0.00000000000E+00 0. -1.
         11    1    3    3    0    0  0.46204272890E-02  0.31494233126E+01  0.28574394720E+02  0.28747433319E+02  0.51100000000E-03 0.  1.
        -11    1    3    3    0    0  0.65285194238E+00 -0.14543332039E+00 -0.27561682005E+01  0.28361646497E+01  0.51100000000E-03 0. -1.
        -12    1    3    3    0    0  0.12397209663E+02  0.97179778740E+01  0.10525846417E+02  0.18945272344E+02  0.00000000000E+00 0.  1.
</event>
<event>
 7    1  0.6462830E-013  0.5052885E+02  0.7816164E-02  0.1300439E+00
        -11   -1    0    0    0    0  0.00000000000E+00  0.00000000000E+00  0.45593999997E+02  0.45594000000E+02  0.51100000000E-03 0. -1.
         11   -1    0    0    0    0 -0.00000000000E+00 -0.00000000000E+00 -0.45593999997E+02  0.45594000000E+02  0.51100000000E-03 0.  1.
    9900012    2    1    2    0    0 -0.86497448618E+01 -0.37058255389E+02  0.14318999020E+02  0.50528854515E+02  0.29999983783E+02 0.  0.
         12    1    1    2    0    0  0.86497448618E+01  0.37058255389E+02 -0.14318999020E+02  0.40659145485E+02  0.00000000000E+00 0. -1.
         11    1    3    3    0    0 -0.56823892795E+01 -0.96335821049E+01 -0.70434838404E+01  0.13217644153E+02  0.51100000000E-03 0. -1.
        -11    1    3    3    0    0 -0.38272364716E+01 -0.13553571313E+02  0.32017825909E+01  0.14442937595E+02  0.51100000000E-03 0.  1.
        -12    1    3    3    0    0  0.85988088931E+00 -0.13871101971E+02  0.18160700269E+02  0.22868272766E+02  0.00000000000E+00 0.  1.
</event>
<event>
 7    1  0.6462830E-013  0.5052887E+02  0.7816164E-02  0.1300439E+00
        -11   -1    0    0    0    0  0.00000000000E+00  0.00000000000E+00  0.45593999997E+02  0.45594000000E+02  0.51100000000E-03 0.  1.
         11   -1    0    0    0    0 -0.00000000000E+00 -0.00000000000E+00 -0.45593999997E+02  0.45594000000E+02  0.51100000000E-03 0. -1.
    9900012    2    1    2    0    0 -0.20566930679E+02 -0.19146314940E+02  0.29386816853E+02  0.50528867962E+02  0.30000024659E+02 0.  0.
         12    1    1    2    0    0  0.20566930679E+02  0.19146314940E+02 -0.29386816853E+02  0.40659132038E+02  0.00000000000E+00 0. -1.
         11    1    3    3    0    0 -0.15739277176E+01 -0.90646998565E+01  0.34266854027E+00  0.92067070084E+01  0.51100000000E-03 0. -1.
        -11    1    3    3    0    0 -0.39715039096E+01 -0.13348353559E+02  0.15458321983E+02  0.20806515922E+02  0.51100000000E-03 0.  1.
        -12    1    3    3    0    0 -0.15021499051E+02  0.32667384753E+01  0.13585826329E+02  0.20515645032E+02  0.00000000000E+00 0.  1.
</event>
<event>
 7    1  0.6462830E-013  0.5052883E+02  0.7816164E-02  0.1300439E+00
        -11   -1    0    0    0    0  0.00000000000E+00  0.00000000000E+00  0.45593999997E+02  0.45594000000E+02  0.51100000000E-03 0.  1.
         11   -1    0    0    0    0 -0.00000000000E+00 -0.00000000000E+00 -0.45593999997E+02  0.45594000000E+02  0.51100000000E-03 0. -1.
    9900012    2    1    2    0    0  0.19598840205E+02  0.32262224080E+02 -0.15106373193E+02  0.50528829435E+02  0.29999907551E+02 0.  0.
         12    1    1    2    0    0 -0.19598840205E+02 -0.32262224080E+02  0.15106373193E+02  0.40659170565E+02  0.00000000000E+00 0. -1.
         11    1    3    3    0    0  0.10313813146E+02  0.10778966887E+02 -0.12742721228E+02  0.19619832143E+02  0.51100000000E-03 0. -1.
        -11    1    3    3    0    0  0.14481450158E+02  0.20499845398E+02 -0.39036612830E+01  0.25400681717E+02  0.51100000000E-03 0.  1.
         12    1    3    3    0    0 -0.51964230987E+01  0.98341179435E+00  0.15400093173E+01  0.55083155751E+01  0.00000000000E+00 0. -1.
</event>
<event>
 7    1  0.6462830E-013  0.5052883E+02  0.7816164E-02  0.1300439E+00
        -11   -1    0    0    0    0  0.00000000000E+00  0.00000000000E+00  0.45593999997E+02  0.45594000000E+02  0.51100000000E-03 0.  1.
         11   -1    0    0    0    0 -0.00000000000E+00 -0.00000000000E+00 -0.45593999997E+02  0.45594000000E+02  0.51100000000E-03 0. -1.
    9900012    2    1    2    0    0  0.43199603093E+01  0.60865368006E+01  0.39968237518E+02  0.50528831322E+02  0.29999913286E+02 0.  0.
         12    1    1    2    0    0 -0.43199603093E+01 -0.60865368006E+01 -0.39968237518E+02  0.40659168678E+02  0.00000000000E+00 0. -1.
         11    1    3    3    0    0  0.11061372857E+01  0.10138446760E+02  0.45952530295E+01  0.11186062447E+02  0.51100000000E-03 0. -1.
        -11    1    3    3    0    0  0.99380220492E+01 -0.16533513324E+01  0.21306309355E+02  0.23568128298E+02  0.51100000000E-03 0.  1.
         12    1    3    3    0    0 -0.67241990255E+01 -0.23985586270E+01  0.14066675134E+02  0.15774640577E+02  0.00000000000E+00 0. -1.
</event>
<event>
 7    1  0.6462830E-013  0.5052886E+02  0.7816164E-02  0.1300439E+00
        -11   -1    0    0    0    0  0.00000000000E+00  0.00000000000E+00  0.45593999997E+02  0.45594000000E+02  0.51100000000E-03 0.  1.
         11   -1    0    0    0    0 -0.00000000000E+00 -0.00000000000E+00 -0.45593999997E+02  0.45594000000E+02  0.51100000000E-03 0. -1.
    9900012    2    1    2    0    0 -0.39494148783E+02  0.44593268118E+01  0.85727537677E+01  0.50528862148E+02  0.30000006986E+02 0.  0.
         12    1    1    2    0    0  0.39494148783E+02 -0.44593268118E+01 -0.85727537677E+01  0.40659137852E+02  0.00000000000E+00 0. -1.
         11    1    3    3    0    0 -0.64335629875E+01 -0.43029819207E+01  0.60154513933E+01  0.98026548369E+01  0.51100000000E-03 0. -1.
        -11    1    3    3    0    0 -0.27056905086E+02  0.35905213479E+01  0.10744027330E+02  0.29332611202E+02  0.51100000000E-03 0.  1.
        -12    1    3    3    0    0 -0.60036807089E+01  0.51717873846E+01 -0.81867249559E+01  0.11393596110E+02  0.00000000000E+00 0.  1.
</event>
<event>
 7    1  0.6462830E-013  0.5052888E+02  0.7816164E-02  0.1300439E+00
        -11   -1    0    0    0    0  0.00000000000E+00  0.00000000000E+00  0.45593999997E+02  0.45594000000E+02  0.51100000000E-03 0.  1.
         11   -1    0    0    0    0 -0.00000000000E+00 -0.00000000000E+00 -0.45593999997E+02  0.45594000000E+02  0.51100000000E-03 0. -1.
    9900012    2    1    2    0    0 -0.15966114210E+02  0.13637384568E+02  0.34817656524E+02  0.50528877203E+02  0.30000052746E+02 0.  0.
         12    1    1    2    0    0  0.15966114210E+02 -0.13637384568E+02 -0.34817656524E+02  0.40659122797E+02  0.00000000000E+00 0. -1.
         11    1    3    3    0    0  0.36559477354E+01  0.56138245795E+01  0.12331409568E+01  0.68118732471E+01  0.51100000000E-03 0. -1.
        -11    1    3    3    0    0 -0.12150163123E+02  0.24147766856E+00  0.29968403270E+02  0.32338676074E+02  0.51100000000E-03 0.  1.
         12    1    3    3    0    0 -0.74718988224E+01  0.77820823199E+01  0.36161122962E+01  0.11378327882E+02  0.00000000000E+00 0. -1.
</event>
<event>
 7    1  0.6462830E-013  0.5052886E+02  0.7816164E-02  0.1300439E+00
        -11   -1    0    0    0    0  0.00000000000E+00  0.00000000000E+00  0.45593999997E+02  0.45594000000E+02  0.51100000000E-03 0.  1.
         11   -1    0    0    0    0 -0.00000000000E+00 -0.00000000000E+00 -0.45593999997E+02  0.45594000000E+02  0.51100000000E-03 0. -1.
    9900012    2    1    2    0    0  0.18192837426E+02 -0.27773300968E+02  0.23469761217E+02  0.50528864842E+02  0.30000015172E+02 0.  0.
         12    1    1    2    0    0 -0.18192837426E+02  0.27773300968E+02 -0.23469761217E+02  0.40659135158E+02  0.00000000000E+00 0. -1.
         11    1    3    3    0    0  0.97259662507E+01 -0.76479272001E+01  0.18888652224E+02  0.22580221281E+02  0.51100000000E-03 0.  1.
        -11    1    3    3    0    0  0.97163865116E+01 -0.15930582270E+02  0.98490434710E+01  0.21099651084E+02  0.51100000000E-03 0. -1.
         12    1    3    3    0    0 -0.12495153359E+01 -0.41947914971E+01 -0.52679344784E+01  0.68489924768E+01  0.00000000000E+00 0. -1.
</event>
<event>
 7    1  0.6462830E-013  0.5052885E+02  0.7816164E-02  0.1300439E+00
        -11   -1    0    0    0    0  0.00000000000E+00  0.00000000000E+00  0.45593999997E+02  0.45594000000E+02  0.51100000000E-03 0.  1.
         11   -1    0    0    0    0 -0.00000000000E+00 -0.00000000000E+00 -0.45593999997E+02  0.45594000000E+02  0.51100000000E-03 0. -1.
    9900012    2    1    2    0    0 -0.53637422928E+01 -0.22380182629E+02  0.33519013032E+02  0.50528849239E+02  0.29999967748E+02 0.  0.
         12    1    1    2    0    0  0.53637422928E+01  0.22380182629E+02 -0.33519013032E+02  0.40659150761E+02  0.00000000000E+00 0. -1.
         11    1    3    3    0    0 -0.62724331758E+00  0.77759265003E+00  0.33808076702E+01  0.35253291014E+01  0.51100000000E-03 0. -1.
        -11    1    3    3    0    0  0.40581833855E+01 -0.13202963583E+02 -0.27579927227E+00  0.13815323567E+02  0.51100000000E-03 0.  1.
        -12    1    3    3    0    0 -0.87946823607E+01 -0.99548116965E+01  0.30414004635E+02  0.33188196571E+02  0.00000000000E+00 0.  1.
</event>
<event>
 7    1  0.6462830E-013  0.5052886E+02  0.7816164E-02  0.1300439E+00
        -11   -1    0    0    0    0  0.00000000000E+00  0.00000000000E+00  0.45593999997E+02  0.45594000000E+02  0.51100000000E-03 0.  1.
         11   -1    0    0    0    0 -0.00000000000E+00 -0.00000000000E+00 -0.45593999997E+02  0.45594000000E+02  0.51100000000E-03 0. -1.
    9900012    2    1    2    0    0 -0.28861696426E+01  0.40512579814E+02 -0.18886163208E+01  0.50528856256E+02  0.29999989075E+02 0.  0.
         12    1    1    2    0    0  0.28861696426E+01 -0.40512579814E+02  0.18886163208E+01  0.40659143744E+02  0.00000000000E+00 0. -1.
         11    1    3    3    0    0 -0.12599342244E+02  0.22441424903E+02  0.16261782658E+01  0.25787699251E+02  0.51100000000E-03 0. -1.
        -11    1    3    3    0    0  0.12326735205E+01  0.14941976749E+02 -0.44866508740E+01  0.15649670587E+02  0.51100000000E-03 0.  1.
         12    1    3    3    0    0  0.84804990810E+01  0.31291781629E+01  0.97185628732E+00  0.90914864176E+01  0.00000000000E+00 0. -1.
</event>
<event>
 7    1  0.6462830E-013  0.5052886E+02  0.7816164E-02  0.1300439E+00
        -11   -1    0    0    0    0  0.00000000000E+00  0.00000000000E+00  0.45593999997E+02  0.45594000000E+02  0.51100000000E-03 0.  1.
         11   -1    0    0    0    0 -0.00000000000E+00 -0.00000000000E+00 -0.45593999997E+02  0.45594000000E+02  0.51100000000E-03 0. -1.
    9900012    2    1    2    0    0  0.21232762740E+02 -0.30769243474E+02  0.15987154138E+02  0.50528860130E+02  0.30000000852E+02 0.  0.
         12    1    1    2    0    0 -0.21232762740E+02  0.30769243474E+02 -0.15987154138E+02  0.40659139870E+02  0.00000000000E+00 0. -1.
         11    1    3    3    0    0  0.16031222933E+01 -0.16995323509E+01 -0.31271935489E+01  0.39035562058E+01  0.51100000000E-03 0. -1.
        -11    1    3    3    0    0  0.36213821975E+01 -0.35089085190E+00  0.12589939724E+02  0.13105117929E+02  0.51100000000E-03 0.  1.
        -12    1    3    3    0    0  0.16008258249E+02 -0.28718820271E+02  0.65244079629E+01  0.33520185996E+02  0.00000000000E+00 0.  1.
</event>
<event>
 7    1  0.6462830E-013  0.5052886E+02  0.7816164E-02  0.1300439E+00
        -11   -1    0    0    0    0  0.00000000000E+00  0.00000000000E+00  0.45593999997E+02  0.45594000000E+02  0.51100000000E-03 0. -1.
         11   -1    0    0    0    0 -0.00000000000E+00 -0.00000000000E+00 -0.45593999997E+02  0.45594000000E+02  0.51100000000E-03 0.  1.
    9900012    2    1    2    0    0 -0.13463810796E+02  0.59523966605E+00 -0.38360624282E+02  0.50528855805E+02  0.29999987704E+02 0.  0.
         12    1    1    2    0    0  0.13463810796E+02 -0.59523966605E+00  0.38360624282E+02  0.40659144195E+02  0.00000000000E+00 0. -1.
         11    1    3    3    0    0 -0.14258755652E+02  0.12262177506E+01 -0.11028933446E+02  0.18068013060E+02  0.51100000000E-03 0. -1.
        -11    1    3    3    0    0  0.69317198422E+01 -0.31578537133E+00 -0.24905986215E+02  0.25854527843E+02  0.51100000000E-03 0.  1.
         12    1    3    3    0    0 -0.61367749860E+01 -0.31519271320E+00 -0.24257046206E+01  0.66063149018E+01  0.00000000000E+00 0. -1.
</event>
<event>
 7    1  0.6462830E-013  0.5052887E+02  0.7816164E-02  0.1300439E+00
        -11   -1    0    0    0    0  0.00000000000E+00  0.00000000000E+00  0.45593999997E+02  0.45594000000E+02  0.51100000000E-03 0.  1.
         11   -1    0    0    0    0 -0.00000000000E+00 -0.00000000000E+00 -0.45593999997E+02  0.45594000000E+02  0.51100000000E-03 0. -1.
    9900012    2    1    2    0    0  0.13704516701E+02  0.23758768380E+02  0.30014535425E+02  0.50528865851E+02  0.30000018241E+02 0.  0.
         12    1    1    2    0    0 -0.13704516701E+02 -0.23758768380E+02 -0.30014535425E+02  0.40659134149E+02  0.00000000000E+00 0. -1.
         11    1    3    3    0    0  0.16606911020E+01  0.12945033995E+02  0.36271047486E+01  0.13545762776E+02  0.51100000000E-03 0. -1.
        -11    1    3    3    0    0 -0.36778624267E+01 -0.22292971342E+01  0.10325321768E+01  0.44229583651E+01  0.51100000000E-03 0.  1.
        -12    1    3    3    0    0  0.15721688026E+02  0.13043031519E+02  0.25354898500E+02  0.32560144710E+02  0.00000000000E+00 0.  1.
</event>
<event>
 7    1  0.6462830E-013  0.5052885E+02  0.7816164E-02  0.1300439E+00
        -11   -1    0    0    0    0  0.00000000000E+00  0.00000000000E+00  0.45593999997E+02  0.45594000000E+02  0.51100000000E-03 0.  1.
         11   -1    0    0    0    0 -0.00000000000E+00 -0.00000000000E+00 -0.45593999997E+02  0.45594000000E+02  0.51100000000E-03 0. -1.
    9900012    2    1    2    0    0  0.24037853324E+02  0.29377069212E+02  0.14571739409E+02  0.50528853707E+02  0.29999981328E+02 0.  0.
         12    1    1    2    0    0 -0.24037853324E+02 -0.29377069212E+02 -0.14571739409E+02  0.40659146293E+02  0.00000000000E+00 0. -1.
         11    1    3    3    0    0  0.15020130484E+02  0.11551013153E+01  0.52536049239E+01  0.15954276661E+02  0.51100000000E-03 0.  1.
        -11    1    3    3    0    0  0.18005685330E+01  0.33354706590E+01  0.77356974147E+01  0.86144312820E+01  0.51100000000E-03 0. -1.
         12    1    3    3    0    0  0.72171543070E+01  0.24886497237E+02  0.15824370699E+01  0.25960145764E+02  0.00000000000E+00 0. -1.
</event>
<event>
 7    1  0.6462830E-013  0.5052886E+02  0.7816164E-02  0.1300439E+00
        -11   -1    0    0    0    0  0.00000000000E+00  0.00000000000E+00  0.45593999997E+02  0.45594000000E+02  0.51100000000E-03 0. -1.
         11   -1    0    0    0    0 -0.00000000000E+00 -0.00000000000E+00 -0.45593999997E+02  0.45594000000E+02  0.51100000000E-03 0.  1.
    9900012    2    1    2    0    0 -0.17021302919E+02  0.30995137617E+02 -0.20068441188E+02  0.50528860305E+02  0.30000001384E+02 0.  0.
         12    1    1    2    0    0  0.17021302919E+02 -0.30995137617E+02  0.20068441188E+02  0.40659139695E+02  0.00000000000E+00 0. -1.
         11    1    3    3    0    0 -0.17266837429E+02  0.26957048893E+02 -0.14421852137E+02  0.35111479308E+02  0.51100000000E-03 0. -1.
        -11    1    3    3    0    0 -0.58212450402E+01  0.55565051645E+01 -0.37788825044E+01  0.88905341068E+01  0.51100000000E-03 0.  1.
         12    1    3    3    0    0  0.60667795502E+01 -0.15184164402E+01 -0.18677065463E+01  0.65268468911E+01  0.00000000000E+00 0. -1.
</event>
<event>
 7    1  0.6462830E-013  0.5052887E+02  0.7816164E-02  0.1300439E+00
        -11   -1    0    0    0    0  0.00000000000E+00  0.00000000000E+00  0.45593999997E+02  0.45594000000E+02  0.51100000000E-03 0. -1.
         11   -1    0    0    0    0 -0.00000000000E+00 -0.00000000000E+00 -0.45593999997E+02  0.45594000000E+02  0.51100000000E-03 0.  1.
    9900012    2    1    2    0    0  0.20030556055E+02 -0.23052625353E+02 -0.26842466489E+02  0.50528871643E+02  0.30000035846E+02 0.  0.
         12    1    1    2    0    0 -0.20030556055E+02  0.23052625353E+02  0.26842466489E+02  0.40659128357E+02  0.00000000000E+00 0. -1.
         11    1    3    3    0    0  0.55037004638E+01 -0.14134068783E+02 -0.15512068618E+02  0.21695319593E+02  0.51100000000E-03 0.  1.
        -11    1    3    3    0    0  0.46254747612E+01  0.64160000365E+01 -0.56377041065E+01  0.97130726903E+01  0.51100000000E-03 0. -1.
         12    1    3    3    0    0  0.99013808295E+01 -0.15334556607E+02 -0.56926937648E+01  0.19120479360E+02  0.00000000000E+00 0. -1.
</event>
<event>
 7    1  0.6462830E-013  0.5052886E+02  0.7816164E-02  0.1300439E+00
        -11   -1    0    0    0    0  0.00000000000E+00  0.00000000000E+00  0.45593999997E+02  0.45594000000E+02  0.51100000000E-03 0. -1.
         11   -1    0    0    0    0 -0.00000000000E+00 -0.00000000000E+00 -0.45593999997E+02  0.45594000000E+02  0.51100000000E-03 0.  1.
    9900012    2    1    2    0    0  0.98345709091E+01  0.16461928627E+02 -0.35853196585E+02  0.50528860997E+02  0.30000003487E+02 0.  0.
         12    1    1    2    0    0 -0.98345709091E+01 -0.16461928627E+02  0.35853196585E+02  0.40659139003E+02  0.00000000000E+00 0. -1.
         11    1    3    3    0    0  0.14744333523E+01  0.27717297573E+01 -0.21293699875E+02  0.21523895888E+02  0.51100000000E-03 0. -1.
        -11    1    3    3    0    0 -0.47408679851E+01 -0.13922525558E+01 -0.42826986279E+01  0.65387846141E+01  0.51100000000E-03 0.  1.
         12    1    3    3    0    0  0.13101005542E+02  0.15082451425E+02 -0.10276798082E+02  0.22466180495E+02  0.00000000000E+00 0. -1.
</event>
<event>
 7    1  0.6462830E-013  0.5052885E+02  0.7816164E-02  0.1300439E+00
        -11   -1    0    0    0    0  0.00000000000E+00  0.00000000000E+00  0.45593999997E+02  0.45594000000E+02  0.51100000000E-03 0.  1.
         11   -1    0    0    0    0 -0.00000000000E+00 -0.00000000000E+00 -0.45593999997E+02  0.45594000000E+02  0.51100000000E-03 0. -1.
    9900012    2    1    2    0    0 -0.64637578759E+01  0.34136208379E+02 -0.21121212028E+02  0.50528849912E+02  0.29999969791E+02 0.  0.
         12    1    1    2    0    0  0.64637578759E+01 -0.34136208379E+02  0.21121212028E+02  0.40659150088E+02  0.00000000000E+00 0. -1.
         11    1    3    3    0    0  0.42653794575E+01  0.17105181339E+01 -0.76018925139E+01  0.88830233736E+01  0.51100000000E-03 0. -1.
        -11    1    3    3    0    0  0.46223083184E+01  0.96302161374E+01  0.69525156808E+00  0.10704679913E+02  0.51100000000E-03 0.  1.
         12    1    3    3    0    0 -0.15351445652E+02  0.22795474108E+02 -0.14214571082E+02  0.30941146625E+02  0.00000000000E+00 0. -1.
</event>
<event>
 7    1  0.6462830E-013  0.5052887E+02  0.7816164E-02  0.1300439E+00
        -11   -1    0    0    0    0  0.00000000000E+00  0.00000000000E+00  0.45593999997E+02  0.45594000000E+02  0.51100000000E-03 0.  1.
         11   -1    0    0    0    0 -0.00000000000E+00 -0.00000000000E+00 -0.45593999997E+02  0.45594000000E+02  0.51100000000E-03 0. -1.
    9900012    2    1    2    0    0 -0.30006727783E+02 -0.27388511205E+02  0.16220141655E+01  0.50528865869E+02  0.30000018296E+02 0.  0.
         12    1    1    2    0    0  0.30006727783E+02  0.27388511205E+02 -0.16220141655E+01  0.40659134131E+02  0.00000000000E+00 0. -1.
         11    1    3    3    0    0 -0.92397203678E+01 -0.18048102083E+02  0.72374988294E+00  0.20288672589E+02  0.51100000000E-03 0. -1.
        -11    1    3    3    0    0 -0.19316462848E+02 -0.12802320644E+02 -0.45577290813E+01  0.23617748527E+02  0.51100000000E-03 0.  1.
        -12    1    3    3    0    0 -0.14505445674E+01  0.34619115217E+01  0.54559933639E+01  0.66224447535E+01  0.00000000000E+00 0.  1.
</event>
<event>
 7    1  0.6462830E-013  0.5052886E+02  0.7816164E-02  0.1300439E+00
        -11   -1    0    0    0    0  0.00000000000E+00  0.00000000000E+00  0.45593999997E+02  0.45594000000E+02  0.51100000000E-03 0.  1.
         11   -1    0    0    0    0 -0.00000000000E+00 -0.00000000000E+00 -0.45593999997E+02  0.45594000000E+02  0.51100000000E-03 0. -1.
    9900012    2    1    2    0    0 -0.66398554747E+01  0.15927641881E+02  0.36815600980E+02  0.50528856722E+02  0.29999990491E+02 0.  0.
         12    1    1    2    0    0  0.66398554747E+01 -0.15927641881E+02 -0.36815600980E+02  0.40659143278E+02  0.00000000000E+00 0. -1.
         11    1    3    3    0    0  0.27519948777E+01  0.30637175115E-01 -0.19528944516E+01  0.33746424171E+01  0.51100000000E-03 0. -1.
        -11    1    3    3    0    0 -0.81286613414E+01 -0.20560463981E+01  0.85015170427E+01  0.11940613648E+02  0.51100000000E-03 0.  1.
        -12    1    3    3    0    0 -0.12631890110E+01  0.17953051104E+02  0.30266978389E+02  0.35213600657E+02  0.00000000000E+00 0.  1.
</event>
<event>
 7    1  0.6462830E-013  0.5052883E+02  0.7816164E-02  0.1300439E+00
        -11   -1    0    0    0    0  0.00000000000E+00  0.00000000000E+00  0.45593999997E+02  0.45594000000E+02  0.51100000000E-03 0. -1.
         11   -1    0    0    0    0 -0.00000000000E+00 -0.00000000000E+00 -0.45593999997E+02  0.45594000000E+02  0.51100000000E-03 0.  1.
    9900012    2    1    2    0    0  0.34374858959E+02  0.13655320183E+02 -0.16884003716E+02  0.50528827858E+02  0.29999902758E+02 0.  0.
         12    1    1    2    0    0 -0.34374858959E+02 -0.13655320183E+02  0.16884003716E+02  0.40659172142E+02  0.00000000000E+00 0. -1.
         11    1    3    3    0    0  0.11201023585E+01  0.53719141736E+01 -0.38430442252E+01  0.66993343222E+01  0.51100000000E-03 0. -1.
        -11    1    3    3    0    0  0.22057745382E+01 -0.50261000078E+01  0.31928505365E+01  0.63499147562E+01  0.51100000000E-03 0.  1.
        -12    1    3    3    0    0  0.31048982062E+02  0.13309506017E+02 -0.16233810027E+02  0.37479578780E+02  0.00000000000E+00 0.  1.
</event>
<event>
 7    1  0.6462830E-013  0.5052887E+02  0.7816164E-02  0.1300439E+00
        -11   -1    0    0    0    0  0.00000000000E+00  0.00000000000E+00  0.45593999997E+02  0.45594000000E+02  0.51100000000E-03 0.  1.
         11   -1    0    0    0    0 -0.00000000000E+00 -0.00000000000E+00 -0.45593999997E+02  0.45594000000E+02  0.51100000000E-03 0. -1.
    9900012    2    1    2    0    0 -0.18156877553E+02 -0.48672042583E+01  0.36052778985E+02  0.50528871230E+02  0.30000034592E+02 0.  0.
         12    1    1    2    0    0  0.18156877553E+02  0.48672042583E+01 -0.36052778985E+02  0.40659128770E+02  0.00000000000E+00 0. -1.
         11    1    3    3    0    0 -0.11772214153E+02 -0.35234870882E+01  0.18179100293E+01  0.12421947692E+02  0.51100000000E-03 0. -1.
        -11    1    3    3    0    0 -0.10921325230E+02 -0.17577684613E+01  0.17015378959E+02  0.20295029345E+02  0.51100000000E-03 0.  1.
         12    1    3    3    0    0  0.45366618292E+01  0.41405129124E+00  0.17219489996E+02  0.17811894194E+02  0.00000000000E+00 0. -1.
</event>
<event>
 7    1  0.6462830E-013  0.5052887E+02  0.7816164E-02  0.1300439E+00
        -11   -1    0    0    0    0  0.00000000000E+00  0.00000000000E+00  0.45593999997E+02  0.45594000000E+02  0.51100000000E-03 0.  1.
         11   -1    0    0    0    0 -0.00000000000E+00 -0.00000000000E+00 -0.45593999997E+02  0.45594000000E+02  0.51100000000E-03 0. -1.
    9900012    2    1    2    0    0 -0.35793609933E+02  0.81855877910E+01 -0.17463644208E+02  0.50528865373E+02  0.30000016789E+02 0.  0.
         12    1    1    2    0    0  0.35793609933E+02 -0.81855877910E+01  0.17463644208E+02  0.40659134627E+02  0.00000000000E+00 0. -1.
         11    1    3    3    0    0  0.95324117240E+00  0.39148850997E+01 -0.48682798072E+01  0.63194258141E+01  0.51100000000E-03 0. -1.
        -11    1    3    3    0    0 -0.81920261743E+01  0.62748996330E+01  0.40628403261E+01  0.11090100542E+02  0.51100000000E-03 0.  1.
        -12    1    3    3    0    0 -0.28554824931E+02 -0.20041969417E+01 -0.16658204727E+02  0.33119339018E+02  0.00000000000E+00 0.  1.
</event>
<event>
 7    1  0.6462830E-013  0.5052885E+02  0.7816164E-02  0.1300439E+00
        -11   -1    0    0    0    0  0.00000000000E+00  0.00000000000E+00  0.45593999997E+02  0.45594000000E+02  0.51100000000E-03 0.  1.
         11   -1    0    0    0    0 -0.00000000000E+00 -0.00000000000E+00 -0.45593999997E+02  0.45594000000E+02  0.51100000000E-03 0. -1.
    9900012    2    1    2    0    0  0.26082650187E+02  0.25596167363E+02  0.17824080243E+02  0.50528852678E+02  0.29999978200E+02 0.  0.
         12    1    1    2    0    0 -0.26082650187E+02 -0.25596167363E+02 -0.17824080243E+02  0.40659147322E+02  0.00000000000E+00 0. -1.
         11    1    3    3    0    0  0.83246110338E+01  0.34489431563E+01  0.99733985788E+01  0.13441095091E+02  0.51100000000E-03 0. -1.
        -11    1    3    3    0    0  0.49432472024E+01  0.10476043421E+02 -0.76112038243E+01  0.13860505135E+02  0.51100000000E-03 0.  1.
         12    1    3    3    0    0  0.12814791950E+02  0.11671180786E+02  0.15461885488E+02  0.23227252453E+02  0.00000000000E+00 0. -1.
</event>
<event>
 7    1  0.6462830E-013  0.5052886E+02  0.7816164E-02  0.1300439E+00
        -11   -1    0    0    0    0  0.00000000000E+00  0.00000000000E+00  0.45593999997E+02  0.45594000000E+02  0.51100000000E-03 0. -1.
         11   -1    0    0    0    0 -0.00000000000E+00 -0.00000000000E+00 -0.45593999997E+02  0.45594000000E+02  0.51100000000E-03 0.  1.
    9900012    2    1    2    0    0  0.14432418517E+02  0.27455399460E+02 -0.26288241312E+02  0.50528864557E+02  0.30000014306E+02 0.  0.
         12    1    1    2    0    0 -0.14432418517E+02 -0.27455399460E+02  0.26288241312E+02  0.40659135443E+02  0.00000000000E+00 0. -1.
         11    1    3    3    0    0  0.61480986340E+01  0.18827585468E+00 -0.19966908009E+02  0.20892869125E+02  0.51100000000E-03 0. -1.
        -11    1    3    3    0    0  0.39127087207E+01  0.14032718412E+02 -0.58250923691E+01  0.15689428827E+02  0.51100000000E-03 0.  1.
        -12    1    3    3    0    0  0.43716111627E+01  0.13234405193E+02 -0.49624093385E+00  0.13946566604E+02  0.00000000000E+00 0.  1.
</event>
<event>
 7    1  0.6462830E-013  0.5052886E+02  0.7816164E-02  0.1300439E+00
        -11   -1    0    0    0    0  0.00000000000E+00  0.00000000000E+00  0.45593999997E+02  0.45594000000E+02  0.51100000000E-03 0.  1.
         11   -1    0    0    0    0 -0.00000000000E+00 -0.00000000000E+00 -0.45593999997E+02  0.45594000000E+02  0.51100000000E-03 0. -1.
    9900012    2    1    2    0    0 -0.12641606035E+02 -0.25299957669E+01  0.38561054928E+02  0.50528855409E+02  0.29999986502E+02 0.  0.
         12    1    1    2    0    0  0.12641606035E+02  0.25299957669E+01 -0.38561054928E+02  0.40659144591E+02  0.00000000000E+00 0. -1.
         11    1    3    3    0    0  0.27638845114E+00  0.76144422504E+01  0.15599158342E+02  0.17360583590E+02  0.51100000000E-03 0.  1.
        -11    1    3    3    0    0  0.22516340835E+01 -0.83318404775E+01  0.75429966127E+01  0.11462382822E+02  0.51100000000E-03 0. -1.
        -12    1    3    3    0    0 -0.15169628570E+02 -0.18125975398E+01  0.15418899973E+02  0.21705888997E+02  0.00000000000E+00 0.  1.
</event>
<event>
 7    1  0.6462830E-013  0.5052886E+02  0.7816164E-02  0.1300439E+00
        -11   -1    0    0    0    0  0.00000000000E+00  0.00000000000E+00  0.45593999997E+02  0.45594000000E+02  0.51100000000E-03 0.  1.
         11   -1    0    0    0    0 -0.00000000000E+00 -0.00000000000E+00 -0.45593999997E+02  0.45594000000E+02  0.51100000000E-03 0. -1.
    9900012    2    1    2    0    0  0.28430757317E+02  0.16144635469E+02  0.24170399780E+02  0.50528862754E+02  0.30000008827E+02 0.  0.
         12    1    1    2    0    0 -0.28430757317E+02 -0.16144635469E+02 -0.24170399780E+02  0.40659137246E+02  0.00000000000E+00 0. -1.
         11    1    3    3    0    0  0.28993556814E+02  0.10317270184E+02  0.10095828389E+02  0.32388240951E+02  0.51100000000E-03 0. -1.
        -11    1    3    3    0    0  0.24423729529E+01  0.28774058978E+01  0.35679886786E+00  0.37910362746E+01  0.51100000000E-03 0.  1.
        -12    1    3    3    0    0 -0.30051724496E+01  0.29499593874E+01  0.13717772523E+02  0.14349585528E+02  0.00000000000E+00 0.  1.
</event>
<event>
 7    1  0.6462830E-013  0.5052885E+02  0.7816164E-02  0.1300439E+00
        -11   -1    0    0    0    0  0.00000000000E+00  0.00000000000E+00  0.45593999997E+02  0.45594000000E+02  0.51100000000E-03 0.  1.
         11   -1    0    0    0    0 -0.00000000000E+00 -0.00000000000E+00 -0.45593999997E+02  0.45594000000E+02  0.51100000000E-03 0. -1.
    9900012    2    1    2    0    0 -0.30790233957E+02 -0.93333634418E+01  0.24859932640E+02  0.50528850585E+02  0.29999971840E+02 0.  0.
         12    1    1    2    0    0  0.30790233957E+02  0.93333634418E+01 -0.24859932640E+02  0.40659149415E+02  0.00000000000E+00 0. -1.
         11    1    3    3    0    0  0.23951866771E+01 -0.62270890889E+01 -0.16805523269E+01  0.68802481150E+01  0.51100000000E-03 0. -1.
        -11    1    3    3    0    0 -0.92986303864E+01 -0.50100766689E+01  0.98832844375E+01  0.14465293181E+02  0.51100000000E-03 0.  1.
        -12    1    3    3    0    0 -0.23886790247E+02  0.19038023159E+01  0.16657200530E+02  0.29183309289E+02  0.00000000000E+00 0.  1.
</event>
<event>
 7    1  0.6462830E-013  0.5052886E+02  0.7816164E-02  0.1300439E+00
        -11   -1    0    0    0    0  0.00000000000E+00  0.00000000000E+00  0.45593999997E+02  0.45594000000E+02  0.51100000000E-03 0.  1.
         11   -1    0    0    0    0 -0.00000000000E+00 -0.00000000000E+00 -0.45593999997E+02  0.45594000000E+02  0.51100000000E-03 0. -1.
    9900012    2    1    2    0    0 -0.18301718933E+02  0.31336371111E+02 -0.18336969223E+02  0.50528861905E+02  0.30000006248E+02 0.  0.
         12    1    1    2    0    0  0.18301718933E+02 -0.31336371111E+02  0.18336969223E+02  0.40659138095E+02  0.00000000000E+00 0. -1.
         11    1    3    3    0    0 -0.12643488414E+01  0.47225133879E+01 -0.13517338308E+02  0.14374252881E+02  0.51100000000E-03 0. -1.
        -11    1    3    3    0    0 -0.77653268780E+00  0.12803408580E+01 -0.58451994512E+01  0.60339566300E+01  0.51100000000E-03 0.  1.
        -12    1    3    3    0    0 -0.16260837404E+02  0.25333516865E+02  0.10255685363E+01  0.30120652394E+02  0.00000000000E+00 0.  1.
</event>
<event>
 7    1  0.6462830E-013  0.5052886E+02  0.7816164E-02  0.1300439E+00
        -11   -1    0    0    0    0  0.00000000000E+00  0.00000000000E+00  0.45593999997E+02  0.45594000000E+02  0.51100000000E-03 0. -1.
         11   -1    0    0    0    0 -0.00000000000E+00 -0.00000000000E+00 -0.45593999997E+02  0.45594000000E+02  0.51100000000E-03 0.  1.
    9900012    2    1    2    0    0 -0.20729322171E+02  0.30919741867E+02 -0.16353300314E+02  0.50528859995E+02  0.30000000441E+02 0.  0.
         12    1    1    2    0    0  0.20729322171E+02 -0.30919741867E+02  0.16353300314E+02  0.40659140005E+02  0.00000000000E+00 0. -1.
         11    1    3    3    0    0 -0.40681163948E+01  0.96021841040E+01  0.51605789460E+01  0.11635423752E+02  0.51100000000E-03 0. -1.
        -11    1    3    3    0    0 -0.68680384725E+01  0.80899620865E+01  0.13758683505E+01  0.10700955705E+02  0.51100000000E-03 0.  1.
        -12    1    3    3    0    0 -0.97931673033E+01  0.13227595676E+02 -0.22889747611E+02  0.28192480538E+02  0.00000000000E+00 0.  1.
</event>
<event>
 7    1  0.6462830E-013  0.5052886E+02  0.7816164E-02  0.1300439E+00
        -11   -1    0    0    0    0  0.00000000000E+00  0.00000000000E+00  0.45593999997E+02  0.45594000000E+02  0.51100000000E-03 0.  1.
         11   -1    0    0    0    0 -0.00000000000E+00 -0.00000000000E+00 -0.45593999997E+02  0.45594000000E+02  0.51100000000E-03 0. -1.
    9900012    2    1    2    0    0  0.30368215853E+02  0.11863547019E+02  0.24293892294E+02  0.50528862223E+02  0.30000007213E+02 0.  0.
         12    1    1    2    0    0 -0.30368215853E+02 -0.11863547019E+02 -0.24293892294E+02  0.40659137777E+02  0.00000000000E+00 0. -1.
         11    1    3    3    0    0  0.23570638909E+01 -0.19716517341E+01 -0.30296817566E+01  0.43153368992E+01  0.51100000000E-03 0. -1.
        -11    1    3    3    0    0 -0.26738991547E+01  0.11412170669E+01  0.62256938864E+01  0.68710536100E+01  0.51100000000E-03 0.  1.
        -12    1    3    3    0    0  0.30685051117E+02  0.12693981686E+02  0.21097880164E+02  0.39342471714E+02  0.00000000000E+00 0.  1.
</event>
<event>
 7    1  0.6462830E-013  0.5052887E+02  0.7816164E-02  0.1300439E+00
        -11   -1    0    0    0    0  0.00000000000E+00  0.00000000000E+00  0.45593999997E+02  0.45594000000E+02  0.51100000000E-03 0.  1.
         11   -1    0    0    0    0 -0.00000000000E+00 -0.00000000000E+00 -0.45593999997E+02  0.45594000000E+02  0.51100000000E-03 0. -1.
    9900012    2    1    2    0    0  0.75624687268E+01  0.30028984326E+02  0.26348319189E+02  0.50528871173E+02  0.30000034419E+02 0.  0.
         12    1    1    2    0    0 -0.75624687268E+01 -0.30028984326E+02 -0.26348319189E+02  0.40659128827E+02  0.00000000000E+00 0. -1.
         11    1    3    3    0    0  0.74896170997E+01  0.31150413278E+01 -0.13043377368E+01  0.82157862659E+01  0.51100000000E-03 0. -1.
        -11    1    3    3    0    0 -0.27902124992E+01  0.12936608704E+02  0.26066626410E+01  0.13488358719E+02  0.51100000000E-03 0.  1.
        -12    1    3    3    0    0  0.28630641263E+01  0.13977334294E+02  0.25045994284E+02  0.28824726189E+02  0.00000000000E+00 0.  1.
</event>
<event>
 7    1  0.6462830E-013  0.5052887E+02  0.7816164E-02  0.1300439E+00
        -11   -1    0    0    0    0  0.00000000000E+00  0.00000000000E+00  0.45593999997E+02  0.45594000000E+02  0.51100000000E-03 0.  1.
         11   -1    0    0    0    0 -0.00000000000E+00 -0.00000000000E+00 -0.45593999997E+02  0.45594000000E+02  0.51100000000E-03 0. -1.
    9900012    2    1    2    0    0  0.29994374132E+02  0.37115590077E+01  0.27197924037E+02  0.50528865457E+02  0.30000017043E+02 0.  0.
         12    1    1    2    0    0 -0.29994374132E+02 -0.37115590077E+01 -0.27197924037E+02  0.40659134543E+02  0.00000000000E+00 0. -1.
         11    1    3    3    0    0  0.15702921190E+02  0.12287995237E+02  0.70908295009E+01  0.21162618555E+02  0.51100000000E-03 0.  1.
        -11    1    3    3    0    0  0.32606508415E-01 -0.33870608483E+01 -0.85036818347E+00  0.34923302655E+01  0.51100000000E-03 0. -1.
         12    1    3    3    0    0  0.14258846433E+02 -0.51893753806E+01  0.20957462720E+02  0.25873916636E+02  0.00000000000E+00 0. -1.
</event>
<event>
 7    1  0.6462830E-013  0.5052887E+02  0.7816164E-02  0.1300439E+00
        -11   -1    0    0    0    0  0.00000000000E+00  0.00000000000E+00  0.45593999997E+02  0.45594000000E+02  0.51100000000E-03 0.  1.
         11   -1    0    0    0    0 -0.00000000000E+00 -0.00000000000E+00 -0.45593999997E+02  0.45594000000E+02  0.51100000000E-03 0. -1.
    9900012    2    1    2    0    0  0.22749589827E+02  0.29865653111E+01  0.33566378822E+02  0.50528865764E+02  0.30000017976E+02 0.  0.
         12    1    1    2    0    0 -0.22749589827E+02 -0.29865653111E+01 -0.33566378822E+02  0.40659134236E+02  0.00000000000E+00 0. -1.
         11    1    3    3    0    0 -0.45409790227E+01  0.26950496627E+00  0.26901908749E+01  0.52849078153E+01  0.51100000000E-03 0. -1.
        -11    1    3    3    0    0  0.15671583897E+02  0.94042507071E+01  0.11201838296E+02  0.21436409556E+02  0.51100000000E-03 0.  1.
        -12    1    3    3    0    0  0.11618984953E+02 -0.66871903623E+01  0.19674349651E+02  0.23807548392E+02  0.00000000000E+00 0.  1.
</event>
<event>
 7    1  0.6462830E-013  0.5052885E+02  0.7816164E-02  0.1300439E+00
        -11   -1    0    0    0    0  0.00000000000E+00  0.00000000000E+00  0.45593999997E+02  0.45594000000E+02  0.51100000000E-03 0.  1.
         11   -1    0    0    0    0 -0.00000000000E+00 -0.00000000000E+00 -0.45593999997E+02  0.45594000000E+02  0.51100000000E-03 0. -1.
    9900012    2    1    2    0    0  0.18176118180E+02  0.90026961060E+01  0.35238421450E+02  0.50528853975E+02  0.29999982141E+02 0.  0.
         12    1    1    2    0    0 -0.18176118180E+02 -0.90026961060E+01 -0.35238421450E+02  0.40659146025E+02  0.00000000000E+00 0. -1.
         11    1    3    3    0    0 -0.88909146174E+00  0.58892211245E+01  0.93864655675E+01  0.11116615726E+02  0.51100000000E-03 0. -1.
        -11    1    3    3    0    0  0.17785037135E+02  0.11535991143E+02  0.17616246664E+02  0.27562996650E+02  0.51100000000E-03 0.  1.
        -12    1    3    3    0    0  0.12801725061E+01 -0.84225161617E+01  0.82357092181E+01  0.11849241599E+02  0.00000000000E+00 0.  1.
</event>
<event>
 7    1  0.6462830E-013  0.5052885E+02  0.7816164E-02  0.1300439E+00
        -11   -1    0    0    0    0  0.00000000000E+00  0.00000000000E+00  0.45593999997E+02  0.45594000000E+02  0.51100000000E-03 0.  1.
         11   -1    0    0    0    0 -0.00000000000E+00 -0.00000000000E+00 -0.45593999997E+02  0.45594000000E+02  0.51100000000E-03 0. -1.
    9900012    2    1    2    0    0 -0.23051180150E+02  0.28926501408E+02  0.16883920071E+02  0.50528854079E+02  0.29999982459E+02 0.  0.
         12    1    1    2    0    0  0.23051180150E+02 -0.28926501408E+02 -0.16883920071E+02  0.40659145921E+02  0.00000000000E+00 0. -1.
         11    1    3    3    0    0 -0.12043809639E+00  0.27502259182E+01 -0.28920057171E+01  0.39927365634E+01  0.51100000000E-03 0. -1.
        -11    1    3    3    0    0 -0.55531913366E+01  0.23962386912E+02  0.12040084882E+02  0.27386083414E+02  0.51100000000E-03 0.  1.
        -12    1    3    3    0    0 -0.17377550717E+02  0.22138885778E+01  0.77358409067E+01  0.19150034102E+02  0.00000000000E+00 0.  1.
</event>
<event>
 7    1  0.6462830E-013  0.5052886E+02  0.7816164E-02  0.1300439E+00
        -11   -1    0    0    0    0  0.00000000000E+00  0.00000000000E+00  0.45593999997E+02  0.45594000000E+02  0.51100000000E-03 0.  1.
         11   -1    0    0    0    0 -0.00000000000E+00 -0.00000000000E+00 -0.45593999997E+02  0.45594000000E+02  0.51100000000E-03 0. -1.
    9900012    2    1    2    0    0  0.12924647953E+02  0.36663101359E+02 -0.11913691327E+02  0.50528861212E+02  0.30000004140E+02 0.  0.
         12    1    1    2    0    0 -0.12924647953E+02 -0.36663101359E+02  0.11913691327E+02  0.40659138788E+02  0.00000000000E+00 0. -1.
         11    1    3    3    0    0  0.26690615822E+00  0.51689829822E+01 -0.59745748299E+01  0.79047560763E+01  0.51100000000E-03 0. -1.
        -11    1    3    3    0    0  0.45757628143E+01 -0.37863737548E+01  0.39212959063E-01  0.59393408272E+01  0.51100000000E-03 0.  1.
        -12    1    3    3    0    0  0.80819789800E+01  0.35280492131E+02 -0.59783294566E+01  0.36684764308E+02  0.00000000000E+00 0.  1.
</event>
<event>
 7    1  0.6462830E-013  0.5052886E+02  0.7816164E-02  0.1300439E+00
        -11   -1    0    0    0    0  0.00000000000E+00  0.00000000000E+00  0.45593999997E+02  0.45594000000E+02  0.51100000000E-03 0.  1.
         11   -1    0    0    0    0 -0.00000000000E+00 -0.00000000000E+00 -0.45593999997E+02  0.45594000000E+02  0.51100000000E-03 0. -1.
    9900012    2    1    2    0    0 -0.18288134476E+02  0.32054640386E+02  0.17064872553E+02  0.50528859476E+02  0.29999998864E+02 0.  0.
         12    1    1    2    0    0  0.18288134476E+02 -0.32054640386E+02 -0.17064872553E+02  0.40659140524E+02  0.00000000000E+00 0. -1.
         11    1    3    3    0    0  0.47465713399E+01  0.14746971577E+01  0.24484403547E+00  0.49764063393E+01  0.51100000000E-03 0. -1.
        -11    1    3    3    0    0  0.27341765370E+01  0.53122071654E+01  0.66447129816E+00  0.60113882482E+01  0.51100000000E-03 0.  1.
         12    1    3    3    0    0 -0.25768882353E+02  0.25267736063E+02  0.16155557220E+02  0.39541064889E+02  0.00000000000E+00 0. -1.
</event>
<event>
 7    1  0.6462830E-013  0.5052887E+02  0.7816164E-02  0.1300439E+00
        -11   -1    0    0    0    0  0.00000000000E+00  0.00000000000E+00  0.45593999997E+02  0.45594000000E+02  0.51100000000E-03 0.  1.
         11   -1    0    0    0    0 -0.00000000000E+00 -0.00000000000E+00 -0.45593999997E+02  0.45594000000E+02  0.51100000000E-03 0. -1.
    9900012    2    1    2    0    0  0.18794399030E+02  0.35505130799E+02  0.62706387084E+01  0.50528872393E+02  0.30000038126E+02 0.  0.
         12    1    1    2    0    0 -0.18794399030E+02 -0.35505130799E+02 -0.62706387084E+01  0.40659127607E+02  0.00000000000E+00 0. -1.
         11    1    3    3    0    0 -0.17820217728E+00 -0.19233039110E+01 -0.18271610900E+01  0.26588290393E+01  0.51100000000E-03 0. -1.
        -11    1    3    3    0    0  0.18890057306E+02  0.24367093302E+02 -0.26633550290E+01  0.30946453129E+02  0.51100000000E-03 0.  1.
         12    1    3    3    0    0  0.82543902005E-01  0.13061341408E+02  0.10761154827E+02  0.16923590225E+02  0.00000000000E+00 0. -1.
</event>
<event>
 7    1  0.6462830E-013  0.5052887E+02  0.7816164E-02  0.1300439E+00
        -11   -1    0    0    0    0  0.00000000000E+00  0.00000000000E+00  0.45593999997E+02  0.45594000000E+02  0.51100000000E-03 0.  1.
         11   -1    0    0    0    0 -0.00000000000E+00 -0.00000000000E+00 -0.45593999997E+02  0.45594000000E+02  0.51100000000E-03 0. -1.
    9900012    2    1    2    0    0 -0.37808653661E+02 -0.13082926158E+02  0.72462374725E+01  0.50528865651E+02  0.30000017633E+02 0.  0.
         12    1    1    2    0    0  0.37808653661E+02  0.13082926158E+02 -0.72462374725E+01  0.40659134349E+02  0.00000000000E+00 0. -1.
         11    1    3    3    0    0 -0.96491733796E+00  0.39864798183E+01 -0.11258168495E+01  0.42532987963E+01  0.51100000000E-03 0. -1.
        -11    1    3    3    0    0 -0.22256730708E+02 -0.59651617799E+01  0.14166811041E+02  0.27048914067E+02  0.51100000000E-03 0.  1.
        -12    1    3    3    0    0 -0.14587005615E+02 -0.11104244196E+02 -0.57947567194E+01  0.19226652787E+02  0.00000000000E+00 0.  1.
</event>
<event>
 7    1  0.6462830E-013  0.5052880E+02  0.7816164E-02  0.1300439E+00
        -11   -1    0    0    0    0  0.00000000000E+00  0.00000000000E+00  0.45593999997E+02  0.45594000000E+02  0.51100000000E-03 0.  1.
         11   -1    0    0    0    0 -0.00000000000E+00 -0.00000000000E+00 -0.45593999997E+02  0.45594000000E+02  0.51100000000E-03 0. -1.
    9900012    2    1    2    0    0  0.17082313506E+02  0.31982779556E+02 -0.18397466306E+02  0.50528801910E+02  0.29999823886E+02 0.  0.
         12    1    1    2    0    0 -0.17082313506E+02 -0.31982779556E+02  0.18397466306E+02  0.40659198090E+02  0.00000000000E+00 0. -1.
         11    1    3    3    0    0  0.16864225897E+01  0.57763326292E+01  0.69716322371E+01  0.92094351675E+01  0.51100000000E-03 0. -1.
        -11    1    3    3    0    0  0.88811817888E+01  0.78730040448E+01 -0.42561312274E+01  0.12608498560E+02  0.51100000000E-03 0.  1.
         12    1    3    3    0    0  0.65147091276E+01  0.18333442882E+02 -0.21112967316E+02  0.28710868182E+02  0.00000000000E+00 0. -1.
</event>
<event>
 7    1  0.6462830E-013  0.5052877E+02  0.7816164E-02  0.1300439E+00
        -11   -1    0    0    0    0  0.00000000000E+00  0.00000000000E+00  0.45593999997E+02  0.45594000000E+02  0.51100000000E-03 0.  1.
         11   -1    0    0    0    0 -0.00000000000E+00 -0.00000000000E+00 -0.45593999997E+02  0.45594000000E+02  0.51100000000E-03 0. -1.
    9900012    2    1    2    0    0 -0.11359422027E-01 -0.97558939430E+01  0.39471445526E+02  0.50528774631E+02  0.29999740968E+02 0.  0.
         12    1    1    2    0    0  0.11359422027E-01  0.97558939430E+01 -0.39471445526E+02  0.40659225369E+02  0.00000000000E+00 0. -1.
         11    1    3    3    0    0 -0.82774086858E+01 -0.87363270442E+01  0.16019605336E+02  0.20036632955E+02  0.51100000000E-03 0. -1.
        -11    1    3    3    0    0  0.41355354519E+01 -0.92853781121E+01  0.13683028313E+02  0.17045414757E+02  0.51100000000E-03 0.  1.
         12    1    3    3    0    0  0.41305138118E+01  0.82658112134E+01  0.97688118765E+01  0.13446726919E+02  0.00000000000E+00 0. -1.
</event>
<event>
 7    1  0.6462830E-013  0.5052886E+02  0.7816164E-02  0.1300439E+00
        -11   -1    0    0    0    0  0.00000000000E+00  0.00000000000E+00  0.45593999997E+02  0.45594000000E+02  0.51100000000E-03 0.  1.
         11   -1    0    0    0    0 -0.00000000000E+00 -0.00000000000E+00 -0.45593999997E+02  0.45594000000E+02  0.51100000000E-03 0. -1.
    9900012    2    1    2    0    0  0.28345495861E+02  0.25896157970E+02  0.13382357363E+02  0.50528860537E+02  0.30000002090E+02 0.  0.
         12    1    1    2    0    0 -0.28345495861E+02 -0.25896157970E+02 -0.13382357363E+02  0.40659139463E+02  0.00000000000E+00 0. -1.
         11    1    3    3    0    0  0.41557941593E+01  0.21741813006E+01  0.12386503993E+02  0.13244741253E+02  0.51100000000E-03 0. -1.
        -11    1    3    3    0    0  0.11002246970E+02  0.10437228469E+02  0.81839958074E+01  0.17232613387E+02  0.51100000000E-03 0.  1.
        -12    1    3    3    0    0  0.13187454732E+02  0.13284748200E+02 -0.71881424377E+01  0.20051505898E+02  0.00000000000E+00 0.  1.
</event>
<event>
 7    1  0.6562322E-013  0.5052886E+02  0.7816164E-02  0.1300439E+00
        -11   -1    0    0    0    0  0.00000000000E+00  0.00000000000E+00  0.45593999997E+02  0.45594000000E+02  0.51100000000E-03 0.  1.
         11   -1    0    0    0    0 -0.00000000000E+00 -0.00000000000E+00 -0.45593999997E+02  0.45594000000E+02  0.51100000000E-03 0. -1.
    9900012    2    1    2    0    0 -0.36668544967E+02  0.69288354441E+01  0.16142316863E+02  0.50528863950E+02  0.30000012464E+02 0.  0.
         12    1    1    2    0    0  0.36668544967E+02 -0.69288354441E+01 -0.16142316863E+02  0.40659136050E+02  0.00000000000E+00 0. -1.
         11    1    3    3    0    0 -0.45968692826E+01  0.55602502462E+01  0.52795001248E+01  0.89398384678E+01  0.51100000000E-03 0. -1.
        -11    1    3    3    0    0 -0.28555321471E+02  0.96652088392E+01  0.43232857891E+01  0.30455105426E+02  0.51100000000E-03 0.  1.
         12    1    3    3    0    0 -0.35163542131E+01 -0.82966236412E+01  0.65395309490E+01  0.11133920057E+02  0.00000000000E+00 0. -1.
</event>
<event>
 7    1  0.6462830E-013  0.5052888E+02  0.7816164E-02  0.1300439E+00
        -11   -1    0    0    0    0  0.00000000000E+00  0.00000000000E+00  0.45593999997E+02  0.45594000000E+02  0.51100000000E-03 0.  1.
         11   -1    0    0    0    0 -0.00000000000E+00 -0.00000000000E+00 -0.45593999997E+02  0.45594000000E+02  0.51100000000E-03 0. -1.
    9900012    2    1    2    0    0 -0.25182152599E+02 -0.31857159491E+02 -0.20359203989E+01  0.50528875659E+02  0.30000048053E+02 0.  0.
         12    1    1    2    0    0  0.25182152599E+02  0.31857159491E+02  0.20359203989E+01  0.40659124341E+02  0.00000000000E+00 0. -1.
         11    1    3    3    0    0 -0.66069455229E+01 -0.18129954258E+01 -0.54816323903E+01  0.87742222151E+01  0.51100000000E-03 0. -1.
        -11    1    3    3    0    0 -0.11262591229E+02 -0.30963869727E+01  0.69837511462E+01  0.13609054111E+02  0.51100000000E-03 0.  1.
         12    1    3    3    0    0 -0.73126158472E+01 -0.26947777092E+02 -0.35380391547E+01  0.28145599333E+02  0.00000000000E+00 0. -1.
</event>
<event>
 7    1  0.6462830E-013  0.5052885E+02  0.7816164E-02  0.1300439E+00
        -11   -1    0    0    0    0  0.00000000000E+00  0.00000000000E+00  0.45593999997E+02  0.45594000000E+02  0.51100000000E-03 0. -1.
         11   -1    0    0    0    0 -0.00000000000E+00 -0.00000000000E+00 -0.45593999997E+02  0.45594000000E+02  0.51100000000E-03 0.  1.
    9900012    2    1    2    0    0 -0.22015943153E+02 -0.50252433191E-01 -0.34182772717E+02  0.50528853073E+02  0.29999979400E+02 0.  0.
         12    1    1    2    0    0  0.22015943153E+02  0.50252433191E-01  0.34182772717E+02  0.40659146927E+02  0.00000000000E+00 0. -1.
         11    1    3    3    0    0 -0.12781033117E+02  0.13449177804E+01 -0.26085141610E+01  0.13113655393E+02  0.51100000000E-03 0. -1.
        -11    1    3    3    0    0 -0.71828495468E+01  0.68862597630E+01 -0.95324466952E+01  0.13779747508E+02  0.51100000000E-03 0.  1.
        -12    1    3    3    0    0 -0.20520604895E+01 -0.82814299765E+01 -0.22041811861E+02  0.23635450172E+02  0.00000000000E+00 0.  1.
</event>
<event>
 7    1  0.6462830E-013  0.5052886E+02  0.7816164E-02  0.1300439E+00
        -11   -1    0    0    0    0  0.00000000000E+00  0.00000000000E+00  0.45593999997E+02  0.45594000000E+02  0.51100000000E-03 0.  1.
         11   -1    0    0    0    0 -0.00000000000E+00 -0.00000000000E+00 -0.45593999997E+02  0.45594000000E+02  0.51100000000E-03 0. -1.
    9900012    2    1    2    0    0 -0.27951456929E+02 -0.68634318896E+01  0.28718903551E+02  0.50528855113E+02  0.29999985603E+02 0.  0.
         12    1    1    2    0    0  0.27951456929E+02  0.68634318896E+01 -0.28718903551E+02  0.40659144887E+02  0.00000000000E+00 0. -1.
         11    1    3    3    0    0  0.96473167828E+00  0.28344034999E+01 -0.16657908289E+01  0.34262822065E+01  0.51100000000E-03 0. -1.
        -11    1    3    3    0    0 -0.22603611168E+02  0.18372754037E+01  0.17027892587E+02  0.28359265593E+02  0.51100000000E-03 0.  1.
        -12    1    3    3    0    0 -0.63125774386E+01 -0.11535110793E+02  0.13356801793E+02  0.18743307314E+02  0.00000000000E+00 0.  1.
</event>
<event>
 7    1  0.6462830E-013  0.5052886E+02  0.7816164E-02  0.1300439E+00
        -11   -1    0    0    0    0  0.00000000000E+00  0.00000000000E+00  0.45593999997E+02  0.45594000000E+02  0.51100000000E-03 0.  1.
         11   -1    0    0    0    0 -0.00000000000E+00 -0.00000000000E+00 -0.45593999997E+02  0.45594000000E+02  0.51100000000E-03 0. -1.
    9900012    2    1    2    0    0 -0.10033121208E+02 -0.82636848126E+01  0.38525490810E+02  0.50528862651E+02  0.30000008513E+02 0.  0.
         12    1    1    2    0    0  0.10033121208E+02  0.82636848126E+01 -0.38525490810E+02  0.40659137349E+02  0.00000000000E+00 0. -1.
         11    1    3    3    0    0 -0.11175345471E+02  0.64310103638E+00  0.22492795984E+02  0.25124247188E+02  0.51100000000E-03 0. -1.
        -11    1    3    3    0    0  0.24339363127E+01 -0.24154608898E+01  0.18137964060E+02  0.18459258863E+02  0.51100000000E-03 0.  1.
        -12    1    3    3    0    0 -0.12917120492E+01 -0.64913249592E+01 -0.21052692338E+01  0.69453565992E+01  0.00000000000E+00 0.  1.
</event>
<event>
 7    1  0.6462830E-013  0.5052889E+02  0.7816164E-02  0.1300439E+00
        -11   -1    0    0    0    0  0.00000000000E+00  0.00000000000E+00  0.45593999997E+02  0.45594000000E+02  0.51100000000E-03 0.  1.
         11   -1    0    0    0    0 -0.00000000000E+00 -0.00000000000E+00 -0.45593999997E+02  0.45594000000E+02  0.51100000000E-03 0. -1.
    9900012    2    1    2    0    0 -0.40259873218E+02 -0.38697202005E+01  0.41630979889E+01  0.50528886497E+02  0.30000080997E+02 0.  0.
         12    1    1    2    0    0  0.40259873218E+02  0.38697202005E+01 -0.41630979889E+01  0.40659113503E+02  0.00000000000E+00 0. -1.
         11    1    3    3    0    0 -0.16045311230E+02  0.21277202484E+01 -0.92514385233E+01  0.18643184302E+02  0.51100000000E-03 0. -1.
        -11    1    3    3    0    0  0.18732831533E+01 -0.38212534300E+00 -0.21019491598E+00  0.19233802832E+01  0.51100000000E-03 0.  1.
        -12    1    3    3    0    0 -0.26087845142E+02 -0.56153151059E+01  0.13624731428E+02  0.29962321912E+02  0.00000000000E+00 0.  1.
</event>
<event>
 7    1  0.6462830E-013  0.5052883E+02  0.7816164E-02  0.1300439E+00
        -11   -1    0    0    0    0  0.00000000000E+00  0.00000000000E+00  0.45593999997E+02  0.45594000000E+02  0.51100000000E-03 0. -1.
         11   -1    0    0    0    0 -0.00000000000E+00 -0.00000000000E+00 -0.45593999997E+02  0.45594000000E+02  0.51100000000E-03 0.  1.
    9900012    2    1    2    0    0  0.28904600777E+02 -0.11011410025E+02 -0.26390171340E+02  0.50528828338E+02  0.29999904217E+02 0.  0.
         12    1    1    2    0    0 -0.28904600777E+02  0.11011410025E+02  0.26390171340E+02  0.40659171662E+02  0.00000000000E+00 0. -1.
         11    1    3    3    0    0  0.22640015425E+01  0.55633084908E+00  0.24021147090E+01  0.33474411622E+01  0.51100000000E-03 0. -1.
        -11    1    3    3    0    0  0.15385328502E+01  0.23291422208E+01 -0.15161039019E+02  0.15415871406E+02  0.51100000000E-03 0.  1.
        -12    1    3    3    0    0  0.25102066384E+02 -0.13896883095E+02 -0.13631247030E+02  0.31765515770E+02  0.00000000000E+00 0.  1.
</event>
<event>
 7    1  0.6462830E-013  0.5052888E+02  0.7816164E-02  0.1300439E+00
        -11   -1    0    0    0    0  0.00000000000E+00  0.00000000000E+00  0.45593999997E+02  0.45594000000E+02  0.51100000000E-03 0. -1.
         11   -1    0    0    0    0 -0.00000000000E+00 -0.00000000000E+00 -0.45593999997E+02  0.45594000000E+02  0.51100000000E-03 0.  1.
    9900012    2    1    2    0    0 -0.29606850871E+02 -0.27856989323E+02 -0.76572165844E+00  0.50528882913E+02  0.30000070103E+02 0.  0.
         12    1    1    2    0    0  0.29606850871E+02  0.27856989323E+02  0.76572165844E+00  0.40659117087E+02  0.00000000000E+00 0. -1.
         11    1    3    3    0    0 -0.25161690149E+02 -0.90623425832E+01 -0.63249800270E+01  0.27481668015E+02  0.51100000000E-03 0. -1.
        -11    1    3    3    0    0 -0.53861708289E+01 -0.60953388911E+01  0.63045138401E+01  0.10291301541E+02  0.51100000000E-03 0.  1.
        -12    1    3    3    0    0  0.94101010755E+00 -0.12699307849E+02 -0.74525547155E+00  0.12755913357E+02  0.00000000000E+00 0.  1.
</event>
<event>
 7    1  0.6462830E-013  0.5052886E+02  0.7816164E-02  0.1300439E+00
        -11   -1    0    0    0    0  0.00000000000E+00  0.00000000000E+00  0.45593999997E+02  0.45594000000E+02  0.51100000000E-03 0. -1.
         11   -1    0    0    0    0 -0.00000000000E+00 -0.00000000000E+00 -0.45593999997E+02  0.45594000000E+02  0.51100000000E-03 0.  1.
    9900012    2    1    2    0    0 -0.13742731428E+02  0.37976943174E+02  0.46962597298E+01  0.50528859141E+02  0.29999997846E+02 0.  0.
         12    1    1    2    0    0  0.13742731428E+02 -0.37976943174E+02 -0.46962597298E+01  0.40659140859E+02  0.00000000000E+00 0. -1.
         11    1    3    3    0    0 -0.54199295070E+01  0.38980394557E+02  0.26805132903E+01  0.39446570795E+02  0.51100000000E-03 0.  1.
        -11    1    3    3    0    0 -0.29717179764E+01 -0.24218248514E+01 -0.19223655380E+01  0.42885700257E+01  0.51100000000E-03 0. -1.
        -12    1    3    3    0    0 -0.53510839445E+01  0.14183734677E+01  0.39381119774E+01  0.67937183207E+01  0.00000000000E+00 0.  1.
</event>
<event>
 7    1  0.6462830E-013  0.5052886E+02  0.7816164E-02  0.1300439E+00
        -11   -1    0    0    0    0  0.00000000000E+00  0.00000000000E+00  0.45593999997E+02  0.45594000000E+02  0.51100000000E-03 0.  1.
         11   -1    0    0    0    0 -0.00000000000E+00 -0.00000000000E+00 -0.45593999997E+02  0.45594000000E+02  0.51100000000E-03 0. -1.
    9900012    2    1    2    0    0 -0.10322961177E+02  0.46212088140E+01  0.39054404525E+02  0.50528860668E+02  0.30000002487E+02 0.  0.
         12    1    1    2    0    0  0.10322961177E+02 -0.46212088140E+01 -0.39054404525E+02  0.40659139332E+02  0.00000000000E+00 0. -1.
         11    1    3    3    0    0 -0.33873730162E+01  0.10920227634E+02  0.10613337136E+02  0.15600275413E+02  0.51100000000E-03 0. -1.
        -11    1    3    3    0    0  0.48456053358E+01 -0.34213642264E+01  0.27900622639E+01  0.65551561337E+01  0.51100000000E-03 0.  1.
        -12    1    3    3    0    0 -0.11781193497E+02 -0.28776545936E+01  0.25651005125E+02  0.28373429121E+02  0.00000000000E+00 0.  1.
</event>
<event>
 7    1  0.6462830E-013  0.5052886E+02  0.7816164E-02  0.1300439E+00
        -11   -1    0    0    0    0  0.00000000000E+00  0.00000000000E+00  0.45593999997E+02  0.45594000000E+02  0.51100000000E-03 0.  1.
         11   -1    0    0    0    0 -0.00000000000E+00 -0.00000000000E+00 -0.45593999997E+02  0.45594000000E+02  0.51100000000E-03 0. -1.
    9900012    2    1    2    0    0 -0.34117801334E+02  0.15881971733E+02  0.15391696686E+02  0.50528859320E+02  0.29999998388E+02 0.  0.
         12    1    1    2    0    0  0.34117801334E+02 -0.15881971733E+02 -0.15391696686E+02  0.40659140680E+02  0.00000000000E+00 0. -1.
         11    1    3    3    0    0 -0.20440614533E+01 -0.57655726567E+01  0.49525478068E+01  0.78706889993E+01  0.51100000000E-03 0.  1.
        -11    1    3    3    0    0 -0.10674975118E+01  0.67799719761E+01  0.58927848745E+00  0.68887459187E+01  0.51100000000E-03 0. -1.
        -12    1    3    3    0    0 -0.31006242368E+02  0.14867572414E+02  0.98498703923E+01  0.35769424402E+02  0.00000000000E+00 0.  1.
</event>
<event>
 7    1  0.6462830E-013  0.5052885E+02  0.7816164E-02  0.1300439E+00
        -11   -1    0    0    0    0  0.00000000000E+00  0.00000000000E+00  0.45593999997E+02  0.45594000000E+02  0.51100000000E-03 0. -1.
         11   -1    0    0    0    0 -0.00000000000E+00 -0.00000000000E+00 -0.45593999997E+02  0.45594000000E+02  0.51100000000E-03 0.  1.
    9900012    2    1    2    0    0 -0.18567455830E+02  0.34987249732E+02 -0.91819547331E+01  0.50528851552E+02  0.29999974777E+02 0.  0.
         12    1    1    2    0    0  0.18567455830E+02 -0.34987249732E+02  0.91819547331E+01  0.40659148448E+02  0.00000000000E+00 0. -1.
         11    1    3    3    0    0  0.56309637039E+01  0.45051107387E+01 -0.10377259149E+01  0.72856468716E+01  0.51100000000E-03 0. -1.
        -11    1    3    3    0    0 -0.62725221025E+01  0.25265354969E+01 -0.74017619134E+01  0.10025666802E+02  0.51100000000E-03 0.  1.
        -12    1    3    3    0    0 -0.17925897431E+02  0.27955603497E+02 -0.74246690481E+00  0.33217537878E+02  0.00000000000E+00 0.  1.
</event>
<event>
 7    1  0.6462830E-013  0.5052886E+02  0.7816164E-02  0.1300439E+00
        -11   -1    0    0    0    0  0.00000000000E+00  0.00000000000E+00  0.45593999997E+02  0.45594000000E+02  0.51100000000E-03 0. -1.
         11   -1    0    0    0    0 -0.00000000000E+00 -0.00000000000E+00 -0.45593999997E+02  0.45594000000E+02  0.51100000000E-03 0.  1.
    9900012    2    1    2    0    0  0.20439739418E+00 -0.18769772659E+02 -0.36066875050E+02  0.50528860562E+02  0.30000002165E+02 0.  0.
         12    1    1    2    0    0 -0.20439739418E+00  0.18769772659E+02  0.36066875050E+02  0.40659139438E+02  0.00000000000E+00 0. -1.
         11    1    3    3    0    0  0.62281968825E+01 -0.11172644285E+02 -0.34745208463E+01  0.13254837309E+02  0.51100000000E-03 0. -1.
        -11    1    3    3    0    0  0.36671211305E+01 -0.17425062573E+01 -0.19707933115E+02  0.20121797469E+02  0.51100000000E-03 0.  1.
         12    1    3    3    0    0 -0.96909206188E+01 -0.58546221171E+01 -0.12884421088E+02  0.17152225784E+02  0.00000000000E+00 0. -1.
</event>
<event>
 7    1  0.6462830E-013  0.5052885E+02  0.7816164E-02  0.1300439E+00
        -11   -1    0    0    0    0  0.00000000000E+00  0.00000000000E+00  0.45593999997E+02  0.45594000000E+02  0.51100000000E-03 0.  1.
         11   -1    0    0    0    0 -0.00000000000E+00 -0.00000000000E+00 -0.45593999997E+02  0.45594000000E+02  0.51100000000E-03 0. -1.
    9900012    2    1    2    0    0 -0.27860239997E+02 -0.25593827709E+02  0.14897303998E+02  0.50528847821E+02  0.29999963436E+02 0.  0.
         12    1    1    2    0    0  0.27860239997E+02  0.25593827709E+02 -0.14897303998E+02  0.40659152179E+02  0.00000000000E+00 0. -1.
         11    1    3    3    0    0 -0.69274171752E+01 -0.73917283751E+00 -0.43163742521E+01  0.81955214689E+01  0.51100000000E-03 0. -1.
        -11    1    3    3    0    0 -0.16229735013E+02 -0.62097873792E+01  0.14253337690E+02  0.22474950355E+02  0.51100000000E-03 0.  1.
        -12    1    3    3    0    0 -0.47030878096E+01 -0.18644867493E+02  0.49603405599E+01  0.19858375997E+02  0.00000000000E+00 0.  1.
</event>
<event>
 7    1  0.6462830E-013  0.5052886E+02  0.7816164E-02  0.1300439E+00
        -11   -1    0    0    0    0  0.00000000000E+00  0.00000000000E+00  0.45593999997E+02  0.45594000000E+02  0.51100000000E-03 0.  1.
         11   -1    0    0    0    0 -0.00000000000E+00 -0.00000000000E+00 -0.45593999997E+02  0.45594000000E+02  0.51100000000E-03 0. -1.
    9900012    2    1    2    0    0 -0.65942312797E+01  0.38103292331E+02 -0.12562671967E+02  0.50528862041E+02  0.30000006660E+02 0.  0.
         12    1    1    2    0    0  0.65942312797E+01 -0.38103292331E+02  0.12562671967E+02  0.40659137959E+02  0.00000000000E+00 0. -1.
         11    1    3    3    0    0  0.25546516492E+01  0.24660628154E+02 -0.86374302369E+01  0.26254104962E+02  0.51100000000E-03 0. -1.
        -11    1    3    3    0    0  0.30793793256E+01  0.72664495078E+01  0.35666313037E+01  0.86605268083E+01  0.51100000000E-03 0.  1.
        -12    1    3    3    0    0 -0.12228262255E+02  0.61762146697E+01 -0.74918730333E+01  0.15614230271E+02  0.00000000000E+00 0.  1.
</event>
<event>
 7    1  0.6462830E-013  0.5052886E+02  0.7816164E-02  0.1300439E+00
        -11   -1    0    0    0    0  0.00000000000E+00  0.00000000000E+00  0.45593999997E+02  0.45594000000E+02  0.51100000000E-03 0. -1.
         11   -1    0    0    0    0 -0.00000000000E+00 -0.00000000000E+00 -0.45593999997E+02  0.45594000000E+02  0.51100000000E-03 0.  1.
    9900012    2    1    2    0    0  0.19498113509E+02  0.24353890803E+02 -0.26074459497E+02  0.50528857539E+02  0.29999992974E+02 0.  0.
         12    1    1    2    0    0 -0.19498113509E+02 -0.24353890803E+02  0.26074459497E+02  0.40659142461E+02  0.00000000000E+00 0. -1.
         11    1    3    3    0    0 -0.46203750574E-01 -0.27518536078E+01 -0.55878137218E+00  0.28083927696E+01  0.51100000000E-03 0. -1.
        -11    1    3    3    0    0  0.11053684103E+01  0.68443763251E+00 -0.13143127945E+02  0.13207274762E+02  0.51100000000E-03 0.  1.
         12    1    3    3    0    0  0.18438948849E+02  0.26421306778E+02 -0.12372550180E+02  0.34513190007E+02  0.00000000000E+00 0. -1.
</event>
<event>
 7    1  0.6462830E-013  0.5052886E+02  0.7816164E-02  0.1300439E+00
        -11   -1    0    0    0    0  0.00000000000E+00  0.00000000000E+00  0.45593999997E+02  0.45594000000E+02  0.51100000000E-03 0.  1.
         11   -1    0    0    0    0 -0.00000000000E+00 -0.00000000000E+00 -0.45593999997E+02  0.45594000000E+02  0.51100000000E-03 0. -1.
    9900012    2    1    2    0    0  0.77490923256E+01 -0.13768091501E+02  0.37464069763E+02  0.50528864512E+02  0.30000014170E+02 0.  0.
         12    1    1    2    0    0 -0.77490923256E+01  0.13768091501E+02 -0.37464069763E+02  0.40659135488E+02  0.00000000000E+00 0. -1.
         11    1    3    3    0    0  0.59551948248E+01  0.25724227411E+01  0.10752773777E+02  0.12558019284E+02  0.51100000000E-03 0. -1.
        -11    1    3    3    0    0 -0.79569151348E+01 -0.32579738215E+01  0.16820172062E+02  0.18890343574E+02  0.51100000000E-03 0.  1.
        -12    1    3    3    0    0  0.97508126356E+01 -0.13082540420E+02  0.98911239234E+01  0.19080501654E+02  0.00000000000E+00 0.  1.
</event>
<event>
 7    1  0.6462830E-013  0.5052887E+02  0.7816164E-02  0.1300439E+00
        -11   -1    0    0    0    0  0.00000000000E+00  0.00000000000E+00  0.45593999997E+02  0.45594000000E+02  0.51100000000E-03 0.  1.
         11   -1    0    0    0    0 -0.00000000000E+00 -0.00000000000E+00 -0.45593999997E+02  0.45594000000E+02  0.51100000000E-03 0. -1.
    9900012    2    1    2    0    0 -0.29277922963E+02  0.27282300318E+02  0.71863847477E+01  0.50528870528E+02  0.30000032458E+02 0.  0.
         12    1    1    2    0    0  0.29277922963E+02 -0.27282300318E+02 -0.71863847477E+01  0.40659129472E+02  0.00000000000E+00 0. -1.
         11    1    3    3    0    0 -0.96678973057E+00  0.62616606004E+01 -0.76755211958E+01  0.99527233331E+01  0.51100000000E-03 0. -1.
        -11    1    3    3    0    0 -0.12593472512E+02  0.12995804604E+02  0.98043368571E+00  0.18123127150E+02  0.51100000000E-03 0.  1.
        -12    1    3    3    0    0 -0.15717660720E+02  0.80248351134E+01  0.13881472258E+02  0.22453020045E+02  0.00000000000E+00 0.  1.
</event>
<event>
 7    1  0.6462830E-013  0.5052885E+02  0.7816164E-02  0.1300439E+00
        -11   -1    0    0    0    0  0.00000000000E+00  0.00000000000E+00  0.45593999997E+02  0.45594000000E+02  0.51100000000E-03 0. -1.
         11   -1    0    0    0    0 -0.00000000000E+00 -0.00000000000E+00 -0.45593999997E+02  0.45594000000E+02  0.51100000000E-03 0.  1.
    9900012    2    1    2    0    0 -0.29051128954E+02  0.20386837910E+02 -0.19838721404E+02  0.50528854406E+02  0.29999983453E+02 0.  0.
         12    1    1    2    0    0  0.29051128954E+02 -0.20386837910E+02  0.19838721404E+02  0.40659145594E+02  0.00000000000E+00 0. -1.
         11    1    3    3    0    0 -0.13559453830E+02  0.13010275298E+02 -0.57437004749E+01  0.19649838343E+02  0.51100000000E-03 0.  1.
        -11    1    3    3    0    0 -0.18421399374E+02 -0.50537341293E+00 -0.64796100149E+01  0.19534295569E+02  0.51100000000E-03 0. -1.
         12    1    3    3    0    0  0.29297242503E+01  0.78819360255E+01 -0.76154109138E+01  0.11344720494E+02  0.00000000000E+00 0. -1.
</event>
<event>
 7    1  0.6462830E-013  0.5052886E+02  0.7816164E-02  0.1300439E+00
        -11   -1    0    0    0    0  0.00000000000E+00  0.00000000000E+00  0.45593999997E+02  0.45594000000E+02  0.51100000000E-03 0.  1.
         11   -1    0    0    0    0 -0.00000000000E+00 -0.00000000000E+00 -0.45593999997E+02  0.45594000000E+02  0.51100000000E-03 0. -1.
    9900012    2    1    2    0    0 -0.15620266816E+02 -0.82175416004E+01  0.36628472061E+02  0.50528859688E+02  0.29999999508E+02 0.  0.
         12    1    1    2    0    0  0.15620266816E+02  0.82175416004E+01 -0.36628472061E+02  0.40659140312E+02  0.00000000000E+00 0. -1.
         11    1    3    3    0    0 -0.33075961171E+01  0.62079465495E+01  0.76173392715E+01  0.10368348483E+02  0.51100000000E-03 0. -1.
        -11    1    3    3    0    0 -0.16893601463E+02 -0.61875014268E+01  0.15883104918E+02  0.23998999279E+02  0.51100000000E-03 0.  1.
        -12    1    3    3    0    0  0.45809307643E+01 -0.82379867230E+01  0.13128027871E+02  0.16161511925E+02  0.00000000000E+00 0.  1.
</event>
<event>
 7    1  0.6462830E-013  0.5052887E+02  0.7816164E-02  0.1300439E+00
        -11   -1    0    0    0    0  0.00000000000E+00  0.00000000000E+00  0.45593999997E+02  0.45594000000E+02  0.51100000000E-03 0. -1.
         11   -1    0    0    0    0 -0.00000000000E+00 -0.00000000000E+00 -0.45593999997E+02  0.45594000000E+02  0.51100000000E-03 0.  1.
    9900012    2    1    2    0    0  0.24559561014E+02 -0.30093463562E+02 -0.12015677854E+02  0.50528866947E+02  0.30000021572E+02 0.  0.
         12    1    1    2    0    0 -0.24559561014E+02  0.30093463562E+02  0.12015677854E+02  0.40659133053E+02  0.00000000000E+00 0. -1.
         11    1    3    3    0    0 -0.11056166555E+00 -0.67052058178E+01  0.66006437621E+01  0.94095965523E+01  0.51100000000E-03 0. -1.
        -11    1    3    3    0    0  0.10313484826E+02 -0.15295805769E+01 -0.40564137030E+01  0.11187585905E+02  0.51100000000E-03 0.  1.
        -12    1    3    3    0    0  0.14356637854E+02 -0.21858677167E+02 -0.14559907913E+02  0.29931684490E+02  0.00000000000E+00 0.  1.
</event>
<event>
 7    1  0.6462830E-013  0.5052886E+02  0.7816164E-02  0.1300439E+00
        -11   -1    0    0    0    0  0.00000000000E+00  0.00000000000E+00  0.45593999997E+02  0.45594000000E+02  0.51100000000E-03 0.  1.
         11   -1    0    0    0    0 -0.00000000000E+00 -0.00000000000E+00 -0.45593999997E+02  0.45594000000E+02  0.51100000000E-03 0. -1.
    9900012    2    1    2    0    0  0.11239077188E+02 -0.19291531010E+01  0.39027258926E+02  0.50528862934E+02  0.30000009374E+02 0.  0.
         12    1    1    2    0    0 -0.11239077188E+02  0.19291531010E+01 -0.39027258926E+02  0.40659137066E+02  0.00000000000E+00 0. -1.
         11    1    3    3    0    0  0.73699059399E+01  0.47542744613E+01  0.18394108851E+02  0.20377975363E+02  0.51100000000E-03 0.  1.
        -11    1    3    3    0    0  0.86921897513E+01 -0.16629009868E+01  0.51790066457E+00  0.88649660870E+01  0.51100000000E-03 0. -1.
         12    1    3    3    0    0 -0.48230185035E+01 -0.50205265755E+01  0.20115249410E+02  0.21285921483E+02  0.00000000000E+00 0. -1.
</event>
<event>
 7    1  0.6462830E-013  0.5052886E+02  0.7816164E-02  0.1300439E+00
        -11   -1    0    0    0    0  0.00000000000E+00  0.00000000000E+00  0.45593999997E+02  0.45594000000E+02  0.51100000000E-03 0. -1.
         11   -1    0    0    0    0 -0.00000000000E+00 -0.00000000000E+00 -0.45593999997E+02  0.45594000000E+02  0.51100000000E-03 0.  1.
    9900012    2    1    2    0    0  0.22540824410E+02  0.31897507880E+02 -0.11297153104E+02  0.50528862746E+02  0.30000008802E+02 0.  0.
         12    1    1    2    0    0 -0.22540824410E+02 -0.31897507880E+02  0.11297153104E+02  0.40659137254E+02  0.00000000000E+00 0. -1.
         11    1    3    3    0    0 -0.10438896701E+01  0.76138675053E+00 -0.19580462411E+00  0.13068110572E+01  0.51100000000E-03 0. -1.
        -11    1    3    3    0    0  0.24415965608E+02  0.10882495241E+02 -0.11118166237E+02  0.28951367843E+02  0.51100000000E-03 0.  1.
        -12    1    3    3    0    0 -0.83125152821E+00  0.20253625889E+02  0.16817757194E-01  0.20270683846E+02  0.00000000000E+00 0.  1.
</event>
<event>
 7    1  0.6462830E-013  0.5052884E+02  0.7816164E-02  0.1300439E+00
        -11   -1    0    0    0    0  0.00000000000E+00  0.00000000000E+00  0.45593999997E+02  0.45594000000E+02  0.51100000000E-03 0.  1.
         11   -1    0    0    0    0 -0.00000000000E+00 -0.00000000000E+00 -0.45593999997E+02  0.45594000000E+02  0.51100000000E-03 0. -1.
    9900012    2    1    2    0    0  0.25380484996E+00  0.30101353839E+02  0.27331501510E+02  0.50528844885E+02  0.29999954513E+02 0.  0.
         12    1    1    2    0    0 -0.25380484996E+00 -0.30101353839E+02 -0.27331501510E+02  0.40659155115E+02  0.00000000000E+00 0. -1.
         11    1    3    3    0    0  0.54152785501E+01  0.21226934777E+01 -0.27937369883E+01  0.64525991660E+01  0.51100000000E-03 0. -1.
        -11    1    3    3    0    0 -0.36537055862E+01  0.30510197515E+00  0.73129020290E+01  0.81805371506E+01  0.51100000000E-03 0.  1.
        -12    1    3    3    0    0 -0.15077681139E+01  0.27673558386E+02  0.22812336470E+02  0.35895708569E+02  0.00000000000E+00 0.  1.
</event>
<event>
 7    1  0.6462830E-013  0.5052884E+02  0.7816164E-02  0.1300439E+00
        -11   -1    0    0    0    0  0.00000000000E+00  0.00000000000E+00  0.45593999997E+02  0.45594000000E+02  0.51100000000E-03 0. -1.
         11   -1    0    0    0    0 -0.00000000000E+00 -0.00000000000E+00 -0.45593999997E+02  0.45594000000E+02  0.51100000000E-03 0.  1.
    9900012    2    1    2    0    0 -0.38060468599E+02 -0.10203013414E+02 -0.10023296652E+02  0.50528840780E+02  0.29999942033E+02 0.  0.
         12    1    1    2    0    0  0.38060468599E+02  0.10203013414E+02  0.10023296652E+02  0.40659159220E+02  0.00000000000E+00 0. -1.
         11    1    3    3    0    0 -0.52972777270E+01 -0.13139756553E+00  0.33732137894E+01  0.62814797753E+01  0.51100000000E-03 0. -1.
        -11    1    3    3    0    0 -0.35988543940E+02 -0.66630487764E+01 -0.87247644892E+01  0.37625696399E+02  0.51100000000E-03 0.  1.
         12    1    3    3    0    0  0.32253530672E+01 -0.34085670725E+01 -0.46717459525E+01  0.66216646049E+01  0.00000000000E+00 0. -1.
</event>
<event>
 7    1  0.6462830E-013  0.5052886E+02  0.7816164E-02  0.1300439E+00
        -11   -1    0    0    0    0  0.00000000000E+00  0.00000000000E+00  0.45593999997E+02  0.45594000000E+02  0.51100000000E-03 0.  1.
         11   -1    0    0    0    0 -0.00000000000E+00 -0.00000000000E+00 -0.45593999997E+02  0.45594000000E+02  0.51100000000E-03 0. -1.
    9900012    2    1    2    0    0 -0.29535483886E+02  0.26962449546E+02  0.73380613442E+01  0.50528860336E+02  0.30000001478E+02 0.  0.
         12    1    1    2    0    0  0.29535483886E+02 -0.26962449546E+02 -0.73380613442E+01  0.40659139664E+02  0.00000000000E+00 0. -1.
         11    1    3    3    0    0 -0.64239906097E+01 -0.13140071859E+01  0.14878087615E+01  0.67236779674E+01  0.51100000000E-03 0. -1.
        -11    1    3    3    0    0 -0.18267931939E+02  0.24529682643E+02  0.13979093271E+02  0.33627930606E+02  0.51100000000E-03 0.  1.
         12    1    3    3    0    0 -0.48435613373E+01  0.37467740888E+01 -0.81288406885E+01  0.10177251763E+02  0.00000000000E+00 0. -1.
</event>
<event>
 7    1  0.6462830E-013  0.5052884E+02  0.7816164E-02  0.1300439E+00
        -11   -1    0    0    0    0  0.00000000000E+00  0.00000000000E+00  0.45593999997E+02  0.45594000000E+02  0.51100000000E-03 0.  1.
         11   -1    0    0    0    0 -0.00000000000E+00 -0.00000000000E+00 -0.45593999997E+02  0.45594000000E+02  0.51100000000E-03 0. -1.
    9900012    2    1    2    0    0 -0.23061268951E+02 -0.80914709570E+01  0.32494207602E+02  0.50528836757E+02  0.29999929808E+02 0.  0.
         12    1    1    2    0    0  0.23061268951E+02  0.80914709570E+01 -0.32494207602E+02  0.40659163243E+02  0.00000000000E+00 0. -1.
         11    1    3    3    0    0 -0.60020762234E-01 -0.49867910524E+01  0.11181605353E+00  0.49884056153E+01  0.51100000000E-03 0. -1.
        -11    1    3    3    0    0  0.10378894384E+01 -0.41271246695E+01  0.15688457824E+02  0.16255401616E+02  0.51100000000E-03 0.  1.
        -12    1    3    3    0    0 -0.24039137627E+02  0.10224447648E+01  0.16693933724E+02  0.29285029526E+02  0.00000000000E+00 0.  1.
</event>
<event>
 7    1  0.6462830E-013  0.5052883E+02  0.7816164E-02  0.1300439E+00
        -11   -1    0    0    0    0  0.00000000000E+00  0.00000000000E+00  0.45593999997E+02  0.45594000000E+02  0.51100000000E-03 0.  1.
         11   -1    0    0    0    0 -0.00000000000E+00 -0.00000000000E+00 -0.45593999997E+02  0.45594000000E+02  0.51100000000E-03 0. -1.
    9900012    2    1    2    0    0 -0.22577609790E+02 -0.31501374884E+01 -0.33667431027E+02  0.50528834465E+02  0.29999922840E+02 0.  0.
         12    1    1    2    0    0  0.22577609790E+02  0.31501374884E+01  0.33667431027E+02  0.40659165535E+02  0.00000000000E+00 0. -1.
         11    1    3    3    0    0 -0.80085518264E+01 -0.58522183870E+01 -0.29708010018E+02  0.31320140835E+02  0.51100000000E-03 0. -1.
        -11    1    3    3    0    0 -0.15013690353E+00 -0.15227709924E+01  0.24379175598E+01  0.28783354347E+01  0.51100000000E-03 0.  1.
        -12    1    3    3    0    0 -0.14418921060E+02  0.42248518909E+01 -0.63973385683E+01  0.16330358196E+02  0.00000000000E+00 0.  1.
</event>
<event>
 7    1  0.6462830E-013  0.5052886E+02  0.7816164E-02  0.1300439E+00
        -11   -1    0    0    0    0  0.00000000000E+00  0.00000000000E+00  0.45593999997E+02  0.45594000000E+02  0.51100000000E-03 0. -1.
         11   -1    0    0    0    0 -0.00000000000E+00 -0.00000000000E+00 -0.45593999997E+02  0.45594000000E+02  0.51100000000E-03 0.  1.
    9900012    2    1    2    0    0  0.12126154162E+02  0.36692335801E+02 -0.12640996608E+02  0.50528856913E+02  0.29999991074E+02 0.  0.
         12    1    1    2    0    0 -0.12126154162E+02 -0.36692335801E+02  0.12640996608E+02  0.40659143087E+02  0.00000000000E+00 0. -1.
         11    1    3    3    0    0 -0.37873120576E+01  0.19193446312E+01 -0.92432680800E+01  0.10171805223E+02  0.51100000000E-03 0. -1.
        -11    1    3    3    0    0  0.45294368215E+01  0.96689186184E+01 -0.66845775741E+01  0.12597117241E+02  0.51100000000E-03 0.  1.
        -12    1    3    3    0    0  0.11384029399E+02  0.25104072551E+02  0.32868490462E+01  0.27759934450E+02  0.00000000000E+00 0.  1.
</event>
<event>
 7    1  0.6462830E-013  0.5052886E+02  0.7816164E-02  0.1300439E+00
        -11   -1    0    0    0    0  0.00000000000E+00  0.00000000000E+00  0.45593999997E+02  0.45594000000E+02  0.51100000000E-03 0.  1.
         11   -1    0    0    0    0 -0.00000000000E+00 -0.00000000000E+00 -0.45593999997E+02  0.45594000000E+02  0.51100000000E-03 0. -1.
    9900012    2    1    2    0    0 -0.16693765417E+01 -0.21102381507E+02  0.34714093406E+02  0.50528860753E+02  0.30000002746E+02 0.  0.
         12    1    1    2    0    0  0.16693765417E+01  0.21102381507E+02 -0.34714093406E+02  0.40659139247E+02  0.00000000000E+00 0. -1.
         11    1    3    3    0    0  0.55212315150E+00 -0.18914549763E+02  0.17677188805E+02  0.25894942305E+02  0.51100000000E-03 0. -1.
        -11    1    3    3    0    0 -0.38275966123E+00 -0.94320895919E+01  0.56136973071E+01  0.10982914765E+02  0.51100000000E-03 0.  1.
         12    1    3    3    0    0 -0.18387400320E+01  0.72442578475E+01  0.11423207294E+02  0.13651003682E+02  0.00000000000E+00 0. -1.
</event>
<event>
 7    1  0.6462830E-013  0.5052886E+02  0.7816164E-02  0.1300439E+00
        -11   -1    0    0    0    0  0.00000000000E+00  0.00000000000E+00  0.45593999997E+02  0.45594000000E+02  0.51100000000E-03 0. -1.
         11   -1    0    0    0    0 -0.00000000000E+00 -0.00000000000E+00 -0.45593999997E+02  0.45594000000E+02  0.51100000000E-03 0.  1.
    9900012    2    1    2    0    0  0.32729699715E+02  0.22916335868E+02  0.75348360001E+01  0.50528862692E+02  0.30000008640E+02 0.  0.
         12    1    1    2    0    0 -0.32729699715E+02 -0.22916335868E+02 -0.75348360001E+01  0.40659137308E+02  0.00000000000E+00 0. -1.
         11    1    3    3    0    0  0.15122743163E+02  0.22288376584E+02  0.78595919378E+01  0.28057838071E+02  0.51100000000E-03 0. -1.
        -11    1    3    3    0    0  0.12961620920E+02  0.14499183833E+01  0.61825424354E+01  0.14433631263E+02  0.51100000000E-03 0.  1.
        -12    1    3    3    0    0  0.46453356316E+01 -0.82195909930E+00 -0.65072983731E+01  0.80373933590E+01  0.00000000000E+00 0.  1.
</event>
<event>
 7    1  0.6462830E-013  0.5052886E+02  0.7816164E-02  0.1300439E+00
        -11   -1    0    0    0    0  0.00000000000E+00  0.00000000000E+00  0.45593999997E+02  0.45594000000E+02  0.51100000000E-03 0. -1.
         11   -1    0    0    0    0 -0.00000000000E+00 -0.00000000000E+00 -0.45593999997E+02  0.45594000000E+02  0.51100000000E-03 0.  1.
    9900012    2    1    2    0    0 -0.30689331654E+02  0.16021757962E+02 -0.21322140666E+02  0.50528862182E+02  0.30000007087E+02 0.  0.
         12    1    1    2    0    0  0.30689331654E+02 -0.16021757962E+02  0.21322140666E+02  0.40659137818E+02  0.00000000000E+00 0. -1.
         11    1    3    3    0    0 -0.17136851062E+00 -0.54997638811E+00 -0.30618537301E+01  0.31155721336E+01  0.51100000000E-03 0. -1.
        -11    1    3    3    0    0 -0.18069952709E+02  0.11894136462E+02  0.34970426461E+01  0.21913990522E+02  0.51100000000E-03 0.  1.
        -12    1    3    3    0    0 -0.12448010434E+02  0.46775978885E+01 -0.21757329582E+02  0.25499299526E+02  0.00000000000E+00 0.  1.
</event>
<event>
 7    1  0.6462830E-013  0.5052885E+02  0.7816164E-02  0.1300439E+00
        -11   -1    0    0    0    0  0.00000000000E+00  0.00000000000E+00  0.45593999997E+02  0.45594000000E+02  0.51100000000E-03 0.  1.
         11   -1    0    0    0    0 -0.00000000000E+00 -0.00000000000E+00 -0.45593999997E+02  0.45594000000E+02  0.51100000000E-03 0. -1.
    9900012    2    1    2    0    0  0.48717038234E+01  0.28975284232E+02  0.28104549653E+02  0.50528852128E+02  0.29999976529E+02 0.  0.
         12    1    1    2    0    0 -0.48717038234E+01 -0.28975284232E+02 -0.28104549653E+02  0.40659147872E+02  0.00000000000E+00 0. -1.
         11    1    3    3    0    0  0.20984607030E+01  0.12570081630E+02  0.24393363848E+02  0.27521749392E+02  0.51100000000E-03 0.  1.
        -11    1    3    3    0    0 -0.61822004124E+01  0.93951215834E+01  0.84333429916E+00  0.11278258931E+02  0.51100000000E-03 0. -1.
         12    1    3    3    0    0  0.89554435328E+01  0.70100810188E+01  0.28678515059E+01  0.11728843806E+02  0.00000000000E+00 0. -1.
</event>
<event>
 7    1  0.6462830E-013  0.5052884E+02  0.7816164E-02  0.1300439E+00
        -11   -1    0    0    0    0  0.00000000000E+00  0.00000000000E+00  0.45593999997E+02  0.45594000000E+02  0.51100000000E-03 0.  1.
         11   -1    0    0    0    0 -0.00000000000E+00 -0.00000000000E+00 -0.45593999997E+02  0.45594000000E+02  0.51100000000E-03 0. -1.
    9900012    2    1    2    0    0  0.26252676787E+02  0.31005569436E+02 -0.16182773634E+01  0.50528841177E+02  0.29999943242E+02 0.  0.
         12    1    1    2    0    0 -0.26252676787E+02 -0.31005569436E+02  0.16182773634E+01  0.40659158823E+02  0.00000000000E+00 0. -1.
         11    1    3    3    0    0  0.95077875876E+01  0.95668100717E+01 -0.80855564622E+01  0.15725714716E+02  0.51100000000E-03 0. -1.
        -11    1    3    3    0    0  0.21439683929E+02  0.19245900745E+02  0.68280813057E+01  0.29608908069E+02  0.51100000000E-03 0.  1.
         12    1    3    3    0    0 -0.46947947294E+01  0.21928586196E+01 -0.36080220692E+00  0.51942183925E+01  0.00000000000E+00 0. -1.
</event>
<event>
 7    1  0.6462830E-013  0.5052887E+02  0.7816164E-02  0.1300439E+00
        -11   -1    0    0    0    0  0.00000000000E+00  0.00000000000E+00  0.45593999997E+02  0.45594000000E+02  0.51100000000E-03 0.  1.
         11   -1    0    0    0    0 -0.00000000000E+00 -0.00000000000E+00 -0.45593999997E+02  0.45594000000E+02  0.51100000000E-03 0. -1.
    9900012    2    1    2    0    0  0.28319540060E+02 -0.47937801976E+01  0.28778265573E+02  0.50528865145E+02  0.30000016094E+02 0.  0.
         12    1    1    2    0    0 -0.28319540060E+02  0.47937801976E+01 -0.28778265573E+02  0.40659134855E+02  0.00000000000E+00 0. -1.
         11    1    3    3    0    0 -0.25370977362E+01 -0.79820049369E+00  0.12539408266E+02  0.12818375438E+02  0.51100000000E-03 0. -1.
        -11    1    3    3    0    0  0.35941190534E+01 -0.56764439278E+01  0.33729435020E+01  0.75177427174E+01  0.51100000000E-03 0.  1.
        -12    1    3    3    0    0  0.27262518742E+02  0.16808642239E+01  0.12865913805E+02  0.30192746989E+02  0.00000000000E+00 0.  1.
</event>
<event>
 7    1  0.6462830E-013  0.5052886E+02  0.7816164E-02  0.1300439E+00
        -11   -1    0    0    0    0  0.00000000000E+00  0.00000000000E+00  0.45593999997E+02  0.45594000000E+02  0.51100000000E-03 0.  1.
         11   -1    0    0    0    0 -0.00000000000E+00 -0.00000000000E+00 -0.45593999997E+02  0.45594000000E+02  0.51100000000E-03 0. -1.
    9900012    2    1    2    0    0  0.33751136376E+02  0.76466793919E+01  0.21343731267E+02  0.50528858632E+02  0.29999996298E+02 0.  0.
         12    1    1    2    0    0 -0.33751136376E+02 -0.76466793919E+01 -0.21343731267E+02  0.40659141368E+02  0.00000000000E+00 0. -1.
         11    1    3    3    0    0  0.14137130061E+01 -0.66285589163E+01 -0.53949182473E+00  0.67990756328E+01  0.51100000000E-03 0. -1.
        -11    1    3    3    0    0  0.19344552916E+02  0.82204814754E+01  0.50436929195E+01  0.21615431565E+02  0.51100000000E-03 0.  1.
        -12    1    3    3    0    0  0.12992870453E+02  0.60547568329E+01  0.16839530172E+02  0.22114351434E+02  0.00000000000E+00 0.  1.
</event>
<event>
 7    1  0.6462830E-013  0.5052886E+02  0.7816164E-02  0.1300439E+00
        -11   -1    0    0    0    0  0.00000000000E+00  0.00000000000E+00  0.45593999997E+02  0.45594000000E+02  0.51100000000E-03 0.  1.
         11   -1    0    0    0    0 -0.00000000000E+00 -0.00000000000E+00 -0.45593999997E+02  0.45594000000E+02  0.51100000000E-03 0. -1.
    9900012    2    1    2    0    0 -0.82200430247E+01  0.37457614355E+02 -0.13510125136E+02  0.50528862507E+02  0.30000008076E+02 0.  0.
         12    1    1    2    0    0  0.82200430247E+01 -0.37457614355E+02  0.13510125136E+02  0.40659137493E+02  0.00000000000E+00 0. -1.
         11    1    3    3    0    0 -0.50700144391E+01  0.23595478725E+01 -0.47503210022E+01  0.73374425014E+01  0.51100000000E-03 0. -1.
        -11    1    3    3    0    0 -0.24420634827E+01  0.18310197044E+02 -0.16428942700E+02  0.24721188247E+02  0.51100000000E-03 0.  1.
        -12    1    3    3    0    0 -0.70796510287E+00  0.16787869438E+02  0.76691385663E+01  0.18470231759E+02  0.00000000000E+00 0.  1.
</event>
<event>
 7    1  0.6537547E-013  0.5052887E+02  0.7816164E-02  0.1300439E+00
        -11   -1    0    0    0    0  0.00000000000E+00  0.00000000000E+00  0.45593999997E+02  0.45594000000E+02  0.51100000000E-03 0.  1.
         11   -1    0    0    0    0 -0.00000000000E+00 -0.00000000000E+00 -0.45593999997E+02  0.45594000000E+02  0.51100000000E-03 0. -1.
    9900012    2    1    2    0    0  0.68775983753E+01  0.25989797701E+02  0.30502359358E+02  0.50528869778E+02  0.30000030179E+02 0.  0.
         12    1    1    2    0    0 -0.68775983753E+01 -0.25989797701E+02 -0.30502359358E+02  0.40659130222E+02  0.00000000000E+00 0. -1.
         11    1    3    3    0    0 -0.43244311769E+01 -0.43050360719E+00  0.91883890757E+01  0.10164277270E+02  0.51100000000E-03 0. -1.
        -11    1    3    3    0    0  0.45332840788E+01  0.19791277564E+02  0.23141196393E+02  0.30785715891E+02  0.51100000000E-03 0.  1.
         12    1    3    3    0    0  0.66687454734E+01  0.66290237445E+01 -0.18272261104E+01  0.95788766175E+01  0.00000000000E+00 0. -1.
</event>
<event>
 7    1  0.6462830E-013  0.5052891E+02  0.7816164E-02  0.1300439E+00
        -11   -1    0    0    0    0  0.00000000000E+00  0.00000000000E+00  0.45593999997E+02  0.45594000000E+02  0.51100000000E-03 0.  1.
         11   -1    0    0    0    0 -0.00000000000E+00 -0.00000000000E+00 -0.45593999997E+02  0.45594000000E+02  0.51100000000E-03 0. -1.
    9900012    2    1    2    0    0  0.64874583300E+01 -0.37782369805E+02  0.13548690813E+02  0.50528909916E+02  0.30000152181E+02 0.  0.
         12    1    1    2    0    0 -0.64874583300E+01  0.37782369805E+02 -0.13548690813E+02  0.40659090084E+02  0.00000000000E+00 0. -1.
         11    1    3    3    0    0 -0.57557118086E+01 -0.18604643220E+02  0.47648937197E+01  0.20049069310E+02  0.51100000000E-03 0.  1.
        -11    1    3    3    0    0  0.36240739207E+00  0.10128791758E+01  0.68935074721E+01  0.69769412261E+01  0.51100000000E-03 0. -1.
        -12    1    3    3    0    0  0.11880762747E+02 -0.20190605761E+02  0.18902896209E+01  0.23502899380E+02  0.00000000000E+00 0.  1.
</event>
<event>
 7    1  0.6462830E-013  0.5052885E+02  0.7816164E-02  0.1300439E+00
        -11   -1    0    0    0    0  0.00000000000E+00  0.00000000000E+00  0.45593999997E+02  0.45594000000E+02  0.51100000000E-03 0. -1.
         11   -1    0    0    0    0 -0.00000000000E+00 -0.00000000000E+00 -0.45593999997E+02  0.45594000000E+02  0.51100000000E-03 0.  1.
    9900012    2    1    2    0    0  0.19116778008E+02  0.17459289486E+02 -0.31351049932E+02  0.50528851920E+02  0.29999975896E+02 0.  0.
         12    1    1    2    0    0 -0.19116778008E+02 -0.17459289486E+02  0.31351049932E+02  0.40659148080E+02  0.00000000000E+00 0. -1.
         11    1    3    3    0    0  0.11602168056E+02 -0.10073474048E+01 -0.68783127674E+01  0.13525392385E+02  0.51100000000E-03 0. -1.
        -11    1    3    3    0    0  0.78465380076E+01  0.78819237260E+01 -0.89620661007E+00  0.11157780553E+02  0.51100000000E-03 0.  1.
         12    1    3    3    0    0 -0.33192805555E+00  0.10584713164E+02 -0.23576530555E+02  0.25845678981E+02  0.00000000000E+00 0. -1.
</event>
<event>
 7    1  0.6462830E-013  0.5052884E+02  0.7816164E-02  0.1300439E+00
        -11   -1    0    0    0    0  0.00000000000E+00  0.00000000000E+00  0.45593999997E+02  0.45594000000E+02  0.51100000000E-03 0. -1.
         11   -1    0    0    0    0 -0.00000000000E+00 -0.00000000000E+00 -0.45593999997E+02  0.45594000000E+02  0.51100000000E-03 0.  1.
    9900012    2    1    2    0    0 -0.78251425003E+01  0.92999140815E+01  0.38800080389E+02  0.50528837499E+02  0.29999932062E+02 0.  0.
         12    1    1    2    0    0  0.78251425003E+01 -0.92999140815E+01 -0.38800080389E+02  0.40659162501E+02  0.00000000000E+00 0. -1.
         11    1    3    3    0    0 -0.69773133094E+00  0.30450867867E+01  0.16141870467E+02  0.16441391820E+02  0.51100000000E-03 0. -1.
        -11    1    3    3    0    0  0.70311337227E+00 -0.78933506751E+01  0.13079142242E+02  0.15292590210E+02  0.51100000000E-03 0.  1.
        -12    1    3    3    0    0 -0.78305245416E+01  0.14148177970E+02  0.95790676805E+01  0.18794855469E+02  0.00000000000E+00 0.  1.
</event>
<event>
 7    1  0.6462830E-013  0.5052881E+02  0.7816164E-02  0.1300439E+00
        -11   -1    0    0    0    0  0.00000000000E+00  0.00000000000E+00  0.45593999997E+02  0.45594000000E+02  0.51100000000E-03 0. -1.
         11   -1    0    0    0    0 -0.00000000000E+00 -0.00000000000E+00 -0.45593999997E+02  0.45594000000E+02  0.51100000000E-03 0.  1.
    9900012    2    1    2    0    0  0.15844371600E+02 -0.33702028337E+02 -0.16318665262E+02  0.50528810862E+02  0.29999851097E+02 0.  0.
         12    1    1    2    0    0 -0.15844371600E+02  0.33702028337E+02  0.16318665262E+02  0.40659189138E+02  0.00000000000E+00 0. -1.
         11    1    3    3    0    0  0.11678634053E+02 -0.10042631657E+01 -0.57715776220E+01  0.13065609300E+02  0.51100000000E-03 0. -1.
        -11    1    3    3    0    0  0.51353086289E+01 -0.79303944156E+01 -0.82988382784E+01  0.12575105063E+02  0.51100000000E-03 0.  1.
         12    1    3    3    0    0 -0.96957108246E+00 -0.24767370755E+02 -0.22482493619E+01  0.24888096500E+02  0.00000000000E+00 0. -1.
</event>
<event>
 7    1  0.6462830E-013  0.5052885E+02  0.7816164E-02  0.1300439E+00
        -11   -1    0    0    0    0  0.00000000000E+00  0.00000000000E+00  0.45593999997E+02  0.45594000000E+02  0.51100000000E-03 0.  1.
         11   -1    0    0    0    0 -0.00000000000E+00 -0.00000000000E+00 -0.45593999997E+02  0.45594000000E+02  0.51100000000E-03 0. -1.
    9900012    2    1    2    0    0 -0.85484887248E+01  0.39256437148E+02 -0.62467418792E+01  0.50528852184E+02  0.29999976698E+02 0.  0.
         12    1    1    2    0    0  0.85484887248E+01 -0.39256437148E+02  0.62467418792E+01  0.40659147816E+02  0.00000000000E+00 0. -1.
         11    1    3    3    0    0 -0.26137136125E+01 -0.17442828487E+01 -0.24804779701E+01  0.40033476898E+01  0.51100000000E-03 0. -1.
        -11    1    3    3    0    0 -0.37429865439E+01  0.16516661333E+02 -0.11826139434E+02  0.20655934354E+02  0.51100000000E-03 0.  1.
        -12    1    3    3    0    0 -0.21917885684E+01  0.24484058664E+02  0.80598755247E+01  0.25869570141E+02  0.00000000000E+00 0.  1.
</event>
<event>
 7    1  0.6462830E-013  0.5052883E+02  0.7816164E-02  0.1300439E+00
        -11   -1    0    0    0    0  0.00000000000E+00  0.00000000000E+00  0.45593999997E+02  0.45594000000E+02  0.51100000000E-03 0.  1.
         11   -1    0    0    0    0 -0.00000000000E+00 -0.00000000000E+00 -0.45593999997E+02  0.45594000000E+02  0.51100000000E-03 0. -1.
    9900012    2    1    2    0    0 -0.24538260589E+02  0.24051077784E+02  0.21739078739E+02  0.50528829820E+02  0.29999908720E+02 0.  0.
         12    1    1    2    0    0  0.24538260589E+02 -0.24051077784E+02 -0.21739078739E+02  0.40659170180E+02  0.00000000000E+00 0. -1.
         11    1    3    3    0    0 -0.14090609546E+02  0.15843089106E+02 -0.19179465240E+01  0.21289134997E+02  0.51100000000E-03 0. -1.
        -11    1    3    3    0    0 -0.10382519544E+02  0.94496108435E+01  0.15198370082E+02  0.20690150086E+02  0.51100000000E-03 0.  1.
        -12    1    3    3    0    0 -0.65131499163E-01 -0.12416221658E+01  0.84586551815E+01  0.85495447361E+01  0.00000000000E+00 0.  1.
</event>
<event>
 7    1  0.6462830E-013  0.5052886E+02  0.7816164E-02  0.1300439E+00
        -11   -1    0    0    0    0  0.00000000000E+00  0.00000000000E+00  0.45593999997E+02  0.45594000000E+02  0.51100000000E-03 0.  1.
         11   -1    0    0    0    0 -0.00000000000E+00 -0.00000000000E+00 -0.45593999997E+02  0.45594000000E+02  0.51100000000E-03 0. -1.
    9900012    2    1    2    0    0  0.11822749138E+02  0.28169275576E+02  0.26830576756E+02  0.50528864093E+02  0.30000012897E+02 0.  0.
         12    1    1    2    0    0 -0.11822749138E+02 -0.28169275576E+02 -0.26830576756E+02  0.40659135907E+02  0.00000000000E+00 0. -1.
         11    1    3    3    0    0  0.32574847940E+01 -0.85058845094E+00 -0.15864913551E+01  0.37217822312E+01  0.51100000000E-03 0. -1.
        -11    1    3    3    0    0  0.14447746569E+02  0.10794521312E+02  0.13308401143E+02  0.22413670216E+02  0.51100000000E-03 0.  1.
         12    1    3    3    0    0 -0.58824822249E+01  0.18225342715E+02  0.15108666968E+02  0.24393411646E+02  0.00000000000E+00 0. -1.
</event>
<event>
 7    1  0.6462830E-013  0.5052885E+02  0.7816164E-02  0.1300439E+00
        -11   -1    0    0    0    0  0.00000000000E+00  0.00000000000E+00  0.45593999997E+02  0.45594000000E+02  0.51100000000E-03 0. -1.
         11   -1    0    0    0    0 -0.00000000000E+00 -0.00000000000E+00 -0.45593999997E+02  0.45594000000E+02  0.51100000000E-03 0.  1.
    9900012    2    1    2    0    0  0.24940225195E+02  0.22677874634E+02 -0.22734673572E+02  0.50528853266E+02  0.29999979987E+02 0.  0.
         12    1    1    2    0    0 -0.24940225195E+02 -0.22677874634E+02  0.22734673572E+02  0.40659146734E+02  0.00000000000E+00 0. -1.
         11    1    3    3    0    0 -0.28463135173E+01  0.60696106750E+01 -0.32978451183E+01  0.74711081555E+01  0.51100000000E-03 0. -1.
        -11    1    3    3    0    0  0.21309794853E+02  0.13964816400E+02 -0.23757195706E+02  0.34835725941E+02  0.51100000000E-03 0.  1.
        -12    1    3    3    0    0  0.64767438593E+01  0.26434475595E+01  0.43203672528E+01  0.82220191691E+01  0.00000000000E+00 0.  1.
</event>
<event>
 7    1  0.6462830E-013  0.5052886E+02  0.7816164E-02  0.1300439E+00
        -11   -1    0    0    0    0  0.00000000000E+00  0.00000000000E+00  0.45593999997E+02  0.45594000000E+02  0.51100000000E-03 0.  1.
         11   -1    0    0    0    0 -0.00000000000E+00 -0.00000000000E+00 -0.45593999997E+02  0.45594000000E+02  0.51100000000E-03 0. -1.
    9900012    2    1    2    0    0 -0.22826676853E+02 -0.21936004236E+02  0.25513135726E+02  0.50528861389E+02  0.30000004678E+02 0.  0.
         12    1    1    2    0    0  0.22826676853E+02  0.21936004236E+02 -0.25513135726E+02  0.40659138611E+02  0.00000000000E+00 0. -1.
         11    1    3    3    0    0  0.16958108839E+01 -0.19012309544E+01 -0.19103195378E+01  0.31843012881E+01  0.51100000000E-03 0. -1.
        -11    1    3    3    0    0 -0.20691130733E+00 -0.48654876932E+01  0.15599494751E+02  0.16341971103E+02  0.51100000000E-03 0.  1.
         12    1    3    3    0    0 -0.24315576429E+02 -0.15169285589E+02  0.11823960513E+02  0.31002588998E+02  0.00000000000E+00 0. -1.
</event>
<event>
 7    1  0.6462830E-013  0.5052885E+02  0.7816164E-02  0.1300439E+00
        -11   -1    0    0    0    0  0.00000000000E+00  0.00000000000E+00  0.45593999997E+02  0.45594000000E+02  0.51100000000E-03 0.  1.
         11   -1    0    0    0    0 -0.00000000000E+00 -0.00000000000E+00 -0.45593999997E+02  0.45594000000E+02  0.51100000000E-03 0. -1.
    9900012    2    1    2    0    0 -0.15735130744E+02 -0.36219517235E+02  0.96808289047E+01  0.50528853224E+02  0.29999979860E+02 0.  0.
         12    1    1    2    0    0  0.15735130744E+02  0.36219517235E+02 -0.96808289047E+01  0.40659146776E+02  0.00000000000E+00 0. -1.
         11    1    3    3    0    0  0.96129166018E+00 -0.64835142926E+00  0.20068775889E+01  0.23177573535E+01  0.51100000000E-03 0. -1.
        -11    1    3    3    0    0 -0.78778391838E+01 -0.13997080664E+02 -0.10035740008E+02  0.18939236919E+02  0.51100000000E-03 0.  1.
        -12    1    3    3    0    0 -0.88185832205E+01 -0.21574085142E+02  0.17709691323E+02  0.29271858952E+02  0.00000000000E+00 0.  1.
</event>
<event>
 7    1  0.6462830E-013  0.5052886E+02  0.7816164E-02  0.1300439E+00
        -11   -1    0    0    0    0  0.00000000000E+00  0.00000000000E+00  0.45593999997E+02  0.45594000000E+02  0.51100000000E-03 0. -1.
         11   -1    0    0    0    0 -0.00000000000E+00 -0.00000000000E+00 -0.45593999997E+02  0.45594000000E+02  0.51100000000E-03 0.  1.
    9900012    2    1    2    0    0 -0.22733864308E+02 -0.13662719530E+02 -0.30816676297E+02  0.50528855527E+02  0.29999986859E+02 0.  0.
         12    1    1    2    0    0  0.22733864308E+02  0.13662719530E+02  0.30816676297E+02  0.40659144473E+02  0.00000000000E+00 0. -1.
         11    1    3    3    0    0 -0.16362643534E+02 -0.41200563590E+01 -0.19958149537E+02  0.26135009107E+02  0.51100000000E-03 0. -1.
        -11    1    3    3    0    0 -0.58037267804E+01 -0.13153808386E+02 -0.13626400238E+02  0.19808702716E+02  0.51100000000E-03 0.  1.
         12    1    3    3    0    0 -0.56749399296E+00  0.36111452147E+01  0.27678734777E+01  0.45851437036E+01  0.00000000000E+00 0. -1.
</event>
<event>
 7    1  0.6462830E-013  0.5052886E+02  0.7816164E-02  0.1300439E+00
        -11   -1    0    0    0    0  0.00000000000E+00  0.00000000000E+00  0.45593999997E+02  0.45594000000E+02  0.51100000000E-03 0.  1.
         11   -1    0    0    0    0 -0.00000000000E+00 -0.00000000000E+00 -0.45593999997E+02  0.45594000000E+02  0.51100000000E-03 0. -1.
    9900012    2    1    2    0    0 -0.33037269276E+02 -0.22114199584E+02  0.85244857663E+01  0.50528857829E+02  0.29999993858E+02 0.  0.
         12    1    1    2    0    0  0.33037269276E+02  0.22114199584E+02 -0.85244857663E+01  0.40659142171E+02  0.00000000000E+00 0. -1.
         11    1    3    3    0    0 -0.10689855167E+02 -0.55207709074E+01  0.16526232141E+01  0.12144261141E+02  0.51100000000E-03 0. -1.
        -11    1    3    3    0    0 -0.13184195247E+02 -0.28484670170E-01  0.12971712587E+02  0.18495652013E+02  0.51100000000E-03 0.  1.
         12    1    3    3    0    0 -0.91632188620E+01 -0.16564944007E+02 -0.60998500345E+01  0.19888944676E+02  0.00000000000E+00 0. -1.
</event>
<event>
 7    1  0.6462830E-013  0.5052886E+02  0.7816164E-02  0.1300439E+00
        -11   -1    0    0    0    0  0.00000000000E+00  0.00000000000E+00  0.45593999997E+02  0.45594000000E+02  0.51100000000E-03 0. -1.
         11   -1    0    0    0    0 -0.00000000000E+00 -0.00000000000E+00 -0.45593999997E+02  0.45594000000E+02  0.51100000000E-03 0.  1.
    9900012    2    1    2    0    0  0.40523422422E+02  0.29393295800E+01 -0.15422066565E+01  0.50528858045E+02  0.29999994514E+02 0.  0.
         12    1    1    2    0    0 -0.40523422422E+02 -0.29393295800E+01  0.15422066565E+01  0.40659141955E+02  0.00000000000E+00 0. -1.
         11    1    3    3    0    0  0.15530656022E+02  0.72482373234E+01  0.80921494922E+01  0.18953129146E+02  0.51100000000E-03 0. -1.
        -11    1    3    3    0    0  0.19490215174E+02  0.41964796777E+01 -0.65990211408E+01  0.21000619264E+02  0.51100000000E-03 0.  1.
        -12    1    3    3    0    0  0.55025512264E+01 -0.85053874211E+01 -0.30353350078E+01  0.10575109635E+02  0.00000000000E+00 0.  1.
</event>
<event>
 7    1  0.6462830E-013  0.5052887E+02  0.7816164E-02  0.1300439E+00
        -11   -1    0    0    0    0  0.00000000000E+00  0.00000000000E+00  0.45593999997E+02  0.45594000000E+02  0.51100000000E-03 0. -1.
         11   -1    0    0    0    0 -0.00000000000E+00 -0.00000000000E+00 -0.45593999997E+02  0.45594000000E+02  0.51100000000E-03 0.  1.
    9900012    2    1    2    0    0  0.29103465522E+02  0.18217398957E+02 -0.21777966160E+02  0.50528866460E+02  0.30000020092E+02 0.  0.
         12    1    1    2    0    0 -0.29103465522E+02 -0.18217398957E+02  0.21777966160E+02  0.40659133540E+02  0.00000000000E+00 0. -1.
         11    1    3    3    0    0 -0.26005828876E+00 -0.29320041163E+01 -0.81203433589E+01  0.86373754682E+01  0.51100000000E-03 0. -1.
        -11    1    3    3    0    0  0.55610667437E+01  0.88598219331E+01 -0.10662153739E+02  0.14936647235E+02  0.51100000000E-03 0.  1.
        -12    1    3    3    0    0  0.23802457067E+02  0.12289581141E+02 -0.29954690616E+01  0.26954843756E+02  0.00000000000E+00 0.  1.
</event>
<event>
 7    1  0.6462830E-013  0.5052886E+02  0.7816164E-02  0.1300439E+00
        -11   -1    0    0    0    0  0.00000000000E+00  0.00000000000E+00  0.45593999997E+02  0.45594000000E+02  0.51100000000E-03 0.  1.
         11   -1    0    0    0    0 -0.00000000000E+00 -0.00000000000E+00 -0.45593999997E+02  0.45594000000E+02  0.51100000000E-03 0. -1.
    9900012    2    1    2    0    0  0.22200681151E+02  0.24192764475E+02  0.23979271426E+02  0.50528861364E+02  0.30000004603E+02 0.  0.
         12    1    1    2    0    0 -0.22200681151E+02 -0.24192764475E+02 -0.23979271426E+02  0.40659138636E+02  0.00000000000E+00 0. -1.
         11    1    3    3    0    0  0.12108308982E+02  0.41842118883E+00  0.71756396634E+01  0.14081052075E+02  0.51100000000E-03 0. -1.
        -11    1    3    3    0    0  0.10112473539E+02  0.10177083397E+02  0.17743456422E+02  0.22818093558E+02  0.51100000000E-03 0.  1.
         12    1    3    3    0    0 -0.20101369954E-01  0.13597259889E+02 -0.93982465928E+00  0.13629715732E+02  0.00000000000E+00 0. -1.
</event>
<event>
 7    1  0.6462830E-013  0.5052886E+02  0.7816164E-02  0.1300439E+00
        -11   -1    0    0    0    0  0.00000000000E+00  0.00000000000E+00  0.45593999997E+02  0.45594000000E+02  0.51100000000E-03 0. -1.
         11   -1    0    0    0    0 -0.00000000000E+00 -0.00000000000E+00 -0.45593999997E+02  0.45594000000E+02  0.51100000000E-03 0.  1.
    9900012    2    1    2    0    0 -0.13881919999E+02 -0.32507110242E+02 -0.20093418623E+02  0.50528863375E+02  0.30000010715E+02 0.  0.
         12    1    1    2    0    0  0.13881919999E+02  0.32507110242E+02  0.20093418623E+02  0.40659136625E+02  0.00000000000E+00 0. -1.
         11    1    3    3    0    0 -0.25915623887E+01 -0.24765522127E+02 -0.86965179238E+01  0.26375683993E+02  0.51100000000E-03 0. -1.
        -11    1    3    3    0    0  0.39122369564E+01 -0.28809836782E+01 -0.49606170188E+01  0.69435859918E+01  0.51100000000E-03 0.  1.
        -12    1    3    3    0    0 -0.15202594567E+02 -0.48606044366E+01 -0.64362836801E+01  0.17209593390E+02  0.00000000000E+00 0.  1.
</event>
<event>
 7    1  0.6462830E-013  0.5052884E+02  0.7816164E-02  0.1300439E+00
        -11   -1    0    0    0    0  0.00000000000E+00  0.00000000000E+00  0.45593999997E+02  0.45594000000E+02  0.51100000000E-03 0.  1.
         11   -1    0    0    0    0 -0.00000000000E+00 -0.00000000000E+00 -0.45593999997E+02  0.45594000000E+02  0.51100000000E-03 0. -1.
    9900012    2    1    2    0    0  0.35275471837E+02 -0.16481090726E+02  0.11712480447E+02  0.50528837895E+02  0.29999933266E+02 0.  0.
         12    1    1    2    0    0 -0.35275471837E+02  0.16481090726E+02 -0.11712480447E+02  0.40659162105E+02  0.00000000000E+00 0. -1.
         11    1    3    3    0    0  0.20741162269E+00 -0.87918340218E+00 -0.25900462808E+01  0.27430499510E+01  0.51100000000E-03 0. -1.
        -11    1    3    3    0    0  0.17593124903E+02 -0.20845953138E+02  0.72440420884E+01  0.28223181113E+02  0.51100000000E-03 0.  1.
         12    1    3    3    0    0  0.17474935311E+02  0.52440458140E+01  0.70584846395E+01  0.19562606831E+02  0.00000000000E+00 0. -1.
</event>
<event>
 7    1  0.6462830E-013  0.5052889E+02  0.7816164E-02  0.1300439E+00
        -11   -1    0    0    0    0  0.00000000000E+00  0.00000000000E+00  0.45593999997E+02  0.45594000000E+02  0.51100000000E-03 0.  1.
         11   -1    0    0    0    0 -0.00000000000E+00 -0.00000000000E+00 -0.45593999997E+02  0.45594000000E+02  0.51100000000E-03 0. -1.
    9900012    2    1    2    0    0  0.22581361485E+02 -0.19100340745E+02  0.27900215797E+02  0.50528893461E+02  0.30000102163E+02 0.  0.
         12    1    1    2    0    0 -0.22581361485E+02  0.19100340745E+02 -0.27900215797E+02  0.40659106539E+02  0.00000000000E+00 0. -1.
         11    1    3    3    0    0  0.78524284906E+01 -0.17742991734E+02  0.18489298759E+02  0.26801652145E+02  0.51100000000E-03 0. -1.
        -11    1    3    3    0    0  0.50147049756E+01 -0.64185580649E+01 -0.14824075244E+01  0.82790510298E+01  0.51100000000E-03 0.  1.
        -12    1    3    3    0    0  0.97142280184E+01  0.50612090538E+01  0.10893324562E+02  0.15448190286E+02  0.00000000000E+00 0.  1.
</event>
<event>
 7    1  0.6462830E-013  0.5052885E+02  0.7816164E-02  0.1300439E+00
        -11   -1    0    0    0    0  0.00000000000E+00  0.00000000000E+00  0.45593999997E+02  0.45594000000E+02  0.51100000000E-03 0. -1.
         11   -1    0    0    0    0 -0.00000000000E+00 -0.00000000000E+00 -0.45593999997E+02  0.45594000000E+02  0.51100000000E-03 0.  1.
    9900012    2    1    2    0    0  0.12305988849E+02  0.24775913626E+02 -0.29797364773E+02  0.50528853367E+02  0.29999980294E+02 0.  0.
         12    1    1    2    0    0 -0.12305988849E+02 -0.24775913626E+02  0.29797364773E+02  0.40659146633E+02  0.00000000000E+00 0. -1.
         11    1    3    3    0    0  0.14452414457E+02  0.31322913102E+01 -0.66329006912E+01  0.16207371913E+02  0.51100000000E-03 0. -1.
        -11    1    3    3    0    0 -0.29673377847E+01  0.88225384050E+01 -0.19348380422E+01  0.95071486760E+01  0.51100000000E-03 0.  1.
        -12    1    3    3    0    0  0.82091217706E+00  0.12821083910E+02 -0.21229626039E+02  0.24814332778E+02  0.00000000000E+00 0.  1.
</event>
<event>
 7    1  0.6462830E-013  0.5052887E+02  0.7816164E-02  0.1300439E+00
        -11   -1    0    0    0    0  0.00000000000E+00  0.00000000000E+00  0.45593999997E+02  0.45594000000E+02  0.51100000000E-03 0.  1.
         11   -1    0    0    0    0 -0.00000000000E+00 -0.00000000000E+00 -0.45593999997E+02  0.45594000000E+02  0.51100000000E-03 0. -1.
    9900012    2    1    2    0    0 -0.38519772557E+01 -0.30478716440E+02  0.26634096217E+02  0.50528868603E+02  0.30000026607E+02 0.  0.
         12    1    1    2    0    0  0.38519772557E+01  0.30478716440E+02 -0.26634096217E+02  0.40659131397E+02  0.00000000000E+00 0. -1.
         11    1    3    3    0    0  0.55790932938E+00  0.19203584468E+01  0.56272856479E+00  0.20774270342E+01  0.51100000000E-03 0. -1.
        -11    1    3    3    0    0 -0.14026597832E+02 -0.18256717994E+02  0.10430310171E+02  0.25275374759E+02  0.51100000000E-03 0.  1.
        -12    1    3    3    0    0  0.96167112467E+01 -0.14142356893E+02  0.15641057481E+02  0.23176066811E+02  0.00000000000E+00 0.  1.
</event>
<event>
 7    1  0.6462830E-013  0.5052887E+02  0.7816164E-02  0.1300439E+00
        -11   -1    0    0    0    0  0.00000000000E+00  0.00000000000E+00  0.45593999997E+02  0.45594000000E+02  0.51100000000E-03 0.  1.
         11   -1    0    0    0    0 -0.00000000000E+00 -0.00000000000E+00 -0.45593999997E+02  0.45594000000E+02  0.51100000000E-03 0. -1.
    9900012    2    1    2    0    0  0.32158736407E+02 -0.96504546610E+01  0.22931404808E+02  0.50528869058E+02  0.30000027989E+02 0.  0.
         12    1    1    2    0    0 -0.32158736407E+02  0.96504546610E+01 -0.22931404808E+02  0.40659130942E+02  0.00000000000E+00 0. -1.
         11    1    3    3    0    0  0.10790781982E+02  0.52353293668E+01  0.98440572354E+01  0.15516285396E+02  0.51100000000E-03 0. -1.
        -11    1    3    3    0    0  0.21028755260E+02 -0.12027911640E+02  0.17400727740E+02  0.29827244800E+02  0.51100000000E-03 0.  1.
        -12    1    3    3    0    0  0.33919916517E+00 -0.28578723877E+01 -0.43133801670E+01  0.51853388629E+01  0.00000000000E+00 0.  1.
</event>
<event>
 7    1  0.6462830E-013  0.5052887E+02  0.7816164E-02  0.1300439E+00
        -11   -1    0    0    0    0  0.00000000000E+00  0.00000000000E+00  0.45593999997E+02  0.45594000000E+02  0.51100000000E-03 0.  1.
         11   -1    0    0    0    0 -0.00000000000E+00 -0.00000000000E+00 -0.45593999997E+02  0.45594000000E+02  0.51100000000E-03 0. -1.
    9900012    2    1    2    0    0 -0.68390092103E+00  0.19992195057E+01  0.40604191096E+02  0.50528869000E+02  0.30000027814E+02 0.  0.
         12    1    1    2    0    0  0.68390092103E+00 -0.19992195057E+01 -0.40604191096E+02  0.40659131000E+02  0.00000000000E+00 0. -1.
         11    1    3    3    0    0 -0.74423114576E+01  0.72651044459E+01  0.88949138931E+01  0.13685365756E+02  0.51100000000E-03 0. -1.
        -11    1    3    3    0    0  0.47303166967E+00  0.49267939266E+01  0.17869329911E+02  0.18542114472E+02  0.51100000000E-03 0.  1.
         12    1    3    3    0    0  0.62853788669E+01 -0.10192678867E+02  0.13839947291E+02  0.18301388773E+02  0.00000000000E+00 0. -1.
</event>
<event>
 7    1  0.6462830E-013  0.5052886E+02  0.7816164E-02  0.1300439E+00
        -11   -1    0    0    0    0  0.00000000000E+00  0.00000000000E+00  0.45593999997E+02  0.45594000000E+02  0.51100000000E-03 0.  1.
         11   -1    0    0    0    0 -0.00000000000E+00 -0.00000000000E+00 -0.45593999997E+02  0.45594000000E+02  0.51100000000E-03 0. -1.
    9900012    2    1    2    0    0  0.78018619359E+01  0.37230637762E+02  0.14358844391E+02  0.50528857730E+02  0.29999993557E+02 0.  0.
         12    1    1    2    0    0 -0.78018619359E+01 -0.37230637762E+02 -0.14358844391E+02  0.40659142270E+02  0.00000000000E+00 0. -1.
         11    1    3    3    0    0 -0.94943641915E+00  0.22736639391E+02 -0.19278263506E+01  0.22837966525E+02  0.51100000000E-03 0. -1.
        -11    1    3    3    0    0  0.71804709454E+01  0.17508564413E+02  0.12971831232E+02  0.22942916043E+02  0.51100000000E-03 0.  1.
        -12    1    3    3    0    0  0.15708274097E+01 -0.30145660411E+01  0.33148395093E+01  0.47479751621E+01  0.00000000000E+00 0.  1.
</event>
<event>
 7    1  0.6462830E-013  0.5052884E+02  0.7816164E-02  0.1300439E+00
        -11   -1    0    0    0    0  0.00000000000E+00  0.00000000000E+00  0.45593999997E+02  0.45594000000E+02  0.51100000000E-03 0. -1.
         11   -1    0    0    0    0 -0.00000000000E+00 -0.00000000000E+00 -0.45593999997E+02  0.45594000000E+02  0.51100000000E-03 0.  1.
    9900012    2    1    2    0    0 -0.32043196542E+02  0.25003440609E+02  0.11084842473E+01  0.50528840832E+02  0.29999942194E+02 0.  0.
         12    1    1    2    0    0  0.32043196542E+02 -0.25003440609E+02 -0.11084842473E+01  0.40659159168E+02  0.00000000000E+00 0. -1.
         11    1    3    3    0    0 -0.16574814128E+01  0.14168232464E+02 -0.25369572491E+01  0.14488692423E+02  0.51100000000E-03 0. -1.
        -11    1    3    3    0    0 -0.23157698743E+01  0.71018992633E+01 -0.13928014302E+00  0.74712222880E+01  0.51100000000E-03 0.  1.
        -12    1    3    3    0    0 -0.28069945255E+02  0.37333088813E+01  0.37847216395E+01  0.28568926121E+02  0.00000000000E+00 0.  1.
</event>
<event>
 7    1  0.1029897E-012  0.5052886E+02  0.7816164E-02  0.1300439E+00
        -11   -1    0    0    0    0  0.00000000000E+00  0.00000000000E+00  0.45593999997E+02  0.45594000000E+02  0.51100000000E-03 0. -1.
         11   -1    0    0    0    0 -0.00000000000E+00 -0.00000000000E+00 -0.45593999997E+02  0.45594000000E+02  0.51100000000E-03 0.  1.
    9900012    2    1    2    0    0 -0.35139058623E+02  0.20420429942E+02 -0.11910075251E+01  0.50528857131E+02  0.29999991736E+02 0.  0.
         12    1    1    2    0    0  0.35139058623E+02 -0.20420429942E+02  0.11910075251E+01  0.40659142869E+02  0.00000000000E+00 0. -1.
         11    1    3    3    0    0 -0.13241879442E+02  0.10625756062E+02 -0.10485147325E+02  0.19954758273E+02  0.51100000000E-03 0. -1.
        -11    1    3    3    0    0 -0.12914235788E+02  0.14137664038E+02  0.59698061479E+01  0.20057158726E+02  0.51100000000E-03 0.  1.
         12    1    3    3    0    0 -0.89829433931E+01 -0.43429901584E+01  0.33243336523E+01  0.10516940132E+02  0.00000000000E+00 0. -1.
</event>
<event>
 7    1  0.6462830E-013  0.5052886E+02  0.7816164E-02  0.1300439E+00
        -11   -1    0    0    0    0  0.00000000000E+00  0.00000000000E+00  0.45593999997E+02  0.45594000000E+02  0.51100000000E-03 0. -1.
         11   -1    0    0    0    0 -0.00000000000E+00 -0.00000000000E+00 -0.45593999997E+02  0.45594000000E+02  0.51100000000E-03 0.  1.
    9900012    2    1    2    0    0  0.14723956288E+02 -0.32243205180E+02  0.19918491221E+02  0.50528862508E+02  0.30000008080E+02 0.  0.
         12    1    1    2    0    0 -0.14723956288E+02  0.32243205180E+02 -0.19918491221E+02  0.40659137492E+02  0.00000000000E+00 0. -1.
         11    1    3    3    0    0  0.13197532434E+02 -0.71600608780E+01  0.13192043393E+01  0.15072545720E+02  0.51100000000E-03 0. -1.
        -11    1    3    3    0    0  0.25721612172E+01 -0.10475679382E+02 -0.11737757631E+01  0.10850512506E+02  0.51100000000E-03 0.  1.
         12    1    3    3    0    0 -0.10457373637E+01 -0.14607464920E+02  0.19773062644E+02  0.24605804282E+02  0.00000000000E+00 0. -1.
</event>
<event>
 7    1  0.6462830E-013  0.5052888E+02  0.7816164E-02  0.1300439E+00
        -11   -1    0    0    0    0  0.00000000000E+00  0.00000000000E+00  0.45593999997E+02  0.45594000000E+02  0.51100000000E-03 0. -1.
         11   -1    0    0    0    0 -0.00000000000E+00 -0.00000000000E+00 -0.45593999997E+02  0.45594000000E+02  0.51100000000E-03 0.  1.
    9900012    2    1    2    0    0  0.91624446055E+01 -0.30753448130E+02 -0.24968764465E+02  0.50528878490E+02  0.30000056658E+02 0.  0.
         12    1    1    2    0    0 -0.91624446055E+01  0.30753448130E+02  0.24968764465E+02  0.40659121510E+02  0.00000000000E+00 0. -1.
         11    1    3    3    0    0 -0.83230665168E-01 -0.10191006974E+02 -0.31220601238E+01  0.10658837187E+02  0.51100000000E-03 0. -1.
        -11    1    3    3    0    0 -0.72040251645E+01 -0.13701365551E+02 -0.90823592449E+01  0.17947552653E+02  0.51100000000E-03 0.  1.
         12    1    3    3    0    0  0.16449700435E+02 -0.68610756053E+01 -0.12764345097E+02  0.21922488650E+02  0.00000000000E+00 0. -1.
</event>
<event>
 7    1  0.6462830E-013  0.5052887E+02  0.7816164E-02  0.1300439E+00
        -11   -1    0    0    0    0  0.00000000000E+00  0.00000000000E+00  0.45593999997E+02  0.45594000000E+02  0.51100000000E-03 0.  1.
         11   -1    0    0    0    0 -0.00000000000E+00 -0.00000000000E+00 -0.45593999997E+02  0.45594000000E+02  0.51100000000E-03 0. -1.
    9900012    2    1    2    0    0  0.25536078249E+02  0.31583084308E+02  0.18927927669E+01  0.50528866079E+02  0.30000018934E+02 0.  0.
         12    1    1    2    0    0 -0.25536078249E+02 -0.31583084308E+02 -0.18927927669E+01  0.40659133921E+02  0.00000000000E+00 0. -1.
         11    1    3    3    0    0  0.10167930434E+02  0.44633083200E+01  0.48340128877E+01  0.12110970702E+02  0.51100000000E-03 0. -1.
        -11    1    3    3    0    0  0.49835928599E+01  0.13952817185E+02  0.94446665403E+01  0.17570402144E+02  0.51100000000E-03 0.  1.
         12    1    3    3    0    0  0.10384554955E+02  0.13166958803E+02 -0.12385886661E+02  0.20847493233E+02  0.00000000000E+00 0. -1.
</event>
<event>
 7    1  0.6462830E-013  0.5052886E+02  0.7816164E-02  0.1300439E+00
        -11   -1    0    0    0    0  0.00000000000E+00  0.00000000000E+00  0.45593999997E+02  0.45594000000E+02  0.51100000000E-03 0.  1.
         11   -1    0    0    0    0 -0.00000000000E+00 -0.00000000000E+00 -0.45593999997E+02  0.45594000000E+02  0.51100000000E-03 0. -1.
    9900012    2    1    2    0    0  0.18495185455E+02 -0.11819491474E+02  0.34225628116E+02  0.50528857318E+02  0.29999992303E+02 0.  0.
         12    1    1    2    0    0 -0.18495185455E+02  0.11819491474E+02 -0.34225628116E+02  0.40659142682E+02  0.00000000000E+00 0. -1.
         11    1    3    3    0    0  0.41961561579E+00  0.33149209820E+01  0.44635572341E+01  0.55756723205E+01  0.51100000000E-03 0. -1.
        -11    1    3    3    0    0  0.18538029729E+02 -0.15187071149E+01  0.10496875686E+02  0.21357654763E+02  0.51100000000E-03 0.  1.
        -12    1    3    3    0    0 -0.46245989024E+00 -0.13615705341E+02  0.19265195196E+02  0.23595530234E+02  0.00000000000E+00 0.  1.
</event>
<event>
 7    1  0.7422061E-013  0.5052886E+02  0.7816164E-02  0.1300439E+00
        -11   -1    0    0    0    0  0.00000000000E+00  0.00000000000E+00  0.45593999997E+02  0.45594000000E+02  0.51100000000E-03 0.  1.
         11   -1    0    0    0    0 -0.00000000000E+00 -0.00000000000E+00 -0.45593999997E+02  0.45594000000E+02  0.51100000000E-03 0. -1.
    9900012    2    1    2    0    0  0.26218812881E+02  0.15410427551E+02 -0.26986265805E+02  0.50528856277E+02  0.29999989139E+02 0.  0.
         12    1    1    2    0    0 -0.26218812881E+02 -0.15410427551E+02  0.26986265805E+02  0.40659143723E+02  0.00000000000E+00 0. -1.
         11    1    3    3    0    0  0.24874164507E+01  0.54074426625E+01 -0.85722010651E+01  0.10436010162E+02  0.51100000000E-03 0. -1.
        -11    1    3    3    0    0  0.26860109822E+02  0.12505791848E+02 -0.20039281819E+02  0.35769164730E+02  0.51100000000E-03 0.  1.
         12    1    3    3    0    0 -0.31287133915E+01 -0.25028069596E+01  0.16252170791E+01  0.43236813848E+01  0.00000000000E+00 0. -1.
</event>
<event>
 7    1  0.6462830E-013  0.5052887E+02  0.7816164E-02  0.1300439E+00
        -11   -1    0    0    0    0  0.00000000000E+00  0.00000000000E+00  0.45593999997E+02  0.45594000000E+02  0.51100000000E-03 0. -1.
         11   -1    0    0    0    0 -0.00000000000E+00 -0.00000000000E+00 -0.45593999997E+02  0.45594000000E+02  0.51100000000E-03 0.  1.
    9900012    2    1    2    0    0  0.31614795597E+02 -0.25099726318E+02  0.48655278690E+01  0.50528869128E+02  0.30000028201E+02 0.  0.
         12    1    1    2    0    0 -0.31614795597E+02  0.25099726318E+02 -0.48655278690E+01  0.40659130872E+02  0.00000000000E+00 0. -1.
         11    1    3    3    0    0  0.55096278488E+01 -0.13979122389E+02 -0.27398447949E+01  0.15273461021E+02  0.51100000000E-03 0. -1.
        -11    1    3    3    0    0 -0.25811986772E+01 -0.20748216544E+01 -0.17625897008E+01  0.37515589058E+01  0.51100000000E-03 0.  1.
        -12    1    3    3    0    0  0.28686366425E+02 -0.90457822743E+01  0.93679623647E+01  0.31503849201E+02  0.00000000000E+00 0.  1.
</event>
<event>
 7    1  0.6462830E-013  0.5052886E+02  0.7816164E-02  0.1300439E+00
        -11   -1    0    0    0    0  0.00000000000E+00  0.00000000000E+00  0.45593999997E+02  0.45594000000E+02  0.51100000000E-03 0.  1.
         11   -1    0    0    0    0 -0.00000000000E+00 -0.00000000000E+00 -0.45593999997E+02  0.45594000000E+02  0.51100000000E-03 0. -1.
    9900012    2    1    2    0    0 -0.25528252473E+02 -0.11107045982E+02  0.29632877064E+02  0.50528861447E+02  0.30000004854E+02 0.  0.
         12    1    1    2    0    0  0.25528252473E+02  0.11107045982E+02 -0.29632877064E+02  0.40659138553E+02  0.00000000000E+00 0. -1.
         11    1    3    3    0    0  0.23446385327E+01  0.16446219331E+01 -0.20230019875E+01  0.35063725492E+01  0.51100000000E-03 0. -1.
        -11    1    3    3    0    0 -0.76142599942E+01 -0.11831492490E+02  0.94441614093E+01  0.16945599865E+02  0.51100000000E-03 0.  1.
        -12    1    3    3    0    0 -0.20258631012E+02 -0.92017542547E+00  0.22211717642E+02  0.30076889033E+02  0.00000000000E+00 0.  1.
</event>
<event>
 7    1  0.6462830E-013  0.5052886E+02  0.7816164E-02  0.1300439E+00
        -11   -1    0    0    0    0  0.00000000000E+00  0.00000000000E+00  0.45593999997E+02  0.45594000000E+02  0.51100000000E-03 0.  1.
         11   -1    0    0    0    0 -0.00000000000E+00 -0.00000000000E+00 -0.45593999997E+02  0.45594000000E+02  0.51100000000E-03 0. -1.
    9900012    2    1    2    0    0 -0.33379851911E+02 -0.15668152727E+02  0.17130689893E+02  0.50528855153E+02  0.29999985723E+02 0.  0.
         12    1    1    2    0    0  0.33379851911E+02  0.15668152727E+02 -0.17130689893E+02  0.40659144847E+02  0.00000000000E+00 0. -1.
         11    1    3    3    0    0 -0.15834622823E+02  0.52143300492E+00  0.14626316237E+02  0.21562381576E+02  0.51100000000E-03 0. -1.
        -11    1    3    3    0    0 -0.93116193369E+01  0.85002433873E+00 -0.18874824250E+01  0.95389405186E+01  0.51100000000E-03 0.  1.
        -12    1    3    3    0    0 -0.82336097516E+01 -0.17039610070E+02  0.43918560809E+01  0.19427533058E+02  0.00000000000E+00 0.  1.
</event>
<event>
 7    1  0.6462830E-013  0.5052886E+02  0.7816164E-02  0.1300439E+00
        -11   -1    0    0    0    0  0.00000000000E+00  0.00000000000E+00  0.45593999997E+02  0.45594000000E+02  0.51100000000E-03 0. -1.
         11   -1    0    0    0    0 -0.00000000000E+00 -0.00000000000E+00 -0.45593999997E+02  0.45594000000E+02  0.51100000000E-03 0.  1.
    9900012    2    1    2    0    0 -0.33109159190E+02  0.19838357904E+02  0.12782357452E+02  0.50528861684E+02  0.30000005573E+02 0.  0.
         12    1    1    2    0    0  0.33109159190E+02 -0.19838357904E+02 -0.12782357452E+02  0.40659138316E+02  0.00000000000E+00 0. -1.
         11    1    3    3    0    0 -0.21175877508E+02  0.14499078769E+02  0.14004081648E+02  0.29236199760E+02  0.51100000000E-03 0. -1.
        -11    1    3    3    0    0 -0.12717448159E+02 -0.13081596031E+00  0.43537125062E+01  0.13442671362E+02  0.51100000000E-03 0.  1.
         12    1    3    3    0    0  0.78416647623E+00  0.54700950948E+01 -0.55754367014E+01  0.78499905617E+01  0.00000000000E+00 0. -1.
</event>
<event>
 7    1  0.6462830E-013  0.5052887E+02  0.7816164E-02  0.1300439E+00
        -11   -1    0    0    0    0  0.00000000000E+00  0.00000000000E+00  0.45593999997E+02  0.45594000000E+02  0.51100000000E-03 0.  1.
         11   -1    0    0    0    0 -0.00000000000E+00 -0.00000000000E+00 -0.45593999997E+02  0.45594000000E+02  0.51100000000E-03 0. -1.
    9900012    2    1    2    0    0 -0.28657219703E+02 -0.14080813579E+01  0.28808787102E+02  0.50528866358E+02  0.30000019781E+02 0.  0.
         12    1    1    2    0    0  0.28657219703E+02  0.14080813579E+01 -0.28808787102E+02  0.40659133642E+02  0.00000000000E+00 0. -1.
         11    1    3    3    0    0 -0.27146764527E+01 -0.67854128058E+01  0.10122964540E+01  0.73780783108E+01  0.51100000000E-03 0. -1.
        -11    1    3    3    0    0 -0.24464335366E+02 -0.27106828894E+01  0.18871701176E+02  0.31016005742E+02  0.51100000000E-03 0.  1.
         12    1    3    3    0    0 -0.14782078841E+01  0.80880143373E+01  0.89247894724E+01  0.12134782305E+02  0.00000000000E+00 0. -1.
</event>
<event>
 7    1  0.6462830E-013  0.5052886E+02  0.7816164E-02  0.1300439E+00
        -11   -1    0    0    0    0  0.00000000000E+00  0.00000000000E+00  0.45593999997E+02  0.45594000000E+02  0.51100000000E-03 0.  1.
         11   -1    0    0    0    0 -0.00000000000E+00 -0.00000000000E+00 -0.45593999997E+02  0.45594000000E+02  0.51100000000E-03 0. -1.
    9900012    2    1    2    0    0 -0.14280092367E+02  0.37128338108E+02 -0.84101737872E+01  0.50528861399E+02  0.30000004708E+02 0.  0.
         12    1    1    2    0    0  0.14280092367E+02 -0.37128338108E+02  0.84101737872E+01  0.40659138601E+02  0.00000000000E+00 0. -1.
         11    1    3    3    0    0 -0.17386226681E+02  0.13208306773E+02  0.10966654163E+01  0.21861905711E+02  0.51100000000E-03 0. -1.
        -11    1    3    3    0    0  0.92414346064E+00  0.98258218135E+01  0.23210151322E+01  0.10138438092E+02  0.51100000000E-03 0.  1.
         12    1    3    3    0    0  0.21819908534E+01  0.14094209521E+02 -0.11827854336E+02  0.18528517595E+02  0.00000000000E+00 0. -1.
</event>
<event>
 7    1  0.6513821E-013  0.5052886E+02  0.7816164E-02  0.1300439E+00
        -11   -1    0    0    0    0  0.00000000000E+00  0.00000000000E+00  0.45593999997E+02  0.45594000000E+02  0.51100000000E-03 0. -1.
         11   -1    0    0    0    0 -0.00000000000E+00 -0.00000000000E+00 -0.45593999997E+02  0.45594000000E+02  0.51100000000E-03 0.  1.
    9900012    2    1    2    0    0 -0.59836379650E+00 -0.24718104739E+02 -0.32277278010E+02  0.50528863058E+02  0.30000009752E+02 0.  0.
         12    1    1    2    0    0  0.59836379650E+00  0.24718104739E+02  0.32277278010E+02  0.40659136942E+02  0.00000000000E+00 0. -1.
         11    1    3    3    0    0 -0.54797473162E+01 -0.37540741012E+01 -0.24648130427E+01  0.70849140152E+01  0.51100000000E-03 0. -1.
        -11    1    3    3    0    0 -0.55387550121E+01 -0.15272793588E+02 -0.26557901625E+02  0.31132911364E+02  0.51100000000E-03 0.  1.
         12    1    3    3    0    0  0.10420138532E+02 -0.56912370498E+01 -0.32545633426E+01  0.12311037679E+02  0.00000000000E+00 0. -1.
</event>
<event>
 7    1  0.6462830E-013  0.5052885E+02  0.7816164E-02  0.1300439E+00
        -11   -1    0    0    0    0  0.00000000000E+00  0.00000000000E+00  0.45593999997E+02  0.45594000000E+02  0.51100000000E-03 0.  1.
         11   -1    0    0    0    0 -0.00000000000E+00 -0.00000000000E+00 -0.45593999997E+02  0.45594000000E+02  0.51100000000E-03 0. -1.
    9900012    2    1    2    0    0 -0.37026496751E+01  0.17807176105E+02  0.36364284046E+02  0.50528852326E+02  0.29999977130E+02 0.  0.
         12    1    1    2    0    0  0.37026496751E+01 -0.17807176105E+02 -0.36364284046E+02  0.40659147674E+02  0.00000000000E+00 0. -1.
         11    1    3    3    0    0 -0.37734209893E+00  0.30805948789E+01 -0.35785485125E+01  0.47369253303E+01  0.51100000000E-03 0. -1.
        -11    1    3    3    0    0  0.44918053948E+01 -0.11829986029E+01  0.91449245928E+01  0.10256970677E+02  0.51100000000E-03 0.  1.
        -12    1    3    3    0    0 -0.78171129709E+01  0.15909579829E+02  0.30797907965E+02  0.35534956319E+02  0.00000000000E+00 0.  1.
</event>
<event>
 7    1  0.6462830E-013  0.5052886E+02  0.7816164E-02  0.1300439E+00
        -11   -1    0    0    0    0  0.00000000000E+00  0.00000000000E+00  0.45593999997E+02  0.45594000000E+02  0.51100000000E-03 0. -1.
         11   -1    0    0    0    0 -0.00000000000E+00 -0.00000000000E+00 -0.45593999997E+02  0.45594000000E+02  0.51100000000E-03 0.  1.
    9900012    2    1    2    0    0 -0.23463746038E+02 -0.37262552674E+01 -0.32995962728E+02  0.50528856959E+02  0.29999991214E+02 0.  0.
         12    1    1    2    0    0  0.23463746038E+02  0.37262552674E+01  0.32995962728E+02  0.40659143041E+02  0.00000000000E+00 0. -1.
         11    1    3    3    0    0 -0.10078730547E+02 -0.35212972135E+01 -0.35922070506E+01  0.11264292932E+02  0.51100000000E-03 0. -1.
        -11    1    3    3    0    0  0.22929464657E+01 -0.78906419676E+01 -0.12523166415E+02  0.14978302022E+02  0.51100000000E-03 0.  1.
        -12    1    3    3    0    0 -0.15677961957E+02  0.76856839136E+01 -0.16880589262E+02  0.24286262005E+02  0.00000000000E+00 0.  1.
</event>
<event>
 7    1  0.6462830E-013  0.5052886E+02  0.7816164E-02  0.1300439E+00
        -11   -1    0    0    0    0  0.00000000000E+00  0.00000000000E+00  0.45593999997E+02  0.45594000000E+02  0.51100000000E-03 0.  1.
         11   -1    0    0    0    0 -0.00000000000E+00 -0.00000000000E+00 -0.45593999997E+02  0.45594000000E+02  0.51100000000E-03 0. -1.
    9900012    2    1    2    0    0  0.36798472274E+02 -0.10022325484E+02  0.14092229817E+02  0.50528861900E+02  0.30000006232E+02 0.  0.
         12    1    1    2    0    0 -0.36798472274E+02  0.10022325484E+02 -0.14092229817E+02  0.40659138100E+02  0.00000000000E+00 0. -1.
         11    1    3    3    0    0 -0.26159978706E+01  0.73292215013E+00  0.58568075407E+01  0.64562229335E+01  0.51100000000E-03 0. -1.
        -11    1    3    3    0    0  0.83037762622E+01 -0.79269434085E+01  0.54552209629E+01  0.12710175767E+02  0.51100000000E-03 0.  1.
         12    1    3    3    0    0  0.31110693882E+02 -0.28283042257E+01  0.27802013135E+01  0.31362463200E+02  0.00000000000E+00 0. -1.
</event>
<event>
 7    1  0.6462830E-013  0.5052886E+02  0.7816164E-02  0.1300439E+00
        -11   -1    0    0    0    0  0.00000000000E+00  0.00000000000E+00  0.45593999997E+02  0.45594000000E+02  0.51100000000E-03 0. -1.
         11   -1    0    0    0    0 -0.00000000000E+00 -0.00000000000E+00 -0.45593999997E+02  0.45594000000E+02  0.51100000000E-03 0.  1.
    9900012    2    1    2    0    0  0.29383147575E+02 -0.27877849145E+02 -0.35526815078E+01  0.50528863508E+02  0.30000011119E+02 0.  0.
         12    1    1    2    0    0 -0.29383147575E+02  0.27877849145E+02  0.35526815078E+01  0.40659136492E+02  0.00000000000E+00 0. -1.
         11    1    3    3    0    0  0.43756183672E+01 -0.32181889483E+01  0.62410553703E+01  0.82736659709E+01  0.51100000000E-03 0. -1.
        -11    1    3    3    0    0 -0.23365946389E+01 -0.97553718088E+00 -0.52075863083E+01  0.57905356158E+01  0.51100000000E-03 0.  1.
        -12    1    3    3    0    0  0.27344123847E+02 -0.23684123016E+02 -0.45861505698E+01  0.36464661921E+02  0.00000000000E+00 0.  1.
</event>
<event>
 7    1  0.6462830E-013  0.5052885E+02  0.7816164E-02  0.1300439E+00
        -11   -1    0    0    0    0  0.00000000000E+00  0.00000000000E+00  0.45593999997E+02  0.45594000000E+02  0.51100000000E-03 0.  1.
         11   -1    0    0    0    0 -0.00000000000E+00 -0.00000000000E+00 -0.45593999997E+02  0.45594000000E+02  0.51100000000E-03 0. -1.
    9900012    2    1    2    0    0 -0.75539363934E+01  0.27120917377E+02  0.29335304778E+02  0.50528853171E+02  0.29999979699E+02 0.  0.
         12    1    1    2    0    0  0.75539363934E+01 -0.27120917377E+02 -0.29335304778E+02  0.40659146829E+02  0.00000000000E+00 0. -1.
         11    1    3    3    0    0 -0.39176853030E+01 -0.11823050701E+01  0.11622382156E+01  0.42540452917E+01  0.51100000000E-03 0. -1.
        -11    1    3    3    0    0  0.73984160019E+01  0.65045586174E+01  0.12693842085E+01  0.99326320115E+01  0.51100000000E-03 0.  1.
        -12    1    3    3    0    0 -0.11034667092E+02  0.21798663830E+02  0.26903682354E+02  0.36342175868E+02  0.00000000000E+00 0.  1.
</event>
<event>
 7    1  0.6462830E-013  0.5052885E+02  0.7816164E-02  0.1300439E+00
        -11   -1    0    0    0    0  0.00000000000E+00  0.00000000000E+00  0.45593999997E+02  0.45594000000E+02  0.51100000000E-03 0.  1.
         11   -1    0    0    0    0 -0.00000000000E+00 -0.00000000000E+00 -0.45593999997E+02  0.45594000000E+02  0.51100000000E-03 0. -1.
    9900012    2    1    2    0    0  0.24932058620E+02 -0.14234457843E+02  0.28791301484E+02  0.50528851236E+02  0.29999973816E+02 0.  0.
         12    1    1    2    0    0 -0.24932058620E+02  0.14234457843E+02 -0.28791301484E+02  0.40659148764E+02  0.00000000000E+00 0. -1.
         11    1    3    3    0    0 -0.55360247683E+01 -0.28908230637E+01  0.13866028862E+01  0.63974288621E+01  0.51100000000E-03 0. -1.
        -11    1    3    3    0    0  0.96218618709E+01 -0.91223657746E+01  0.13813255987E+02  0.19146901170E+02  0.51100000000E-03 0.  1.
        -12    1    3    3    0    0  0.20846221517E+02 -0.22212690046E+01  0.13591442611E+02  0.24984521204E+02  0.00000000000E+00 0.  1.
</event>
<event>
 7    1  0.6462830E-013  0.5052886E+02  0.7816164E-02  0.1300439E+00
        -11   -1    0    0    0    0  0.00000000000E+00  0.00000000000E+00  0.45593999997E+02  0.45594000000E+02  0.51100000000E-03 0.  1.
         11   -1    0    0    0    0 -0.00000000000E+00 -0.00000000000E+00 -0.45593999997E+02  0.45594000000E+02  0.51100000000E-03 0. -1.
    9900012    2    1    2    0    0 -0.14297159505E+02 -0.32480631251E+02  0.19843520360E+02  0.50528862323E+02  0.30000007516E+02 0.  0.
         12    1    1    2    0    0  0.14297159505E+02  0.32480631251E+02 -0.19843520360E+02  0.40659137677E+02  0.00000000000E+00 0. -1.
         11    1    3    3    0    0  0.32134177393E+01 -0.46838700407E+01  0.85809314558E+01  0.10290630546E+02  0.51100000000E-03 0. -1.
        -11    1    3    3    0    0  0.78453439885E-01 -0.13178498495E+01  0.81966130579E+01  0.83022496379E+01  0.51100000000E-03 0.  1.
        -12    1    3    3    0    0 -0.17589030684E+02 -0.26478911361E+02  0.30659758459E+01  0.31935982139E+02  0.00000000000E+00 0.  1.
</event>
<event>
 7    1  0.6462830E-013  0.5052887E+02  0.7816164E-02  0.1300439E+00
        -11   -1    0    0    0    0  0.00000000000E+00  0.00000000000E+00  0.45593999997E+02  0.45594000000E+02  0.51100000000E-03 0. -1.
         11   -1    0    0    0    0 -0.00000000000E+00 -0.00000000000E+00 -0.45593999997E+02  0.45594000000E+02  0.51100000000E-03 0.  1.
    9900012    2    1    2    0    0 -0.20610820474E+02 -0.34582662484E+02 -0.56919858682E+01  0.50528866116E+02  0.30000019045E+02 0.  0.
         12    1    1    2    0    0  0.20610820474E+02  0.34582662484E+02  0.56919858682E+01  0.40659133884E+02  0.00000000000E+00 0. -1.
         11    1    3    3    0    0 -0.73223334599E+01 -0.10894080769E+00  0.90233797456E+00  0.73785262404E+01  0.51100000000E-03 0. -1.
        -11    1    3    3    0    0  0.22148769115E+01 -0.12910728983E+01 -0.59945151552E+01  0.65197209426E+01  0.51100000000E-03 0.  1.
        -12    1    3    3    0    0 -0.15503363925E+02 -0.33182648778E+02 -0.59980868761E+00  0.36630618933E+02  0.00000000000E+00 0.  1.
</event>
<event>
 7    1  0.6462830E-013  0.5052885E+02  0.7816164E-02  0.1300439E+00
        -11   -1    0    0    0    0  0.00000000000E+00  0.00000000000E+00  0.45593999997E+02  0.45594000000E+02  0.51100000000E-03 0. -1.
         11   -1    0    0    0    0 -0.00000000000E+00 -0.00000000000E+00 -0.45593999997E+02  0.45594000000E+02  0.51100000000E-03 0.  1.
    9900012    2    1    2    0    0 -0.33570312140E+02 -0.20184164619E+02 -0.10899535663E+02  0.50528852982E+02  0.29999979125E+02 0.  0.
         12    1    1    2    0    0  0.33570312140E+02  0.20184164619E+02  0.10899535663E+02  0.40659147018E+02  0.00000000000E+00 0. -1.
         11    1    3    3    0    0  0.25548074081E+01 -0.55084637496E+00 -0.40383224256E+01  0.48102516458E+01  0.51100000000E-03 0. -1.
        -11    1    3    3    0    0 -0.58113169741E+01  0.26357093646E+01  0.26673607636E+01  0.69161537384E+01  0.51100000000E-03 0.  1.
        -12    1    3    3    0    0 -0.30313802574E+02 -0.22269027609E+02 -0.95285740007E+01  0.38802447598E+02  0.00000000000E+00 0.  1.
</event>
<event>
 7    1  0.6462830E-013  0.5052886E+02  0.7816164E-02  0.1300439E+00
        -11   -1    0    0    0    0  0.00000000000E+00  0.00000000000E+00  0.45593999997E+02  0.45594000000E+02  0.51100000000E-03 0.  1.
         11   -1    0    0    0    0 -0.00000000000E+00 -0.00000000000E+00 -0.45593999997E+02  0.45594000000E+02  0.51100000000E-03 0. -1.
    9900012    2    1    2    0    0 -0.22834383797E+02 -0.99685975056E+01  0.32130730099E+02  0.50528857900E+02  0.29999994072E+02 0.  0.
         12    1    1    2    0    0  0.22834383797E+02  0.99685975056E+01 -0.32130730099E+02  0.40659142100E+02  0.00000000000E+00 0. -1.
         11    1    3    3    0    0  0.11881025433E+01 -0.28137191450E+01 -0.20211598022E-01  0.30543431127E+01  0.51100000000E-03 0. -1.
        -11    1    3    3    0    0 -0.18534913787E+02 -0.12273565212E+02  0.10548925569E+02  0.24606163110E+02  0.51100000000E-03 0.  1.
         12    1    3    3    0    0 -0.54875725535E+01  0.51186868513E+01  0.21602016128E+02  0.22868351677E+02  0.00000000000E+00 0. -1.
</event>
<event>
 7    1  0.6462830E-013  0.5052885E+02  0.7816164E-02  0.1300439E+00
        -11   -1    0    0    0    0  0.00000000000E+00  0.00000000000E+00  0.45593999997E+02  0.45594000000E+02  0.51100000000E-03 0.  1.
         11   -1    0    0    0    0 -0.00000000000E+00 -0.00000000000E+00 -0.45593999997E+02  0.45594000000E+02  0.51100000000E-03 0. -1.
    9900012    2    1    2    0    0 -0.75880508095E+00 -0.36134089328E+02  0.18625732715E+02  0.50528854462E+02  0.29999983623E+02 0.  0.
         12    1    1    2    0    0  0.75880508095E+00  0.36134089328E+02 -0.18625732715E+02  0.40659145538E+02  0.00000000000E+00 0. -1.
         11    1    3    3    0    0  0.10062366532E+02 -0.24964642357E+01  0.47234629003E+00  0.10378182171E+02  0.51100000000E-03 0. -1.
        -11    1    3    3    0    0 -0.18765579106E+00 -0.84024674334E+01  0.36482676628E+01  0.91622339451E+01  0.51100000000E-03 0.  1.
         12    1    3    3    0    0 -0.10633515822E+02 -0.25235157659E+02  0.14505118762E+02  0.30988438346E+02  0.00000000000E+00 0. -1.
</event>
<event>
 7    1  0.6462830E-013  0.5052885E+02  0.7816164E-02  0.1300439E+00
        -11   -1    0    0    0    0  0.00000000000E+00  0.00000000000E+00  0.45593999997E+02  0.45594000000E+02  0.51100000000E-03 0.  1.
         11   -1    0    0    0    0 -0.00000000000E+00 -0.00000000000E+00 -0.45593999997E+02  0.45594000000E+02  0.51100000000E-03 0. -1.
    9900012    2    1    2    0    0  0.23134785970E+02  0.33116831691E+02  0.46069168006E+01  0.50528849178E+02  0.29999967563E+02 0.  0.
         12    1    1    2    0    0 -0.23134785970E+02 -0.33116831691E+02 -0.46069168006E+01  0.40659150822E+02  0.00000000000E+00 0. -1.
         11    1    3    3    0    0  0.12942156486E+02  0.16773560059E+02 -0.71075281094E+01  0.22346558743E+02  0.51100000000E-03 0. -1.
        -11    1    3    3    0    0 -0.41801339039E+01  0.46135567539E+00  0.16829849986E+01  0.45297690096E+01  0.51100000000E-03 0.  1.
        -12    1    3    3    0    0  0.14372763388E+02  0.15881915956E+02  0.10031459911E+02  0.23652521426E+02  0.00000000000E+00 0.  1.
</event>
<event>
 7    1  0.6462830E-013  0.5052886E+02  0.7816164E-02  0.1300439E+00
        -11   -1    0    0    0    0  0.00000000000E+00  0.00000000000E+00  0.45593999997E+02  0.45594000000E+02  0.51100000000E-03 0.  1.
         11   -1    0    0    0    0 -0.00000000000E+00 -0.00000000000E+00 -0.45593999997E+02  0.45594000000E+02  0.51100000000E-03 0. -1.
    9900012    2    1    2    0    0 -0.13356186355E+01  0.24063920840E+02  0.32746142690E+02  0.50528855587E+02  0.29999987043E+02 0.  0.
         12    1    1    2    0    0  0.13356186355E+01 -0.24063920840E+02 -0.32746142690E+02  0.40659144413E+02  0.00000000000E+00 0. -1.
         11    1    3    3    0    0  0.76882050960E+01  0.27031640776E+01  0.90178431103E+01  0.12154714651E+02  0.51100000000E-03 0. -1.
        -11    1    3    3    0    0 -0.45113591156E+01 -0.13548217689E+01 -0.64279033282E+00  0.47540596093E+01  0.51100000000E-03 0.  1.
        -12    1    3    3    0    0 -0.45124646159E+01  0.22715578531E+02  0.24371089912E+02  0.33620081327E+02  0.00000000000E+00 0.  1.
</event>
<event>
 7    1  0.6462830E-013  0.5052886E+02  0.7816164E-02  0.1300439E+00
        -11   -1    0    0    0    0  0.00000000000E+00  0.00000000000E+00  0.45593999997E+02  0.45594000000E+02  0.51100000000E-03 0.  1.
         11   -1    0    0    0    0 -0.00000000000E+00 -0.00000000000E+00 -0.45593999997E+02  0.45594000000E+02  0.51100000000E-03 0. -1.
    9900012    2    1    2    0    0  0.39895052562E+02  0.64125218034E+01  0.45199853657E+01  0.50528856840E+02  0.29999990852E+02 0.  0.
         12    1    1    2    0    0 -0.39895052562E+02 -0.64125218034E+01 -0.45199853657E+01  0.40659143160E+02  0.00000000000E+00 0. -1.
         11    1    3    3    0    0  0.39405203529E+01  0.56316983813E+01 -0.29751344893E+01  0.74896697391E+01  0.51100000000E-03 0. -1.
        -11    1    3    3    0    0  0.21201067544E+02 -0.28179787291E+01 -0.65354432866E+01  0.22363771783E+02  0.51100000000E-03 0.  1.
        -12    1    3    3    0    0  0.14753464665E+02  0.35988021511E+01  0.14030563142E+02  0.20675415319E+02  0.00000000000E+00 0.  1.
</event>
<event>
 7    1  0.6462830E-013  0.5052890E+02  0.7816164E-02  0.1300439E+00
        -11   -1    0    0    0    0  0.00000000000E+00  0.00000000000E+00  0.45593999997E+02  0.45594000000E+02  0.51100000000E-03 0. -1.
         11   -1    0    0    0    0 -0.00000000000E+00 -0.00000000000E+00 -0.45593999997E+02  0.45594000000E+02  0.51100000000E-03 0.  1.
    9900012    2    1    2    0    0 -0.31660990476E+02  0.20748914106E+02 -0.14840031647E+02  0.50528901464E+02  0.30000126490E+02 0.  0.
         12    1    1    2    0    0  0.31660990476E+02 -0.20748914106E+02  0.14840031647E+02  0.40659098536E+02  0.00000000000E+00 0. -1.
         11    1    3    3    0    0 -0.69189953851E+01  0.15644511148E+02 -0.78633245819E+00  0.17124296926E+02  0.51100000000E-03 0. -1.
        -11    1    3    3    0    0 -0.40869376317E+01  0.60970860530E+01  0.15464824159E+01  0.75012749361E+01  0.51100000000E-03 0.  1.
        -12    1    3    3    0    0 -0.20655057459E+02 -0.99268309570E+00 -0.15600181605E+02  0.25903329602E+02  0.00000000000E+00 0.  1.
</event>
<event>
 7    1  0.6462830E-013  0.5052887E+02  0.7816164E-02  0.1300439E+00
        -11   -1    0    0    0    0  0.00000000000E+00  0.00000000000E+00  0.45593999997E+02  0.45594000000E+02  0.51100000000E-03 0.  1.
         11   -1    0    0    0    0 -0.00000000000E+00 -0.00000000000E+00 -0.45593999997E+02  0.45594000000E+02  0.51100000000E-03 0. -1.
    9900012    2    1    2    0    0  0.61835030458E+01 -0.23992907931E+00  0.40185469123E+02  0.50528865670E+02  0.30000017689E+02 0.  0.
         12    1    1    2    0    0 -0.61835030458E+01  0.23992907931E+00 -0.40185469123E+02  0.40659134330E+02  0.00000000000E+00 0. -1.
         11    1    3    3    0    0  0.88718937487E+00 -0.60070607584E+01  0.40663599845E+01  0.73080207804E+01  0.51100000000E-03 0. -1.
        -11    1    3    3    0    0 -0.81785372807E+01 -0.12773996431E+01  0.98282004974E+01  0.12849659419E+02  0.51100000000E-03 0.  1.
         12    1    3    3    0    0  0.13474850952E+02  0.70445313222E+01  0.26290908641E+02  0.30371185470E+02  0.00000000000E+00 0. -1.
</event>
<event>
 7    1  0.6462830E-013  0.5052886E+02  0.7816164E-02  0.1300439E+00
        -11   -1    0    0    0    0  0.00000000000E+00  0.00000000000E+00  0.45593999997E+02  0.45594000000E+02  0.51100000000E-03 0.  1.
         11   -1    0    0    0    0 -0.00000000000E+00 -0.00000000000E+00 -0.45593999997E+02  0.45594000000E+02  0.51100000000E-03 0. -1.
    9900012    2    1    2    0    0  0.59377687812E+01 -0.26967773962E+02  0.29843719990E+02  0.50528861379E+02  0.30000004648E+02 0.  0.
         12    1    1    2    0    0 -0.59377687812E+01  0.26967773962E+02 -0.29843719990E+02  0.40659138621E+02  0.00000000000E+00 0. -1.
         11    1    3    3    0    0  0.17954381244E+01 -0.13392146712E+01 -0.24901463008E+01  0.33493167743E+01  0.51100000000E-03 0. -1.
        -11    1    3    3    0    0 -0.57734748442E+01 -0.12946868571E+02  0.26506675343E+02  0.30059245759E+02  0.51100000000E-03 0.  1.
         12    1    3    3    0    0  0.99158055010E+01 -0.12681690719E+02  0.58271909479E+01  0.17120298846E+02  0.00000000000E+00 0. -1.
</event>
<event>
 7    1  0.6462830E-013  0.5052886E+02  0.7816164E-02  0.1300439E+00
        -11   -1    0    0    0    0  0.00000000000E+00  0.00000000000E+00  0.45593999997E+02  0.45594000000E+02  0.51100000000E-03 0. -1.
         11   -1    0    0    0    0 -0.00000000000E+00 -0.00000000000E+00 -0.45593999997E+02  0.45594000000E+02  0.51100000000E-03 0.  1.
    9900012    2    1    2    0    0  0.13209020457E+01 -0.26128790286E+02 -0.31124065570E+02  0.50528856851E+02  0.29999990883E+02 0.  0.
         12    1    1    2    0    0 -0.13209020457E+01  0.26128790286E+02  0.31124065570E+02  0.40659143149E+02  0.00000000000E+00 0. -1.
         11    1    3    3    0    0  0.45931576377E+01 -0.16200581448E+02 -0.12398655875E+02  0.20911303262E+02  0.51100000000E-03 0. -1.
        -11    1    3    3    0    0  0.55026160474E+01 -0.11276512307E+02 -0.55262442782E+01  0.13710502881E+02  0.51100000000E-03 0.  1.
        -12    1    3    3    0    0 -0.87748716393E+01  0.13483034683E+01 -0.13199165416E+02  0.15907050708E+02  0.00000000000E+00 0.  1.
</event>
<event>
 7    1  0.7130489E-013  0.5052887E+02  0.7816164E-02  0.1300439E+00
        -11   -1    0    0    0    0  0.00000000000E+00  0.00000000000E+00  0.45593999997E+02  0.45594000000E+02  0.51100000000E-03 0.  1.
         11   -1    0    0    0    0 -0.00000000000E+00 -0.00000000000E+00 -0.45593999997E+02  0.45594000000E+02  0.51100000000E-03 0. -1.
    9900012    2    1    2    0    0 -0.34635388498E+02  0.20281781152E+02 -0.64964819167E+01  0.50528867442E+02  0.30000023077E+02 0.  0.
         12    1    1    2    0    0  0.34635388498E+02 -0.20281781152E+02  0.64964819167E+01  0.40659132558E+02  0.00000000000E+00 0. -1.
         11    1    3    3    0    0  0.27522125840E+01 -0.10132357786E+01  0.88857673935E+00  0.30644558625E+01  0.51100000000E-03 0. -1.
        -11    1    3    3    0    0 -0.21136077911E+02  0.68026425109E+01  0.45029624920E+01  0.22655824992E+02  0.51100000000E-03 0.  1.
         12    1    3    3    0    0 -0.16251523171E+02  0.14492374419E+02 -0.11888021148E+02  0.24808586588E+02  0.00000000000E+00 0. -1.
</event>
<event>
 7    1  0.7774273E-013  0.5052886E+02  0.7816164E-02  0.1300439E+00
        -11   -1    0    0    0    0  0.00000000000E+00  0.00000000000E+00  0.45593999997E+02  0.45594000000E+02  0.51100000000E-03 0.  1.
         11   -1    0    0    0    0 -0.00000000000E+00 -0.00000000000E+00 -0.45593999997E+02  0.45594000000E+02  0.51100000000E-03 0. -1.
    9900012    2    1    2    0    0  0.14528086838E+02  0.36536358707E+02  0.10353507787E+02  0.50528856646E+02  0.29999990262E+02 0.  0.
         12    1    1    2    0    0 -0.14528086838E+02 -0.36536358707E+02 -0.10353507787E+02  0.40659143354E+02  0.00000000000E+00 0. -1.
         11    1    3    3    0    0  0.38767204956E+01  0.15335286618E+02 -0.44119125106E+01  0.16421478305E+02  0.51100000000E-03 0. -1.
        -11    1    3    3    0    0  0.15671092909E+02  0.14884999300E+02  0.14515816428E+02  0.26035654091E+02  0.51100000000E-03 0.  1.
         12    1    3    3    0    0 -0.50197265664E+01  0.63160727895E+01  0.24960386952E+00  0.80717242504E+01  0.00000000000E+00 0. -1.
</event>
<event>
 7    1  0.6462830E-013  0.5052886E+02  0.7816164E-02  0.1300439E+00
        -11   -1    0    0    0    0  0.00000000000E+00  0.00000000000E+00  0.45593999997E+02  0.45594000000E+02  0.51100000000E-03 0. -1.
         11   -1    0    0    0    0 -0.00000000000E+00 -0.00000000000E+00 -0.45593999997E+02  0.45594000000E+02  0.51100000000E-03 0.  1.
    9900012    2    1    2    0    0  0.15307069505E+02 -0.35103193762E+02  0.13661076645E+02  0.50528860754E+02  0.30000002748E+02 0.  0.
         12    1    1    2    0    0 -0.15307069505E+02  0.35103193762E+02 -0.13661076645E+02  0.40659139246E+02  0.00000000000E+00 0. -1.
         11    1    3    3    0    0  0.15570638777E+02 -0.13588826190E+02  0.13525393423E+02  0.24698932298E+02  0.51100000000E-03 0. -1.
        -11    1    3    3    0    0  0.29375103095E+01 -0.16506220801E+02  0.56801108598E+01  0.17701636975E+02  0.51100000000E-03 0.  1.
         12    1    3    3    0    0 -0.32010795810E+01 -0.50081467715E+01 -0.55444276384E+01  0.81282914814E+01  0.00000000000E+00 0. -1.
</event>
<event>
 7    1  0.1105992E-012  0.5052886E+02  0.7816164E-02  0.1300439E+00
        -11   -1    0    0    0    0  0.00000000000E+00  0.00000000000E+00  0.45593999997E+02  0.45594000000E+02  0.51100000000E-03 0. -1.
         11   -1    0    0    0    0 -0.00000000000E+00 -0.00000000000E+00 -0.45593999997E+02  0.45594000000E+02  0.51100000000E-03 0.  1.
    9900012    2    1    2    0    0  0.23074002887E+02  0.24708116956E+01 -0.33386396501E+02  0.50528855998E+02  0.29999988291E+02 0.  0.
         12    1    1    2    0    0 -0.23074002887E+02 -0.24708116956E+01  0.33386396501E+02  0.40659144002E+02  0.00000000000E+00 0. -1.
         11    1    3    3    0    0  0.95319887150E+01  0.10413277719E+02 -0.15248622780E+02  0.20780174655E+02  0.51100000000E-03 0.  1.
        -11    1    3    3    0    0  0.13529852638E+02 -0.11180747512E+00 -0.17166995813E+02  0.21858068506E+02  0.51100000000E-03 0. -1.
         12    1    3    3    0    0  0.12161533449E-01 -0.78306585482E+01 -0.97077790821E+00  0.78906128373E+01  0.00000000000E+00 0. -1.
</event>
<event>
 7    1  0.6462830E-013  0.5052886E+02  0.7816164E-02  0.1300439E+00
        -11   -1    0    0    0    0  0.00000000000E+00  0.00000000000E+00  0.45593999997E+02  0.45594000000E+02  0.51100000000E-03 0. -1.
         11   -1    0    0    0    0 -0.00000000000E+00 -0.00000000000E+00 -0.45593999997E+02  0.45594000000E+02  0.51100000000E-03 0.  1.
    9900012    2    1    2    0    0 -0.39172476736E+02 -0.93986353114E+01 -0.55089496829E+01  0.50528858273E+02  0.29999995207E+02 0.  0.
         12    1    1    2    0    0  0.39172476736E+02  0.93986353114E+01  0.55089496829E+01  0.40659141727E+02  0.00000000000E+00 0. -1.
         11    1    3    3    0    0  0.24504283785E+01 -0.36268955239E+01  0.24722490831E+01  0.50270255788E+01  0.51100000000E-03 0. -1.
        -11    1    3    3    0    0 -0.18983337329E+02 -0.10373720581E+02 -0.26739397289E+01  0.21797502811E+02  0.51100000000E-03 0.  1.
        -12    1    3    3    0    0 -0.22639567786E+02  0.46019807938E+01 -0.53072590371E+01  0.23704329884E+02  0.00000000000E+00 0.  1.
</event>
<event>
 7    1  0.6462830E-013  0.5052887E+02  0.7816164E-02  0.1300439E+00
        -11   -1    0    0    0    0  0.00000000000E+00  0.00000000000E+00  0.45593999997E+02  0.45594000000E+02  0.51100000000E-03 0. -1.
         11   -1    0    0    0    0 -0.00000000000E+00 -0.00000000000E+00 -0.45593999997E+02  0.45594000000E+02  0.51100000000E-03 0.  1.
    9900012    2    1    2    0    0  0.27450653346E+02 -0.13046416496E+02 -0.27007736761E+02  0.50528865756E+02  0.30000017952E+02 0.  0.
         12    1    1    2    0    0 -0.27450653346E+02  0.13046416496E+02  0.27007736761E+02  0.40659134244E+02  0.00000000000E+00 0. -1.
         11    1    3    3    0    0  0.20545297608E+02 -0.18393168959E+01 -0.12301711776E+02  0.24017169969E+02  0.51100000000E-03 0. -1.
        -11    1    3    3    0    0  0.41154276736E+01 -0.12630796314E+01  0.35213455940E+01  0.55616535441E+01  0.51100000000E-03 0.  1.
         12    1    3    3    0    0  0.27899280648E+01 -0.99440199689E+01 -0.18227370579E+02  0.20950042243E+02  0.00000000000E+00 0. -1.
</event>
<event>
 7    1  0.6462830E-013  0.5052886E+02  0.7816164E-02  0.1300439E+00
        -11   -1    0    0    0    0  0.00000000000E+00  0.00000000000E+00  0.45593999997E+02  0.45594000000E+02  0.51100000000E-03 0. -1.
         11   -1    0    0    0    0 -0.00000000000E+00 -0.00000000000E+00 -0.45593999997E+02  0.45594000000E+02  0.51100000000E-03 0.  1.
    9900012    2    1    2    0    0  0.31876967182E+02 -0.24861005930E+02 -0.43537482898E+01  0.50528858632E+02  0.29999996298E+02 0.  0.
         12    1    1    2    0    0 -0.31876967182E+02  0.24861005930E+02  0.43537482898E+01  0.40659141368E+02  0.00000000000E+00 0. -1.
         11    1    3    3    0    0  0.98637434714E+00 -0.47976463720E+01  0.34259963378E+01  0.59772733108E+01  0.51100000000E-03 0. -1.
        -11    1    3    3    0    0  0.19663235554E+02 -0.24440811814E+02 -0.84357564583E+01  0.32483197223E+02  0.51100000000E-03 0.  1.
        -12    1    3    3    0    0  0.11227357281E+02  0.43774522554E+01  0.65601183066E+00  0.12068388098E+02  0.00000000000E+00 0.  1.
</event>
<event>
 7    1  0.6462830E-013  0.5052886E+02  0.7816164E-02  0.1300439E+00
        -11   -1    0    0    0    0  0.00000000000E+00  0.00000000000E+00  0.45593999997E+02  0.45594000000E+02  0.51100000000E-03 0.  1.
         11   -1    0    0    0    0 -0.00000000000E+00 -0.00000000000E+00 -0.45593999997E+02  0.45594000000E+02  0.51100000000E-03 0. -1.
    9900012    2    1    2    0    0  0.11994592564E+02  0.29714076636E+02  0.25027361713E+02  0.50528862830E+02  0.30000009059E+02 0.  0.
         12    1    1    2    0    0 -0.11994592564E+02 -0.29714076636E+02 -0.25027361713E+02  0.40659137170E+02  0.00000000000E+00 0. -1.
         11    1    3    3    0    0  0.10109561250E+02  0.14743466201E+01  0.62589899764E+01  0.11981313885E+02  0.51100000000E-03 0. -1.
        -11    1    3    3    0    0  0.83304060087E+01  0.12456719700E+02  0.29133980156E+01  0.15266087194E+02  0.51100000000E-03 0.  1.
        -12    1    3    3    0    0 -0.64453746948E+01  0.15783010316E+02  0.15854973721E+02  0.23281461751E+02  0.00000000000E+00 0.  1.
</event>
<event>
 7    1  0.6462830E-013  0.5052886E+02  0.7816164E-02  0.1300439E+00
        -11   -1    0    0    0    0  0.00000000000E+00  0.00000000000E+00  0.45593999997E+02  0.45594000000E+02  0.51100000000E-03 0.  1.
         11   -1    0    0    0    0 -0.00000000000E+00 -0.00000000000E+00 -0.45593999997E+02  0.45594000000E+02  0.51100000000E-03 0. -1.
    9900012    2    1    2    0    0  0.35137290184E+02  0.20102229558E+02  0.37995929243E+01  0.50528859563E+02  0.29999999127E+02 0.  0.
         12    1    1    2    0    0 -0.35137290184E+02 -0.20102229558E+02 -0.37995929243E+01  0.40659140437E+02  0.00000000000E+00 0. -1.
         11    1    3    3    0    0  0.20392439543E+01 -0.94574629273E+00  0.53951446786E+01  0.58447017306E+01  0.51100000000E-03 0. -1.
        -11    1    3    3    0    0 -0.18911245617E+01  0.36161905866E+01 -0.37385385233E+01  0.55344247233E+01  0.51100000000E-03 0.  1.
        -12    1    3    3    0    0  0.34989170792E+02  0.17431785264E+02  0.21429867690E+01  0.39149733109E+02  0.00000000000E+00 0.  1.
</event>
<event>
 7    1  0.6462830E-013  0.5052885E+02  0.7816164E-02  0.1300439E+00
        -11   -1    0    0    0    0  0.00000000000E+00  0.00000000000E+00  0.45593999997E+02  0.45594000000E+02  0.51100000000E-03 0.  1.
         11   -1    0    0    0    0 -0.00000000000E+00 -0.00000000000E+00 -0.45593999997E+02  0.45594000000E+02  0.51100000000E-03 0. -1.
    9900012    2    1    2    0    0  0.20773390857E+02 -0.33917204360E+02  0.84413124005E+01  0.50528852514E+02  0.29999977700E+02 0.  0.
         12    1    1    2    0    0 -0.20773390857E+02  0.33917204360E+02 -0.84413124005E+01  0.40659147486E+02  0.00000000000E+00 0. -1.
         11    1    3    3    0    0  0.65698261343E+00 -0.54841435142E+01 -0.68424552821E-01  0.55237793601E+01  0.51100000000E-03 0. -1.
        -11    1    3    3    0    0  0.16979859261E+02 -0.44290028636E+01 -0.36362991267E+01  0.17920780074E+02  0.51100000000E-03 0.  1.
        -12    1    3    3    0    0  0.31365489826E+01 -0.24004057982E+02  0.12146036080E+02  0.27084293079E+02  0.00000000000E+00 0.  1.
</event>
<event>
 7    1  0.6462830E-013  0.5052886E+02  0.7816164E-02  0.1300439E+00
        -11   -1    0    0    0    0  0.00000000000E+00  0.00000000000E+00  0.45593999997E+02  0.45594000000E+02  0.51100000000E-03 0.  1.
         11   -1    0    0    0    0 -0.00000000000E+00 -0.00000000000E+00 -0.45593999997E+02  0.45594000000E+02  0.51100000000E-03 0. -1.
    9900012    2    1    2    0    0 -0.85486231572E+01 -0.31660618338E+02 -0.24035222454E+02  0.50528860439E+02  0.30000001790E+02 0.  0.
         12    1    1    2    0    0  0.85486231572E+01  0.31660618338E+02  0.24035222454E+02  0.40659139561E+02  0.00000000000E+00 0. -1.
         11    1    3    3    0    0  0.24444190479E+01  0.23494735336E+01 -0.10717775469E+02  0.11241259788E+02  0.51100000000E-03 0. -1.
        -11    1    3    3    0    0 -0.28387802133E+01 -0.19729362816E+02 -0.38136644929E+01  0.20294099323E+02  0.51100000000E-03 0.  1.
        -12    1    3    3    0    0 -0.81542619917E+01 -0.14280729056E+02 -0.95037824925E+01  0.18993501327E+02  0.00000000000E+00 0.  1.
</event>
<event>
 7    1  0.6462830E-013  0.5052887E+02  0.7816164E-02  0.1300439E+00
        -11   -1    0    0    0    0  0.00000000000E+00  0.00000000000E+00  0.45593999997E+02  0.45594000000E+02  0.51100000000E-03 0. -1.
         11   -1    0    0    0    0 -0.00000000000E+00 -0.00000000000E+00 -0.45593999997E+02  0.45594000000E+02  0.51100000000E-03 0.  1.
    9900012    2    1    2    0    0  0.38984518314E+02  0.88060631696E+01  0.74716176023E+01  0.50528874501E+02  0.30000044534E+02 0.  0.
         12    1    1    2    0    0 -0.38984518314E+02 -0.88060631696E+01 -0.74716176023E+01  0.40659125499E+02  0.00000000000E+00 0. -1.
         11    1    3    3    0    0  0.39290333491E+01 -0.74098621390E+01 -0.10878528485E+01  0.84573508890E+01  0.51100000000E-03 0.  1.
        -11    1    3    3    0    0  0.13825508523E+02  0.43891280735E+01  0.10171227987E+02  0.17716179334E+02  0.51100000000E-03 0. -1.
        -12    1    3    3    0    0  0.21229976442E+02  0.11826797235E+02 -0.16117575363E+01  0.24355344279E+02  0.00000000000E+00 0.  1.
</event>
<event>
 7    1  0.6462830E-013  0.5052888E+02  0.7816164E-02  0.1300439E+00
        -11   -1    0    0    0    0  0.00000000000E+00  0.00000000000E+00  0.45593999997E+02  0.45594000000E+02  0.51100000000E-03 0. -1.
         11   -1    0    0    0    0 -0.00000000000E+00 -0.00000000000E+00 -0.45593999997E+02  0.45594000000E+02  0.51100000000E-03 0.  1.
    9900012    2    1    2    0    0 -0.21986641124E+02 -0.18104566602E+02 -0.29016826279E+02  0.50528881379E+02  0.30000065438E+02 0.  0.
         12    1    1    2    0    0  0.21986641124E+02  0.18104566602E+02  0.29016826279E+02  0.40659118621E+02  0.00000000000E+00 0. -1.
         11    1    3    3    0    0 -0.86959793153E+00 -0.28818690391E-01 -0.61404551530E+01  0.62017917433E+01  0.51100000000E-03 0. -1.
        -11    1    3    3    0    0 -0.15276785671E+02 -0.21165395753E+02 -0.26154436819E+02  0.36951437366E+02  0.51100000000E-03 0.  1.
         12    1    3    3    0    0 -0.58402575214E+01  0.30896478419E+01  0.32780656932E+01  0.73756522689E+01  0.00000000000E+00 0. -1.
</event>
<event>
 7    1  0.6462830E-013  0.5052886E+02  0.7816164E-02  0.1300439E+00
        -11   -1    0    0    0    0  0.00000000000E+00  0.00000000000E+00  0.45593999997E+02  0.45594000000E+02  0.51100000000E-03 0.  1.
         11   -1    0    0    0    0 -0.00000000000E+00 -0.00000000000E+00 -0.45593999997E+02  0.45594000000E+02  0.51100000000E-03 0. -1.
    9900012    2    1    2    0    0  0.23908528789E+02  0.30838735159E+02  0.11424539454E+02  0.50528862813E+02  0.30000009007E+02 0.  0.
         12    1    1    2    0    0 -0.23908528789E+02 -0.30838735159E+02 -0.11424539454E+02  0.40659137187E+02  0.00000000000E+00 0. -1.
         11    1    3    3    0    0 -0.33454387233E+01  0.11182161541E+02 -0.37527531078E+01  0.12260336583E+02  0.51100000000E-03 0. -1.
        -11    1    3    3    0    0  0.55172513518E+01  0.29906672800E+01 -0.11511118604E+01  0.63803771076E+01  0.51100000000E-03 0.  1.
        -12    1    3    3    0    0  0.21736716160E+02  0.16665906338E+02  0.16328404423E+02  0.31888149123E+02  0.00000000000E+00 0.  1.
</event>
<event>
 7    1  0.6462830E-013  0.5052886E+02  0.7816164E-02  0.1300439E+00
        -11   -1    0    0    0    0  0.00000000000E+00  0.00000000000E+00  0.45593999997E+02  0.45594000000E+02  0.51100000000E-03 0.  1.
         11   -1    0    0    0    0 -0.00000000000E+00 -0.00000000000E+00 -0.45593999997E+02  0.45594000000E+02  0.51100000000E-03 0. -1.
    9900012    2    1    2    0    0  0.39964029411E+02  0.67687251402E+01  0.31978801211E+01  0.50528859280E+02  0.29999998268E+02 0.  0.
         12    1    1    2    0    0 -0.39964029411E+02 -0.67687251402E+01 -0.31978801211E+01  0.40659140720E+02  0.00000000000E+00 0. -1.
         11    1    3    3    0    0  0.79699412146E+01  0.57278981603E+01 -0.60022318178E+01  0.11504588969E+02  0.51100000000E-03 0. -1.
        -11    1    3    3    0    0  0.16574928581E+02  0.10700411475E+02  0.46912645965E+01  0.20278930617E+02  0.51100000000E-03 0.  1.
         12    1    3    3    0    0  0.15419159616E+02 -0.96595844953E+01  0.45088473424E+01  0.18745339694E+02  0.00000000000E+00 0. -1.
</event>
<event>
 7    1  0.6462830E-013  0.5052884E+02  0.7816164E-02  0.1300439E+00
        -11   -1    0    0    0    0  0.00000000000E+00  0.00000000000E+00  0.45593999997E+02  0.45594000000E+02  0.51100000000E-03 0.  1.
         11   -1    0    0    0    0 -0.00000000000E+00 -0.00000000000E+00 -0.45593999997E+02  0.45594000000E+02  0.51100000000E-03 0. -1.
    9900012    2    1    2    0    0  0.34291788590E+02  0.14717624470E+02  0.16144095250E+02  0.50528843021E+02  0.29999948847E+02 0.  0.
         12    1    1    2    0    0 -0.34291788590E+02 -0.14717624470E+02 -0.16144095250E+02  0.40659156979E+02  0.00000000000E+00 0. -1.
         11    1    3    3    0    0  0.38541513567E+01 -0.67093872384E+01  0.65831887540E+01  0.10159169958E+02  0.51100000000E-03 0. -1.
        -11    1    3    3    0    0  0.11619551259E+02  0.14730480278E+01  0.40559552900E+01  0.12394943144E+02  0.51100000000E-03 0.  1.
         12    1    3    3    0    0  0.18818085974E+02  0.19953963680E+02  0.55049512064E+01  0.27974729920E+02  0.00000000000E+00 0. -1.
</event>
<event>
 7    1  0.6462830E-013  0.5052886E+02  0.7816164E-02  0.1300439E+00
        -11   -1    0    0    0    0  0.00000000000E+00  0.00000000000E+00  0.45593999997E+02  0.45594000000E+02  0.51100000000E-03 0. -1.
         11   -1    0    0    0    0 -0.00000000000E+00 -0.00000000000E+00 -0.45593999997E+02  0.45594000000E+02  0.51100000000E-03 0.  1.
    9900012    2    1    2    0    0  0.14596043497E+02  0.78423942175E+01 -0.37129745125E+02  0.50528860734E+02  0.30000002686E+02 0.  0.
         12    1    1    2    0    0 -0.14596043497E+02 -0.78423942175E+01  0.37129745125E+02  0.40659139266E+02  0.00000000000E+00 0. -1.
         11    1    3    3    0    0  0.12471413783E+02  0.77743606081E+01 -0.83630779311E+01  0.16909107527E+02  0.51100000000E-03 0. -1.
        -11    1    3    3    0    0 -0.29739634234E+00  0.12276709134E+01  0.22000109541E+01  0.25368620213E+01  0.51100000000E-03 0.  1.
        -12    1    3    3    0    0  0.24220260555E+01 -0.11596373039E+01 -0.30966678148E+02  0.31082891185E+02  0.00000000000E+00 0.  1.
</event>
<event>
 7    1  0.1312867E-012  0.5052887E+02  0.7816164E-02  0.1300439E+00
        -11   -1    0    0    0    0  0.00000000000E+00  0.00000000000E+00  0.45593999997E+02  0.45594000000E+02  0.51100000000E-03 0. -1.
         11   -1    0    0    0    0 -0.00000000000E+00 -0.00000000000E+00 -0.45593999997E+02  0.45594000000E+02  0.51100000000E-03 0.  1.
    9900012    2    1    2    0    0 -0.89300500159E+01  0.13005882124E+01 -0.39645024070E+02  0.50528865031E+02  0.30000015747E+02 0.  0.
         12    1    1    2    0    0  0.89300500159E+01 -0.13005882124E+01  0.39645024070E+02  0.40659134969E+02  0.00000000000E+00 0. -1.
         11    1    3    3    0    0  0.74789178412E+01 -0.36508723428E+01 -0.82751759926E+01  0.11736337542E+02  0.51100000000E-03 0. -1.
        -11    1    3    3    0    0 -0.21026416584E+01  0.34527096457E+01 -0.20144920104E+02  0.20546535282E+02  0.51100000000E-03 0.  1.
         12    1    3    3    0    0 -0.14306326199E+02  0.14987509095E+01 -0.11224927973E+02  0.18245992206E+02  0.00000000000E+00 0. -1.
</event>
<event>
 7    1  0.6462830E-013  0.5052888E+02  0.7816164E-02  0.1300439E+00
        -11   -1    0    0    0    0  0.00000000000E+00  0.00000000000E+00  0.45593999997E+02  0.45594000000E+02  0.51100000000E-03 0. -1.
         11   -1    0    0    0    0 -0.00000000000E+00 -0.00000000000E+00 -0.45593999997E+02  0.45594000000E+02  0.51100000000E-03 0.  1.
    9900012    2    1    2    0    0  0.55877123221E+01 -0.29967540101E+02 -0.26905170292E+02  0.50528878304E+02  0.30000056091E+02 0.  0.
         12    1    1    2    0    0 -0.55877123221E+01  0.29967540101E+02  0.26905170292E+02  0.40659121696E+02  0.00000000000E+00 0. -1.
         11    1    3    3    0    0  0.19215262021E+00 -0.10473519979E+02 -0.28700026415E+01  0.10861328593E+02  0.51100000000E-03 0. -1.
        -11    1    3    3    0    0  0.14641397136E+02 -0.15904571428E+02 -0.15800979493E+02  0.26776796963E+02  0.51100000000E-03 0.  1.
        -12    1    3    3    0    0 -0.92458374343E+01 -0.35894486941E+01 -0.82341881576E+01  0.12890752748E+02  0.00000000000E+00 0.  1.
</event>
<event>
 7    1  0.6462830E-013  0.5052886E+02  0.7816164E-02  0.1300439E+00
        -11   -1    0    0    0    0  0.00000000000E+00  0.00000000000E+00  0.45593999997E+02  0.45594000000E+02  0.51100000000E-03 0. -1.
         11   -1    0    0    0    0 -0.00000000000E+00 -0.00000000000E+00 -0.45593999997E+02  0.45594000000E+02  0.51100000000E-03 0.  1.
    9900012    2    1    2    0    0 -0.64098454988E+01 -0.26342208547E+02 -0.30301284248E+02  0.50528857147E+02  0.29999991784E+02 0.  0.
         12    1    1    2    0    0  0.64098454988E+01  0.26342208547E+02  0.30301284248E+02  0.40659142853E+02  0.00000000000E+00 0. -1.
         11    1    3    3    0    0  0.29264471113E+01 -0.13391173897E+02 -0.13483197322E+01  0.13773365507E+02  0.51100000000E-03 0. -1.
        -11    1    3    3    0    0 -0.10695106638E+02 -0.13906470243E+02 -0.16150216067E+02  0.23845433523E+02  0.51100000000E-03 0.  1.
         12    1    3    3    0    0  0.13588140282E+01  0.95543559268E+00 -0.12802748449E+02  0.12910058117E+02  0.00000000000E+00 0. -1.
</event>
<event>
 7    1  0.6462830E-013  0.5052885E+02  0.7816164E-02  0.1300439E+00
        -11   -1    0    0    0    0  0.00000000000E+00  0.00000000000E+00  0.45593999997E+02  0.45594000000E+02  0.51100000000E-03 0.  1.
         11   -1    0    0    0    0 -0.00000000000E+00 -0.00000000000E+00 -0.45593999997E+02  0.45594000000E+02  0.51100000000E-03 0. -1.
    9900012    2    1    2    0    0 -0.50827649837E+01 -0.34244375277E+02  0.21322629097E+02  0.50528852818E+02  0.29999978624E+02 0.  0.
         12    1    1    2    0    0  0.50827649837E+01  0.34244375277E+02 -0.21322629097E+02  0.40659147182E+02  0.00000000000E+00 0. -1.
         11    1    3    3    0    0 -0.21390579167E+01 -0.18386358881E+01  0.50133307726E+01  0.57523592027E+01  0.51100000000E-03 0. -1.
        -11    1    3    3    0    0 -0.22283859423E+01 -0.33792967230E+02  0.20989219426E+02  0.39843163410E+02  0.51100000000E-03 0.  1.
         12    1    3    3    0    0 -0.71532112472E+00  0.13872278406E+01 -0.46799211021E+01  0.49333302053E+01  0.00000000000E+00 0. -1.
</event>
<event>
 7    1  0.6462830E-013  0.5052885E+02  0.7816164E-02  0.1300439E+00
        -11   -1    0    0    0    0  0.00000000000E+00  0.00000000000E+00  0.45593999997E+02  0.45594000000E+02  0.51100000000E-03 0. -1.
         11   -1    0    0    0    0 -0.00000000000E+00 -0.00000000000E+00 -0.45593999997E+02  0.45594000000E+02  0.51100000000E-03 0.  1.
    9900012    2    1    2    0    0 -0.21826783101E+02 -0.34156997600E+02 -0.31713548701E+01  0.50528850509E+02  0.29999971607E+02 0.  0.
         12    1    1    2    0    0  0.21826783101E+02  0.34156997600E+02  0.31713548701E+01  0.40659149491E+02  0.00000000000E+00 0. -1.
         11    1    3    3    0    0  0.13114769112E+01  0.28683388707E+01 -0.48383314462E+01  0.57755338290E+01  0.51100000000E-03 0. -1.
        -11    1    3    3    0    0 -0.49474588250E+01 -0.16192366926E+02 -0.10448074349E+01  0.16963540855E+02  0.51100000000E-03 0.  1.
        -12    1    3    3    0    0 -0.18190801188E+02 -0.20832969545E+02  0.27117840110E+01  0.27789775825E+02  0.00000000000E+00 0.  1.
</event>
<event>
 7    1  0.6462830E-013  0.5052888E+02  0.7816164E-02  0.1300439E+00
        -11   -1    0    0    0    0  0.00000000000E+00  0.00000000000E+00  0.45593999997E+02  0.45594000000E+02  0.51100000000E-03 0.  1.
         11   -1    0    0    0    0 -0.00000000000E+00 -0.00000000000E+00 -0.45593999997E+02  0.45594000000E+02  0.51100000000E-03 0. -1.
    9900012    2    1    2    0    0  0.25052372817E+02 -0.23137516907E+02  0.22140407684E+02  0.50528883867E+02  0.30000073001E+02 0.  0.
         12    1    1    2    0    0 -0.25052372817E+02  0.23137516907E+02 -0.22140407684E+02  0.40659116133E+02  0.00000000000E+00 0. -1.
         11    1    3    3    0    0  0.90855616980E+01  0.13633515648E+01  0.79090228004E+01  0.12122656507E+02  0.51100000000E-03 0. -1.
        -11    1    3    3    0    0  0.35254807288E+01 -0.69830784442E+01  0.14988065070E+02  0.16906640522E+02  0.51100000000E-03 0.  1.
        -12    1    3    3    0    0  0.12441330390E+02 -0.17517790027E+02 -0.75668018695E+00  0.21499586838E+02  0.00000000000E+00 0.  1.
</event>
<event>
 7    1  0.9622485E-013  0.5052886E+02  0.7816164E-02  0.1300439E+00
        -11   -1    0    0    0    0  0.00000000000E+00  0.00000000000E+00  0.45593999997E+02  0.45594000000E+02  0.51100000000E-03 0.  1.
         11   -1    0    0    0    0 -0.00000000000E+00 -0.00000000000E+00 -0.45593999997E+02  0.45594000000E+02  0.51100000000E-03 0. -1.
    9900012    2    1    2    0    0  0.18053809904E+02  0.35133427847E+02 -0.96368051727E+01  0.50528858122E+02  0.29999994746E+02 0.  0.
         12    1    1    2    0    0 -0.18053809904E+02 -0.35133427847E+02  0.96368051727E+01  0.40659141878E+02  0.00000000000E+00 0. -1.
         11    1    3    3    0    0  0.34269961168E+01  0.20790312848E+02 -0.88898987613E+00  0.21089611518E+02  0.51100000000E-03 0. -1.
        -11    1    3    3    0    0  0.11895986537E+02  0.18913785448E+02 -0.90484606971E+01  0.24106439325E+02  0.51100000000E-03 0.  1.
         12    1    3    3    0    0  0.27308272501E+01 -0.45706704486E+01  0.30064540056E+00  0.53328072792E+01  0.00000000000E+00 0. -1.
</event>
<event>
 7    1  0.6476582E-013  0.5052885E+02  0.7816164E-02  0.1300439E+00
        -11   -1    0    0    0    0  0.00000000000E+00  0.00000000000E+00  0.45593999997E+02  0.45594000000E+02  0.51100000000E-03 0.  1.
         11   -1    0    0    0    0 -0.00000000000E+00 -0.00000000000E+00 -0.45593999997E+02  0.45594000000E+02  0.51100000000E-03 0. -1.
    9900012    2    1    2    0    0 -0.33947031869E+02  0.17320620175E+02  0.14169044452E+02  0.50528847566E+02  0.29999962661E+02 0.  0.
         12    1    1    2    0    0  0.33947031869E+02 -0.17320620175E+02 -0.14169044452E+02  0.40659152434E+02  0.00000000000E+00 0. -1.
         11    1    3    3    0    0 -0.26599823768E+01  0.97722694998E+01 -0.68969676229E+00  0.10151277718E+02  0.51100000000E-03 0. -1.
        -11    1    3    3    0    0 -0.20129029101E+02  0.12883173814E+02  0.14602969643E+02  0.28007154492E+02  0.51100000000E-03 0.  1.
         12    1    3    3    0    0 -0.11158020391E+02 -0.53348231391E+01  0.25577157075E+00  0.12370415356E+02  0.00000000000E+00 0. -1.
</event>
<event>
 7    1  0.6462830E-013  0.5052886E+02  0.7816164E-02  0.1300439E+00
        -11   -1    0    0    0    0  0.00000000000E+00  0.00000000000E+00  0.45593999997E+02  0.45594000000E+02  0.51100000000E-03 0. -1.
         11   -1    0    0    0    0 -0.00000000000E+00 -0.00000000000E+00 -0.45593999997E+02  0.45594000000E+02  0.51100000000E-03 0.  1.
    9900012    2    1    2    0    0  0.20036291541E+02 -0.10493453732E+02 -0.33787570279E+02  0.50528862586E+02  0.30000008315E+02 0.  0.
         12    1    1    2    0    0 -0.20036291541E+02  0.10493453732E+02  0.33787570279E+02  0.40659137414E+02  0.00000000000E+00 0. -1.
         11    1    3    3    0    0  0.11001596997E+02  0.63487788518E+01 -0.22148562900E+02  0.25532351403E+02  0.51100000000E-03 0. -1.
        -11    1    3    3    0    0  0.52165396511E+01 -0.75122885290E+00 -0.10935676106E+01  0.53826128508E+01  0.51100000000E-03 0.  1.
        -12    1    3    3    0    0  0.38181548922E+01 -0.16091003731E+02 -0.10545439769E+02  0.19613898331E+02  0.00000000000E+00 0.  1.
</event>
<event>
 7    1  0.6462830E-013  0.5052886E+02  0.7816164E-02  0.1300439E+00
        -11   -1    0    0    0    0  0.00000000000E+00  0.00000000000E+00  0.45593999997E+02  0.45594000000E+02  0.51100000000E-03 0.  1.
         11   -1    0    0    0    0 -0.00000000000E+00 -0.00000000000E+00 -0.45593999997E+02  0.45594000000E+02  0.51100000000E-03 0. -1.
    9900012    2    1    2    0    0 -0.15791313827E+02 -0.37259307421E+02  0.39425813122E+01  0.50528861675E+02  0.30000005548E+02 0.  0.
         12    1    1    2    0    0  0.15791313827E+02  0.37259307421E+02 -0.39425813122E+01  0.40659138325E+02  0.00000000000E+00 0. -1.
         11    1    3    3    0    0 -0.58785774230E+01 -0.67395780055E+00 -0.28519877546E+01  0.65685406331E+01  0.51100000000E-03 0. -1.
        -11    1    3    3    0    0 -0.91532251994E+01 -0.35600092721E+01 -0.14119906960E+01  0.99221426897E+01  0.51100000000E-03 0.  1.
        -12    1    3    3    0    0 -0.75951120444E+00 -0.33025340349E+02  0.82065597627E+01  0.34038178353E+02  0.00000000000E+00 0.  1.
</event>
<event>
 7    1  0.6462830E-013  0.5052888E+02  0.7816164E-02  0.1300439E+00
        -11   -1    0    0    0    0  0.00000000000E+00  0.00000000000E+00  0.45593999997E+02  0.45594000000E+02  0.51100000000E-03 0. -1.
         11   -1    0    0    0    0 -0.00000000000E+00 -0.00000000000E+00 -0.45593999997E+02  0.45594000000E+02  0.51100000000E-03 0.  1.
    9900012    2    1    2    0    0  0.10809852431E+02  0.38961540757E+02 -0.42789969164E+01  0.50528875780E+02  0.30000048422E+02 0.  0.
         12    1    1    2    0    0 -0.10809852431E+02 -0.38961540757E+02  0.42789969164E+01  0.40659124220E+02  0.00000000000E+00 0. -1.
         11    1    3    3    0    0  0.47137667237E+01  0.19530276412E+01  0.30127062257E+01  0.59253955780E+01  0.51100000000E-03 0. -1.
        -11    1    3    3    0    0  0.13010422721E+02  0.15037790805E+02 -0.83019848683E+01  0.21548299345E+02  0.51100000000E-03 0.  1.
        -12    1    3    3    0    0 -0.69143370137E+01  0.21970722311E+02  0.10102817262E+01  0.23055180857E+02  0.00000000000E+00 0.  1.
</event>
<event>
 7    1  0.6462830E-013  0.5052887E+02  0.7816164E-02  0.1300439E+00
        -11   -1    0    0    0    0  0.00000000000E+00  0.00000000000E+00  0.45593999997E+02  0.45594000000E+02  0.51100000000E-03 0.  1.
         11   -1    0    0    0    0 -0.00000000000E+00 -0.00000000000E+00 -0.45593999997E+02  0.45594000000E+02  0.51100000000E-03 0. -1.
    9900012    2    1    2    0    0 -0.18611373409E+02  0.20895525080E+02  0.29498457119E+02  0.50528866205E+02  0.30000019316E+02 0.  0.
         12    1    1    2    0    0  0.18611373409E+02 -0.20895525080E+02 -0.29498457119E+02  0.40659133795E+02  0.00000000000E+00 0. -1.
         11    1    3    3    0    0 -0.35615023159E+01  0.10668526045E+02  0.90868558942E+01  0.14459346355E+02  0.51100000000E-03 0. -1.
        -11    1    3    3    0    0 -0.10237104548E+02 -0.62727735156E+01  0.11844683952E+02  0.16865424255E+02  0.51100000000E-03 0.  1.
         12    1    3    3    0    0 -0.48127665451E+01  0.16499772551E+02  0.85669172732E+01  0.19204095595E+02  0.00000000000E+00 0. -1.
</event>
<event>
 7    1  0.6462830E-013  0.5052886E+02  0.7816164E-02  0.1300439E+00
        -11   -1    0    0    0    0  0.00000000000E+00  0.00000000000E+00  0.45593999997E+02  0.45594000000E+02  0.51100000000E-03 0.  1.
         11   -1    0    0    0    0 -0.00000000000E+00 -0.00000000000E+00 -0.45593999997E+02  0.45594000000E+02  0.51100000000E-03 0. -1.
    9900012    2    1    2    0    0  0.13659133824E+02  0.33061808360E+02  0.19326419904E+02  0.50528860620E+02  0.30000002340E+02 0.  0.
         12    1    1    2    0    0 -0.13659133824E+02 -0.33061808360E+02 -0.19326419904E+02  0.40659139380E+02  0.00000000000E+00 0. -1.
         11    1    3    3    0    0  0.17415506624E+01 -0.24267049416E+00 -0.13140848760E+01  0.21951553477E+01  0.51100000000E-03 0. -1.
        -11    1    3    3    0    0  0.54724610227E+01  0.35938262334E+02  0.14814644606E+02  0.39255320968E+02  0.51100000000E-03 0.  1.
         12    1    3    3    0    0  0.64451221387E+01 -0.26337834804E+01  0.58258601739E+01  0.90783843040E+01  0.00000000000E+00 0. -1.
</event>
<event>
 7    1  0.6462830E-013  0.5052885E+02  0.7816164E-02  0.1300439E+00
        -11   -1    0    0    0    0  0.00000000000E+00  0.00000000000E+00  0.45593999997E+02  0.45594000000E+02  0.51100000000E-03 0.  1.
         11   -1    0    0    0    0 -0.00000000000E+00 -0.00000000000E+00 -0.45593999997E+02  0.45594000000E+02  0.51100000000E-03 0. -1.
    9900012    2    1    2    0    0 -0.54445443949E+01 -0.36775385867E+02 -0.16464954831E+02  0.50528845964E+02  0.29999957794E+02 0.  0.
         12    1    1    2    0    0  0.54445443949E+01  0.36775385867E+02  0.16464954831E+02  0.40659154036E+02  0.00000000000E+00 0. -1.
         11    1    3    3    0    0 -0.11858350979E+02 -0.28306568818E+02 -0.21880339373E+02  0.37691266595E+02  0.51100000000E-03 0. -1.
        -11    1    3    3    0    0  0.12895881618E+01 -0.39741645009E+01  0.75514704749E-01  0.41788424042E+01  0.51100000000E-03 0.  1.
         12    1    3    3    0    0  0.51242184224E+01 -0.44946525475E+01  0.53398698368E+01  0.86587369655E+01  0.00000000000E+00 0. -1.
</event>
<event>
 7    1  0.6462830E-013  0.5052886E+02  0.7816164E-02  0.1300439E+00
        -11   -1    0    0    0    0  0.00000000000E+00  0.00000000000E+00  0.45593999997E+02  0.45594000000E+02  0.51100000000E-03 0.  1.
         11   -1    0    0    0    0 -0.00000000000E+00 -0.00000000000E+00 -0.45593999997E+02  0.45594000000E+02  0.51100000000E-03 0. -1.
    9900012    2    1    2    0    0 -0.13606906587E+02 -0.36100841013E+02 -0.12835370241E+02  0.50528863783E+02  0.30000011954E+02 0.  0.
         12    1    1    2    0    0  0.13606906587E+02  0.36100841013E+02  0.12835370241E+02  0.40659136217E+02  0.00000000000E+00 0. -1.
         11    1    3    3    0    0 -0.10453470128E+02 -0.22077876749E+02  0.53561150192E+01  0.25007911704E+02  0.51100000000E-03 0. -1.
        -11    1    3    3    0    0 -0.34585856794E+01  0.10472820712E-02 -0.16483786888E+01  0.38313142081E+01  0.51100000000E-03 0.  1.
         12    1    3    3    0    0  0.30514922061E+00 -0.14024011546E+02 -0.16543106572E+02  0.21689637870E+02  0.00000000000E+00 0. -1.
</event>
<event>
 7    1  0.6462830E-013  0.5052886E+02  0.7816164E-02  0.1300439E+00
        -11   -1    0    0    0    0  0.00000000000E+00  0.00000000000E+00  0.45593999997E+02  0.45594000000E+02  0.51100000000E-03 0.  1.
         11   -1    0    0    0    0 -0.00000000000E+00 -0.00000000000E+00 -0.45593999997E+02  0.45594000000E+02  0.51100000000E-03 0. -1.
    9900012    2    1    2    0    0  0.82918745058E+01  0.26429975079E+02  0.29763510665E+02  0.50528864094E+02  0.30000012901E+02 0.  0.
         12    1    1    2    0    0 -0.82918745058E+01 -0.26429975079E+02 -0.29763510665E+02  0.40659135906E+02  0.00000000000E+00 0. -1.
         11    1    3    3    0    0 -0.52785680363E+01  0.10044937460E+02  0.10364491045E+02  0.15368367642E+02  0.51100000000E-03 0.  1.
        -11    1    3    3    0    0  0.14903704928E+02  0.13367968374E+02  0.22854498800E+02  0.30383401960E+02  0.51100000000E-03 0. -1.
         12    1    3    3    0    0 -0.13332623855E+01  0.30170692446E+01 -0.34554791805E+01  0.47770944917E+01  0.00000000000E+00 0. -1.
</event>
<event>
 7    1  0.6462830E-013  0.5052887E+02  0.7816164E-02  0.1300439E+00
        -11   -1    0    0    0    0  0.00000000000E+00  0.00000000000E+00  0.45593999997E+02  0.45594000000E+02  0.51100000000E-03 0.  1.
         11   -1    0    0    0    0 -0.00000000000E+00 -0.00000000000E+00 -0.45593999997E+02  0.45594000000E+02  0.51100000000E-03 0. -1.
    9900012    2    1    2    0    0  0.15981481271E+02 -0.17262214942E+02  0.33162831427E+02  0.50528865767E+02  0.30000017986E+02 0.  0.
         12    1    1    2    0    0 -0.15981481271E+02  0.17262214942E+02 -0.33162831427E+02  0.40659134233E+02  0.00000000000E+00 0. -1.
         11    1    3    3    0    0  0.17374222747E-01 -0.13851740305E+01 -0.25747053038E+01  0.29237162347E+01  0.51100000000E-03 0. -1.
        -11    1    3    3    0    0  0.66898118743E+00  0.47587421451E+01  0.10726076872E+02  0.11753377725E+02  0.51100000000E-03 0.  1.
         12    1    3    3    0    0  0.15295125861E+02 -0.20635783057E+02  0.25011459859E+02  0.35851771807E+02  0.00000000000E+00 0. -1.
</event>
<event>
 7    1  0.6462830E-013  0.5052886E+02  0.7816164E-02  0.1300439E+00
        -11   -1    0    0    0    0  0.00000000000E+00  0.00000000000E+00  0.45593999997E+02  0.45594000000E+02  0.51100000000E-03 0.  1.
         11   -1    0    0    0    0 -0.00000000000E+00 -0.00000000000E+00 -0.45593999997E+02  0.45594000000E+02  0.51100000000E-03 0. -1.
    9900012    2    1    2    0    0  0.29952028333E+02  0.20185846375E+02 -0.18670110914E+02  0.50528862814E+02  0.30000009010E+02 0.  0.
         12    1    1    2    0    0 -0.29952028333E+02 -0.20185846375E+02  0.18670110914E+02  0.40659137186E+02  0.00000000000E+00 0. -1.
         11    1    3    3    0    0  0.76372264510E+01 -0.42485085966E+00 -0.11491293933E+02  0.13804258859E+02  0.51100000000E-03 0. -1.
        -11    1    3    3    0    0  0.18184677987E+02  0.12861108995E+02 -0.13372064642E+02  0.25978890491E+02  0.51100000000E-03 0.  1.
        -12    1    3    3    0    0  0.41301238957E+01  0.77495882395E+01  0.61932476612E+01  0.10745713465E+02  0.00000000000E+00 0.  1.
</event>
<event>
 7    1  0.6462830E-013  0.5052886E+02  0.7816164E-02  0.1300439E+00
        -11   -1    0    0    0    0  0.00000000000E+00  0.00000000000E+00  0.45593999997E+02  0.45594000000E+02  0.51100000000E-03 0.  1.
         11   -1    0    0    0    0 -0.00000000000E+00 -0.00000000000E+00 -0.45593999997E+02  0.45594000000E+02  0.51100000000E-03 0. -1.
    9900012    2    1    2    0    0  0.18597928654E+02  0.69674259700E+01  0.35478692607E+02  0.50528860757E+02  0.30000002756E+02 0.  0.
         12    1    1    2    0    0 -0.18597928654E+02 -0.69674259700E+01 -0.35478692607E+02  0.40659139243E+02  0.00000000000E+00 0. -1.
         11    1    3    3    0    0  0.82193809761E+01  0.22865335843E+01  0.15607924699E+01  0.86730924622E+01  0.51100000000E-03 0. -1.
        -11    1    3    3    0    0  0.17077508079E+02  0.16169060610E+01  0.24105995298E+02  0.29586393444E+02  0.51100000000E-03 0.  1.
        -12    1    3    3    0    0 -0.66989604016E+01  0.30639863247E+01  0.98119048393E+01  0.12269374851E+02  0.00000000000E+00 0.  1.
</event>
<event>
 7    1  0.6462830E-013  0.5052886E+02  0.7816164E-02  0.1300439E+00
        -11   -1    0    0    0    0  0.00000000000E+00  0.00000000000E+00  0.45593999997E+02  0.45594000000E+02  0.51100000000E-03 0.  1.
         11   -1    0    0    0    0 -0.00000000000E+00 -0.00000000000E+00 -0.45593999997E+02  0.45594000000E+02  0.51100000000E-03 0. -1.
    9900012    2    1    2    0    0  0.15019227305E+01  0.16717202534E+02  0.37033022929E+02  0.50528863023E+02  0.30000009644E+02 0.  0.
         12    1    1    2    0    0 -0.15019227305E+01 -0.16717202534E+02 -0.37033022929E+02  0.40659136977E+02  0.00000000000E+00 0. -1.
         11    1    3    3    0    0 -0.44487400898E+01 -0.33426069657E+01  0.71701993940E+01  0.90761263392E+01  0.51100000000E-03 0. -1.
        -11    1    3    3    0    0  0.74988337023E+01  0.27268474961E+00  0.14598929977E+02  0.16414494223E+02  0.51100000000E-03 0.  1.
        -12    1    3    3    0    0 -0.15481708819E+01  0.19787124750E+02  0.15263893558E+02  0.25038242460E+02  0.00000000000E+00 0.  1.
</event>
<event>
 7    1  0.6462830E-013  0.5052886E+02  0.7816164E-02  0.1300439E+00
        -11   -1    0    0    0    0  0.00000000000E+00  0.00000000000E+00  0.45593999997E+02  0.45594000000E+02  0.51100000000E-03 0.  1.
         11   -1    0    0    0    0 -0.00000000000E+00 -0.00000000000E+00 -0.45593999997E+02  0.45594000000E+02  0.51100000000E-03 0. -1.
    9900012    2    1    2    0    0  0.14678083069E+02 -0.20154546993E+02  0.32117185948E+02  0.50528861786E+02  0.30000005885E+02 0.  0.
         12    1    1    2    0    0 -0.14678083069E+02  0.20154546993E+02 -0.32117185948E+02  0.40659138214E+02  0.00000000000E+00 0. -1.
         11    1    3    3    0    0  0.19613944228E+02 -0.12893480540E+02  0.21797828690E+02  0.32032701798E+02  0.51100000000E-03 0. -1.
        -11    1    3    3    0    0  0.92339576162E+00 -0.30413131108E+00  0.92920098846E+01  0.93427299834E+01  0.51100000000E-03 0.  1.
        -12    1    3    3    0    0 -0.58592569204E+01 -0.69569351420E+01  0.10273473732E+01  0.91534300049E+01  0.00000000000E+00 0.  1.
</event>
<event>
 7    1  0.6462830E-013  0.5052885E+02  0.7816164E-02  0.1300439E+00
        -11   -1    0    0    0    0  0.00000000000E+00  0.00000000000E+00  0.45593999997E+02  0.45594000000E+02  0.51100000000E-03 0. -1.
         11   -1    0    0    0    0 -0.00000000000E+00 -0.00000000000E+00 -0.45593999997E+02  0.45594000000E+02  0.51100000000E-03 0.  1.
    9900012    2    1    2    0    0 -0.91530085062E-01 -0.14887906456E+02 -0.37835273951E+02  0.50528854763E+02  0.29999984539E+02 0.  0.
         12    1    1    2    0    0  0.91530085062E-01  0.14887906456E+02  0.37835273951E+02  0.40659145237E+02  0.00000000000E+00 0. -1.
         11    1    3    3    0    0 -0.46666425775E+01 -0.10150249668E+02 -0.73266837418E+01  0.13359843419E+02  0.51100000000E-03 0. -1.
        -11    1    3    3    0    0 -0.76530106391E+01 -0.39102933184E+01 -0.92182807622E+01  0.12603002267E+02  0.51100000000E-03 0.  1.
        -12    1    3    3    0    0  0.12228123132E+02 -0.82736346982E+00 -0.21290309447E+02  0.24566009077E+02  0.00000000000E+00 0.  1.
</event>
<event>
 7    1  0.6462830E-013  0.5052886E+02  0.7816164E-02  0.1300439E+00
        -11   -1    0    0    0    0  0.00000000000E+00  0.00000000000E+00  0.45593999997E+02  0.45594000000E+02  0.51100000000E-03 0.  1.
         11   -1    0    0    0    0 -0.00000000000E+00 -0.00000000000E+00 -0.45593999997E+02  0.45594000000E+02  0.51100000000E-03 0. -1.
    9900012    2    1    2    0    0  0.34376670877E+02 -0.38306647453E+01  0.21371392695E+02  0.50528856887E+02  0.29999990993E+02 0.  0.
         12    1    1    2    0    0 -0.34376670877E+02  0.38306647453E+01 -0.21371392695E+02  0.40659143113E+02  0.00000000000E+00 0. -1.
         11    1    3    3    0    0  0.20579791498E+02 -0.63510887979E+01  0.43727835163E+01  0.21976928424E+02  0.51100000000E-03 0. -1.
        -11    1    3    3    0    0  0.15994859396E+02 -0.32979780584E+01  0.14532794843E+02  0.21861251396E+02  0.51100000000E-03 0.  1.
        -12    1    3    3    0    0 -0.21979800170E+01  0.58184021110E+01  0.24658143357E+01  0.66906770673E+01  0.00000000000E+00 0.  1.
</event>
<event>
 7    1  0.6462830E-013  0.5052886E+02  0.7816164E-02  0.1300439E+00
        -11   -1    0    0    0    0  0.00000000000E+00  0.00000000000E+00  0.45593999997E+02  0.45594000000E+02  0.51100000000E-03 0.  1.
         11   -1    0    0    0    0 -0.00000000000E+00 -0.00000000000E+00 -0.45593999997E+02  0.45594000000E+02  0.51100000000E-03 0. -1.
    9900012    2    1    2    0    0 -0.20896796718E+02 -0.29025898435E+02 -0.19338747017E+02  0.50528855528E+02  0.29999986861E+02 0.  0.
         12    1    1    2    0    0  0.20896796718E+02  0.29025898435E+02  0.19338747017E+02  0.40659144472E+02  0.00000000000E+00 0. -1.
         11    1    3    3    0    0 -0.63602182726E+01 -0.18865064475E+01 -0.11912688080E+02  0.13635373871E+02  0.51100000000E-03 0. -1.
        -11    1    3    3    0    0  0.44606179202E+01 -0.54269977917E+01  0.28523488936E+00  0.70307024161E+01  0.51100000000E-03 0.  1.
        -12    1    3    3    0    0 -0.18997196366E+02 -0.21712394196E+02 -0.77112938261E+01  0.29862779240E+02  0.00000000000E+00 0.  1.
</event>
<event>
 7    1  0.6462830E-013  0.5052888E+02  0.7816164E-02  0.1300439E+00
        -11   -1    0    0    0    0  0.00000000000E+00  0.00000000000E+00  0.45593999997E+02  0.45594000000E+02  0.51100000000E-03 0.  1.
         11   -1    0    0    0    0 -0.00000000000E+00 -0.00000000000E+00 -0.45593999997E+02  0.45594000000E+02  0.51100000000E-03 0. -1.
    9900012    2    1    2    0    0 -0.17278519036E+02 -0.17559615964E+02  0.32346207050E+02  0.50528875029E+02  0.30000046139E+02 0.  0.
         12    1    1    2    0    0  0.17278519036E+02  0.17559615964E+02 -0.32346207050E+02  0.40659124971E+02  0.00000000000E+00 0. -1.
         11    1    3    3    0    0 -0.36984101201E+00  0.56846829530E+01  0.41109453161E+01  0.70251173871E+01  0.51100000000E-03 0.  1.
        -11    1    3    3    0    0 -0.61673402030E+01 -0.54647106673E+01 -0.25605926373E+00  0.82440714738E+01  0.51100000000E-03 0. -1.
         12    1    3    3    0    0 -0.10741337821E+02 -0.17779588250E+02  0.28491320997E+02  0.35259686168E+02  0.00000000000E+00 0. -1.
</event>
<event>
 7    1  0.6462830E-013  0.5052887E+02  0.7816164E-02  0.1300439E+00
        -11   -1    0    0    0    0  0.00000000000E+00  0.00000000000E+00  0.45593999997E+02  0.45594000000E+02  0.51100000000E-03 0.  1.
         11   -1    0    0    0    0 -0.00000000000E+00 -0.00000000000E+00 -0.45593999997E+02  0.45594000000E+02  0.51100000000E-03 0. -1.
    9900012    2    1    2    0    0 -0.27986383895E+01  0.62185115716E+01  0.40083200843E+02  0.50528865076E+02  0.30000015884E+02 0.  0.
         12    1    1    2    0    0  0.27986383895E+01 -0.62185115716E+01 -0.40083200843E+02  0.40659134924E+02  0.00000000000E+00 0. -1.
         11    1    3    3    0    0 -0.28731421192E+01 -0.39426382498E+01  0.20125054738E+02  0.20707901160E+02  0.51100000000E-03 0. -1.
        -11    1    3    3    0    0  0.57985271911E+01  0.53553082484E+01  0.20849901987E+02  0.22293960105E+02  0.51100000000E-03 0.  1.
         12    1    3    3    0    0 -0.57240234614E+01  0.48058415730E+01 -0.89175588193E+00  0.75270038105E+01  0.00000000000E+00 0. -1.
</event>
<event>
 7    1  0.6462830E-013  0.5052885E+02  0.7816164E-02  0.1300439E+00
        -11   -1    0    0    0    0  0.00000000000E+00  0.00000000000E+00  0.45593999997E+02  0.45594000000E+02  0.51100000000E-03 0. -1.
         11   -1    0    0    0    0 -0.00000000000E+00 -0.00000000000E+00 -0.45593999997E+02  0.45594000000E+02  0.51100000000E-03 0.  1.
    9900012    2    1    2    0    0  0.18512807396E+02 -0.35315190715E+02 -0.79548319142E+01  0.50528854858E+02  0.29999984826E+02 0.  0.
         12    1    1    2    0    0 -0.18512807396E+02  0.35315190715E+02  0.79548319142E+01  0.40659145142E+02  0.00000000000E+00 0. -1.
         11    1    3    3    0    0 -0.28594633730E+01 -0.10071116990E+02 -0.89044943623E+01  0.13743869481E+02  0.51100000000E-03 0. -1.
        -11    1    3    3    0    0  0.61804284828E+01 -0.16535924654E+02 -0.49042126904E+01  0.18321730344E+02  0.51100000000E-03 0.  1.
         12    1    3    3    0    0  0.15191842286E+02 -0.87081490702E+01  0.58538751385E+01  0.18463255033E+02  0.00000000000E+00 0. -1.
</event>
<event>
 7    1  0.6462830E-013  0.5052891E+02  0.7816164E-02  0.1300439E+00
        -11   -1    0    0    0    0  0.00000000000E+00  0.00000000000E+00  0.45593999997E+02  0.45594000000E+02  0.51100000000E-03 0. -1.
         11   -1    0    0    0    0 -0.00000000000E+00 -0.00000000000E+00 -0.45593999997E+02  0.45594000000E+02  0.51100000000E-03 0.  1.
    9900012    2    1    2    0    0 -0.23936105215E+02 -0.17035181844E+02 -0.28107419604E+02  0.50528910116E+02  0.30000152789E+02 0.  0.
         12    1    1    2    0    0  0.23936105215E+02  0.17035181844E+02  0.28107419604E+02  0.40659089884E+02  0.00000000000E+00 0. -1.
         11    1    3    3    0    0  0.48101034215E+01 -0.17350072962E+01 -0.10901303900E+01  0.52283582290E+01  0.51100000000E-03 0. -1.
        -11    1    3    3    0    0 -0.47070313970E+01  0.24386404644E+01 -0.89047882508E+01  0.10363318288E+02  0.51100000000E-03 0.  1.
        -12    1    3    3    0    0 -0.24039177240E+02 -0.17738815012E+02 -0.18112500963E+02  0.34937233599E+02  0.00000000000E+00 0.  1.
</event>
<event>
 7    1  0.6462830E-013  0.5052885E+02  0.7816164E-02  0.1300439E+00
        -11   -1    0    0    0    0  0.00000000000E+00  0.00000000000E+00  0.45593999997E+02  0.45594000000E+02  0.51100000000E-03 0. -1.
         11   -1    0    0    0    0 -0.00000000000E+00 -0.00000000000E+00 -0.45593999997E+02  0.45594000000E+02  0.51100000000E-03 0.  1.
    9900012    2    1    2    0    0  0.37638015608E+02  0.17843668498E+01 -0.15276196099E+02  0.50528851568E+02  0.29999974827E+02 0.  0.
         12    1    1    2    0    0 -0.37638015608E+02 -0.17843668498E+01  0.15276196099E+02  0.40659148432E+02  0.00000000000E+00 0. -1.
         11    1    3    3    0    0  0.81818554949E+01  0.54521152603E+01  0.25871498455E+01  0.10166693894E+02  0.51100000000E-03 0. -1.
        -11    1    3    3    0    0  0.31175048239E+02 -0.16495851563E+01 -0.11159619812E+02  0.33153308711E+02  0.51100000000E-03 0.  1.
        -12    1    3    3    0    0 -0.17188881262E+01 -0.20181632543E+01 -0.67037261328E+01  0.72088489632E+01  0.00000000000E+00 0.  1.
</event>
<event>
 7    1  0.6462830E-013  0.5052880E+02  0.7816164E-02  0.1300439E+00
        -11   -1    0    0    0    0  0.00000000000E+00  0.00000000000E+00  0.45593999997E+02  0.45594000000E+02  0.51100000000E-03 0. -1.
         11   -1    0    0    0    0 -0.00000000000E+00 -0.00000000000E+00 -0.45593999997E+02  0.45594000000E+02  0.51100000000E-03 0.  1.
    9900012    2    1    2    0    0 -0.17856387747E+02 -0.45479831202E+01 -0.36244117776E+02  0.50528796772E+02  0.29999808267E+02 0.  0.
         12    1    1    2    0    0  0.17856387747E+02  0.45479831202E+01  0.36244117776E+02  0.40659203228E+02  0.00000000000E+00 0. -1.
         11    1    3    3    0    0 -0.23156655252E+01 -0.49632991686E+00  0.37233007487E+01  0.44126657405E+01  0.51100000000E-03 0. -1.
        -11    1    3    3    0    0 -0.11505223697E+02  0.12079406619E+01 -0.95982858224E+01  0.15031845660E+02  0.51100000000E-03 0.  1.
         12    1    3    3    0    0 -0.40354985243E+01 -0.52595938653E+01 -0.30369132702E+02  0.31084285371E+02  0.00000000000E+00 0. -1.
</event>
<event>
 7    1  0.6462830E-013  0.5052887E+02  0.7816164E-02  0.1300439E+00
        -11   -1    0    0    0    0  0.00000000000E+00  0.00000000000E+00  0.45593999997E+02  0.45594000000E+02  0.51100000000E-03 0.  1.
         11   -1    0    0    0    0 -0.00000000000E+00 -0.00000000000E+00 -0.45593999997E+02  0.45594000000E+02  0.51100000000E-03 0. -1.
    9900012    2    1    2    0    0  0.32987366317E+02 -0.15480915427E+02  0.18037185799E+02  0.50528866333E+02  0.30000019707E+02 0.  0.
         12    1    1    2    0    0 -0.32987366317E+02  0.15480915427E+02 -0.18037185799E+02  0.40659133667E+02  0.00000000000E+00 0. -1.
         11    1    3    3    0    0  0.26092866129E+01  0.24247683116E+01 -0.18321470506E+01  0.40055762469E+01  0.51100000000E-03 0. -1.
        -11    1    3    3    0    0  0.20624977318E+02 -0.17089292786E+02  0.29101215895E+01  0.26942576440E+02  0.51100000000E-03 0.  1.
         12    1    3    3    0    0  0.97531023859E+01 -0.81639095223E+00  0.16959211260E+02  0.19580713646E+02  0.00000000000E+00 0. -1.
</event>
<event>
 7    1  0.6462830E-013  0.5052886E+02  0.7816164E-02  0.1300439E+00
        -11   -1    0    0    0    0  0.00000000000E+00  0.00000000000E+00  0.45593999997E+02  0.45594000000E+02  0.51100000000E-03 0. -1.
         11   -1    0    0    0    0 -0.00000000000E+00 -0.00000000000E+00 -0.45593999997E+02  0.45594000000E+02  0.51100000000E-03 0.  1.
    9900012    2    1    2    0    0  0.39792439490E+02 -0.81307486179E+01 -0.19022578143E+01  0.50528857136E+02  0.29999991751E+02 0.  0.
         12    1    1    2    0    0 -0.39792439490E+02  0.81307486179E+01  0.19022578143E+01  0.40659142864E+02  0.00000000000E+00 0. -1.
         11    1    3    3    0    0  0.29946776292E+02 -0.15024208786E+02 -0.16324077456E+01  0.33544016086E+02  0.51100000000E-03 0.  1.
        -11    1    3    3    0    0 -0.13548291587E+01  0.23530220814E+00 -0.33278502461E+01  0.36007661269E+01  0.51100000000E-03 0. -1.
        -12    1    3    3    0    0  0.11200492357E+02  0.66581579596E+01  0.30580001774E+01  0.13384074923E+02  0.00000000000E+00 0.  1.
</event>
<event>
 7    1  0.6462830E-013  0.5052885E+02  0.7816164E-02  0.1300439E+00
        -11   -1    0    0    0    0  0.00000000000E+00  0.00000000000E+00  0.45593999997E+02  0.45594000000E+02  0.51100000000E-03 0.  1.
         11   -1    0    0    0    0 -0.00000000000E+00 -0.00000000000E+00 -0.45593999997E+02  0.45594000000E+02  0.51100000000E-03 0. -1.
    9900012    2    1    2    0    0  0.10893904929E+02 -0.36225892359E+02 -0.14905496637E+02  0.50528852545E+02  0.29999977795E+02 0.  0.
         12    1    1    2    0    0 -0.10893904929E+02  0.36225892359E+02  0.14905496637E+02  0.40659147455E+02  0.00000000000E+00 0. -1.
         11    1    3    3    0    0  0.69982304764E+01 -0.21678116826E+02  0.10885333394E+01  0.22805720423E+02  0.51100000000E-03 0. -1.
        -11    1    3    3    0    0  0.79494644245E+01 -0.15043801238E+01 -0.23683877679E+01  0.84300892684E+01  0.51100000000E-03 0.  1.
         12    1    3    3    0    0 -0.40537899722E+01 -0.13043395409E+02 -0.13625642209E+02  0.19293042853E+02  0.00000000000E+00 0. -1.
</event>
<event>
 7    1  0.6462830E-013  0.5052886E+02  0.7816164E-02  0.1300439E+00
        -11   -1    0    0    0    0  0.00000000000E+00  0.00000000000E+00  0.45593999997E+02  0.45594000000E+02  0.51100000000E-03 0.  1.
         11   -1    0    0    0    0 -0.00000000000E+00 -0.00000000000E+00 -0.45593999997E+02  0.45594000000E+02  0.51100000000E-03 0. -1.
    9900012    2    1    2    0    0 -0.10771825431E+02  0.38136744448E+02  0.90951552208E+01  0.50528863896E+02  0.30000012300E+02 0.  0.
         12    1    1    2    0    0  0.10771825431E+02 -0.38136744448E+02 -0.90951552208E+01  0.40659136104E+02  0.00000000000E+00 0. -1.
         11    1    3    3    0    0 -0.38823141947E+00  0.27064118307E+01 -0.41358950753E+01  0.49579246633E+01  0.51100000000E-03 0. -1.
        -11    1    3    3    0    0 -0.73831900661E+01  0.13017525522E+02 -0.57655975978E+01  0.16037754899E+02  0.51100000000E-03 0.  1.
        -12    1    3    3    0    0 -0.30004039453E+01  0.22412807095E+02  0.18996647894E+02  0.29533184334E+02  0.00000000000E+00 0.  1.
</event>
<event>
 7    1  0.6462830E-013  0.5052886E+02  0.7816164E-02  0.1300439E+00
        -11   -1    0    0    0    0  0.00000000000E+00  0.00000000000E+00  0.45593999997E+02  0.45594000000E+02  0.51100000000E-03 0.  1.
         11   -1    0    0    0    0 -0.00000000000E+00 -0.00000000000E+00 -0.45593999997E+02  0.45594000000E+02  0.51100000000E-03 0. -1.
    9900012    2    1    2    0    0  0.23913101288E+02  0.18534638120E+02  0.27162406980E+02  0.50528861096E+02  0.30000003789E+02 0.  0.
         12    1    1    2    0    0 -0.23913101288E+02 -0.18534638120E+02 -0.27162406980E+02  0.40659138904E+02  0.00000000000E+00 0. -1.
         11    1    3    3    0    0  0.15879959518E+02  0.61857378147E+01  0.20703314739E+02  0.26815363284E+02  0.51100000000E-03 0. -1.
        -11    1    3    3    0    0  0.99972392729E+01  0.26886686332E+00  0.28318836485E+00  0.10004862737E+02  0.51100000000E-03 0.  1.
         12    1    3    3    0    0 -0.19640975029E+01  0.12080033442E+02  0.61759038762E+01  0.13708635076E+02  0.00000000000E+00 0. -1.
</event>
<event>
 7    1  0.6462830E-013  0.5052885E+02  0.7816164E-02  0.1300439E+00
        -11   -1    0    0    0    0  0.00000000000E+00  0.00000000000E+00  0.45593999997E+02  0.45594000000E+02  0.51100000000E-03 0.  1.
         11   -1    0    0    0    0 -0.00000000000E+00 -0.00000000000E+00 -0.45593999997E+02  0.45594000000E+02  0.51100000000E-03 0. -1.
    9900012    2    1    2    0    0  0.30468641625E+02  0.89647100346E+01 -0.25386257768E+02  0.50528853035E+02  0.29999979284E+02 0.  0.
         12    1    1    2    0    0 -0.30468641625E+02 -0.89647100346E+01  0.25386257768E+02  0.40659146965E+02  0.00000000000E+00 0. -1.
         11    1    3    3    0    0  0.26573601517E+02  0.70646490555E+01 -0.79743757429E+01  0.28629639058E+02  0.51100000000E-03 0.  1.
        -11    1    3    3    0    0  0.53575815868E+01  0.60732327455E+01 -0.14488161608E+02  0.16598031916E+02  0.51100000000E-03 0. -1.
        -12    1    3    3    0    0 -0.14625414781E+01 -0.41731717664E+01 -0.29237204169E+01  0.53011820610E+01  0.00000000000E+00 0.  1.
</event>
<event>
 7    1  0.6462830E-013  0.5052886E+02  0.7816164E-02  0.1300439E+00
        -11   -1    0    0    0    0  0.00000000000E+00  0.00000000000E+00  0.45593999997E+02  0.45594000000E+02  0.51100000000E-03 0. -1.
         11   -1    0    0    0    0 -0.00000000000E+00 -0.00000000000E+00 -0.45593999997E+02  0.45594000000E+02  0.51100000000E-03 0.  1.
    9900012    2    1    2    0    0  0.37344924700E+02 -0.49065314769E+01 -0.15311705143E+02  0.50528858760E+02  0.29999996687E+02 0.  0.
         12    1    1    2    0    0 -0.37344924700E+02  0.49065314769E+01  0.15311705143E+02  0.40659141240E+02  0.00000000000E+00 0. -1.
         11    1    3    3    0    0  0.32943494758E+01  0.52546039399E-01  0.67249611513E+01  0.74886983050E+01  0.51100000000E-03 0. -1.
        -11    1    3    3    0    0  0.15108856802E+01  0.26549000566E+01 -0.40980989454E+01  0.51113290910E+01  0.51100000000E-03 0.  1.
        -12    1    3    3    0    0  0.32539689544E+02 -0.76139775729E+01 -0.17938567349E+02  0.37928831364E+02  0.00000000000E+00 0.  1.
</event>
<event>
 7    1  0.6462830E-013  0.5052886E+02  0.7816164E-02  0.1300439E+00
        -11   -1    0    0    0    0  0.00000000000E+00  0.00000000000E+00  0.45593999997E+02  0.45594000000E+02  0.51100000000E-03 0.  1.
         11   -1    0    0    0    0 -0.00000000000E+00 -0.00000000000E+00 -0.45593999997E+02  0.45594000000E+02  0.51100000000E-03 0. -1.
    9900012    2    1    2    0    0 -0.20687111508E+01 -0.31291009408E+01  0.40485732600E+02  0.50528863479E+02  0.30000011030E+02 0.  0.
         12    1    1    2    0    0  0.20687111508E+01  0.31291009408E+01 -0.40485732600E+02  0.40659136521E+02  0.00000000000E+00 0. -1.
         11    1    3    3    0    0 -0.72268160727E+01 -0.99809644735E+01  0.23238654514E+02  0.26303642072E+02  0.51100000000E-03 0.  1.
        -11    1    3    3    0    0 -0.91666182092E-02 -0.20221204789E+01 -0.17213486311E+01  0.26555783982E+01  0.51100000000E-03 0. -1.
        -12    1    3    3    0    0  0.51672715401E+01  0.88739840116E+01  0.18968426716E+02  0.21569643008E+02  0.00000000000E+00 0.  1.
</event>
<event>
 7    1  0.6462830E-013  0.5052886E+02  0.7816164E-02  0.1300439E+00
        -11   -1    0    0    0    0  0.00000000000E+00  0.00000000000E+00  0.45593999997E+02  0.45594000000E+02  0.51100000000E-03 0. -1.
         11   -1    0    0    0    0 -0.00000000000E+00 -0.00000000000E+00 -0.45593999997E+02  0.45594000000E+02  0.51100000000E-03 0.  1.
    9900012    2    1    2    0    0 -0.22931474060E+02 -0.21262659523E+02 -0.25984850606E+02  0.50528860148E+02  0.30000000905E+02 0.  0.
         12    1    1    2    0    0  0.22931474060E+02  0.21262659523E+02  0.25984850606E+02  0.40659139852E+02  0.00000000000E+00 0. -1.
         11    1    3    3    0    0 -0.58023686895E+01  0.15507735672E+01  0.19947747541E+01  0.63286260473E+01  0.51100000000E-03 0. -1.
        -11    1    3    3    0    0 -0.15596270259E+02 -0.19588977878E+02 -0.30768712998E+02  0.39669703806E+02  0.51100000000E-03 0.  1.
         12    1    3    3    0    0 -0.15328351106E+01 -0.32244552125E+01  0.27890876378E+01  0.45305302940E+01  0.00000000000E+00 0. -1.
</event>
<event>
 7    1  0.6462830E-013  0.5052886E+02  0.7816164E-02  0.1300439E+00
        -11   -1    0    0    0    0  0.00000000000E+00  0.00000000000E+00  0.45593999997E+02  0.45594000000E+02  0.51100000000E-03 0.  1.
         11   -1    0    0    0    0 -0.00000000000E+00 -0.00000000000E+00 -0.45593999997E+02  0.45594000000E+02  0.51100000000E-03 0. -1.
    9900012    2    1    2    0    0  0.23109977977E+01  0.27417383569E+02  0.29935123739E+02  0.50528864915E+02  0.30000015395E+02 0.  0.
         12    1    1    2    0    0 -0.23109977977E+01 -0.27417383569E+02 -0.29935123739E+02  0.40659135085E+02  0.00000000000E+00 0. -1.
         11    1    3    3    0    0  0.30711958767E+01  0.16382422591E+01 -0.13991298233E+01  0.37514858837E+01  0.51100000000E-03 0. -1.
        -11    1    3    3    0    0 -0.74235026478E+01  0.23116358940E+02  0.14022887370E+02  0.28037756912E+02  0.51100000000E-03 0.  1.
        -12    1    3    3    0    0  0.66633045689E+01  0.26627823702E+01  0.17311366192E+02  0.18739622119E+02  0.00000000000E+00 0.  1.
</event>
<event>
 7    1  0.6462830E-013  0.5052887E+02  0.7816164E-02  0.1300439E+00
        -11   -1    0    0    0    0  0.00000000000E+00  0.00000000000E+00  0.45593999997E+02  0.45594000000E+02  0.51100000000E-03 0.  1.
         11   -1    0    0    0    0 -0.00000000000E+00 -0.00000000000E+00 -0.45593999997E+02  0.45594000000E+02  0.51100000000E-03 0. -1.
    9900012    2    1    2    0    0  0.17205524436E+02 -0.10980780859E+01  0.36822944557E+02  0.50528867047E+02  0.30000021876E+02 0.  0.
         12    1    1    2    0    0 -0.17205524436E+02  0.10980780859E+01 -0.36822944557E+02  0.40659132953E+02  0.00000000000E+00 0. -1.
         11    1    3    3    0    0 -0.28360226106E+01  0.27388571276E+00  0.44540243170E+00  0.28838205941E+01  0.51100000000E-03 0. -1.
        -11    1    3    3    0    0  0.31959454191E+01 -0.10488388745E+02  0.18145535008E+02  0.21200962397E+02  0.51100000000E-03 0.  1.
         12    1    3    3    0    0  0.16845601628E+02  0.91164249460E+01  0.18232007118E+02  0.26444084056E+02  0.00000000000E+00 0. -1.
</event>
<event>
 7    1  0.6462830E-013  0.5052886E+02  0.7816164E-02  0.1300439E+00
        -11   -1    0    0    0    0  0.00000000000E+00  0.00000000000E+00  0.45593999997E+02  0.45594000000E+02  0.51100000000E-03 0.  1.
         11   -1    0    0    0    0 -0.00000000000E+00 -0.00000000000E+00 -0.45593999997E+02  0.45594000000E+02  0.51100000000E-03 0. -1.
    9900012    2    1    2    0    0  0.40406692680E+02 -0.14060379122E+00  0.45216255468E+01  0.50528859818E+02  0.29999999902E+02 0.  0.
         12    1    1    2    0    0 -0.40406692680E+02  0.14060379122E+00 -0.45216255468E+01  0.40659140182E+02  0.00000000000E+00 0. -1.
         11    1    3    3    0    0  0.30981935649E+01 -0.51568856235E+01 -0.15548285661E+01  0.62136756297E+01  0.51100000000E-03 0. -1.
        -11    1    3    3    0    0  0.27999907610E+02 -0.55373238205E+01 -0.10085422663E+01  0.28560005935E+02  0.51100000000E-03 0.  1.
        -12    1    3    3    0    0  0.93085915053E+01  0.10553605653E+02  0.70849963793E+01  0.15755178253E+02  0.00000000000E+00 0.  1.
</event>
<event>
 7    1  0.6462830E-013  0.5052883E+02  0.7816164E-02  0.1300439E+00
        -11   -1    0    0    0    0  0.00000000000E+00  0.00000000000E+00  0.45593999997E+02  0.45594000000E+02  0.51100000000E-03 0.  1.
         11   -1    0    0    0    0 -0.00000000000E+00 -0.00000000000E+00 -0.45593999997E+02  0.45594000000E+02  0.51100000000E-03 0. -1.
    9900012    2    1    2    0    0  0.39780668663E+02 -0.32106612592E+01  0.77690547229E+01  0.50528829370E+02  0.29999907354E+02 0.  0.
         12    1    1    2    0    0 -0.39780668663E+02  0.32106612592E+01 -0.77690547229E+01  0.40659170630E+02  0.00000000000E+00 0. -1.
         11    1    3    3    0    0 -0.17479717092E+01 -0.29654210722E+00  0.17132029274E+01  0.24654425260E+01  0.51100000000E-03 0. -1.
        -11    1    3    3    0    0  0.21676835811E+02  0.91755684852E+01  0.76887068240E+01  0.24762723612E+02  0.51100000000E-03 0.  1.
         12    1    3    3    0    0  0.19851804561E+02 -0.12089687637E+02 -0.16328550285E+01  0.23300663232E+02  0.00000000000E+00 0. -1.
</event>
<event>
 7    1  0.6462830E-013  0.5052886E+02  0.7816164E-02  0.1300439E+00
        -11   -1    0    0    0    0  0.00000000000E+00  0.00000000000E+00  0.45593999997E+02  0.45594000000E+02  0.51100000000E-03 0.  1.
         11   -1    0    0    0    0 -0.00000000000E+00 -0.00000000000E+00 -0.45593999997E+02  0.45594000000E+02  0.51100000000E-03 0. -1.
    9900012    2    1    2    0    0  0.13428118556E+02  0.19983333203E+02  0.32764577823E+02  0.50528861621E+02  0.30000005383E+02 0.  0.
         12    1    1    2    0    0 -0.13428118556E+02 -0.19983333203E+02 -0.32764577823E+02  0.40659138379E+02  0.00000000000E+00 0. -1.
         11    1    3    3    0    0  0.21753414733E+01  0.71269851486E+01  0.18568646902E+02  0.20008015290E+02  0.51100000000E-03 0. -1.
        -11    1    3    3    0    0  0.13999479796E+02  0.68298824818E+01  0.17237586175E+02  0.23232888470E+02  0.51100000000E-03 0.  1.
         12    1    3    3    0    0 -0.27467027136E+01  0.60264655723E+01 -0.30416552539E+01  0.72879578604E+01  0.00000000000E+00 0. -1.
</event>
<event>
 7    1  0.6462830E-013  0.5052886E+02  0.7816164E-02  0.1300439E+00
        -11   -1    0    0    0    0  0.00000000000E+00  0.00000000000E+00  0.45593999997E+02  0.45594000000E+02  0.51100000000E-03 0.  1.
         11   -1    0    0    0    0 -0.00000000000E+00 -0.00000000000E+00 -0.45593999997E+02  0.45594000000E+02  0.51100000000E-03 0. -1.
    9900012    2    1    2    0    0  0.63546518154E+01 -0.23335020385E+02  0.32684255587E+02  0.50528864011E+02  0.30000012648E+02 0.  0.
         12    1    1    2    0    0 -0.63546518154E+01  0.23335020385E+02 -0.32684255587E+02  0.40659135989E+02  0.00000000000E+00 0. -1.
         11    1    3    3    0    0  0.14296715393E+02 -0.10203174400E+02  0.10571260834E+02  0.20500058408E+02  0.51100000000E-03 0.  1.
        -11    1    3    3    0    0 -0.30786217213E+01 -0.96772507245E+01  0.39246539120E+01  0.10887148473E+02  0.51100000000E-03 0. -1.
         12    1    3    3    0    0 -0.48634418560E+01 -0.34545952605E+01  0.18188340842E+02  0.19141657130E+02  0.00000000000E+00 0. -1.
</event>
<event>
 7    1  0.6621774E-013  0.5052886E+02  0.7816164E-02  0.1300439E+00
        -11   -1    0    0    0    0  0.00000000000E+00  0.00000000000E+00  0.45593999997E+02  0.45594000000E+02  0.51100000000E-03 0.  1.
         11   -1    0    0    0    0 -0.00000000000E+00 -0.00000000000E+00 -0.45593999997E+02  0.45594000000E+02  0.51100000000E-03 0. -1.
    9900012    2    1    2    0    0  0.39030701673E+02 -0.89809747894E+01 -0.70080178178E+01  0.50528857179E+02  0.29999991881E+02 0.  0.
         12    1    1    2    0    0 -0.39030701673E+02  0.89809747894E+01  0.70080178178E+01  0.40659142821E+02  0.00000000000E+00 0. -1.
         11    1    3    3    0    0  0.99539232678E+00  0.36714296992E+01  0.46789639079E+01  0.60301662856E+01  0.51100000000E-03 0. -1.
        -11    1    3    3    0    0  0.14986942477E+02 -0.83396364278E+00  0.20997560551E+01  0.15156283051E+02  0.51100000000E-03 0.  1.
         12    1    3    3    0    0  0.23048366869E+02 -0.11818440846E+02 -0.13786737781E+02  0.29342407842E+02  0.00000000000E+00 0. -1.
</event>
<event>
 7    1  0.9070624E-013  0.5052886E+02  0.7816164E-02  0.1300439E+00
        -11   -1    0    0    0    0  0.00000000000E+00  0.00000000000E+00  0.45593999997E+02  0.45594000000E+02  0.51100000000E-03 0.  1.
         11   -1    0    0    0    0 -0.00000000000E+00 -0.00000000000E+00 -0.45593999997E+02  0.45594000000E+02  0.51100000000E-03 0. -1.
    9900012    2    1    2    0    0 -0.14844846447E+02  0.27893117773E+02  0.25588478193E+02  0.50528859560E+02  0.29999999118E+02 0.  0.
         12    1    1    2    0    0  0.14844846447E+02 -0.27893117773E+02 -0.25588478193E+02  0.40659140440E+02  0.00000000000E+00 0. -1.
         11    1    3    3    0    0  0.70411766254E+00  0.19999959940E+01  0.14030800599E+02  0.14190106813E+02  0.51100000000E-03 0. -1.
        -11    1    3    3    0    0 -0.14200028375E+01  0.14042716838E+02  0.10991582332E+02  0.17889359594E+02  0.51100000000E-03 0.  1.
         12    1    3    3    0    0 -0.14128961272E+02  0.11850404941E+02  0.56609526206E+00  0.18449393153E+02  0.00000000000E+00 0. -1.
</event>
<event>
 7    1  0.6462830E-013  0.5052886E+02  0.7816164E-02  0.1300439E+00
        -11   -1    0    0    0    0  0.00000000000E+00  0.00000000000E+00  0.45593999997E+02  0.45594000000E+02  0.51100000000E-03 0.  1.
         11   -1    0    0    0    0 -0.00000000000E+00 -0.00000000000E+00 -0.45593999997E+02  0.45594000000E+02  0.51100000000E-03 0. -1.
    9900012    2    1    2    0    0  0.81538295251E+00  0.39028109848E+02  0.11371327811E+02  0.50528864447E+02  0.30000013974E+02 0.  0.
         12    1    1    2    0    0 -0.81538295251E+00 -0.39028109848E+02 -0.11371327811E+02  0.40659135553E+02  0.00000000000E+00 0. -1.
         11    1    3    3    0    0  0.10607444413E+01  0.21405883810E+00 -0.43843459374E+01  0.45159151360E+01  0.51100000000E-03 0. -1.
        -11    1    3    3    0    0  0.52794905686E+01  0.39432524281E+01  0.70491663642E+01  0.96495081257E+01  0.51100000000E-03 0.  1.
        -12    1    3    3    0    0 -0.55248520574E+01  0.34870798582E+02  0.87065073845E+01  0.36363441186E+02  0.00000000000E+00 0.  1.
</event>
<event>
 7    1  0.6462830E-013  0.5052885E+02  0.7816164E-02  0.1300439E+00
        -11   -1    0    0    0    0  0.00000000000E+00  0.00000000000E+00  0.45593999997E+02  0.45594000000E+02  0.51100000000E-03 0.  1.
         11   -1    0    0    0    0 -0.00000000000E+00 -0.00000000000E+00 -0.45593999997E+02  0.45594000000E+02  0.51100000000E-03 0. -1.
    9900012    2    1    2    0    0  0.57789020655E+01  0.38743065115E+02  0.10897044473E+02  0.50528851192E+02  0.29999973683E+02 0.  0.
         12    1    1    2    0    0 -0.57789020655E+01 -0.38743065115E+02 -0.10897044473E+02  0.40659148808E+02  0.00000000000E+00 0. -1.
         11    1    3    3    0    0 -0.32857266169E+01  0.11752301587E+02  0.34022578714E+01  0.12668383909E+02  0.51100000000E-03 0.  1.
        -11    1    3    3    0    0  0.10511145994E+02  0.70310376757E+00  0.18164519410E+00  0.10536201414E+02  0.51100000000E-03 0. -1.
         12    1    3    3    0    0 -0.14465173111E+01  0.26287659760E+02  0.73131414075E+01  0.27324265868E+02  0.00000000000E+00 0. -1.
</event>
<event>
 7    1  0.6462830E-013  0.5052886E+02  0.7816164E-02  0.1300439E+00
        -11   -1    0    0    0    0  0.00000000000E+00  0.00000000000E+00  0.45593999997E+02  0.45594000000E+02  0.51100000000E-03 0.  1.
         11   -1    0    0    0    0 -0.00000000000E+00 -0.00000000000E+00 -0.45593999997E+02  0.45594000000E+02  0.51100000000E-03 0. -1.
    9900012    2    1    2    0    0  0.22651230886E+02 -0.25700674232E+02  0.21898925277E+02  0.50528857794E+02  0.29999993751E+02 0.  0.
         12    1    1    2    0    0 -0.22651230886E+02  0.25700674232E+02 -0.21898925277E+02  0.40659142206E+02  0.00000000000E+00 0. -1.
         11    1    3    3    0    0  0.45156731758E+01 -0.74978008145E+01 -0.95782367848E+00  0.88048706831E+01  0.51100000000E-03 0. -1.
        -11    1    3    3    0    0  0.12745927654E+02 -0.16949524165E+02  0.27340997400E+02  0.34601664415E+02  0.51100000000E-03 0.  1.
         12    1    3    3    0    0  0.53896300556E+01 -0.12533492522E+01 -0.44842484442E+01  0.71223226965E+01  0.00000000000E+00 0. -1.
</event>
<event>
 7    1  0.6462830E-013  0.5052885E+02  0.7816164E-02  0.1300439E+00
        -11   -1    0    0    0    0  0.00000000000E+00  0.00000000000E+00  0.45593999997E+02  0.45594000000E+02  0.51100000000E-03 0. -1.
         11   -1    0    0    0    0 -0.00000000000E+00 -0.00000000000E+00 -0.45593999997E+02  0.45594000000E+02  0.51100000000E-03 0.  1.
    9900012    2    1    2    0    0  0.31376481574E+02  0.11579627091E+02 -0.23121314019E+02  0.50528849474E+02  0.29999968462E+02 0.  0.
         12    1    1    2    0    0 -0.31376481574E+02 -0.11579627091E+02  0.23121314019E+02  0.40659150526E+02  0.00000000000E+00 0. -1.
         11    1    3    3    0    0  0.74596808358E+01  0.11607904594E+02 -0.71690747039E+01  0.15549466860E+02  0.51100000000E-03 0. -1.
        -11    1    3    3    0    0  0.16689234015E+01  0.60780041441E+01 -0.88021772564E+01  0.10826161111E+02  0.51100000000E-03 0.  1.
        -12    1    3    3    0    0  0.22247877337E+02 -0.61062816475E+01 -0.71500620583E+01  0.24153221503E+02  0.00000000000E+00 0.  1.
</event>
<event>
 7    1  0.6462830E-013  0.5052886E+02  0.7816164E-02  0.1300439E+00
        -11   -1    0    0    0    0  0.00000000000E+00  0.00000000000E+00  0.45593999997E+02  0.45594000000E+02  0.51100000000E-03 0. -1.
         11   -1    0    0    0    0 -0.00000000000E+00 -0.00000000000E+00 -0.45593999997E+02  0.45594000000E+02  0.51100000000E-03 0.  1.
    9900012    2    1    2    0    0 -0.22120544766E+02 -0.10856062043E+02 -0.32341815449E+02  0.50528860679E+02  0.30000002519E+02 0.  0.
         12    1    1    2    0    0  0.22120544766E+02  0.10856062043E+02  0.32341815449E+02  0.40659139321E+02  0.00000000000E+00 0. -1.
         11    1    3    3    0    0  0.33120554056E+00  0.12166398830E+01 -0.47030957429E+00  0.13457715526E+01  0.51100000000E-03 0. -1.
        -11    1    3    3    0    0 -0.11378081494E+02 -0.20147488706E+02 -0.15585586974E+02  0.27897895283E+02  0.51100000000E-03 0.  1.
         12    1    3    3    0    0 -0.11073668813E+02  0.80747867794E+01 -0.16285918901E+02  0.21285193843E+02  0.00000000000E+00 0. -1.
</event>
<event>
 7    1  0.6462830E-013  0.5052886E+02  0.7816164E-02  0.1300439E+00
        -11   -1    0    0    0    0  0.00000000000E+00  0.00000000000E+00  0.45593999997E+02  0.45594000000E+02  0.51100000000E-03 0.  1.
         11   -1    0    0    0    0 -0.00000000000E+00 -0.00000000000E+00 -0.45593999997E+02  0.45594000000E+02  0.51100000000E-03 0. -1.
    9900012    2    1    2    0    0 -0.37346992499E+02 -0.57505849196E+01  0.15009943371E+02  0.50528862336E+02  0.30000007556E+02 0.  0.
         12    1    1    2    0    0  0.37346992499E+02  0.57505849196E+01 -0.15009943371E+02  0.40659137664E+02  0.00000000000E+00 0. -1.
         11    1    3    3    0    0 -0.12517495056E+02 -0.50222205650E+01  0.80989626937E+01  0.15732246465E+02  0.51100000000E-03 0. -1.
        -11    1    3    3    0    0 -0.25416595763E+01 -0.79582212237E+00  0.11700561152E+02  0.11999854073E+02  0.51100000000E-03 0.  1.
         12    1    3    3    0    0 -0.22287837866E+02  0.67457767747E-01 -0.47895804744E+01  0.22796761797E+02  0.00000000000E+00 0. -1.
</event>
<event>
 7    1  0.6462830E-013  0.5052884E+02  0.7816164E-02  0.1300439E+00
        -11   -1    0    0    0    0  0.00000000000E+00  0.00000000000E+00  0.45593999997E+02  0.45594000000E+02  0.51100000000E-03 0.  1.
         11   -1    0    0    0    0 -0.00000000000E+00 -0.00000000000E+00 -0.45593999997E+02  0.45594000000E+02  0.51100000000E-03 0. -1.
    9900012    2    1    2    0    0  0.37534552557E+02 -0.39536970557E+01  0.15122590204E+02  0.50528842477E+02  0.29999947192E+02 0.  0.
         12    1    1    2    0    0 -0.37534552557E+02  0.39536970557E+01 -0.15122590204E+02  0.40659157523E+02  0.00000000000E+00 0. -1.
         11    1    3    3    0    0  0.10224365409E+02  0.38474505055E+01  0.12288696862E+02  0.16442402325E+02  0.51100000000E-03 0. -1.
        -11    1    3    3    0    0  0.21104217335E+02 -0.12584101915E+02  0.65285621110E+01  0.25423802505E+02  0.51100000000E-03 0.  1.
         12    1    3    3    0    0  0.62059698130E+01  0.47829543538E+01 -0.36946687695E+01  0.86626376460E+01  0.00000000000E+00 0. -1.
</event>
<event>
 7    1  0.6462830E-013  0.5052886E+02  0.7816164E-02  0.1300439E+00
        -11   -1    0    0    0    0  0.00000000000E+00  0.00000000000E+00  0.45593999997E+02  0.45594000000E+02  0.51100000000E-03 0.  1.
         11   -1    0    0    0    0 -0.00000000000E+00 -0.00000000000E+00 -0.45593999997E+02  0.45594000000E+02  0.51100000000E-03 0. -1.
    9900012    2    1    2    0    0 -0.36325977582E+02 -0.16236941730E+02 -0.83636481097E+01  0.50528861621E+02  0.30000005384E+02 0.  0.
         12    1    1    2    0    0  0.36325977582E+02  0.16236941730E+02  0.83636481097E+01  0.40659138379E+02  0.00000000000E+00 0. -1.
         11    1    3    3    0    0 -0.20822930228E+02 -0.73678634633E+01  0.84701000741E+01  0.23656340182E+02  0.51100000000E-03 0. -1.
        -11    1    3    3    0    0 -0.69800818471E+01 -0.17598658815E+01 -0.62168761569E+00  0.72253142676E+01  0.51100000000E-03 0.  1.
         12    1    3    3    0    0 -0.85229655065E+01 -0.71092123852E+01 -0.16212060568E+02  0.19647207171E+02  0.00000000000E+00 0. -1.
</event>
<event>
 7    1  0.6462830E-013  0.5052886E+02  0.7816164E-02  0.1300439E+00
        -11   -1    0    0    0    0  0.00000000000E+00  0.00000000000E+00  0.45593999997E+02  0.45594000000E+02  0.51100000000E-03 0.  1.
         11   -1    0    0    0    0 -0.00000000000E+00 -0.00000000000E+00 -0.45593999997E+02  0.45594000000E+02  0.51100000000E-03 0. -1.
    9900012    2    1    2    0    0 -0.30602071989E+02  0.18555683768E+02  0.19296773968E+02  0.50528859629E+02  0.29999999329E+02 0.  0.
         12    1    1    2    0    0  0.30602071989E+02 -0.18555683768E+02 -0.19296773968E+02  0.40659140371E+02  0.00000000000E+00 0. -1.
         11    1    3    3    0    0 -0.13178009595E+02  0.63983244999E+01  0.73774426506E+01  0.16401986271E+02  0.51100000000E-03 0.  1.
        -11    1    3    3    0    0 -0.12024795965E+02 -0.27256866007E+01  0.13419464974E+02  0.18223806570E+02  0.51100000000E-03 0. -1.
         12    1    3    3    0    0 -0.53992664297E+01  0.14883045868E+02 -0.15001336575E+01  0.15903066789E+02  0.00000000000E+00 0. -1.
</event>
<event>
 7    1  0.6462830E-013  0.5052886E+02  0.7816164E-02  0.1300439E+00
        -11   -1    0    0    0    0  0.00000000000E+00  0.00000000000E+00  0.45593999997E+02  0.45594000000E+02  0.51100000000E-03 0. -1.
         11   -1    0    0    0    0 -0.00000000000E+00 -0.00000000000E+00 -0.45593999997E+02  0.45594000000E+02  0.51100000000E-03 0.  1.
    9900012    2    1    2    0    0 -0.25316008999E+02  0.20126249286E+02 -0.24641414687E+02  0.50528861547E+02  0.30000005159E+02 0.  0.
         12    1    1    2    0    0  0.25316008999E+02 -0.20126249286E+02  0.24641414687E+02  0.40659138453E+02  0.00000000000E+00 0. -1.
         11    1    3    3    0    0 -0.96747747679E+01  0.19714148428E+01 -0.16129634832E+02  0.18911712333E+02  0.51100000000E-03 0. -1.
        -11    1    3    3    0    0 -0.16951129267E+02  0.78757187818E+01 -0.99183154073E+01  0.21159884464E+02  0.51100000000E-03 0.  1.
         12    1    3    3    0    0  0.13098950354E+01  0.10279115662E+02  0.14065355530E+01  0.10457264750E+02  0.00000000000E+00 0. -1.
</event>
<event>
 7    1  0.6462830E-013  0.5052887E+02  0.7816164E-02  0.1300439E+00
        -11   -1    0    0    0    0  0.00000000000E+00  0.00000000000E+00  0.45593999997E+02  0.45594000000E+02  0.51100000000E-03 0.  1.
         11   -1    0    0    0    0 -0.00000000000E+00 -0.00000000000E+00 -0.45593999997E+02  0.45594000000E+02  0.51100000000E-03 0. -1.
    9900012    2    1    2    0    0  0.16955592166E+01 -0.13412278620E+02  0.38345800612E+02  0.50528873553E+02  0.30000041651E+02 0.  0.
         12    1    1    2    0    0 -0.16955592166E+01  0.13412278620E+02 -0.38345800612E+02  0.40659126447E+02  0.00000000000E+00 0. -1.
         11    1    3    3    0    0  0.79560162194E+01 -0.84183917348E+00  0.14216019135E+02  0.16312635826E+02  0.51100000000E-03 0. -1.
        -11    1    3    3    0    0  0.46843701055E+01 -0.12425200017E+02  0.14130541384E+02  0.19390748279E+02  0.51100000000E-03 0.  1.
         12    1    3    3    0    0 -0.10944827108E+02 -0.14523942920E+00  0.99992400942E+01  0.14825489448E+02  0.00000000000E+00 0. -1.
</event>
<event>
 7    1  0.6462830E-013  0.5052886E+02  0.7816164E-02  0.1300439E+00
        -11   -1    0    0    0    0  0.00000000000E+00  0.00000000000E+00  0.45593999997E+02  0.45594000000E+02  0.51100000000E-03 0.  1.
         11   -1    0    0    0    0 -0.00000000000E+00 -0.00000000000E+00 -0.45593999997E+02  0.45594000000E+02  0.51100000000E-03 0. -1.
    9900012    2    1    2    0    0 -0.19265983391E+02  0.85954888019E+01  0.34757804023E+02  0.50528862229E+02  0.30000007231E+02 0.  0.
         12    1    1    2    0    0  0.19265983391E+02 -0.85954888019E+01 -0.34757804023E+02  0.40659137771E+02  0.00000000000E+00 0. -1.
         11    1    3    3    0    0 -0.47884450077E+01  0.55411101767E+01  0.12981751019E+02  0.14904998066E+02  0.51100000000E-03 0. -1.
        -11    1    3    3    0    0 -0.20681214369E+02  0.56929402289E+01  0.16418119268E+02  0.27012531107E+02  0.51100000000E-03 0.  1.
         12    1    3    3    0    0  0.62036759859E+01 -0.26385616037E+01  0.53579337364E+01  0.86113330558E+01  0.00000000000E+00 0. -1.
</event>
<event>
 7    1  0.6462830E-013  0.5052886E+02  0.7816164E-02  0.1300439E+00
        -11   -1    0    0    0    0  0.00000000000E+00  0.00000000000E+00  0.45593999997E+02  0.45594000000E+02  0.51100000000E-03 0.  1.
         11   -1    0    0    0    0 -0.00000000000E+00 -0.00000000000E+00 -0.45593999997E+02  0.45594000000E+02  0.51100000000E-03 0. -1.
    9900012    2    1    2    0    0  0.19574735717E+02 -0.15802105620E+01  0.35601941569E+02  0.50528860962E+02  0.30000003382E+02 0.  0.
         12    1    1    2    0    0 -0.19574735717E+02  0.15802105620E+01 -0.35601941569E+02  0.40659139038E+02  0.00000000000E+00 0. -1.
         11    1    3    3    0    0  0.37539244308E+01  0.50743817563E+01  0.82204942423E+01  0.10364257074E+02  0.51100000000E-03 0. -1.
        -11    1    3    3    0    0  0.87536433877E+01 -0.43553094128E+01  0.30556771095E+02  0.32082880990E+02  0.51100000000E-03 0.  1.
         12    1    3    3    0    0  0.70671678980E+01 -0.22992829055E+01 -0.31753237679E+01  0.80817228986E+01  0.00000000000E+00 0. -1.
</event>
<event>
 7    1  0.6462830E-013  0.5052889E+02  0.7816164E-02  0.1300439E+00
        -11   -1    0    0    0    0  0.00000000000E+00  0.00000000000E+00  0.45593999997E+02  0.45594000000E+02  0.51100000000E-03 0. -1.
         11   -1    0    0    0    0 -0.00000000000E+00 -0.00000000000E+00 -0.45593999997E+02  0.45594000000E+02  0.51100000000E-03 0.  1.
    9900012    2    1    2    0    0 -0.17207926316E+02  0.21677965208E+02 -0.29784497831E+02  0.50528890139E+02  0.30000092067E+02 0.  0.
         12    1    1    2    0    0  0.17207926316E+02 -0.21677965208E+02  0.29784497831E+02  0.40659109861E+02  0.00000000000E+00 0. -1.
         11    1    3    3    0    0 -0.19405212869E+01  0.19481148462E+02 -0.81020791996E+01  0.21187837452E+02  0.51100000000E-03 0. -1.
        -11    1    3    3    0    0 -0.62447119153E+00 -0.24376724973E+01 -0.92346288960E+01  0.95713417336E+01  0.51100000000E-03 0.  1.
        -12    1    3    3    0    0 -0.14642933837E+02  0.46344892430E+01 -0.12447789736E+02  0.19769710954E+02  0.00000000000E+00 0.  1.
</event>
<event>
 7    1  0.6462830E-013  0.5052885E+02  0.7816164E-02  0.1300439E+00
        -11   -1    0    0    0    0  0.00000000000E+00  0.00000000000E+00  0.45593999997E+02  0.45594000000E+02  0.51100000000E-03 0.  1.
         11   -1    0    0    0    0 -0.00000000000E+00 -0.00000000000E+00 -0.45593999997E+02  0.45594000000E+02  0.51100000000E-03 0. -1.
    9900012    2    1    2    0    0  0.14063344307E+02 -0.82164936038E+01  0.37254238517E+02  0.50528847184E+02  0.29999961501E+02 0.  0.
         12    1    1    2    0    0 -0.14063344307E+02  0.82164936038E+01 -0.37254238517E+02  0.40659152816E+02  0.00000000000E+00 0. -1.
         11    1    3    3    0    0  0.78683001700E+01  0.35880440482E+01  0.29092646746E+01  0.91240357773E+01  0.51100000000E-03 0. -1.
        -11    1    3    3    0    0  0.18638259948E+01  0.52266587744E+01  0.85291222416E+01  0.10175349417E+02  0.51100000000E-03 0.  1.
         12    1    3    3    0    0  0.43312181422E+01 -0.17031196426E+02  0.25815851601E+02  0.31229461990E+02  0.00000000000E+00 0. -1.
</event>
<event>
 7    1  0.6462830E-013  0.5052884E+02  0.7816164E-02  0.1300439E+00
        -11   -1    0    0    0    0  0.00000000000E+00  0.00000000000E+00  0.45593999997E+02  0.45594000000E+02  0.51100000000E-03 0.  1.
         11   -1    0    0    0    0 -0.00000000000E+00 -0.00000000000E+00 -0.45593999997E+02  0.45594000000E+02  0.51100000000E-03 0. -1.
    9900012    2    1    2    0    0 -0.13926189897E+02  0.19959035192E+02  0.32570925871E+02  0.50528842816E+02  0.29999948223E+02 0.  0.
         12    1    1    2    0    0  0.13926189897E+02 -0.19959035192E+02 -0.32570925871E+02  0.40659157184E+02  0.00000000000E+00 0. -1.
         11    1    3    3    0    0 -0.38481188377E+00  0.90804186828E+01  0.43245089773E+01  0.10064962086E+02  0.51100000000E-03 0. -1.
        -11    1    3    3    0    0 -0.30959988675E+01  0.16655717817E+02  0.18175272770E+02  0.24846301244E+02  0.51100000000E-03 0.  1.
         12    1    3    3    0    0 -0.10445379146E+02 -0.57771013080E+01  0.10071144123E+02  0.15617579485E+02  0.00000000000E+00 0. -1.
</event>
<event>
 7    1  0.6462830E-013  0.5052886E+02  0.7816164E-02  0.1300439E+00
        -11   -1    0    0    0    0  0.00000000000E+00  0.00000000000E+00  0.45593999997E+02  0.45594000000E+02  0.51100000000E-03 0.  1.
         11   -1    0    0    0    0 -0.00000000000E+00 -0.00000000000E+00 -0.45593999997E+02  0.45594000000E+02  0.51100000000E-03 0. -1.
    9900012    2    1    2    0    0 -0.29469184331E+02  0.52080527066E+01  0.27524700571E+02  0.50528858597E+02  0.29999996190E+02 0.  0.
         12    1    1    2    0    0  0.29469184331E+02 -0.52080527066E+01 -0.27524700571E+02  0.40659141403E+02  0.00000000000E+00 0. -1.
         11    1    3    3    0    0  0.20913734470E+01 -0.48065122802E+01  0.64258873030E+01  0.82926733377E+01  0.51100000000E-03 0. -1.
        -11    1    3    3    0    0 -0.75018348353E+01  0.88402353656E+01  0.26443231808E+01  0.11892002883E+02  0.51100000000E-03 0.  1.
        -12    1    3    3    0    0 -0.24058722943E+02  0.11743296212E+01  0.18454490087E+02  0.30344182376E+02  0.00000000000E+00 0.  1.
</event>
<event>
 7    1  0.6462830E-013  0.5052886E+02  0.7816164E-02  0.1300439E+00
        -11   -1    0    0    0    0  0.00000000000E+00  0.00000000000E+00  0.45593999997E+02  0.45594000000E+02  0.51100000000E-03 0.  1.
         11   -1    0    0    0    0 -0.00000000000E+00 -0.00000000000E+00 -0.45593999997E+02  0.45594000000E+02  0.51100000000E-03 0. -1.
    9900012    2    1    2    0    0  0.99327246557E+01  0.12731088191E+02  0.37315221028E+02  0.50528863930E+02  0.30000012402E+02 0.  0.
         12    1    1    2    0    0 -0.99327246557E+01 -0.12731088191E+02 -0.37315221028E+02  0.40659136070E+02  0.00000000000E+00 0. -1.
         11    1    3    3    0    0  0.11309633422E+02  0.41535712457E+00  0.57968561465E+01  0.12715497282E+02  0.51100000000E-03 0. -1.
        -11    1    3    3    0    0  0.32173903641E+00  0.11113336895E+02  0.68530325760E+01  0.13060391598E+02  0.51100000000E-03 0.  1.
         12    1    3    3    0    0 -0.16986478031E+01  0.12023941720E+01  0.24665332305E+02  0.24752975050E+02  0.00000000000E+00 0. -1.
</event>
<event>
 7    1  0.6462830E-013  0.5052886E+02  0.7816164E-02  0.1300439E+00
        -11   -1    0    0    0    0  0.00000000000E+00  0.00000000000E+00  0.45593999997E+02  0.45594000000E+02  0.51100000000E-03 0. -1.
         11   -1    0    0    0    0 -0.00000000000E+00 -0.00000000000E+00 -0.45593999997E+02  0.45594000000E+02  0.51100000000E-03 0.  1.
    9900012    2    1    2    0    0  0.82163807064E+01 -0.39350412146E+02 -0.60993457717E+01  0.50528857525E+02  0.29999992932E+02 0.  0.
         12    1    1    2    0    0 -0.82163807064E+01  0.39350412146E+02  0.60993457717E+01  0.40659142475E+02  0.00000000000E+00 0. -1.
         11    1    3    3    0    0  0.45817344264E+01 -0.24844215079E+02 -0.98604158759E+01  0.27119275705E+02  0.51100000000E-03 0. -1.
        -11    1    3    3    0    0  0.93169091110E+01 -0.10264714316E+02 -0.23360264586E+01  0.14057957720E+02  0.51100000000E-03 0.  1.
         12    1    3    3    0    0 -0.56822628310E+01 -0.42414827507E+01  0.60970965629E+01  0.93516240997E+01  0.00000000000E+00 0. -1.
</event>
<event>
 7    1  0.6462830E-013  0.5052885E+02  0.7816164E-02  0.1300439E+00
        -11   -1    0    0    0    0  0.00000000000E+00  0.00000000000E+00  0.45593999997E+02  0.45594000000E+02  0.51100000000E-03 0. -1.
         11   -1    0    0    0    0 -0.00000000000E+00 -0.00000000000E+00 -0.45593999997E+02  0.45594000000E+02  0.51100000000E-03 0.  1.
    9900012    2    1    2    0    0  0.23861161849E+02 -0.32353857821E+02 -0.60859662154E+01  0.50528854098E+02  0.29999982517E+02 0.  0.
         12    1    1    2    0    0 -0.23861161849E+02  0.32353857821E+02  0.60859662154E+01  0.40659145902E+02  0.00000000000E+00 0. -1.
         11    1    3    3    0    0 -0.18853363478E+01 -0.88631456466E+01 -0.79719506166E+01  0.12069044734E+02  0.51100000000E-03 0. -1.
        -11    1    3    3    0    0  0.10750146368E+02 -0.15312777952E+02 -0.59971917348E+01  0.19647216712E+02  0.51100000000E-03 0.  1.
         12    1    3    3    0    0  0.14996351829E+02 -0.81779342221E+01  0.78831761361E+01  0.18812592653E+02  0.00000000000E+00 0. -1.
</event>
<event>
 7    1  0.6462830E-013  0.5052886E+02  0.7816164E-02  0.1300439E+00
        -11   -1    0    0    0    0  0.00000000000E+00  0.00000000000E+00  0.45593999997E+02  0.45594000000E+02  0.51100000000E-03 0.  1.
         11   -1    0    0    0    0 -0.00000000000E+00 -0.00000000000E+00 -0.45593999997E+02  0.45594000000E+02  0.51100000000E-03 0. -1.
    9900012    2    1    2    0    0 -0.17232480999E+02 -0.36523301894E+02  0.47175607412E+01  0.50528863733E+02  0.30000011802E+02 0.  0.
         12    1    1    2    0    0  0.17232480999E+02  0.36523301894E+02 -0.47175607412E+01  0.40659136267E+02  0.00000000000E+00 0. -1.
         11    1    3    3    0    0 -0.71634773614E+01 -0.57730277001E+01  0.74569554385E+01  0.11842695698E+02  0.51100000000E-03 0. -1.
        -11    1    3    3    0    0 -0.43052814415E+01 -0.23720885340E+02  0.72547564561E+01  0.25176325012E+02  0.51100000000E-03 0.  1.
         12    1    3    3    0    0 -0.57637221965E+01 -0.70293888541E+01 -0.99941511534E+01  0.13509843023E+02  0.00000000000E+00 0. -1.
</event>
<event>
 7    1  0.6462830E-013  0.5052886E+02  0.7816164E-02  0.1300439E+00
        -11   -1    0    0    0    0  0.00000000000E+00  0.00000000000E+00  0.45593999997E+02  0.45594000000E+02  0.51100000000E-03 0.  1.
         11   -1    0    0    0    0 -0.00000000000E+00 -0.00000000000E+00 -0.45593999997E+02  0.45594000000E+02  0.51100000000E-03 0. -1.
    9900012    2    1    2    0    0 -0.12235261089E+02 -0.11958220163E+02  0.36884481076E+02  0.50528860958E+02  0.30000003369E+02 0.  0.
         12    1    1    2    0    0  0.12235261089E+02  0.11958220163E+02 -0.36884481076E+02  0.40659139042E+02  0.00000000000E+00 0. -1.
         11    1    3    3    0    0 -0.36374729784E+01  0.19332156015E+01  0.16364945057E+02  0.16875424712E+02  0.51100000000E-03 0.  1.
        -11    1    3    3    0    0  0.38472222822E+01 -0.13207189315E+02  0.13836296034E+02  0.19510870229E+02  0.51100000000E-03 0. -1.
         12    1    3    3    0    0 -0.12445010392E+02 -0.68424645020E+00  0.66832399847E+01  0.14142566018E+02  0.00000000000E+00 0. -1.
</event>
<event>
 7    1  0.6462830E-013  0.5052889E+02  0.7816164E-02  0.1300439E+00
        -11   -1    0    0    0    0  0.00000000000E+00  0.00000000000E+00  0.45593999997E+02  0.45594000000E+02  0.51100000000E-03 0.  1.
         11   -1    0    0    0    0 -0.00000000000E+00 -0.00000000000E+00 -0.45593999997E+02  0.45594000000E+02  0.51100000000E-03 0. -1.
    9900012    2    1    2    0    0  0.35910406825E+02 -0.12710394534E+02 -0.14214487814E+02  0.50528891410E+02  0.30000095929E+02 0.  0.
         12    1    1    2    0    0 -0.35910406825E+02  0.12710394534E+02  0.14214487814E+02  0.40659108590E+02  0.00000000000E+00 0. -1.
         11    1    3    3    0    0 -0.26335681695E+01 -0.82699432714E+00 -0.10457268610E+01  0.29518038298E+01  0.51100000000E-03 0. -1.
        -11    1    3    3    0    0  0.13654583469E+02 -0.13289224013E+02  0.66767820599E+00  0.19065595166E+02  0.51100000000E-03 0.  1.
        -12    1    3    3    0    0  0.24889391526E+02  0.14058238059E+01 -0.13836439159E+02  0.28511492414E+02  0.00000000000E+00 0.  1.
</event>
<event>
 7    1  0.8933994E-013  0.5052886E+02  0.7816164E-02  0.1300439E+00
        -11   -1    0    0    0    0  0.00000000000E+00  0.00000000000E+00  0.45593999997E+02  0.45594000000E+02  0.51100000000E-03 0. -1.
         11   -1    0    0    0    0 -0.00000000000E+00 -0.00000000000E+00 -0.45593999997E+02  0.45594000000E+02  0.51100000000E-03 0.  1.
    9900012    2    1    2    0    0  0.50384781121E+01 -0.21356165058E+02 -0.34230006905E+02  0.50528863015E+02  0.30000009620E+02 0.  0.
         12    1    1    2    0    0 -0.50384781121E+01  0.21356165058E+02  0.34230006905E+02  0.40659136985E+02  0.00000000000E+00 0. -1.
         11    1    3    3    0    0 -0.71497200850E+01 -0.76740346201E+01 -0.12722642160E+02  0.16488630278E+02  0.51100000000E-03 0.  1.
        -11    1    3    3    0    0  0.96370849720E+01 -0.18541176589E+02 -0.16920820417E+02  0.26887967567E+02  0.51100000000E-03 0. -1.
         12    1    3    3    0    0  0.25511132251E+01  0.48590461510E+01 -0.45865443285E+01  0.71522651700E+01  0.00000000000E+00 0. -1.
</event>
<event>
 7    1  0.6462830E-013  0.5052886E+02  0.7816164E-02  0.1300439E+00
        -11   -1    0    0    0    0  0.00000000000E+00  0.00000000000E+00  0.45593999997E+02  0.45594000000E+02  0.51100000000E-03 0. -1.
         11   -1    0    0    0    0 -0.00000000000E+00 -0.00000000000E+00 -0.45593999997E+02  0.45594000000E+02  0.51100000000E-03 0.  1.
    9900012    2    1    2    0    0  0.16792036204E+02 -0.37020874910E+02 -0.80496843792E+00  0.50528860398E+02  0.30000001667E+02 0.  0.
         12    1    1    2    0    0 -0.16792036204E+02  0.37020874910E+02  0.80496843792E+00  0.40659139602E+02  0.00000000000E+00 0. -1.
         11    1    3    3    0    0  0.20941733972E+01 -0.13905542978E+01 -0.56908846873E+01  0.62213641798E+01  0.51100000000E-03 0. -1.
        -11    1    3    3    0    0 -0.46387822242E+01 -0.43757303659E+01  0.40325194718E+01  0.75449672173E+01  0.51100000000E-03 0.  1.
        -12    1    3    3    0    0  0.19336645031E+02 -0.31254590246E+02  0.85339677759E+00  0.36762529001E+02  0.00000000000E+00 0.  1.
</event>
<event>
 7    1  0.6462830E-013  0.5052887E+02  0.7816164E-02  0.1300439E+00
        -11   -1    0    0    0    0  0.00000000000E+00  0.00000000000E+00  0.45593999997E+02  0.45594000000E+02  0.51100000000E-03 0.  1.
         11   -1    0    0    0    0 -0.00000000000E+00 -0.00000000000E+00 -0.45593999997E+02  0.45594000000E+02  0.51100000000E-03 0. -1.
    9900012    2    1    2    0    0  0.26399247352E+02 -0.25069870941E+02  0.18103763379E+02  0.50528868944E+02  0.30000027643E+02 0.  0.
         12    1    1    2    0    0 -0.26399247352E+02  0.25069870941E+02 -0.18103763379E+02  0.40659131056E+02  0.00000000000E+00 0. -1.
         11    1    3    3    0    0  0.22253785484E+02 -0.14667555060E+02  0.10147106701E+02  0.28518974639E+02  0.51100000000E-03 0.  1.
        -11    1    3    3    0    0  0.16962490451E+01 -0.68760256580E+01 -0.47964147797E+01  0.85535130018E+01  0.51100000000E-03 0. -1.
         12    1    3    3    0    0  0.24492128230E+01 -0.35262902224E+01  0.12753071457E+02  0.13456381303E+02  0.00000000000E+00 0. -1.
</event>
<event>
 7    1  0.6462830E-013  0.5052886E+02  0.7816164E-02  0.1300439E+00
        -11   -1    0    0    0    0  0.00000000000E+00  0.00000000000E+00  0.45593999997E+02  0.45594000000E+02  0.51100000000E-03 0.  1.
         11   -1    0    0    0    0 -0.00000000000E+00 -0.00000000000E+00 -0.45593999997E+02  0.45594000000E+02  0.51100000000E-03 0. -1.
    9900012    2    1    2    0    0 -0.87530832072E+01 -0.18936787294E+02  0.34899101120E+02  0.50528860343E+02  0.30000001499E+02 0.  0.
         12    1    1    2    0    0  0.87530832072E+01  0.18936787294E+02 -0.34899101120E+02  0.40659139657E+02  0.00000000000E+00 0. -1.
         11    1    3    3    0    0 -0.39634146831E+01 -0.90801140823E+00  0.12872194267E+02  0.13499130571E+02  0.51100000000E-03 0. -1.
        -11    1    3    3    0    0 -0.81453550043E+01 -0.15050406784E+02  0.25939889736E+02  0.31076348439E+02  0.51100000000E-03 0.  1.
         12    1    3    3    0    0  0.33556864802E+01 -0.29783691023E+01 -0.39129828826E+01  0.59533813335E+01  0.00000000000E+00 0. -1.
</event>
<event>
 7    1  0.6462830E-013  0.5052888E+02  0.7816164E-02  0.1300439E+00
        -11   -1    0    0    0    0  0.00000000000E+00  0.00000000000E+00  0.45593999997E+02  0.45594000000E+02  0.51100000000E-03 0.  1.
         11   -1    0    0    0    0 -0.00000000000E+00 -0.00000000000E+00 -0.45593999997E+02  0.45594000000E+02  0.51100000000E-03 0. -1.
    9900012    2    1    2    0    0  0.10258415084E+02 -0.78629073808E+01  0.38550010171E+02  0.50528884458E+02  0.30000074798E+02 0.  0.
         12    1    1    2    0    0 -0.10258415084E+02  0.78629073808E+01 -0.38550010171E+02  0.40659115542E+02  0.00000000000E+00 0. -1.
         11    1    3    3    0    0  0.60461574939E+01 -0.56353335133E+01  0.54645067074E+01  0.99082711945E+01  0.51100000000E-03 0. -1.
        -11    1    3    3    0    0  0.12509179361E+02  0.38315262050E-01  0.27904005548E+02  0.30579642939E+02  0.51100000000E-03 0.  1.
         12    1    3    3    0    0 -0.82969217709E+01 -0.22658891295E+01  0.51814979150E+01  0.10040970325E+02  0.00000000000E+00 0. -1.
</event>
<event>
 7    1  0.6462830E-013  0.5052885E+02  0.7816164E-02  0.1300439E+00
        -11   -1    0    0    0    0  0.00000000000E+00  0.00000000000E+00  0.45593999997E+02  0.45594000000E+02  0.51100000000E-03 0.  1.
         11   -1    0    0    0    0 -0.00000000000E+00 -0.00000000000E+00 -0.45593999997E+02  0.45594000000E+02  0.51100000000E-03 0. -1.
    9900012    2    1    2    0    0  0.11046753630E+02  0.87097960020E+01  0.38148064257E+02  0.50528854427E+02  0.29999983518E+02 0.  0.
         12    1    1    2    0    0 -0.11046753630E+02 -0.87097960020E+01 -0.38148064257E+02  0.40659145573E+02  0.00000000000E+00 0. -1.
         11    1    3    3    0    0  0.10409631038E+02 -0.17546246865E+01  0.19084832469E+02  0.21809859165E+02  0.51100000000E-03 0. -1.
        -11    1    3    3    0    0  0.10400652525E+01  0.41480366998E+01  0.21511722073E+02  0.21932672683E+02  0.51100000000E-03 0.  1.
         12    1    3    3    0    0 -0.40294266126E+00  0.63163839886E+01 -0.24484902856E+01  0.67863225800E+01  0.00000000000E+00 0. -1.
</event>
<event>
 7    1  0.6462830E-013  0.5052886E+02  0.7816164E-02  0.1300439E+00
        -11   -1    0    0    0    0  0.00000000000E+00  0.00000000000E+00  0.45593999997E+02  0.45594000000E+02  0.51100000000E-03 0. -1.
         11   -1    0    0    0    0 -0.00000000000E+00 -0.00000000000E+00 -0.45593999997E+02  0.45594000000E+02  0.51100000000E-03 0.  1.
    9900012    2    1    2    0    0  0.12936079169E+02  0.35746801039E+02  0.14421851334E+02  0.50528859273E+02  0.29999998246E+02 0.  0.
         12    1    1    2    0    0 -0.12936079169E+02 -0.35746801039E+02 -0.14421851334E+02  0.40659140727E+02  0.00000000000E+00 0. -1.
         11    1    3    3    0    0 -0.74262471344E+01  0.55424316417E+01 -0.16779882832E+01  0.94171832277E+01  0.51100000000E-03 0. -1.
        -11    1    3    3    0    0  0.33120888407E+01  0.22155982721E+01 -0.10523164474E+01  0.41214291646E+01  0.51100000000E-03 0.  1.
         12    1    3    3    0    0  0.17050237463E+02  0.27988771125E+02  0.17152156064E+02  0.36990246881E+02  0.00000000000E+00 0. -1.
</event>
<event>
 7    1  0.6462830E-013  0.5052886E+02  0.7816164E-02  0.1300439E+00
        -11   -1    0    0    0    0  0.00000000000E+00  0.00000000000E+00  0.45593999997E+02  0.45594000000E+02  0.51100000000E-03 0.  1.
         11   -1    0    0    0    0 -0.00000000000E+00 -0.00000000000E+00 -0.45593999997E+02  0.45594000000E+02  0.51100000000E-03 0. -1.
    9900012    2    1    2    0    0 -0.41275093374E+01 -0.13082794354E+02  0.38274925257E+02  0.50528859024E+02  0.29999997490E+02 0.  0.
         12    1    1    2    0    0  0.41275093374E+01  0.13082794354E+02 -0.38274925257E+02  0.40659140976E+02  0.00000000000E+00 0. -1.
         11    1    3    3    0    0 -0.55388623469E+01 -0.18345092784E+02  0.28459767119E+02  0.34310053484E+02  0.51100000000E-03 0. -1.
        -11    1    3    3    0    0 -0.19359181612E+01 -0.27156484983E+01  0.57782496530E+01  0.66716336236E+01  0.51100000000E-03 0.  1.
         12    1    3    3    0    0  0.33472711707E+01  0.79779469287E+01  0.40369084853E+01  0.95471719166E+01  0.00000000000E+00 0. -1.
</event>
<event>
 7    1  0.6462830E-013  0.5052888E+02  0.7816164E-02  0.1300439E+00
        -11   -1    0    0    0    0  0.00000000000E+00  0.00000000000E+00  0.45593999997E+02  0.45594000000E+02  0.51100000000E-03 0.  1.
         11   -1    0    0    0    0 -0.00000000000E+00 -0.00000000000E+00 -0.45593999997E+02  0.45594000000E+02  0.51100000000E-03 0. -1.
    9900012    2    1    2    0    0  0.29746996427E+02  0.23121039327E+02  0.15287167121E+02  0.50528883746E+02  0.30000072634E+02 0.  0.
         12    1    1    2    0    0 -0.29746996427E+02 -0.23121039327E+02 -0.15287167121E+02  0.40659116254E+02  0.00000000000E+00 0. -1.
         11    1    3    3    0    0  0.70977185644E+01  0.31160023848E+01  0.66157984496E+01  0.10190969977E+02  0.51100000000E-03 0. -1.
        -11    1    3    3    0    0  0.16609344649E+02  0.16950125009E+02  0.17302553159E+02  0.29369293719E+02  0.51100000000E-03 0.  1.
         12    1    3    3    0    0  0.60399332129E+01  0.30549119332E+01 -0.86311844875E+01  0.10968620050E+02  0.00000000000E+00 0. -1.
</event>
<event>
 7    1  0.6462830E-013  0.5052886E+02  0.7816164E-02  0.1300439E+00
        -11   -1    0    0    0    0  0.00000000000E+00  0.00000000000E+00  0.45593999997E+02  0.45594000000E+02  0.51100000000E-03 0. -1.
         11   -1    0    0    0    0 -0.00000000000E+00 -0.00000000000E+00 -0.45593999997E+02  0.45594000000E+02  0.51100000000E-03 0.  1.
    9900012    2    1    2    0    0  0.32709821238E+02  0.18051058858E+02  0.16043450669E+02  0.50528862765E+02  0.30000008860E+02 0.  0.
         12    1    1    2    0    0 -0.32709821238E+02 -0.18051058858E+02 -0.16043450669E+02  0.40659137235E+02  0.00000000000E+00 0. -1.
         11    1    3    3    0    0  0.21581063627E+02  0.12600154974E+02  0.10638843206E+02  0.27160471234E+02  0.51100000000E-03 0. -1.
        -11    1    3    3    0    0  0.45224095501E+01  0.81257713298E+01 -0.51518234198E+01  0.10631163278E+02  0.51100000000E-03 0.  1.
         12    1    3    3    0    0  0.66063480613E+01 -0.26748674460E+01  0.10556430883E+02  0.12737228252E+02  0.00000000000E+00 0. -1.
</event>
<event>
 7    1  0.6462830E-013  0.5052886E+02  0.7816164E-02  0.1300439E+00
        -11   -1    0    0    0    0  0.00000000000E+00  0.00000000000E+00  0.45593999997E+02  0.45594000000E+02  0.51100000000E-03 0.  1.
         11   -1    0    0    0    0 -0.00000000000E+00 -0.00000000000E+00 -0.45593999997E+02  0.45594000000E+02  0.51100000000E-03 0. -1.
    9900012    2    1    2    0    0  0.69627461713E+01 -0.27651056823E+02  0.28984560312E+02  0.50528861861E+02  0.30000006113E+02 0.  0.
         12    1    1    2    0    0 -0.69627461713E+01  0.27651056823E+02 -0.28984560312E+02  0.40659138139E+02  0.00000000000E+00 0. -1.
         11    1    3    3    0    0 -0.23848256563E+01 -0.15727144923E+00 -0.22565838056E+01  0.32869892687E+01  0.51100000000E-03 0. -1.
        -11    1    3    3    0    0  0.32302349170E+01 -0.28812903065E+02  0.23737286779E+02  0.37471009922E+02  0.51100000000E-03 0.  1.
         12    1    3    3    0    0  0.61173369107E+01  0.13191176910E+01  0.75038573391E+01  0.97708626706E+01  0.00000000000E+00 0. -1.
</event>
<event>
 7    1  0.6462830E-013  0.5052886E+02  0.7816164E-02  0.1300439E+00
        -11   -1    0    0    0    0  0.00000000000E+00  0.00000000000E+00  0.45593999997E+02  0.45594000000E+02  0.51100000000E-03 0.  1.
         11   -1    0    0    0    0 -0.00000000000E+00 -0.00000000000E+00 -0.45593999997E+02  0.45594000000E+02  0.51100000000E-03 0. -1.
    9900012    2    1    2    0    0  0.92766382701E+01 -0.47107798484E+01  0.39305444395E+02  0.50528862977E+02  0.30000009505E+02 0.  0.
         12    1    1    2    0    0 -0.92766382701E+01  0.47107798484E+01 -0.39305444395E+02  0.40659137023E+02  0.00000000000E+00 0. -1.
         11    1    3    3    0    0  0.74150089435E+01 -0.10142629635E+02  0.86144047241E+01  0.15233622765E+02  0.51100000000E-03 0. -1.
        -11    1    3    3    0    0 -0.21931342594E+01  0.84354178874E+01  0.73088778526E+01  0.11374788286E+02  0.51100000000E-03 0.  1.
         12    1    3    3    0    0  0.40547635861E+01 -0.30035681007E+01  0.23382161818E+02  0.23920451926E+02  0.00000000000E+00 0. -1.
</event>
<event>
 7    1  0.6462830E-013  0.5052887E+02  0.7816164E-02  0.1300439E+00
        -11   -1    0    0    0    0  0.00000000000E+00  0.00000000000E+00  0.45593999997E+02  0.45594000000E+02  0.51100000000E-03 0.  1.
         11   -1    0    0    0    0 -0.00000000000E+00 -0.00000000000E+00 -0.45593999997E+02  0.45594000000E+02  0.51100000000E-03 0. -1.
    9900012    2    1    2    0    0  0.11711860113E+02  0.24585148802E+02  0.30192184068E+02  0.50528865876E+02  0.30000018317E+02 0.  0.
         12    1    1    2    0    0 -0.11711860113E+02 -0.24585148802E+02 -0.30192184068E+02  0.40659134124E+02  0.00000000000E+00 0. -1.
         11    1    3    3    0    0  0.14631088656E+02  0.10057418999E+02  0.45159744611E+01  0.18319783235E+02  0.51100000000E-03 0. -1.
        -11    1    3    3    0    0 -0.17699621918E+01 -0.18319503454E+01  0.64713157020E+01  0.69546197167E+01  0.51100000000E-03 0.  1.
        -12    1    3    3    0    0 -0.11492663515E+01  0.16359680148E+02  0.19204893905E+02  0.25254462924E+02  0.00000000000E+00 0.  1.
</event>
<event>
 7    1  0.6462830E-013  0.5052886E+02  0.7816164E-02  0.1300439E+00
        -11   -1    0    0    0    0  0.00000000000E+00  0.00000000000E+00  0.45593999997E+02  0.45594000000E+02  0.51100000000E-03 0.  1.
         11   -1    0    0    0    0 -0.00000000000E+00 -0.00000000000E+00 -0.45593999997E+02  0.45594000000E+02  0.51100000000E-03 0. -1.
    9900012    2    1    2    0    0  0.31677228167E+02  0.96181162910E+01  0.23605312236E+02  0.50528859440E+02  0.29999998753E+02 0.  0.
         12    1    1    2    0    0 -0.31677228167E+02 -0.96181162910E+01 -0.23605312236E+02  0.40659140560E+02  0.00000000000E+00 0. -1.
         11    1    3    3    0    0  0.29064209487E+00 -0.51479187677E+01  0.12497445526E-01  0.51561319721E+01  0.51100000000E-03 0. -1.
        -11    1    3    3    0    0  0.19525054127E+02  0.11501379535E+00  0.88295634265E+01  0.21429002716E+02  0.51100000000E-03 0.  1.
         12    1    3    3    0    0  0.11861531946E+02  0.14651021263E+02  0.14763251364E+02  0.23943724752E+02  0.00000000000E+00 0. -1.
</event>
<event>
 7    1  0.6462830E-013  0.5052886E+02  0.7816164E-02  0.1300439E+00
        -11   -1    0    0    0    0  0.00000000000E+00  0.00000000000E+00  0.45593999997E+02  0.45594000000E+02  0.51100000000E-03 0.  1.
         11   -1    0    0    0    0 -0.00000000000E+00 -0.00000000000E+00 -0.45593999997E+02  0.45594000000E+02  0.51100000000E-03 0. -1.
    9900012    2    1    2    0    0  0.35936566857E+02  0.74048914815E+01  0.17518458724E+02  0.50528860174E+02  0.30000000986E+02 0.  0.
         12    1    1    2    0    0 -0.35936566857E+02 -0.74048914815E+01 -0.17518458724E+02  0.40659139826E+02  0.00000000000E+00 0. -1.
         11    1    3    3    0    0  0.21383423334E+01  0.16366104647E+00 -0.36548346747E+01  0.42375829943E+01  0.51100000000E-03 0. -1.
        -11    1    3    3    0    0  0.81946229447E+01 -0.79244741984E+01  0.54679616239E+01  0.12643090647E+02  0.51100000000E-03 0.  1.
         12    1    3    3    0    0  0.25603601578E+02  0.15165704633E+02  0.15705331775E+02  0.33648186533E+02  0.00000000000E+00 0. -1.
</event>
<event>
 7    1  0.6462830E-013  0.5052889E+02  0.7816164E-02  0.1300439E+00
        -11   -1    0    0    0    0  0.00000000000E+00  0.00000000000E+00  0.45593999997E+02  0.45594000000E+02  0.51100000000E-03 0.  1.
         11   -1    0    0    0    0 -0.00000000000E+00 -0.00000000000E+00 -0.45593999997E+02  0.45594000000E+02  0.51100000000E-03 0. -1.
    9900012    2    1    2    0    0 -0.13033784841E+02  0.14719210770E+02  0.35589723729E+02  0.50528890958E+02  0.30000094555E+02 0.  0.
         12    1    1    2    0    0  0.13033784841E+02 -0.14719210770E+02 -0.35589723729E+02  0.40659109042E+02  0.00000000000E+00 0. -1.
         11    1    3    3    0    0  0.14333559051E+00  0.48226593327E+01 -0.16626000962E+01  0.51032173647E+01  0.51100000000E-03 0.  1.
        -11    1    3    3    0    0 -0.73604483716E+01  0.10377932416E+02  0.68141343352E+01  0.14432952174E+02  0.51100000000E-03 0. -1.
         12    1    3    3    0    0 -0.58166720598E+01 -0.48138097888E+00  0.30438189490E+02  0.30992721419E+02  0.00000000000E+00 0. -1.
</event>
<event>
 7    1  0.6462830E-013  0.5052886E+02  0.7816164E-02  0.1300439E+00
        -11   -1    0    0    0    0  0.00000000000E+00  0.00000000000E+00  0.45593999997E+02  0.45594000000E+02  0.51100000000E-03 0. -1.
         11   -1    0    0    0    0 -0.00000000000E+00 -0.00000000000E+00 -0.45593999997E+02  0.45594000000E+02  0.51100000000E-03 0.  1.
    9900012    2    1    2    0    0  0.22569438874E+02  0.81788365653E+01 -0.32816040102E+02  0.50528862938E+02  0.30000009386E+02 0.  0.
         12    1    1    2    0    0 -0.22569438874E+02 -0.81788365653E+01  0.32816040102E+02  0.40659137062E+02  0.00000000000E+00 0. -1.
         11    1    3    3    0    0  0.10341393476E+02  0.14327261854E+01 -0.12565702021E+02  0.16336890490E+02  0.51100000000E-03 0. -1.
        -11    1    3    3    0    0  0.19013607350E+02  0.24640907901E+01 -0.16667808011E+02  0.25404819071E+02  0.51100000000E-03 0.  1.
         12    1    3    3    0    0 -0.67855619518E+01  0.42820195897E+01 -0.35825300706E+01  0.87871533772E+01  0.00000000000E+00 0. -1.
</event>
<event>
 7    1  0.6462830E-013  0.5052886E+02  0.7816164E-02  0.1300439E+00
        -11   -1    0    0    0    0  0.00000000000E+00  0.00000000000E+00  0.45593999997E+02  0.45594000000E+02  0.51100000000E-03 0. -1.
         11   -1    0    0    0    0 -0.00000000000E+00 -0.00000000000E+00 -0.45593999997E+02  0.45594000000E+02  0.51100000000E-03 0.  1.
    9900012    2    1    2    0    0 -0.36061829918E+02  0.79311812753E+01 -0.17023707539E+02  0.50528857955E+02  0.29999994240E+02 0.  0.
         12    1    1    2    0    0  0.36061829918E+02 -0.79311812753E+01  0.17023707539E+02  0.40659142045E+02  0.00000000000E+00 0. -1.
         11    1    3    3    0    0 -0.22377805166E+02 -0.47966172844E+01 -0.13846844585E+02  0.26748996367E+02  0.51100000000E-03 0. -1.
        -11    1    3    3    0    0  0.17182496985E+01 -0.11062251382E+01  0.15248722375E+01  0.25497748302E+01  0.51100000000E-03 0.  1.
        -12    1    3    3    0    0 -0.15402274451E+02  0.13834023698E+02 -0.47017351908E+01  0.21230086758E+02  0.00000000000E+00 0.  1.
</event>
<event>
 7    1  0.6462830E-013  0.5052885E+02  0.7816164E-02  0.1300439E+00
        -11   -1    0    0    0    0  0.00000000000E+00  0.00000000000E+00  0.45593999997E+02  0.45594000000E+02  0.51100000000E-03 0.  1.
         11   -1    0    0    0    0 -0.00000000000E+00 -0.00000000000E+00 -0.45593999997E+02  0.45594000000E+02  0.51100000000E-03 0. -1.
    9900012    2    1    2    0    0 -0.97703239012E+01 -0.34507163546E+02  0.19156268077E+02  0.50528853775E+02  0.29999981534E+02 0.  0.
         12    1    1    2    0    0  0.97703239012E+01  0.34507163546E+02 -0.19156268077E+02  0.40659146225E+02  0.00000000000E+00 0. -1.
         11    1    3    3    0    0 -0.88358576284E+01 -0.57133139266E+00 -0.31345852850E+00  0.88598564379E+01  0.51100000000E-03 0. -1.
        -11    1    3    3    0    0 -0.54037314973E+01 -0.80701949259E+01  0.95132216240E+01  0.13595210413E+02  0.51100000000E-03 0.  1.
         12    1    3    3    0    0  0.44692652245E+01 -0.25865637227E+02  0.99565049816E+01  0.28073786924E+02  0.00000000000E+00 0. -1.
</event>
<event>
 7    1  0.6462830E-013  0.5052886E+02  0.7816164E-02  0.1300439E+00
        -11   -1    0    0    0    0  0.00000000000E+00  0.00000000000E+00  0.45593999997E+02  0.45594000000E+02  0.51100000000E-03 0.  1.
         11   -1    0    0    0    0 -0.00000000000E+00 -0.00000000000E+00 -0.45593999997E+02  0.45594000000E+02  0.51100000000E-03 0. -1.
    9900012    2    1    2    0    0  0.30512648527E+02  0.19978820193E+02  0.17971951366E+02  0.50528855735E+02  0.29999987492E+02 0.  0.
         12    1    1    2    0    0 -0.30512648527E+02 -0.19978820193E+02 -0.17971951366E+02  0.40659144265E+02  0.00000000000E+00 0. -1.
         11    1    3    3    0    0  0.54411025807E+01  0.15020335400E+02  0.22727165906E+01  0.16136335203E+02  0.51100000000E-03 0. -1.
        -11    1    3    3    0    0  0.21608803108E+01  0.44098618674E+01  0.94318745569E+01  0.10633745498E+02  0.51100000000E-03 0.  1.
        -12    1    3    3    0    0  0.22910665636E+02  0.54862292639E+00  0.62673602184E+01  0.23758775034E+02  0.00000000000E+00 0.  1.
</event>
