<event>
 7    1  0.2655656E-009  0.4778727E+02  0.7816164E-02  0.1312668E+00
        -11   -1    0    0    0    0  0.00000000000E+00  0.00000000000E+00  0.45593999997E+02  0.45594000000E+02  0.51100000000E-03 0.  1.
         11   -1    0    0    0    0 -0.00000000000E+00 -0.00000000000E+00 -0.45593999997E+02  0.45594000000E+02  0.51100000000E-03 0. -1.
    9900012    2    1    2    0    0  0.21093140520E+02 -0.17310413323E+02 -0.33749845681E+02  0.47787273395E+02  0.20000010716E+02 0.  0.
        -12    1    1    2    0    0 -0.21093140520E+02  0.17310413323E+02  0.33749845681E+02  0.43400726605E+02  0.00000000000E+00 0.  1.
         11    1    3    3    0    0  0.10842732521E+02 -0.13602593847E+02 -0.10427981933E+02  0.20281474684E+02  0.51100000000E-03 0. -1.
        -11    1    3    3    0    0  0.57923866981E+01  0.24550416414E+01 -0.65089288858E+01  0.90523548662E+01  0.51100000000E-03 0.  1.
         12    1    3    3    0    0  0.44580213006E+01 -0.61628611169E+01 -0.16812934862E+02  0.18453443845E+02  0.00000000000E+00 0. -1.
</event>
<event>
 7    1  0.2655656E-009  0.4778728E+02  0.7816164E-02  0.1312668E+00
        -11   -1    0    0    0    0  0.00000000000E+00  0.00000000000E+00  0.45593999997E+02  0.45594000000E+02  0.51100000000E-03 0. -1.
         11   -1    0    0    0    0 -0.00000000000E+00 -0.00000000000E+00 -0.45593999997E+02  0.45594000000E+02  0.51100000000E-03 0.  1.
    9900012    2    1    2    0    0  0.40434204995E+02  0.14091035532E+02 -0.70809870109E+01  0.47787278888E+02  0.20000035763E+02 0.  0.
        -12    1    1    2    0    0 -0.40434204995E+02 -0.14091035532E+02  0.70809870109E+01  0.43400721112E+02  0.00000000000E+00 0.  1.
         11    1    3    3    0    0  0.19750140388E+02  0.27232527473E+01 -0.10634884141E+02  0.22596126036E+02  0.51100000000E-03 0. -1.
        -11    1    3    3    0    0  0.13490122800E+02  0.31947936556E+01  0.35193549099E+01  0.14303005939E+02  0.51100000000E-03 0.  1.
         12    1    3    3    0    0  0.71939418071E+01  0.81729891292E+01  0.34542219883E-01  0.10888146913E+02  0.00000000000E+00 0. -1.
</event>
<event>
 7    1  0.2655656E-009  0.4778727E+02  0.7816164E-02  0.1312668E+00
        -11   -1    0    0    0    0  0.00000000000E+00  0.00000000000E+00  0.45593999997E+02  0.45594000000E+02  0.51100000000E-03 0. -1.
         11   -1    0    0    0    0 -0.00000000000E+00 -0.00000000000E+00 -0.45593999997E+02  0.45594000000E+02  0.51100000000E-03 0.  1.
    9900012    2    1    2    0    0  0.30272668004E+02 -0.30749053093E+02  0.46566869855E+01  0.47787269270E+02  0.19999991911E+02 0.  0.
        -12    1    1    2    0    0 -0.30272668004E+02  0.30749053093E+02 -0.46566869855E+01  0.43400730730E+02  0.00000000000E+00 0.  1.
         11    1    3    3    0    0  0.11359567901E+02 -0.11206206481E+02  0.31005585060E+01  0.16255224080E+02  0.51100000000E-03 0. -1.
        -11    1    3    3    0    0  0.18917929458E+02 -0.20270860833E+02  0.48591615276E+01  0.28149730103E+02  0.51100000000E-03 0.  1.
        -12    1    3    3    0    0 -0.48293553244E-02  0.72801422074E+00 -0.33030330481E+01  0.33823150866E+01  0.00000000000E+00 0.  1.
</event>
<event>
 7    1  0.2655656E-009  0.4778727E+02  0.7816164E-02  0.1312668E+00
        -11   -1    0    0    0    0  0.00000000000E+00  0.00000000000E+00  0.45593999997E+02  0.45594000000E+02  0.51100000000E-03 0. -1.
         11   -1    0    0    0    0 -0.00000000000E+00 -0.00000000000E+00 -0.45593999997E+02  0.45594000000E+02  0.51100000000E-03 0.  1.
    9900012    2    1    2    0    0 -0.42532965610E+02 -0.13156747173E+01  0.85345907808E+01  0.47787269553E+02  0.19999993202E+02 0.  0.
        -12    1    1    2    0    0  0.42532965610E+02  0.13156747173E+01 -0.85345907808E+01  0.43400730447E+02  0.00000000000E+00 0.  1.
         11    1    3    3    0    0 -0.41928223668E+02 -0.22209961583E+01  0.62858769689E+01  0.42454929200E+02  0.51100000000E-03 0. -1.
        -11    1    3    3    0    0 -0.73119280492E-01 -0.15660130853E+01  0.23240123637E+01  0.28033510555E+01  0.51100000000E-03 0.  1.
         12    1    3    3    0    0 -0.53162266121E+00  0.24713345263E+01 -0.75298551798E-01  0.25289892975E+01  0.00000000000E+00 0. -1.
</event>
<event>
 7    1  0.2655656E-009  0.4778727E+02  0.7816164E-02  0.1312668E+00
        -11   -1    0    0    0    0  0.00000000000E+00  0.00000000000E+00  0.45593999997E+02  0.45594000000E+02  0.51100000000E-03 0. -1.
         11   -1    0    0    0    0 -0.00000000000E+00 -0.00000000000E+00 -0.45593999997E+02  0.45594000000E+02  0.51100000000E-03 0.  1.
    9900012    2    1    2    0    0  0.11037135321E+02  0.33213064926E+02  0.25665099841E+02  0.47787269733E+02  0.19999994020E+02 0.  0.
        -12    1    1    2    0    0 -0.11037135321E+02 -0.33213064926E+02 -0.25665099841E+02  0.43400730267E+02  0.00000000000E+00 0.  1.
         11    1    3    3    0    0  0.64095958141E+01  0.18536011979E+02  0.48401283796E+01  0.20201324253E+02  0.51100000000E-03 0. -1.
        -11    1    3    3    0    0 -0.22962430497E+01  0.37001374385E+01  0.91321250475E+01  0.10117285078E+02  0.51100000000E-03 0.  1.
         12    1    3    3    0    0  0.69237825565E+01  0.10976915509E+02  0.11692846414E+02  0.17468660402E+02  0.00000000000E+00 0. -1.
</event>
<event>
 7    1  0.2655656E-009  0.4778727E+02  0.7816164E-02  0.1312668E+00
        -11   -1    0    0    0    0  0.00000000000E+00  0.00000000000E+00  0.45593999997E+02  0.45594000000E+02  0.51100000000E-03 0. -1.
         11   -1    0    0    0    0 -0.00000000000E+00 -0.00000000000E+00 -0.45593999997E+02  0.45594000000E+02  0.51100000000E-03 0.  1.
    9900012    2    1    2    0    0  0.33035724622E+02 -0.17478028050E+02 -0.22063152274E+02  0.47787271272E+02  0.20000001040E+02 0.  0.
        -12    1    1    2    0    0 -0.33035724622E+02  0.17478028050E+02  0.22063152274E+02  0.43400728728E+02  0.00000000000E+00 0.  1.
         11    1    3    3    0    0  0.12029233797E+02 -0.16904164237E+02 -0.15038723602E+02  0.25624528135E+02  0.51100000000E-03 0. -1.
        -11    1    3    3    0    0  0.16340439697E+02 -0.51845360207E+00 -0.52616545964E+01  0.17174509396E+02  0.51100000000E-03 0.  1.
         12    1    3    3    0    0  0.46660511277E+01 -0.55410210061E-01 -0.17627740755E+01  0.49882337414E+01  0.00000000000E+00 0. -1.
</event>
<event>
 7    1  0.2655656E-009  0.4778727E+02  0.7816164E-02  0.1312668E+00
        -11   -1    0    0    0    0  0.00000000000E+00  0.00000000000E+00  0.45593999997E+02  0.45594000000E+02  0.51100000000E-03 0.  1.
         11   -1    0    0    0    0 -0.00000000000E+00 -0.00000000000E+00 -0.45593999997E+02  0.45594000000E+02  0.51100000000E-03 0. -1.
    9900012    2    1    2    0    0 -0.11685174175E+02 -0.40896381627E+02  0.86351502372E+01  0.47787272526E+02  0.20000006754E+02 0.  0.
        -12    1    1    2    0    0  0.11685174175E+02  0.40896381627E+02 -0.86351502372E+01  0.43400727474E+02  0.00000000000E+00 0.  1.
         11    1    3    3    0    0  0.13213727603E+01 -0.10521470793E+02  0.82325497699E+01  0.13424688064E+02  0.51100000000E-03 0. -1.
        -11    1    3    3    0    0 -0.11574489312E+02 -0.15689314664E+02  0.15785006870E+01  0.19560548616E+02  0.51100000000E-03 0.  1.
         12    1    3    3    0    0 -0.14320576233E+01 -0.14685596169E+02 -0.11759002196E+01  0.14802035847E+02  0.00000000000E+00 0. -1.
</event>
<event>
 7    1  0.2655656E-009  0.4778727E+02  0.7816164E-02  0.1312668E+00
        -11   -1    0    0    0    0  0.00000000000E+00  0.00000000000E+00  0.45593999997E+02  0.45594000000E+02  0.51100000000E-03 0.  1.
         11   -1    0    0    0    0 -0.00000000000E+00 -0.00000000000E+00 -0.45593999997E+02  0.45594000000E+02  0.51100000000E-03 0. -1.
    9900012    2    1    2    0    0  0.25302685723E+02  0.30806087141E+02  0.17157569525E+02  0.47787273027E+02  0.20000009041E+02 0.  0.
        -12    1    1    2    0    0 -0.25302685723E+02 -0.30806087141E+02 -0.17157569525E+02  0.43400726973E+02  0.00000000000E+00 0.  1.
         11    1    3    3    0    0  0.25771747276E+01  0.48406630225E+01  0.14115853561E+01  0.56627220975E+01  0.51100000000E-03 0. -1.
        -11    1    3    3    0    0  0.10496517817E+02  0.24490506777E+02  0.12209743793E+02  0.29309378230E+02  0.51100000000E-03 0.  1.
        -12    1    3    3    0    0  0.12228993179E+02  0.14749173409E+01  0.35362403765E+01  0.12815172700E+02  0.00000000000E+00 0.  1.
</event>
<event>
 7    1  0.2655656E-009  0.4778727E+02  0.7816164E-02  0.1312668E+00
        -11   -1    0    0    0    0  0.00000000000E+00  0.00000000000E+00  0.45593999997E+02  0.45594000000E+02  0.51100000000E-03 0.  1.
         11   -1    0    0    0    0 -0.00000000000E+00 -0.00000000000E+00 -0.45593999997E+02  0.45594000000E+02  0.51100000000E-03 0. -1.
    9900012    2    1    2    0    0  0.26536695940E+01  0.32986146881E+02 -0.28080160925E+02  0.47787270905E+02  0.19999999365E+02 0.  0.
        -12    1    1    2    0    0 -0.26536695940E+01 -0.32986146881E+02  0.28080160925E+02  0.43400729095E+02  0.00000000000E+00 0.  1.
         11    1    3    3    0    0  0.18254465291E+01  0.18086801925E+02 -0.13099120583E+02  0.22406508412E+02  0.51100000000E-03 0. -1.
        -11    1    3    3    0    0  0.69537328865E+01  0.41023294061E+01 -0.59995688364E+01  0.10058744161E+02  0.51100000000E-03 0.  1.
        -12    1    3    3    0    0 -0.61255098217E+01  0.10797015550E+02 -0.89814715058E+01  0.15322018332E+02  0.00000000000E+00 0.  1.
</event>
<event>
 7    1  0.2655656E-009  0.4778725E+02  0.7816164E-02  0.1312668E+00
        -11   -1    0    0    0    0  0.00000000000E+00  0.00000000000E+00  0.45593999997E+02  0.45594000000E+02  0.51100000000E-03 0. -1.
         11   -1    0    0    0    0 -0.00000000000E+00 -0.00000000000E+00 -0.45593999997E+02  0.45594000000E+02  0.51100000000E-03 0.  1.
    9900012    2    1    2    0    0  0.32168708896E+02 -0.26599850753E+02 -0.11884733603E+02  0.47787253636E+02  0.19999920628E+02 0.  0.
        -12    1    1    2    0    0 -0.32168708896E+02  0.26599850753E+02  0.11884733603E+02  0.43400746364E+02  0.00000000000E+00 0.  1.
         11    1    3    3    0    0  0.16114186380E+02 -0.16689949317E+02 -0.25867084872E+01  0.23343360340E+02  0.51100000000E-03 0. -1.
        -11    1    3    3    0    0  0.18077205225E+01 -0.24024119986E+01 -0.76937468710E+01  0.82603376490E+01  0.51100000000E-03 0.  1.
        -12    1    3    3    0    0  0.14246801994E+02 -0.75074894380E+01 -0.16042782446E+01  0.16183555647E+02  0.00000000000E+00 0.  1.
</event>
<event>
 7    1  0.2655656E-009  0.4778727E+02  0.7816164E-02  0.1312668E+00
        -11   -1    0    0    0    0  0.00000000000E+00  0.00000000000E+00  0.45593999997E+02  0.45594000000E+02  0.51100000000E-03 0.  1.
         11   -1    0    0    0    0 -0.00000000000E+00 -0.00000000000E+00 -0.45593999997E+02  0.45594000000E+02  0.51100000000E-03 0. -1.
    9900012    2    1    2    0    0  0.10452288074E+02  0.71317072117E+01 -0.41515198065E+02  0.47787271388E+02  0.20000001565E+02 0.  0.
        -12    1    1    2    0    0 -0.10452288074E+02 -0.71317072117E+01  0.41515198065E+02  0.43400728612E+02  0.00000000000E+00 0.  1.
         11    1    3    3    0    0  0.55549975757E+01  0.49913882495E+01 -0.92996236046E+01  0.11927068130E+02  0.51100000000E-03 0. -1.
        -11    1    3    3    0    0  0.68082311067E+01 -0.47870754781E+01 -0.14125240094E+02  0.16394831820E+02  0.51100000000E-03 0.  1.
        -12    1    3    3    0    0 -0.19109406080E+01  0.69273944403E+01 -0.18090334366E+02  0.19465371438E+02  0.00000000000E+00 0.  1.
</event>
<event>
 7    1  0.2655656E-009  0.4778726E+02  0.7816164E-02  0.1312668E+00
        -11   -1    0    0    0    0  0.00000000000E+00  0.00000000000E+00  0.45593999997E+02  0.45594000000E+02  0.51100000000E-03 0.  1.
         11   -1    0    0    0    0 -0.00000000000E+00 -0.00000000000E+00 -0.45593999997E+02  0.45594000000E+02  0.51100000000E-03 0. -1.
    9900012    2    1    2    0    0 -0.76673922430E+01  0.27529758328E+02 -0.32664169900E+02  0.47787257003E+02  0.19999935981E+02 0.  0.
        -12    1    1    2    0    0  0.76673922430E+01 -0.27529758328E+02  0.32664169900E+02  0.43400742997E+02  0.00000000000E+00 0.  1.
         11    1    3    3    0    0 -0.36372663140E+01  0.96002541166E+01 -0.13511995661E+02  0.16969637956E+02  0.51100000000E-03 0. -1.
        -11    1    3    3    0    0  0.54116552888E+01  0.95370429536E+01 -0.12179764183E+02  0.16388650252E+02  0.51100000000E-03 0.  1.
        -12    1    3    3    0    0 -0.94417812178E+01  0.83924612577E+01 -0.69724100562E+01  0.14428968796E+02  0.00000000000E+00 0.  1.
</event>
<event>
 7    1  0.2655656E-009  0.4778727E+02  0.7816164E-02  0.1312668E+00
        -11   -1    0    0    0    0  0.00000000000E+00  0.00000000000E+00  0.45593999997E+02  0.45594000000E+02  0.51100000000E-03 0.  1.
         11   -1    0    0    0    0 -0.00000000000E+00 -0.00000000000E+00 -0.45593999997E+02  0.45594000000E+02  0.51100000000E-03 0. -1.
    9900012    2    1    2    0    0 -0.25801097419E+02 -0.29291811834E+02 -0.18971463177E+02  0.47787270932E+02  0.19999999487E+02 0.  0.
        -12    1    1    2    0    0  0.25801097419E+02  0.29291811834E+02  0.18971463177E+02  0.43400729068E+02  0.00000000000E+00 0.  1.
         11    1    3    3    0    0 -0.58463710944E+00  0.14503362003E+01 -0.47558794399E+01  0.50063624671E+01  0.51100000000E-03 0.  1.
        -11    1    3    3    0    0 -0.65955556487E+01 -0.11399259243E+02 -0.21460690951E+01  0.13343540701E+02  0.51100000000E-03 0. -1.
         12    1    3    3    0    0 -0.18620904661E+02 -0.19342888791E+02 -0.12069514641E+02  0.29437367764E+02  0.00000000000E+00 0. -1.
</event>
<event>
 7    1  0.2655656E-009  0.4778727E+02  0.7816164E-02  0.1312668E+00
        -11   -1    0    0    0    0  0.00000000000E+00  0.00000000000E+00  0.45593999997E+02  0.45594000000E+02  0.51100000000E-03 0.  1.
         11   -1    0    0    0    0 -0.00000000000E+00 -0.00000000000E+00 -0.45593999997E+02  0.45594000000E+02  0.51100000000E-03 0. -1.
    9900012    2    1    2    0    0 -0.25159397665E+02 -0.27697654419E+02 -0.21987904384E+02  0.47787270854E+02  0.19999999134E+02 0.  0.
        -12    1    1    2    0    0  0.25159397665E+02  0.27697654419E+02  0.21987904384E+02  0.43400729146E+02  0.00000000000E+00 0.  1.
         11    1    3    3    0    0 -0.17759727764E+02 -0.25550379449E+02 -0.15563468164E+02  0.34791541527E+02  0.51100000000E-03 0. -1.
        -11    1    3    3    0    0 -0.89554150270E+01 -0.67611225036E+00 -0.60328049635E+01  0.10819025930E+02  0.51100000000E-03 0.  1.
        -12    1    3    3    0    0  0.15557451257E+01 -0.14711627190E+01 -0.39163125619E+00  0.21767033979E+01  0.00000000000E+00 0.  1.
</event>
<event>
 7    1  0.2655656E-009  0.4778727E+02  0.7816164E-02  0.1312668E+00
        -11   -1    0    0    0    0  0.00000000000E+00  0.00000000000E+00  0.45593999997E+02  0.45594000000E+02  0.51100000000E-03 0.  1.
         11   -1    0    0    0    0 -0.00000000000E+00 -0.00000000000E+00 -0.45593999997E+02  0.45594000000E+02  0.51100000000E-03 0. -1.
    9900012    2    1    2    0    0 -0.74015473770E+01  0.33212692328E+01 -0.42635777722E+02  0.47787271034E+02  0.19999999951E+02 0.  0.
        -12    1    1    2    0    0  0.74015473770E+01 -0.33212692328E+01  0.42635777722E+02  0.43400728966E+02  0.00000000000E+00 0.  1.
         11    1    3    3    0    0  0.65296162078E+01 -0.78628879268E+00 -0.10054693610E+02  0.12014616171E+02  0.51100000000E-03 0. -1.
        -11    1    3    3    0    0 -0.67928359580E+01  0.64507008258E+00 -0.14320468655E+02  0.15862993366E+02  0.51100000000E-03 0.  1.
         12    1    3    3    0    0 -0.71383276268E+01  0.34624879429E+01 -0.18260615456E+02  0.19909661497E+02  0.00000000000E+00 0. -1.
</event>
<event>
 7    1  0.2655656E-009  0.4778727E+02  0.7816164E-02  0.1312668E+00
        -11   -1    0    0    0    0  0.00000000000E+00  0.00000000000E+00  0.45593999997E+02  0.45594000000E+02  0.51100000000E-03 0.  1.
         11   -1    0    0    0    0 -0.00000000000E+00 -0.00000000000E+00 -0.45593999997E+02  0.45594000000E+02  0.51100000000E-03 0. -1.
    9900012    2    1    2    0    0  0.33100638666E+02 -0.22862936885E+02 -0.16286718696E+02  0.47787269949E+02  0.19999995006E+02 0.  0.
        -12    1    1    2    0    0 -0.33100638666E+02  0.22862936885E+02  0.16286718696E+02  0.43400730051E+02  0.00000000000E+00 0.  1.
         11    1    3    3    0    0  0.76422255038E+01  0.54950405941E+00 -0.75441893383E+01  0.10752690751E+02  0.51100000000E-03 0. -1.
        -11    1    3    3    0    0  0.65880299221E+01 -0.96299532687E+00 -0.14348891481E+01  0.68109034189E+01  0.51100000000E-03 0.  1.
         12    1    3    3    0    0  0.18870383240E+02 -0.22449445618E+02 -0.73076402093E+01  0.30223675779E+02  0.00000000000E+00 0. -1.
</event>
<event>
 7    1  0.2655656E-009  0.4778727E+02  0.7816164E-02  0.1312668E+00
        -11   -1    0    0    0    0  0.00000000000E+00  0.00000000000E+00  0.45593999997E+02  0.45594000000E+02  0.51100000000E-03 0.  1.
         11   -1    0    0    0    0 -0.00000000000E+00 -0.00000000000E+00 -0.45593999997E+02  0.45594000000E+02  0.51100000000E-03 0. -1.
    9900012    2    1    2    0    0  0.25040110025E+01 -0.37274864580E+02 -0.22089304323E+02  0.47787274591E+02  0.20000016171E+02 0.  0.
        -12    1    1    2    0    0 -0.25040110025E+01  0.37274864580E+02  0.22089304323E+02  0.43400725409E+02  0.00000000000E+00 0.  1.
         11    1    3    3    0    0  0.60053199280E+01 -0.24442664723E+02 -0.15375960095E+02  0.29494539754E+02  0.51100000000E-03 0. -1.
        -11    1    3    3    0    0 -0.55814895385E+01 -0.53390030980E+01  0.42650388218E+00  0.77356244331E+01  0.51100000000E-03 0.  1.
         12    1    3    3    0    0  0.20801806130E+01 -0.74931967584E+01 -0.71398481101E+01  0.10557110404E+02  0.00000000000E+00 0. -1.
</event>
<event>
 7    1  0.2655656E-009  0.4778727E+02  0.7816164E-02  0.1312668E+00
        -11   -1    0    0    0    0  0.00000000000E+00  0.00000000000E+00  0.45593999997E+02  0.45594000000E+02  0.51100000000E-03 0.  1.
         11   -1    0    0    0    0 -0.00000000000E+00 -0.00000000000E+00 -0.45593999997E+02  0.45594000000E+02  0.51100000000E-03 0. -1.
    9900012    2    1    2    0    0 -0.20278212283E+02  0.29209699816E+02 -0.24883949429E+02  0.47787269639E+02  0.19999993592E+02 0.  0.
        -12    1    1    2    0    0  0.20278212283E+02 -0.29209699816E+02  0.24883949429E+02  0.43400730361E+02  0.00000000000E+00 0.  1.
         11    1    3    3    0    0 -0.13623619555E+02  0.23225846148E+02 -0.22467464657E+02  0.35068930800E+02  0.51100000000E-03 0. -1.
        -11    1    3    3    0    0 -0.14941184691E+01  0.64546683686E+01  0.71486323720E+00  0.66637949741E+01  0.51100000000E-03 0.  1.
         12    1    3    3    0    0 -0.51604742588E+01 -0.47081470112E+00 -0.31313480087E+01  0.60545438647E+01  0.00000000000E+00 0. -1.
</event>
<event>
 7    1  0.2655656E-009  0.4778727E+02  0.7816164E-02  0.1312668E+00
        -11   -1    0    0    0    0  0.00000000000E+00  0.00000000000E+00  0.45593999997E+02  0.45594000000E+02  0.51100000000E-03 0.  1.
         11   -1    0    0    0    0 -0.00000000000E+00 -0.00000000000E+00 -0.45593999997E+02  0.45594000000E+02  0.51100000000E-03 0. -1.
    9900012    2    1    2    0    0  0.14042791427E+02  0.49215871081E+01 -0.40770103486E+02  0.47787270180E+02  0.19999996057E+02 0.  0.
        -12    1    1    2    0    0 -0.14042791427E+02 -0.49215871081E+01  0.40770103486E+02  0.43400729820E+02  0.00000000000E+00 0.  1.
         11    1    3    3    0    0  0.94187745168E+01  0.13807145646E+01 -0.18119392636E+02  0.20467830268E+02  0.51100000000E-03 0. -1.
        -11    1    3    3    0    0 -0.20545005418E+01 -0.10951713167E+01 -0.17589337202E+02  0.17742749396E+02  0.51100000000E-03 0.  1.
        -12    1    3    3    0    0  0.66785174518E+01  0.46360438602E+01 -0.50613736478E+01  0.95766905156E+01  0.00000000000E+00 0.  1.
</event>
<event>
 7    1  0.2655656E-009  0.4778727E+02  0.7816164E-02  0.1312668E+00
        -11   -1    0    0    0    0  0.00000000000E+00  0.00000000000E+00  0.45593999997E+02  0.45594000000E+02  0.51100000000E-03 0.  1.
         11   -1    0    0    0    0 -0.00000000000E+00 -0.00000000000E+00 -0.45593999997E+02  0.45594000000E+02  0.51100000000E-03 0. -1.
    9900012    2    1    2    0    0 -0.28542513515E+02 -0.13848686592E+02 -0.29616926534E+02  0.47787268032E+02  0.19999986265E+02 0.  0.
        -12    1    1    2    0    0  0.28542513515E+02  0.13848686592E+02  0.29616926534E+02  0.43400731968E+02  0.00000000000E+00 0.  1.
         11    1    3    3    0    0 -0.17811017026E+02 -0.11586721907E+02 -0.28639363945E+02  0.35660869584E+02  0.51100000000E-03 0. -1.
        -11    1    3    3    0    0 -0.75415808208E+01  0.34961847920E+00 -0.21324796355E+01  0.78450713199E+01  0.51100000000E-03 0.  1.
         12    1    3    3    0    0 -0.31899156679E+01 -0.26115831647E+01  0.11549170468E+01  0.42813271283E+01  0.00000000000E+00 0. -1.
</event>
<event>
 7    1  0.2655656E-009  0.4778728E+02  0.7816164E-02  0.1312668E+00
        -11   -1    0    0    0    0  0.00000000000E+00  0.00000000000E+00  0.45593999997E+02  0.45594000000E+02  0.51100000000E-03 0.  1.
         11   -1    0    0    0    0 -0.00000000000E+00 -0.00000000000E+00 -0.45593999997E+02  0.45594000000E+02  0.51100000000E-03 0. -1.
    9900012    2    1    2    0    0  0.26158677310E+02  0.28654560472E+02 -0.19448975593E+02  0.47787275512E+02  0.20000020371E+02 0.  0.
        -12    1    1    2    0    0 -0.26158677310E+02 -0.28654560472E+02  0.19448975593E+02  0.43400724488E+02  0.00000000000E+00 0.  1.
         11    1    3    3    0    0  0.21091320848E+02  0.26592972634E+02 -0.23128410932E+02  0.41072538284E+02  0.51100000000E-03 0. -1.
        -11    1    3    3    0    0  0.24664693824E+00 -0.17094775722E+00  0.25789943562E+00  0.39568955995E+00  0.51100000000E-03 0.  1.
         12    1    3    3    0    0  0.48207095239E+01  0.22325355944E+01  0.34215359028E+01  0.63190476678E+01  0.00000000000E+00 0. -1.
</event>
<event>
 7    1  0.2655656E-009  0.4778727E+02  0.7816164E-02  0.1312668E+00
        -11   -1    0    0    0    0  0.00000000000E+00  0.00000000000E+00  0.45593999997E+02  0.45594000000E+02  0.51100000000E-03 0.  1.
         11   -1    0    0    0    0 -0.00000000000E+00 -0.00000000000E+00 -0.45593999997E+02  0.45594000000E+02  0.51100000000E-03 0. -1.
    9900012    2    1    2    0    0 -0.38147029408E+01 -0.38780683426E+02  0.19108375977E+02  0.47787269615E+02  0.19999993480E+02 0.  0.
        -12    1    1    2    0    0  0.38147029408E+01  0.38780683426E+02 -0.19108375977E+02  0.43400730385E+02  0.00000000000E+00 0.  1.
         11    1    3    3    0    0 -0.53185718210E+01 -0.26820920358E+01  0.27378582728E+01  0.65556610717E+01  0.51100000000E-03 0. -1.
        -11    1    3    3    0    0 -0.73318129936E+00 -0.26427286577E+02  0.16751239686E+02  0.31297652658E+02  0.51100000000E-03 0.  1.
         12    1    3    3    0    0  0.22370501796E+01 -0.96713048127E+01 -0.38072198116E+00  0.99339558844E+01  0.00000000000E+00 0. -1.
</event>
<event>
 7    1  0.2655656E-009  0.4778728E+02  0.7816164E-02  0.1312668E+00
        -11   -1    0    0    0    0  0.00000000000E+00  0.00000000000E+00  0.45593999997E+02  0.45594000000E+02  0.51100000000E-03 0. -1.
         11   -1    0    0    0    0 -0.00000000000E+00 -0.00000000000E+00 -0.45593999997E+02  0.45594000000E+02  0.51100000000E-03 0.  1.
    9900012    2    1    2    0    0 -0.27720746266E+02 -0.22507077068E+01  0.33318425400E+02  0.47787275008E+02  0.20000018069E+02 0.  0.
        -12    1    1    2    0    0  0.27720746266E+02  0.22507077068E+01 -0.33318425400E+02  0.43400724992E+02  0.00000000000E+00 0.  1.
         11    1    3    3    0    0 -0.13416829994E+01  0.42997218048E+01  0.85173673072E+01  0.96350021783E+01  0.51100000000E-03 0. -1.
        -11    1    3    3    0    0 -0.20427091169E+01 -0.56027686632E+00  0.72555274026E+01  0.75583893029E+01  0.51100000000E-03 0.  1.
         12    1    3    3    0    0 -0.24336354150E+02 -0.59901526453E+01  0.17545530690E+02  0.30593883526E+02  0.00000000000E+00 0. -1.
</event>
<event>
 7    1  0.2655656E-009  0.4778727E+02  0.7816164E-02  0.1312668E+00
        -11   -1    0    0    0    0  0.00000000000E+00  0.00000000000E+00  0.45593999997E+02  0.45594000000E+02  0.51100000000E-03 0.  1.
         11   -1    0    0    0    0 -0.00000000000E+00 -0.00000000000E+00 -0.45593999997E+02  0.45594000000E+02  0.51100000000E-03 0. -1.
    9900012    2    1    2    0    0 -0.31888965552E+02 -0.80202026335E+01 -0.28326548741E+02  0.47787272612E+02  0.20000007146E+02 0.  0.
        -12    1    1    2    0    0  0.31888965552E+02  0.80202026335E+01  0.28326548741E+02  0.43400727388E+02  0.00000000000E+00 0.  1.
         11    1    3    3    0    0 -0.11581460943E+02 -0.21153960474E+01 -0.19122123532E+02  0.22455750859E+02  0.51100000000E-03 0. -1.
        -11    1    3    3    0    0 -0.17411305648E+02 -0.11031741443E+01 -0.45133133668E+01  0.18020559241E+02  0.51100000000E-03 0.  1.
         12    1    3    3    0    0 -0.28961989613E+01 -0.48016324418E+01 -0.46911118419E+01  0.73109625114E+01  0.00000000000E+00 0. -1.
</event>
<event>
 7    1  0.2655656E-009  0.4778726E+02  0.7816164E-02  0.1312668E+00
        -11   -1    0    0    0    0  0.00000000000E+00  0.00000000000E+00  0.45593999997E+02  0.45594000000E+02  0.51100000000E-03 0.  1.
         11   -1    0    0    0    0 -0.00000000000E+00 -0.00000000000E+00 -0.45593999997E+02  0.45594000000E+02  0.51100000000E-03 0. -1.
    9900012    2    1    2    0    0 -0.33272522794E+02  0.93796474618E+01 -0.26240916508E+02  0.47787259698E+02  0.19999948268E+02 0.  0.
        -12    1    1    2    0    0  0.33272522794E+02 -0.93796474618E+01  0.26240916508E+02  0.43400740302E+02  0.00000000000E+00 0.  1.
         11    1    3    3    0    0  0.10236178533E+01 -0.16021185249E+01 -0.24157049413E+00  0.19164899797E+01  0.51100000000E-03 0. -1.
        -11    1    3    3    0    0 -0.13156781972E+01  0.85063022423E+00 -0.55443282500E+01  0.57614370518E+01  0.51100000000E-03 0.  1.
         12    1    3    3    0    0 -0.32980462450E+02  0.10131135762E+02 -0.20455017763E+02  0.40109332667E+02  0.00000000000E+00 0. -1.
</event>
<event>
 7    1  0.2655656E-009  0.4778727E+02  0.7816164E-02  0.1312668E+00
        -11   -1    0    0    0    0  0.00000000000E+00  0.00000000000E+00  0.45593999997E+02  0.45594000000E+02  0.51100000000E-03 0.  1.
         11   -1    0    0    0    0 -0.00000000000E+00 -0.00000000000E+00 -0.45593999997E+02  0.45594000000E+02  0.51100000000E-03 0. -1.
    9900012    2    1    2    0    0 -0.34158976757E+02  0.25384908390E+02 -0.85084686158E+01  0.47787270683E+02  0.19999998350E+02 0.  0.
        -12    1    1    2    0    0  0.34158976757E+02 -0.25384908390E+02  0.85084686158E+01  0.43400729317E+02  0.00000000000E+00 0.  1.
         11    1    3    3    0    0 -0.28297513677E+01  0.22907998789E+01 -0.30483172896E+01  0.47484203107E+01  0.51100000000E-03 0.  1.
        -11    1    3    3    0    0 -0.25839724378E+02  0.93960214250E+01 -0.64740800543E+01  0.28246951824E+02  0.51100000000E-03 0. -1.
        -12    1    3    3    0    0 -0.54895010118E+01  0.13698087086E+02  0.10139287281E+01  0.14791898548E+02  0.00000000000E+00 0.  1.
</event>
<event>
 7    1  0.2655656E-009  0.4778727E+02  0.7816164E-02  0.1312668E+00
        -11   -1    0    0    0    0  0.00000000000E+00  0.00000000000E+00  0.45593999997E+02  0.45594000000E+02  0.51100000000E-03 0.  1.
         11   -1    0    0    0    0 -0.00000000000E+00 -0.00000000000E+00 -0.45593999997E+02  0.45594000000E+02  0.51100000000E-03 0. -1.
    9900012    2    1    2    0    0  0.36405529491E+01 -0.27374641935E+02 -0.33481318636E+02  0.47787270231E+02  0.19999996291E+02 0.  0.
        -12    1    1    2    0    0 -0.36405529491E+01  0.27374641935E+02  0.33481318636E+02  0.43400729769E+02  0.00000000000E+00 0.  1.
         11    1    3    3    0    0  0.16061180330E+01 -0.16817346450E+02 -0.28134394043E+02  0.32816868912E+02  0.51100000000E-03 0. -1.
        -11    1    3    3    0    0 -0.11234339050E+01  0.12394046703E+01 -0.12542951865E+01  0.20908094967E+01  0.51100000000E-03 0.  1.
         12    1    3    3    0    0  0.31578688211E+01 -0.11796700155E+02 -0.40926294069E+01  0.12879591822E+02  0.00000000000E+00 0. -1.
</event>
<event>
 7    1  0.2655656E-009  0.4778727E+02  0.7816164E-02  0.1312668E+00
        -11   -1    0    0    0    0  0.00000000000E+00  0.00000000000E+00  0.45593999997E+02  0.45594000000E+02  0.51100000000E-03 0.  1.
         11   -1    0    0    0    0 -0.00000000000E+00 -0.00000000000E+00 -0.45593999997E+02  0.45594000000E+02  0.51100000000E-03 0. -1.
    9900012    2    1    2    0    0  0.33994466742E+02 -0.54530807026E+01 -0.26424670670E+02  0.47787273298E+02  0.20000010276E+02 0.  0.
        -12    1    1    2    0    0 -0.33994466742E+02  0.54530807026E+01  0.26424670670E+02  0.43400726702E+02  0.00000000000E+00 0.  1.
         11    1    3    3    0    0 -0.69679427656E+00  0.22269935839E+01 -0.53074687643E+01  0.57977795432E+01  0.51100000000E-03 0. -1.
        -11    1    3    3    0    0  0.20209474326E+02 -0.21238274920E+01 -0.86333696253E+01  0.22078690340E+02  0.51100000000E-03 0.  1.
        -12    1    3    3    0    0  0.14481786692E+02 -0.55562467945E+01 -0.12483832280E+02  0.19910803415E+02  0.00000000000E+00 0.  1.
</event>
<event>
 7    1  0.2655656E-009  0.4778727E+02  0.7816164E-02  0.1312668E+00
        -11   -1    0    0    0    0  0.00000000000E+00  0.00000000000E+00  0.45593999997E+02  0.45594000000E+02  0.51100000000E-03 0.  1.
         11   -1    0    0    0    0 -0.00000000000E+00 -0.00000000000E+00 -0.45593999997E+02  0.45594000000E+02  0.51100000000E-03 0. -1.
    9900012    2    1    2    0    0  0.34478888084E+02 -0.54057434357E+01 -0.25799366596E+02  0.47787273020E+02  0.20000009007E+02 0.  0.
        -12    1    1    2    0    0 -0.34478888084E+02  0.54057434357E+01  0.25799366596E+02  0.43400726980E+02  0.00000000000E+00 0.  1.
         11    1    3    3    0    0 -0.25445830518E+00 -0.30741805566E+01 -0.54809597109E+01  0.62893763393E+01  0.51100000000E-03 0.  1.
        -11    1    3    3    0    0  0.20392074728E+02 -0.56374630367E+01 -0.14614653021E+02  0.25713921996E+02  0.51100000000E-03 0. -1.
         12    1    3    3    0    0  0.14341271661E+02  0.33059001576E+01 -0.57037538645E+01  0.15783974685E+02  0.00000000000E+00 0. -1.
</event>
<event>
 7    1  0.2655656E-009  0.4778727E+02  0.7816164E-02  0.1312668E+00
        -11   -1    0    0    0    0  0.00000000000E+00  0.00000000000E+00  0.45593999997E+02  0.45594000000E+02  0.51100000000E-03 0.  1.
         11   -1    0    0    0    0 -0.00000000000E+00 -0.00000000000E+00 -0.45593999997E+02  0.45594000000E+02  0.51100000000E-03 0. -1.
    9900012    2    1    2    0    0 -0.31947587071E+02  0.20603122150E+02 -0.20940063689E+02  0.47787271559E+02  0.20000002344E+02 0.  0.
        -12    1    1    2    0    0  0.31947587071E+02 -0.20603122150E+02  0.20940063689E+02  0.43400728441E+02  0.00000000000E+00 0.  1.
         11    1    3    3    0    0 -0.18687712560E+02  0.19704610408E+02 -0.92594639129E+01  0.28692158237E+02  0.51100000000E-03 0. -1.
        -11    1    3    3    0    0 -0.39470728645E+01 -0.29472567215E+01 -0.49155477809E+01  0.69590456693E+01  0.51100000000E-03 0.  1.
        -12    1    3    3    0    0 -0.93128016457E+01  0.38457684633E+01 -0.67650519954E+01  0.12136067652E+02  0.00000000000E+00 0.  1.
</event>
<event>
 7    1  0.2655656E-009  0.4778727E+02  0.7816164E-02  0.1312668E+00
        -11   -1    0    0    0    0  0.00000000000E+00  0.00000000000E+00  0.45593999997E+02  0.45594000000E+02  0.51100000000E-03 0.  1.
         11   -1    0    0    0    0 -0.00000000000E+00 -0.00000000000E+00 -0.45593999997E+02  0.45594000000E+02  0.51100000000E-03 0. -1.
    9900012    2    1    2    0    0  0.16265672430E+02  0.13442956501E+02 -0.37925426041E+02  0.47787272823E+02  0.20000008108E+02 0.  0.
        -12    1    1    2    0    0 -0.16265672430E+02 -0.13442956501E+02  0.37925426041E+02  0.43400727177E+02  0.00000000000E+00 0.  1.
         11    1    3    3    0    0  0.10841842153E+02  0.11545666932E+02 -0.12557448952E+02  0.20212310373E+02  0.51100000000E-03 0. -1.
        -11    1    3    3    0    0  0.97988736953E+00 -0.60996338014E+00  0.46391173676E+00  0.12439650086E+01  0.51100000000E-03 0.  1.
         12    1    3    3    0    0  0.44439429078E+01  0.25072529495E+01 -0.25831888826E+02  0.26330997441E+02  0.00000000000E+00 0. -1.
</event>
<event>
 7    1  0.2655656E-009  0.4778727E+02  0.7816164E-02  0.1312668E+00
        -11   -1    0    0    0    0  0.00000000000E+00  0.00000000000E+00  0.45593999997E+02  0.45594000000E+02  0.51100000000E-03 0.  1.
         11   -1    0    0    0    0 -0.00000000000E+00 -0.00000000000E+00 -0.45593999997E+02  0.45594000000E+02  0.51100000000E-03 0. -1.
    9900012    2    1    2    0    0 -0.23858875193E+02 -0.34596953948E+01 -0.36088888940E+02  0.47787270483E+02  0.19999997441E+02 0.  0.
        -12    1    1    2    0    0  0.23858875193E+02  0.34596953948E+01  0.36088888940E+02  0.43400729517E+02  0.00000000000E+00 0.  1.
         11    1    3    3    0    0  0.20122559833E-01  0.22251921213E+01 -0.77612869801E+01  0.80739990552E+01  0.51100000000E-03 0. -1.
        -11    1    3    3    0    0 -0.20979615230E+02 -0.67986167625E+01 -0.16659391151E+02  0.27638754655E+02  0.51100000000E-03 0.  1.
        -12    1    3    3    0    0 -0.28993825230E+01  0.11137292463E+01 -0.11668210808E+02  0.12074516773E+02  0.00000000000E+00 0.  1.
</event>
<event>
 7    1  0.2655656E-009  0.4778727E+02  0.7816164E-02  0.1312668E+00
        -11   -1    0    0    0    0  0.00000000000E+00  0.00000000000E+00  0.45593999997E+02  0.45594000000E+02  0.51100000000E-03 0. -1.
         11   -1    0    0    0    0 -0.00000000000E+00 -0.00000000000E+00 -0.45593999997E+02  0.45594000000E+02  0.51100000000E-03 0.  1.
    9900012    2    1    2    0    0 -0.15992736559E+01 -0.14817390405E+01  0.43345934679E+02  0.47787270973E+02  0.19999999676E+02 0.  0.
        -12    1    1    2    0    0  0.15992736559E+01  0.14817390405E+01 -0.43345934679E+02  0.43400729027E+02  0.00000000000E+00 0.  1.
         11    1    3    3    0    0 -0.21153109737E+01  0.12157728660E+01  0.53129985469E+01  0.58464175353E+01  0.51100000000E-03 0. -1.
        -11    1    3    3    0    0 -0.14581716704E+01  0.63182896138E+01  0.25883425208E+02  0.26683304687E+02  0.51100000000E-03 0.  1.
        -12    1    3    3    0    0  0.19742089881E+01 -0.90158015203E+01  0.12149510925E+02  0.15257548751E+02  0.00000000000E+00 0.  1.
</event>
<event>
 7    1  0.2655656E-009  0.4778730E+02  0.7816164E-02  0.1312668E+00
        -11   -1    0    0    0    0  0.00000000000E+00  0.00000000000E+00  0.45593999997E+02  0.45594000000E+02  0.51100000000E-03 0. -1.
         11   -1    0    0    0    0 -0.00000000000E+00 -0.00000000000E+00 -0.45593999997E+02  0.45594000000E+02  0.51100000000E-03 0.  1.
    9900012    2    1    2    0    0 -0.90176686831E+01 -0.42381046081E+02  0.24798701807E+01  0.47787295265E+02  0.20000110432E+02 0.  0.
        -12    1    1    2    0    0  0.90176686831E+01  0.42381046081E+02 -0.24798701807E+01  0.43400704735E+02  0.00000000000E+00 0.  1.
         11    1    3    3    0    0  0.28188696841E+00 -0.19140857952E+02  0.25548305553E+01  0.19312665865E+02  0.51100000000E-03 0. -1.
        -11    1    3    3    0    0 -0.12215102491E+02 -0.13076803974E+02 -0.34711815980E+00  0.17897821720E+02  0.51100000000E-03 0.  1.
        -12    1    3    3    0    0  0.29155468392E+01 -0.10163384154E+02  0.27215778521E+00  0.10576807680E+02  0.00000000000E+00 0.  1.
</event>
<event>
 7    1  0.2655656E-009  0.4778727E+02  0.7816164E-02  0.1312668E+00
        -11   -1    0    0    0    0  0.00000000000E+00  0.00000000000E+00  0.45593999997E+02  0.45594000000E+02  0.51100000000E-03 0. -1.
         11   -1    0    0    0    0 -0.00000000000E+00 -0.00000000000E+00 -0.45593999997E+02  0.45594000000E+02  0.51100000000E-03 0.  1.
    9900012    2    1    2    0    0 -0.37450500349E+02 -0.73106668373E+01  0.20679393142E+02  0.47787272740E+02  0.20000007730E+02 0.  0.
        -12    1    1    2    0    0  0.37450500349E+02  0.73106668373E+01 -0.20679393142E+02  0.43400727260E+02  0.00000000000E+00 0.  1.
         11    1    3    3    0    0 -0.16650711222E+02 -0.82765261554E+01  0.16775161229E+02  0.25043025055E+02  0.51100000000E-03 0. -1.
        -11    1    3    3    0    0 -0.42086834737E+00 -0.17740156297E+01  0.59164899190E+00  0.19168490840E+01  0.51100000000E-03 0.  1.
         12    1    3    3    0    0 -0.20378920779E+02  0.27398749478E+01  0.33125829220E+01  0.20827398601E+02  0.00000000000E+00 0. -1.
</event>
<event>
 7    1  0.2655656E-009  0.4778727E+02  0.7816164E-02  0.1312668E+00
        -11   -1    0    0    0    0  0.00000000000E+00  0.00000000000E+00  0.45593999997E+02  0.45594000000E+02  0.51100000000E-03 0.  1.
         11   -1    0    0    0    0 -0.00000000000E+00 -0.00000000000E+00 -0.45593999997E+02  0.45594000000E+02  0.51100000000E-03 0. -1.
    9900012    2    1    2    0    0  0.52693734318E+01  0.34909700713E+01 -0.42937980113E+02  0.47787270691E+02  0.19999998386E+02 0.  0.
        -12    1    1    2    0    0 -0.52693734318E+01 -0.34909700713E+01  0.42937980113E+02  0.43400729309E+02  0.00000000000E+00 0.  1.
         11    1    3    3    0    0 -0.83850382070E+00 -0.50566359196E+01 -0.13382593063E+02  0.14330612437E+02  0.51100000000E-03 0.  1.
        -11    1    3    3    0    0  0.63732909759E+01  0.10742671957E+02 -0.28251787318E+02  0.30889922719E+02  0.51100000000E-03 0. -1.
         12    1    3    3    0    0 -0.26541372336E+00 -0.21950659664E+01 -0.13035997318E+01  0.25667355341E+01  0.00000000000E+00 0. -1.
</event>
<event>
 7    1  0.2655656E-009  0.4778727E+02  0.7816164E-02  0.1312668E+00
        -11   -1    0    0    0    0  0.00000000000E+00  0.00000000000E+00  0.45593999997E+02  0.45594000000E+02  0.51100000000E-03 0.  1.
         11   -1    0    0    0    0 -0.00000000000E+00 -0.00000000000E+00 -0.45593999997E+02  0.45594000000E+02  0.51100000000E-03 0. -1.
    9900012    2    1    2    0    0  0.38969057222E+02  0.13505438522E+02  0.13514406100E+02  0.47787268869E+02  0.19999990082E+02 0.  0.
        -12    1    1    2    0    0 -0.38969057222E+02 -0.13505438522E+02 -0.13514406100E+02  0.43400731131E+02  0.00000000000E+00 0.  1.
         11    1    3    3    0    0  0.35434437252E+02  0.42867251795E+01  0.97315672619E+01  0.36995658634E+02  0.51100000000E-03 0. -1.
        -11    1    3    3    0    0  0.33523707298E+01  0.59405782268E+01  0.26651951552E+01  0.73233957052E+01  0.51100000000E-03 0.  1.
         12    1    3    3    0    0  0.18224924037E+00  0.32781351162E+01  0.11176436829E+01  0.34682145302E+01  0.00000000000E+00 0. -1.
</event>
<event>
 7    1  0.2655656E-009  0.4778727E+02  0.7816164E-02  0.1312668E+00
        -11   -1    0    0    0    0  0.00000000000E+00  0.00000000000E+00  0.45593999997E+02  0.45594000000E+02  0.51100000000E-03 0. -1.
         11   -1    0    0    0    0 -0.00000000000E+00 -0.00000000000E+00 -0.45593999997E+02  0.45594000000E+02  0.51100000000E-03 0.  1.
    9900012    2    1    2    0    0  0.41920460449E+02 -0.11090417167E+02  0.18168276531E+01  0.47787271666E+02  0.20000002833E+02 0.  0.
        -12    1    1    2    0    0 -0.41920460449E+02  0.11090417167E+02 -0.18168276531E+01  0.43400728334E+02  0.00000000000E+00 0.  1.
         11    1    3    3    0    0  0.11372177112E+02  0.40400461223E+01 -0.22355914633E+00  0.12070557729E+02  0.51100000000E-03 0. -1.
        -11    1    3    3    0    0  0.61368052513E+01 -0.71107460230E+00 -0.30846857185E+01  0.69051641563E+01  0.51100000000E-03 0.  1.
         12    1    3    3    0    0  0.24411478086E+02 -0.14419388687E+02  0.51250725179E+01  0.28811549780E+02  0.00000000000E+00 0. -1.
</event>
<event>
 7    1  0.2655656E-009  0.4778727E+02  0.7816164E-02  0.1312668E+00
        -11   -1    0    0    0    0  0.00000000000E+00  0.00000000000E+00  0.45593999997E+02  0.45594000000E+02  0.51100000000E-03 0. -1.
         11   -1    0    0    0    0 -0.00000000000E+00 -0.00000000000E+00 -0.45593999997E+02  0.45594000000E+02  0.51100000000E-03 0.  1.
    9900012    2    1    2    0    0  0.42280302505E+02 -0.92509780600E+01 -0.32278000903E+01  0.47787271108E+02  0.20000000289E+02 0.  0.
        -12    1    1    2    0    0 -0.42280302505E+02  0.92509780600E+01  0.32278000903E+01  0.43400728892E+02  0.00000000000E+00 0.  1.
         11    1    3    3    0    0  0.26650220115E+02 -0.36471762377E+00  0.16183421907E+01  0.26701802988E+02  0.51100000000E-03 0. -1.
        -11    1    3    3    0    0  0.42503375976E+01 -0.77360043993E+01 -0.37669783544E+01  0.95969401344E+01  0.51100000000E-03 0.  1.
        -12    1    3    3    0    0  0.11379744792E+02 -0.11502560369E+01 -0.10791639266E+01  0.11488527985E+02  0.00000000000E+00 0.  1.
</event>
<event>
 7    1  0.2655656E-009  0.4778727E+02  0.7816164E-02  0.1312668E+00
        -11   -1    0    0    0    0  0.00000000000E+00  0.00000000000E+00  0.45593999997E+02  0.45594000000E+02  0.51100000000E-03 0.  1.
         11   -1    0    0    0    0 -0.00000000000E+00 -0.00000000000E+00 -0.45593999997E+02  0.45594000000E+02  0.51100000000E-03 0. -1.
    9900012    2    1    2    0    0 -0.21296254464E+02  0.10876951615E+01 -0.37800921419E+02  0.47787271952E+02  0.20000004136E+02 0.  0.
        -12    1    1    2    0    0  0.21296254464E+02 -0.10876951615E+01  0.37800921419E+02  0.43400728048E+02  0.00000000000E+00 0.  1.
         11    1    3    3    0    0 -0.36225322652E+01  0.10914187144E+01 -0.45224694663E+01  0.58963264120E+01  0.51100000000E-03 0. -1.
        -11    1    3    3    0    0 -0.10405733735E+02 -0.22249338293E+00 -0.31161705787E+01  0.10864590061E+02  0.51100000000E-03 0.  1.
        -12    1    3    3    0    0 -0.72679884643E+01  0.21876983004E+00 -0.30162281375E+02  0.31026355478E+02  0.00000000000E+00 0.  1.
</event>
<event>
 7    1  0.2655656E-009  0.4778728E+02  0.7816164E-02  0.1312668E+00
        -11   -1    0    0    0    0  0.00000000000E+00  0.00000000000E+00  0.45593999997E+02  0.45594000000E+02  0.51100000000E-03 0.  1.
         11   -1    0    0    0    0 -0.00000000000E+00 -0.00000000000E+00 -0.45593999997E+02  0.45594000000E+02  0.51100000000E-03 0. -1.
    9900012    2    1    2    0    0  0.21550567366E+02  0.73470098324E+01 -0.36948841217E+02  0.47787281405E+02  0.20000047240E+02 0.  0.
        -12    1    1    2    0    0 -0.21550567366E+02 -0.73470098324E+01  0.36948841217E+02  0.43400718595E+02  0.00000000000E+00 0.  1.
         11    1    3    3    0    0  0.38018002797E+01  0.83850248116E+01 -0.14226312010E+02  0.16945509143E+02  0.51100000000E-03 0. -1.
        -11    1    3    3    0    0  0.71203626158E+01 -0.58144429472E+01 -0.10475696197E+02  0.13937270954E+02  0.51100000000E-03 0.  1.
        -12    1    3    3    0    0  0.10628404470E+02  0.47764279680E+01 -0.12246833010E+02  0.16904501309E+02  0.00000000000E+00 0.  1.
</event>
<event>
 7    1  0.2655656E-009  0.4778727E+02  0.7816164E-02  0.1312668E+00
        -11   -1    0    0    0    0  0.00000000000E+00  0.00000000000E+00  0.45593999997E+02  0.45594000000E+02  0.51100000000E-03 0. -1.
         11   -1    0    0    0    0 -0.00000000000E+00 -0.00000000000E+00 -0.45593999997E+02  0.45594000000E+02  0.51100000000E-03 0.  1.
    9900012    2    1    2    0    0  0.40086918801E+02 -0.15867247503E+02 -0.49892712232E+01  0.47787269250E+02  0.19999991821E+02 0.  0.
        -12    1    1    2    0    0 -0.40086918801E+02  0.15867247503E+02  0.49892712232E+01  0.43400730750E+02  0.00000000000E+00 0.  1.
         11    1    3    3    0    0  0.29867344734E+02 -0.13001394418E+02  0.47184640645E+01  0.32914410851E+02  0.51100000000E-03 0. -1.
        -11    1    3    3    0    0 -0.25999830469E+00 -0.15078571644E+00  0.42697625503E-01  0.30357667741E+00  0.51100000000E-03 0.  1.
         12    1    3    3    0    0  0.10479572371E+02 -0.27150673685E+01 -0.97504329132E+01  0.14569281722E+02  0.00000000000E+00 0. -1.
</event>
<event>
 7    1  0.2655656E-009  0.4778727E+02  0.7816164E-02  0.1312668E+00
        -11   -1    0    0    0    0  0.00000000000E+00  0.00000000000E+00  0.45593999997E+02  0.45594000000E+02  0.51100000000E-03 0. -1.
         11   -1    0    0    0    0 -0.00000000000E+00 -0.00000000000E+00 -0.45593999997E+02  0.45594000000E+02  0.51100000000E-03 0.  1.
    9900012    2    1    2    0    0 -0.42929558291E+02 -0.33860431324E+01  0.54047187022E+01  0.47787271349E+02  0.20000001389E+02 0.  0.
        -12    1    1    2    0    0  0.42929558291E+02  0.33860431324E+01 -0.54047187022E+01  0.43400728651E+02  0.00000000000E+00 0.  1.
         11    1    3    3    0    0 -0.26050163077E+02  0.23688118858E+01 -0.27316413548E+01  0.26299888419E+02  0.51100000000E-03 0. -1.
        -11    1    3    3    0    0 -0.30888810154E+01  0.23154313285E-01 -0.17616561754E+01  0.35560026422E+01  0.51100000000E-03 0.  1.
         12    1    3    3    0    0 -0.13790514199E+02 -0.57780093314E+01  0.98980162324E+01  0.17931380288E+02  0.00000000000E+00 0. -1.
</event>
<event>
 7    1  0.2655656E-009  0.4778728E+02  0.7816164E-02  0.1312668E+00
        -11   -1    0    0    0    0  0.00000000000E+00  0.00000000000E+00  0.45593999997E+02  0.45594000000E+02  0.51100000000E-03 0.  1.
         11   -1    0    0    0    0 -0.00000000000E+00 -0.00000000000E+00 -0.45593999997E+02  0.45594000000E+02  0.51100000000E-03 0. -1.
    9900012    2    1    2    0    0  0.37823462778E+02 -0.53012359440E+01 -0.20613225008E+02  0.47787280141E+02  0.20000041476E+02 0.  0.
        -12    1    1    2    0    0 -0.37823462778E+02  0.53012359440E+01  0.20613225008E+02  0.43400719859E+02  0.00000000000E+00 0.  1.
         11    1    3    3    0    0  0.36952992520E+02 -0.76315857176E+01 -0.14892174446E+02  0.40565275997E+02  0.51100000000E-03 0. -1.
        -11    1    3    3    0    0  0.26711775642E+00  0.26738041269E+01 -0.17867710875E+01  0.32269384228E+01  0.51100000000E-03 0.  1.
         12    1    3    3    0    0  0.60335250152E+00 -0.34345435326E+00 -0.39342794748E+01  0.39950657216E+01  0.00000000000E+00 0. -1.
</event>
<event>
 7    1  0.2655656E-009  0.4778727E+02  0.7816164E-02  0.1312668E+00
        -11   -1    0    0    0    0  0.00000000000E+00  0.00000000000E+00  0.45593999997E+02  0.45594000000E+02  0.51100000000E-03 0. -1.
         11   -1    0    0    0    0 -0.00000000000E+00 -0.00000000000E+00 -0.45593999997E+02  0.45594000000E+02  0.51100000000E-03 0.  1.
    9900012    2    1    2    0    0 -0.28441678071E+01  0.32284342443E+01  0.43186931079E+02  0.47787273114E+02  0.20000009437E+02 0.  0.
        -12    1    1    2    0    0  0.28441678071E+01 -0.32284342443E+01 -0.43186931079E+02  0.43400726886E+02  0.00000000000E+00 0.  1.
         11    1    3    3    0    0 -0.16987372652E+01 -0.11682868960E+01  0.12729703536E+02  0.12895578891E+02  0.51100000000E-03 0. -1.
        -11    1    3    3    0    0 -0.65318826204E+01 -0.16895127318E+01  0.22606032134E+02  0.23591367764E+02  0.51100000000E-03 0.  1.
        -12    1    3    3    0    0  0.53864520785E+01  0.60862338721E+01  0.78511954087E+01  0.11300326459E+02  0.00000000000E+00 0.  1.
</event>
<event>
 7    1  0.2655656E-009  0.4778727E+02  0.7816164E-02  0.1312668E+00
        -11   -1    0    0    0    0  0.00000000000E+00  0.00000000000E+00  0.45593999997E+02  0.45594000000E+02  0.51100000000E-03 0.  1.
         11   -1    0    0    0    0 -0.00000000000E+00 -0.00000000000E+00 -0.45593999997E+02  0.45594000000E+02  0.51100000000E-03 0. -1.
    9900012    2    1    2    0    0 -0.30979153154E+02 -0.18672418831E+02 -0.23984497472E+02  0.47787271042E+02  0.19999999987E+02 0.  0.
        -12    1    1    2    0    0  0.30979153154E+02  0.18672418831E+02  0.23984497472E+02  0.43400728958E+02  0.00000000000E+00 0.  1.
         11    1    3    3    0    0 -0.17441867180E+02 -0.11428230375E+02 -0.18735208888E+02  0.28032681509E+02  0.51100000000E-03 0. -1.
        -11    1    3    3    0    0 -0.13122611780E+02 -0.57799238842E+01 -0.52152772742E-01  0.14339218257E+02  0.51100000000E-03 0.  1.
        -12    1    3    3    0    0 -0.41467419371E+00 -0.14642645717E+01 -0.51971358106E+01  0.54153712760E+01  0.00000000000E+00 0.  1.
</event>
<event>
 7    1  0.2655656E-009  0.4778727E+02  0.7816164E-02  0.1312668E+00
        -11   -1    0    0    0    0  0.00000000000E+00  0.00000000000E+00  0.45593999997E+02  0.45594000000E+02  0.51100000000E-03 0.  1.
         11   -1    0    0    0    0 -0.00000000000E+00 -0.00000000000E+00 -0.45593999997E+02  0.45594000000E+02  0.51100000000E-03 0. -1.
    9900012    2    1    2    0    0 -0.35155289882E+02 -0.24976817251E+02 -0.48874953852E+01  0.47787269386E+02  0.19999992438E+02 0.  0.
        -12    1    1    2    0    0  0.35155289882E+02  0.24976817251E+02  0.48874953852E+01  0.43400730614E+02  0.00000000000E+00 0.  1.
         11    1    3    3    0    0 -0.29453876229E+02 -0.24885431132E+02 -0.10274923737E+02  0.39904756178E+02  0.51100000000E-03 0. -1.
        -11    1    3    3    0    0 -0.39602149702E+01  0.11862560858E+00  0.41397189618E+01  0.57301525276E+01  0.51100000000E-03 0.  1.
         12    1    3    3    0    0 -0.17411986827E+01 -0.21001172762E+00  0.12477093896E+01  0.21523606806E+01  0.00000000000E+00 0. -1.
</event>
<event>
 7    1  0.2655656E-009  0.4778728E+02  0.7816164E-02  0.1312668E+00
        -11   -1    0    0    0    0  0.00000000000E+00  0.00000000000E+00  0.45593999997E+02  0.45594000000E+02  0.51100000000E-03 0.  1.
         11   -1    0    0    0    0 -0.00000000000E+00 -0.00000000000E+00 -0.45593999997E+02  0.45594000000E+02  0.51100000000E-03 0. -1.
    9900012    2    1    2    0    0  0.43288544463E+02  0.79513354205E+00  0.30152626651E+01  0.47787284246E+02  0.20000060189E+02 0.  0.
        -12    1    1    2    0    0 -0.43288544463E+02 -0.79513354205E+00 -0.30152626651E+01  0.43400715754E+02  0.00000000000E+00 0.  1.
         11    1    3    3    0    0  0.29746929188E+02 -0.40400474054E+01 -0.40316725811E+01  0.30289538842E+02  0.51100000000E-03 0. -1.
        -11    1    3    3    0    0  0.38737805863E+01  0.18357392407E+01  0.59252914541E+01  0.73133572091E+01  0.51100000000E-03 0.  1.
         12    1    3    3    0    0  0.96678346880E+01  0.29994417067E+01  0.11216437921E+01  0.10184388195E+02  0.00000000000E+00 0. -1.
</event>
<event>
 7    1  0.2655656E-009  0.4778727E+02  0.7816164E-02  0.1312668E+00
        -11   -1    0    0    0    0  0.00000000000E+00  0.00000000000E+00  0.45593999997E+02  0.45594000000E+02  0.51100000000E-03 0.  1.
         11   -1    0    0    0    0 -0.00000000000E+00 -0.00000000000E+00 -0.45593999997E+02  0.45594000000E+02  0.51100000000E-03 0. -1.
    9900012    2    1    2    0    0 -0.78494578234E+01  0.32687370251E+02 -0.27450770581E+02  0.47787274573E+02  0.20000016090E+02 0.  0.
        -12    1    1    2    0    0  0.78494578234E+01 -0.32687370251E+02  0.27450770581E+02  0.43400725427E+02  0.00000000000E+00 0.  1.
         11    1    3    3    0    0 -0.28639655306E+00  0.16567215366E+02 -0.10299603723E+02  0.19509907357E+02  0.51100000000E-03 0. -1.
        -11    1    3    3    0    0 -0.91924888383E+01  0.64034591319E+01 -0.14005750179E+02  0.17935082331E+02  0.51100000000E-03 0.  1.
        -12    1    3    3    0    0  0.16294275680E+01  0.97166957530E+01 -0.31454166790E+01  0.10342284885E+02  0.00000000000E+00 0.  1.
</event>
<event>
 7    1  0.2655656E-009  0.4778727E+02  0.7816164E-02  0.1312668E+00
        -11   -1    0    0    0    0  0.00000000000E+00  0.00000000000E+00  0.45593999997E+02  0.45594000000E+02  0.51100000000E-03 0. -1.
         11   -1    0    0    0    0 -0.00000000000E+00 -0.00000000000E+00 -0.45593999997E+02  0.45594000000E+02  0.51100000000E-03 0.  1.
    9900012    2    1    2    0    0  0.41364460055E+02 -0.13133978850E+02 -0.32128767190E+00  0.47787272105E+02  0.20000004835E+02 0.  0.
        -12    1    1    2    0    0 -0.41364460055E+02  0.13133978850E+02  0.32128767190E+00  0.43400727895E+02  0.00000000000E+00 0.  1.
         11    1    3    3    0    0  0.12355502311E+02  0.92715879156E+00  0.47363043995E+01  0.13264638722E+02  0.51100000000E-03 0. -1.
        -11    1    3    3    0    0  0.30733312513E+01  0.39827152843E-01  0.25986300893E+01  0.40249012142E+01  0.51100000000E-03 0.  1.
         12    1    3    3    0    0  0.25935626492E+02 -0.14100964794E+02 -0.76562221607E+01  0.30497732169E+02  0.00000000000E+00 0. -1.
</event>
<event>
 7    1  0.2655656E-009  0.4778727E+02  0.7816164E-02  0.1312668E+00
        -11   -1    0    0    0    0  0.00000000000E+00  0.00000000000E+00  0.45593999997E+02  0.45594000000E+02  0.51100000000E-03 0. -1.
         11   -1    0    0    0    0 -0.00000000000E+00 -0.00000000000E+00 -0.45593999997E+02  0.45594000000E+02  0.51100000000E-03 0.  1.
    9900012    2    1    2    0    0 -0.22279612306E+02 -0.25805455697E+02  0.26857415037E+02  0.47787269468E+02  0.19999992811E+02 0.  0.
        -12    1    1    2    0    0  0.22279612306E+02  0.25805455697E+02 -0.26857415037E+02  0.43400730532E+02  0.00000000000E+00 0.  1.
         11    1    3    3    0    0 -0.19933416994E+01  0.26318006787E+01  0.79116021749E+00  0.33949551829E+01  0.51100000000E-03 0.  1.
        -11    1    3    3    0    0 -0.15132696453E+02 -0.14428601685E+02  0.16813898229E+02  0.26830770068E+02  0.51100000000E-03 0. -1.
        -12    1    3    3    0    0 -0.51535741538E+01 -0.14008654691E+02  0.92523565908E+01  0.17561544217E+02  0.00000000000E+00 0.  1.
</event>
<event>
 7    1  0.2655656E-009  0.4778728E+02  0.7816164E-02  0.1312668E+00
        -11   -1    0    0    0    0  0.00000000000E+00  0.00000000000E+00  0.45593999997E+02  0.45594000000E+02  0.51100000000E-03 0.  1.
         11   -1    0    0    0    0 -0.00000000000E+00 -0.00000000000E+00 -0.45593999997E+02  0.45594000000E+02  0.51100000000E-03 0. -1.
    9900012    2    1    2    0    0 -0.12485180572E+02 -0.20078863354E+02 -0.36394801644E+02  0.47787284865E+02  0.20000063016E+02 0.  0.
        -12    1    1    2    0    0  0.12485180572E+02  0.20078863354E+02  0.36394801644E+02  0.43400715135E+02  0.00000000000E+00 0.  1.
         11    1    3    3    0    0  0.14593338536E+01 -0.48382208073E+01 -0.67597098957E+01  0.84398882701E+01  0.51100000000E-03 0. -1.
        -11    1    3    3    0    0 -0.52602741914E+01 -0.97083895292E+01 -0.40382164774E+01  0.11757146950E+02  0.51100000000E-03 0.  1.
        -12    1    3    3    0    0 -0.86842402340E+01 -0.55322530179E+01 -0.25596875270E+02  0.27590249646E+02  0.00000000000E+00 0.  1.
</event>
<event>
 7    1  0.2655656E-009  0.4778727E+02  0.7816164E-02  0.1312668E+00
        -11   -1    0    0    0    0  0.00000000000E+00  0.00000000000E+00  0.45593999997E+02  0.45594000000E+02  0.51100000000E-03 0.  1.
         11   -1    0    0    0    0 -0.00000000000E+00 -0.00000000000E+00 -0.45593999997E+02  0.45594000000E+02  0.51100000000E-03 0. -1.
    9900012    2    1    2    0    0 -0.33559395880E+02 -0.15111789287E+02 -0.23000520984E+02  0.47787271978E+02  0.20000004258E+02 0.  0.
        -12    1    1    2    0    0  0.33559395880E+02  0.15111789287E+02  0.23000520984E+02  0.43400728022E+02  0.00000000000E+00 0.  1.
         11    1    3    3    0    0 -0.25779698880E+02 -0.11958256466E+02 -0.99345848037E+01  0.30104630001E+02  0.51100000000E-03 0. -1.
        -11    1    3    3    0    0 -0.90689772844E+01 -0.30270401426E+01 -0.13286136462E+02  0.16368590146E+02  0.51100000000E-03 0.  1.
         12    1    3    3    0    0  0.12892802845E+01 -0.12649267899E+00  0.22020028240E+00  0.13140518309E+01  0.00000000000E+00 0. -1.
</event>
<event>
 7    1  0.2655656E-009  0.4778727E+02  0.7816164E-02  0.1312668E+00
        -11   -1    0    0    0    0  0.00000000000E+00  0.00000000000E+00  0.45593999997E+02  0.45594000000E+02  0.51100000000E-03 0. -1.
         11   -1    0    0    0    0 -0.00000000000E+00 -0.00000000000E+00 -0.45593999997E+02  0.45594000000E+02  0.51100000000E-03 0.  1.
    9900012    2    1    2    0    0  0.53285191855E+01 -0.26904528771E+02  0.33635943399E+02  0.47787268745E+02  0.19999989515E+02 0.  0.
        -12    1    1    2    0    0 -0.53285191855E+01  0.26904528771E+02 -0.33635943399E+02  0.43400731255E+02  0.00000000000E+00 0.  1.
         11    1    3    3    0    0  0.75989122729E+01 -0.10885782995E+02  0.67369307023E+01  0.14887242011E+02  0.51100000000E-03 0. -1.
        -11    1    3    3    0    0 -0.47555929241E+01 -0.30916104442E+01  0.65539615655E+01  0.86676485659E+01  0.51100000000E-03 0.  1.
        -12    1    3    3    0    0  0.24851998366E+01 -0.12927135332E+02  0.20345051132E+02  0.24232378168E+02  0.00000000000E+00 0.  1.
</event>
<event>
 7    1  0.2655656E-009  0.4778728E+02  0.7816164E-02  0.1312668E+00
        -11   -1    0    0    0    0  0.00000000000E+00  0.00000000000E+00  0.45593999997E+02  0.45594000000E+02  0.51100000000E-03 0. -1.
         11   -1    0    0    0    0 -0.00000000000E+00 -0.00000000000E+00 -0.45593999997E+02  0.45594000000E+02  0.51100000000E-03 0.  1.
    9900012    2    1    2    0    0  0.17672588637E+02  0.37928258932E+02  0.11521704022E+02  0.47787275601E+02  0.20000020777E+02 0.  0.
        -12    1    1    2    0    0 -0.17672588637E+02 -0.37928258932E+02 -0.11521704022E+02  0.43400724399E+02  0.00000000000E+00 0.  1.
         11    1    3    3    0    0  0.19284355072E+02  0.34051518777E+02  0.12258936155E+02  0.41008216219E+02  0.51100000000E-03 0. -1.
        -11    1    3    3    0    0 -0.13052513156E+01  0.46593750562E+01 -0.20216285160E+01  0.52440861005E+01  0.51100000000E-03 0.  1.
        -12    1    3    3    0    0 -0.30651511937E+00 -0.78263490121E+00  0.12843963829E+01  0.15349732817E+01  0.00000000000E+00 0.  1.
</event>
<event>
 7    1  0.2655656E-009  0.4778727E+02  0.7816164E-02  0.1312668E+00
        -11   -1    0    0    0    0  0.00000000000E+00  0.00000000000E+00  0.45593999997E+02  0.45594000000E+02  0.51100000000E-03 0.  1.
         11   -1    0    0    0    0 -0.00000000000E+00 -0.00000000000E+00 -0.45593999997E+02  0.45594000000E+02  0.51100000000E-03 0. -1.
    9900012    2    1    2    0    0 -0.26174177255E+02  0.11540784089E+02 -0.32639634489E+02  0.47787274292E+02  0.20000014809E+02 0.  0.
        -12    1    1    2    0    0  0.26174177255E+02 -0.11540784089E+02  0.32639634489E+02  0.43400725708E+02  0.00000000000E+00 0.  1.
         11    1    3    3    0    0 -0.16709089783E+02  0.70704696973E+01 -0.95941437294E+01  0.20523957155E+02  0.51100000000E-03 0. -1.
        -11    1    3    3    0    0 -0.65994152840E-01  0.29295396525E+01 -0.75914880537E+00  0.30270224600E+01  0.51100000000E-03 0.  1.
         12    1    3    3    0    0 -0.93990933191E+01  0.15407747395E+01 -0.22286341954E+02  0.24236294678E+02  0.00000000000E+00 0. -1.
</event>
<event>
 7    1  0.2655656E-009  0.4778727E+02  0.7816164E-02  0.1312668E+00
        -11   -1    0    0    0    0  0.00000000000E+00  0.00000000000E+00  0.45593999997E+02  0.45594000000E+02  0.51100000000E-03 0.  1.
         11   -1    0    0    0    0 -0.00000000000E+00 -0.00000000000E+00 -0.45593999997E+02  0.45594000000E+02  0.51100000000E-03 0. -1.
    9900012    2    1    2    0    0 -0.48908827852E+01 -0.11595505218E+02 -0.41536092802E+02  0.47787268659E+02  0.19999989123E+02 0.  0.
        -12    1    1    2    0    0  0.48908827852E+01  0.11595505218E+02  0.41536092802E+02  0.43400731341E+02  0.00000000000E+00 0.  1.
         11    1    3    3    0    0  0.11766343072E+01 -0.47822761714E+01 -0.29757789100E+00  0.49338814877E+01  0.51100000000E-03 0. -1.
        -11    1    3    3    0    0  0.54222564920E+00  0.11666663355E+01 -0.41789164305E+01  0.43724663277E+01  0.51100000000E-03 0.  1.
         12    1    3    3    0    0 -0.66097427416E+01 -0.79798953825E+01 -0.37059598480E+02  0.38480920843E+02  0.00000000000E+00 0. -1.
</event>
<event>
 7    1  0.2655656E-009  0.4778725E+02  0.7816164E-02  0.1312668E+00
        -11   -1    0    0    0    0  0.00000000000E+00  0.00000000000E+00  0.45593999997E+02  0.45594000000E+02  0.51100000000E-03 0.  1.
         11   -1    0    0    0    0 -0.00000000000E+00 -0.00000000000E+00 -0.45593999997E+02  0.45594000000E+02  0.51100000000E-03 0. -1.
    9900012    2    1    2    0    0  0.67833113336E+01  0.14543938674E+02 -0.40324747019E+02  0.47787254765E+02  0.19999925776E+02 0.  0.
        -12    1    1    2    0    0 -0.67833113336E+01 -0.14543938674E+02  0.40324747019E+02  0.43400745235E+02  0.00000000000E+00 0.  1.
         11    1    3    3    0    0 -0.14346244561E+01  0.13809906574E+02 -0.15704767530E+02  0.20962141836E+02  0.51100000000E-03 0.  1.
        -11    1    3    3    0    0 -0.10543992641E+01  0.85382555625E+00 -0.37434467559E+01  0.39817294940E+01  0.51100000000E-03 0. -1.
         12    1    3    3    0    0  0.92723350538E+01 -0.11979345664E+00 -0.20876532733E+02  0.22843383435E+02  0.00000000000E+00 0. -1.
</event>
<event>
 7    1  0.2655656E-009  0.4778727E+02  0.7816164E-02  0.1312668E+00
        -11   -1    0    0    0    0  0.00000000000E+00  0.00000000000E+00  0.45593999997E+02  0.45594000000E+02  0.51100000000E-03 0.  1.
         11   -1    0    0    0    0 -0.00000000000E+00 -0.00000000000E+00 -0.45593999997E+02  0.45594000000E+02  0.51100000000E-03 0. -1.
    9900012    2    1    2    0    0  0.22181529407E+02  0.10316289841E+02 -0.35849372126E+02  0.47787267693E+02  0.19999984721E+02 0.  0.
        -12    1    1    2    0    0 -0.22181529407E+02 -0.10316289841E+02  0.35849372126E+02  0.43400732307E+02  0.00000000000E+00 0.  1.
         11    1    3    3    0    0  0.91176702280E+01  0.33877434740E+01 -0.24199740009E+02  0.26081336871E+02  0.51100000000E-03 0. -1.
        -11    1    3    3    0    0  0.49154899053E+01  0.24267460610E+01  0.14171901290E+01  0.56621167046E+01  0.51100000000E-03 0.  1.
        -12    1    3    3    0    0  0.81483692733E+01  0.45018003063E+01 -0.13066822247E+02  0.16043814118E+02  0.00000000000E+00 0.  1.
</event>
<event>
 7    1  0.2655656E-009  0.4778727E+02  0.7816164E-02  0.1312668E+00
        -11   -1    0    0    0    0  0.00000000000E+00  0.00000000000E+00  0.45593999997E+02  0.45594000000E+02  0.51100000000E-03 0.  1.
         11   -1    0    0    0    0 -0.00000000000E+00 -0.00000000000E+00 -0.45593999997E+02  0.45594000000E+02  0.51100000000E-03 0. -1.
    9900012    2    1    2    0    0  0.22999990673E+02 -0.11654039406E+02 -0.34911418809E+02  0.47787269952E+02  0.19999995018E+02 0.  0.
        -12    1    1    2    0    0 -0.22999990673E+02  0.11654039406E+02  0.34911418809E+02  0.43400730048E+02  0.00000000000E+00 0.  1.
         11    1    3    3    0    0  0.64606484054E+01 -0.10625834297E+02 -0.98416194003E+01  0.15858934549E+02  0.51100000000E-03 0. -1.
        -11    1    3    3    0    0  0.14291446534E+02  0.13711666911E+01 -0.12829437672E+02  0.19254090822E+02  0.51100000000E-03 0.  1.
        -12    1    3    3    0    0  0.22478957339E+01 -0.23993717998E+01 -0.12240361737E+02  0.12674244581E+02  0.00000000000E+00 0.  1.
</event>
<event>
 7    1  0.2655656E-009  0.4778728E+02  0.7816164E-02  0.1312668E+00
        -11   -1    0    0    0    0  0.00000000000E+00  0.00000000000E+00  0.45593999997E+02  0.45594000000E+02  0.51100000000E-03 0.  1.
         11   -1    0    0    0    0 -0.00000000000E+00 -0.00000000000E+00 -0.45593999997E+02  0.45594000000E+02  0.51100000000E-03 0. -1.
    9900012    2    1    2    0    0  0.24871818252E+02  0.31685015357E+02 -0.16157820231E+02  0.47787277702E+02  0.20000030355E+02 0.  0.
        -12    1    1    2    0    0 -0.24871818252E+02 -0.31685015357E+02  0.16157820231E+02  0.43400722298E+02  0.00000000000E+00 0.  1.
         11    1    3    3    0    0  0.92492821630E+00 -0.23176057711E+01 -0.36253760901E+00  0.25215516046E+01  0.51100000000E-03 0. -1.
        -11    1    3    3    0    0  0.66040199890E+01  0.75459825983E+01 -0.28035763748E+00  0.10031626690E+02  0.51100000000E-03 0.  1.
         12    1    3    3    0    0  0.17342870047E+02  0.26456638530E+02 -0.15514924984E+02  0.35234099407E+02  0.00000000000E+00 0. -1.
</event>
<event>
 7    1  0.2655656E-009  0.4778727E+02  0.7816164E-02  0.1312668E+00
        -11   -1    0    0    0    0  0.00000000000E+00  0.00000000000E+00  0.45593999997E+02  0.45594000000E+02  0.51100000000E-03 0.  1.
         11   -1    0    0    0    0 -0.00000000000E+00 -0.00000000000E+00 -0.45593999997E+02  0.45594000000E+02  0.51100000000E-03 0. -1.
    9900012    2    1    2    0    0 -0.29980693940E+01 -0.90526836181E+01 -0.42340096344E+02  0.47787271214E+02  0.20000000773E+02 0.  0.
        -12    1    1    2    0    0  0.29980693940E+01  0.90526836181E+01  0.42340096344E+02  0.43400728786E+02  0.00000000000E+00 0.  1.
         11    1    3    3    0    0  0.53954772442E+00  0.16789920043E+01 -0.44898869339E+01  0.48238170402E+01  0.51100000000E-03 0. -1.
        -11    1    3    3    0    0  0.44017790862E+01  0.19656626878E+01 -0.54895562900E+01  0.73058002606E+01  0.51100000000E-03 0.  1.
        -12    1    3    3    0    0 -0.79393962046E+01 -0.12697338310E+02 -0.32360653120E+02  0.35657653913E+02  0.00000000000E+00 0.  1.
</event>
<event>
 7    1  0.2655656E-009  0.4778727E+02  0.7816164E-02  0.1312668E+00
        -11   -1    0    0    0    0  0.00000000000E+00  0.00000000000E+00  0.45593999997E+02  0.45594000000E+02  0.51100000000E-03 0. -1.
         11   -1    0    0    0    0 -0.00000000000E+00 -0.00000000000E+00 -0.45593999997E+02  0.45594000000E+02  0.51100000000E-03 0.  1.
    9900012    2    1    2    0    0  0.26491934195E+02  0.75110632278E+01  0.33546757765E+02  0.47787267232E+02  0.19999982620E+02 0.  0.
        -12    1    1    2    0    0 -0.26491934195E+02 -0.75110632278E+01 -0.33546757765E+02  0.43400732768E+02  0.00000000000E+00 0.  1.
         11    1    3    3    0    0  0.20467886136E+02  0.71560023907E+00  0.15481759311E+02  0.25673552894E+02  0.51100000000E-03 0. -1.
        -11    1    3    3    0    0  0.68962272720E+01  0.67161138779E+01  0.18699817565E+02  0.21032054427E+02  0.51100000000E-03 0.  1.
        -12    1    3    3    0    0 -0.87217921278E+00  0.79349110831E-01 -0.63481911065E+00  0.10816599114E+01  0.00000000000E+00 0.  1.
</event>
<event>
 7    1  0.2655656E-009  0.4778727E+02  0.7816164E-02  0.1312668E+00
        -11   -1    0    0    0    0  0.00000000000E+00  0.00000000000E+00  0.45593999997E+02  0.45594000000E+02  0.51100000000E-03 0.  1.
         11   -1    0    0    0    0 -0.00000000000E+00 -0.00000000000E+00 -0.45593999997E+02  0.45594000000E+02  0.51100000000E-03 0. -1.
    9900012    2    1    2    0    0  0.19428942344E+02  0.10000298338E+02 -0.37498445840E+02  0.47787271805E+02  0.20000003466E+02 0.  0.
        -12    1    1    2    0    0 -0.19428942344E+02 -0.10000298338E+02  0.37498445840E+02  0.43400728195E+02  0.00000000000E+00 0.  1.
         11    1    3    3    0    0  0.12740839802E+02  0.55118323140E+01 -0.34670232381E+02  0.37346141808E+02  0.51100000000E-03 0. -1.
        -11    1    3    3    0    0  0.46702741913E+01 -0.46536794480E+00 -0.11095028346E+01  0.48227611539E+01  0.51100000000E-03 0.  1.
         12    1    3    3    0    0  0.20178283506E+01  0.49538339686E+01 -0.17187106244E+01  0.56183688426E+01  0.00000000000E+00 0. -1.
</event>
<event>
 7    1  0.2655656E-009  0.4778727E+02  0.7816164E-02  0.1312668E+00
        -11   -1    0    0    0    0  0.00000000000E+00  0.00000000000E+00  0.45593999997E+02  0.45594000000E+02  0.51100000000E-03 0.  1.
         11   -1    0    0    0    0 -0.00000000000E+00 -0.00000000000E+00 -0.45593999997E+02  0.45594000000E+02  0.51100000000E-03 0. -1.
    9900012    2    1    2    0    0  0.97098712681E+01  0.28839154130E+02 -0.30945833807E+02  0.47787273727E+02  0.20000012231E+02 0.  0.
        -12    1    1    2    0    0 -0.97098712681E+01 -0.28839154130E+02  0.30945833807E+02  0.43400726273E+02  0.00000000000E+00 0.  1.
         11    1    3    3    0    0  0.41146570050E+01  0.14886070031E+01 -0.41185672920E+01  0.60090722976E+01  0.51100000000E-03 0. -1.
        -11    1    3    3    0    0  0.10128221215E+02  0.19630644311E+02 -0.23434934195E+02  0.32204645659E+02  0.51100000000E-03 0.  1.
        -12    1    3    3    0    0 -0.45330069519E+01  0.77199028165E+01 -0.33923323204E+01  0.95735557706E+01  0.00000000000E+00 0.  1.
</event>
<event>
 7    1  0.2655656E-009  0.4778727E+02  0.7816164E-02  0.1312668E+00
        -11   -1    0    0    0    0  0.00000000000E+00  0.00000000000E+00  0.45593999997E+02  0.45594000000E+02  0.51100000000E-03 0.  1.
         11   -1    0    0    0    0 -0.00000000000E+00 -0.00000000000E+00 -0.45593999997E+02  0.45594000000E+02  0.51100000000E-03 0. -1.
    9900012    2    1    2    0    0 -0.11081615155E+02 -0.26416917198E+02 -0.32603179132E+02  0.47787274220E+02  0.20000014480E+02 0.  0.
        -12    1    1    2    0    0  0.11081615155E+02  0.26416917198E+02  0.32603179132E+02  0.43400725780E+02  0.00000000000E+00 0.  1.
         11    1    3    3    0    0 -0.55359505342E+01 -0.13937435038E+02 -0.25571203870E+02  0.29644313306E+02  0.51100000000E-03 0. -1.
        -11    1    3    3    0    0  0.14587598910E+01 -0.23160622548E+01 -0.49059974497E+01  0.56179120699E+01  0.51100000000E-03 0.  1.
         12    1    3    3    0    0 -0.70044245122E+01 -0.10163419905E+02 -0.21259778127E+01  0.12525048845E+02  0.00000000000E+00 0. -1.
</event>
<event>
 7    1  0.2655656E-009  0.4778727E+02  0.7816164E-02  0.1312668E+00
        -11   -1    0    0    0    0  0.00000000000E+00  0.00000000000E+00  0.45593999997E+02  0.45594000000E+02  0.51100000000E-03 0.  1.
         11   -1    0    0    0    0 -0.00000000000E+00 -0.00000000000E+00 -0.45593999997E+02  0.45594000000E+02  0.51100000000E-03 0. -1.
    9900012    2    1    2    0    0 -0.14863443392E+02 -0.69795454970E+01 -0.40174463988E+02  0.47787267730E+02  0.19999984888E+02 0.  0.
        -12    1    1    2    0    0  0.14863443392E+02  0.69795454970E+01  0.40174463988E+02  0.43400732270E+02  0.00000000000E+00 0.  1.
         11    1    3    3    0    0 -0.17314713717E+02 -0.62539747480E+01 -0.30690463926E+02  0.35788490992E+02  0.51100000000E-03 0. -1.
        -11    1    3    3    0    0  0.97763297449E+00 -0.12741545776E+01  0.65802539807E+00  0.17355788101E+01  0.51100000000E-03 0.  1.
         12    1    3    3    0    0  0.14736373505E+01  0.54858382861E+00 -0.10142025460E+02  0.10263197927E+02  0.00000000000E+00 0. -1.
</event>
<event>
 7    1  0.2655656E-009  0.4778727E+02  0.7816164E-02  0.1312668E+00
        -11   -1    0    0    0    0  0.00000000000E+00  0.00000000000E+00  0.45593999997E+02  0.45594000000E+02  0.51100000000E-03 0. -1.
         11   -1    0    0    0    0 -0.00000000000E+00 -0.00000000000E+00 -0.45593999997E+02  0.45594000000E+02  0.51100000000E-03 0.  1.
    9900012    2    1    2    0    0 -0.16569070483E+02 -0.21257013481E+02  0.34018061213E+02  0.47787271809E+02  0.20000003486E+02 0.  0.
        -12    1    1    2    0    0  0.16569070483E+02  0.21257013481E+02 -0.34018061213E+02  0.43400728191E+02  0.00000000000E+00 0.  1.
         11    1    3    3    0    0  0.40259668446E+00 -0.63118802876E+01  0.76722068877E+01  0.99430717409E+01  0.51100000000E-03 0. -1.
        -11    1    3    3    0    0 -0.27292714934E+01  0.10235943183E+01 -0.10359566843E+01  0.30935214119E+01  0.51100000000E-03 0.  1.
        -12    1    3    3    0    0 -0.14242395674E+02 -0.15968727512E+02  0.27381811010E+02  0.34750678656E+02  0.00000000000E+00 0.  1.
</event>
<event>
 7    1  0.2655656E-009  0.4778727E+02  0.7816164E-02  0.1312668E+00
        -11   -1    0    0    0    0  0.00000000000E+00  0.00000000000E+00  0.45593999997E+02  0.45594000000E+02  0.51100000000E-03 0.  1.
         11   -1    0    0    0    0 -0.00000000000E+00 -0.00000000000E+00 -0.45593999997E+02  0.45594000000E+02  0.51100000000E-03 0. -1.
    9900012    2    1    2    0    0 -0.41848036032E+02 -0.77645333403E+01  0.84898339418E+01  0.47787269844E+02  0.19999994527E+02 0.  0.
        -12    1    1    2    0    0  0.41848036032E+02  0.77645333403E+01 -0.84898339418E+01  0.43400730156E+02  0.00000000000E+00 0.  1.
         11    1    3    3    0    0 -0.34558192446E+02 -0.14275129951E+00  0.44163605075E+01  0.34839536212E+02  0.51100000000E-03 0. -1.
        -11    1    3    3    0    0 -0.35590105498E+01 -0.33579803663E+01  0.52334400680E+01  0.71645993217E+01  0.51100000000E-03 0.  1.
         12    1    3    3    0    0 -0.37308330361E+01 -0.42638016745E+01 -0.11599666337E+01  0.57831343106E+01  0.00000000000E+00 0. -1.
</event>
<event>
 7    1  0.2655656E-009  0.4778727E+02  0.7816164E-02  0.1312668E+00
        -11   -1    0    0    0    0  0.00000000000E+00  0.00000000000E+00  0.45593999997E+02  0.45594000000E+02  0.51100000000E-03 0. -1.
         11   -1    0    0    0    0 -0.00000000000E+00 -0.00000000000E+00 -0.45593999997E+02  0.45594000000E+02  0.51100000000E-03 0.  1.
    9900012    2    1    2    0    0 -0.29199592449E+02  0.20074482248E+02  0.25060365238E+02  0.47787274861E+02  0.20000017401E+02 0.  0.
        -12    1    1    2    0    0  0.29199592449E+02 -0.20074482248E+02 -0.25060365238E+02  0.43400725139E+02  0.00000000000E+00 0.  1.
         11    1    3    3    0    0 -0.27465659465E+02  0.87805169180E+01  0.19905945243E+02  0.35038644144E+02  0.51100000000E-03 0. -1.
        -11    1    3    3    0    0 -0.15415714949E+00  0.66367241344E+01  0.21148961752E+01  0.69672561139E+01  0.51100000000E-03 0.  1.
         12    1    3    3    0    0 -0.15797758345E+01  0.46572411958E+01  0.30395238202E+01  0.57813746027E+01  0.00000000000E+00 0. -1.
</event>
<event>
 7    1  0.2655656E-009  0.4778727E+02  0.7816164E-02  0.1312668E+00
        -11   -1    0    0    0    0  0.00000000000E+00  0.00000000000E+00  0.45593999997E+02  0.45594000000E+02  0.51100000000E-03 0.  1.
         11   -1    0    0    0    0 -0.00000000000E+00 -0.00000000000E+00 -0.45593999997E+02  0.45594000000E+02  0.51100000000E-03 0. -1.
    9900012    2    1    2    0    0  0.25349781088E+01 -0.40088947923E+02 -0.16433905926E+02  0.47787272776E+02  0.20000007894E+02 0.  0.
        -12    1    1    2    0    0 -0.25349781088E+01  0.40088947923E+02  0.16433905926E+02  0.43400727224E+02  0.00000000000E+00 0.  1.
         11    1    3    3    0    0 -0.26933369369E+01 -0.17740478337E+02 -0.10393890010E+02  0.20736720698E+02  0.51100000000E-03 0. -1.
        -11    1    3    3    0    0  0.93740189195E+01 -0.16956876974E+02 -0.30215441870E+01  0.19609631229E+02  0.51100000000E-03 0.  1.
        -12    1    3    3    0    0 -0.41457038738E+01 -0.53915926126E+01 -0.30184717287E+01  0.74409208494E+01  0.00000000000E+00 0.  1.
</event>
<event>
 7    1  0.2655656E-009  0.4778727E+02  0.7816164E-02  0.1312668E+00
        -11   -1    0    0    0    0  0.00000000000E+00  0.00000000000E+00  0.45593999997E+02  0.45594000000E+02  0.51100000000E-03 0.  1.
         11   -1    0    0    0    0 -0.00000000000E+00 -0.00000000000E+00 -0.45593999997E+02  0.45594000000E+02  0.51100000000E-03 0. -1.
    9900012    2    1    2    0    0  0.20734684701E+02  0.96155925852E+01 -0.36894937859E+02  0.47787271779E+02  0.20000003351E+02 0.  0.
        -12    1    1    2    0    0 -0.20734684701E+02 -0.96155925852E+01  0.36894937859E+02  0.43400728221E+02  0.00000000000E+00 0.  1.
         11    1    3    3    0    0  0.55906946856E+01  0.10341719521E+01 -0.10185136404E+02  0.11664578111E+02  0.51100000000E-03 0. -1.
        -11    1    3    3    0    0 -0.14825749389E+01  0.48869294368E+01 -0.13907930105E+02  0.14815891058E+02  0.51100000000E-03 0.  1.
        -12    1    3    3    0    0  0.16626564955E+02  0.36944911964E+01 -0.12801871350E+02  0.21306802610E+02  0.00000000000E+00 0.  1.
</event>
<event>
 7    1  0.2655656E-009  0.4778727E+02  0.7816164E-02  0.1312668E+00
        -11   -1    0    0    0    0  0.00000000000E+00  0.00000000000E+00  0.45593999997E+02  0.45594000000E+02  0.51100000000E-03 0.  1.
         11   -1    0    0    0    0 -0.00000000000E+00 -0.00000000000E+00 -0.45593999997E+02  0.45594000000E+02  0.51100000000E-03 0. -1.
    9900012    2    1    2    0    0  0.28975527417E+02  0.25088247331E+02 -0.20362275434E+02  0.47787267240E+02  0.19999982654E+02 0.  0.
        -12    1    1    2    0    0 -0.28975527417E+02 -0.25088247331E+02  0.20362275434E+02  0.43400732760E+02  0.00000000000E+00 0.  1.
         11    1    3    3    0    0  0.13470278247E+02  0.17817738875E+02 -0.16410734899E+02  0.27717006238E+02  0.51100000000E-03 0. -1.
        -11    1    3    3    0    0  0.23466894107E+01  0.59809374178E+01 -0.76617393300E+00  0.64703621492E+01  0.51100000000E-03 0.  1.
         12    1    3    3    0    0  0.13158559759E+02  0.12895710391E+01 -0.31853666026E+01  0.13599898852E+02  0.00000000000E+00 0. -1.
</event>
<event>
 7    1  0.2655656E-009  0.4778727E+02  0.7816164E-02  0.1312668E+00
        -11   -1    0    0    0    0  0.00000000000E+00  0.00000000000E+00  0.45593999997E+02  0.45594000000E+02  0.51100000000E-03 0.  1.
         11   -1    0    0    0    0 -0.00000000000E+00 -0.00000000000E+00 -0.45593999997E+02  0.45594000000E+02  0.51100000000E-03 0. -1.
    9900012    2    1    2    0    0  0.42126146244E+01 -0.32420166096E+02 -0.28544882773E+02  0.47787267008E+02  0.19999981599E+02 0.  0.
        -12    1    1    2    0    0 -0.42126146244E+01  0.32420166096E+02  0.28544882773E+02  0.43400732992E+02  0.00000000000E+00 0.  1.
         11    1    3    3    0    0 -0.36079211791E+01 -0.57224677236E+01 -0.36629489865E+01  0.76929141176E+01  0.51100000000E-03 0. -1.
        -11    1    3    3    0    0  0.11863252457E+02 -0.19547502094E+02 -0.15496365925E+02  0.27622073675E+02  0.51100000000E-03 0.  1.
        -12    1    3    3    0    0 -0.40427166531E+01 -0.71501962789E+01 -0.93855678612E+01  0.12472279216E+02  0.00000000000E+00 0.  1.
</event>
<event>
 7    1  0.2655656E-009  0.4778727E+02  0.7816164E-02  0.1312668E+00
        -11   -1    0    0    0    0  0.00000000000E+00  0.00000000000E+00  0.45593999997E+02  0.45594000000E+02  0.51100000000E-03 0.  1.
         11   -1    0    0    0    0 -0.00000000000E+00 -0.00000000000E+00 -0.45593999997E+02  0.45594000000E+02  0.51100000000E-03 0. -1.
    9900012    2    1    2    0    0 -0.63614983109E+01 -0.27126111262E+02 -0.33276547430E+02  0.47787272105E+02  0.20000004835E+02 0.  0.
        -12    1    1    2    0    0  0.63614983109E+01  0.27126111262E+02  0.33276547430E+02  0.43400727895E+02  0.00000000000E+00 0.  1.
         11    1    3    3    0    0 -0.20966640639E+01 -0.19567813704E+02 -0.24855518302E+02  0.31703187910E+02  0.51100000000E-03 0. -1.
        -11    1    3    3    0    0 -0.36161893991E+01 -0.22408359510E+01  0.17409316616E+01  0.45966308141E+01  0.51100000000E-03 0.  1.
        -12    1    3    3    0    0 -0.64864484787E+00 -0.53174616071E+01 -0.10161960790E+02  0.11487453381E+02  0.00000000000E+00 0.  1.
</event>
<event>
 7    1  0.2655656E-009  0.4778727E+02  0.7816164E-02  0.1312668E+00
        -11   -1    0    0    0    0  0.00000000000E+00  0.00000000000E+00  0.45593999997E+02  0.45594000000E+02  0.51100000000E-03 0.  1.
         11   -1    0    0    0    0 -0.00000000000E+00 -0.00000000000E+00 -0.45593999997E+02  0.45594000000E+02  0.51100000000E-03 0. -1.
    9900012    2    1    2    0    0 -0.11187735518E+02  0.15168066729E+02 -0.39094596599E+02  0.47787272384E+02  0.20000006109E+02 0.  0.
        -12    1    1    2    0    0  0.11187735518E+02 -0.15168066729E+02  0.39094596599E+02  0.43400727616E+02  0.00000000000E+00 0.  1.
         11    1    3    3    0    0 -0.84969400176E+01  0.16024004548E+02 -0.33899057193E+02  0.38446232459E+02  0.51100000000E-03 0. -1.
        -11    1    3    3    0    0 -0.20000633134E+01 -0.29132064923E+01  0.18582321403E+00  0.35385810507E+01  0.51100000000E-03 0.  1.
        -12    1    3    3    0    0 -0.69073218724E+00  0.20572686736E+01 -0.53813626197E+01  0.58024588749E+01  0.00000000000E+00 0.  1.
</event>
<event>
 7    1  0.2655656E-009  0.4778727E+02  0.7816164E-02  0.1312668E+00
        -11   -1    0    0    0    0  0.00000000000E+00  0.00000000000E+00  0.45593999997E+02  0.45594000000E+02  0.51100000000E-03 0. -1.
         11   -1    0    0    0    0 -0.00000000000E+00 -0.00000000000E+00 -0.45593999997E+02  0.45594000000E+02  0.51100000000E-03 0.  1.
    9900012    2    1    2    0    0 -0.21121562333E+02 -0.36037933460E+02  0.11780091399E+02  0.47787267324E+02  0.19999983038E+02 0.  0.
        -12    1    1    2    0    0  0.21121562333E+02  0.36037933460E+02 -0.11780091399E+02  0.43400732676E+02  0.00000000000E+00 0.  1.
         11    1    3    3    0    0 -0.67626952370E+01 -0.20982803466E+02  0.10813778820E+02  0.24555038195E+02  0.51100000000E-03 0. -1.
        -11    1    3    3    0    0 -0.13432825265E+02 -0.16063708616E+02 -0.85046801022E+00  0.20957261872E+02  0.51100000000E-03 0.  1.
         12    1    3    3    0    0 -0.92604183128E+00  0.10085786217E+01  0.18167805892E+01  0.22749672567E+01  0.00000000000E+00 0. -1.
</event>
<event>
 7    1  0.2655656E-009  0.4778727E+02  0.7816164E-02  0.1312668E+00
        -11   -1    0    0    0    0  0.00000000000E+00  0.00000000000E+00  0.45593999997E+02  0.45594000000E+02  0.51100000000E-03 0.  1.
         11   -1    0    0    0    0 -0.00000000000E+00 -0.00000000000E+00 -0.45593999997E+02  0.45594000000E+02  0.51100000000E-03 0. -1.
    9900012    2    1    2    0    0 -0.13049222112E+02 -0.35099003790E+02 -0.21940860833E+02  0.47787266840E+02  0.19999980830E+02 0.  0.
        -12    1    1    2    0    0  0.13049222112E+02  0.35099003790E+02  0.21940860833E+02  0.43400733160E+02  0.00000000000E+00 0.  1.
         11    1    3    3    0    0 -0.15211856933E+02 -0.19093336146E+02 -0.16959278897E+02  0.29724959504E+02  0.51100000000E-03 0. -1.
        -11    1    3    3    0    0  0.14066372329E+01 -0.12410512834E+00 -0.79624083151E+00  0.16211200174E+01  0.51100000000E-03 0.  1.
         12    1    3    3    0    0  0.75599758835E+00 -0.15881562516E+02 -0.41853411037E+01  0.16441187319E+02  0.00000000000E+00 0. -1.
</event>
<event>
 7    1  0.2655656E-009  0.4778728E+02  0.7816164E-02  0.1312668E+00
        -11   -1    0    0    0    0  0.00000000000E+00  0.00000000000E+00  0.45593999997E+02  0.45594000000E+02  0.51100000000E-03 0.  1.
         11   -1    0    0    0    0 -0.00000000000E+00 -0.00000000000E+00 -0.45593999997E+02  0.45594000000E+02  0.51100000000E-03 0. -1.
    9900012    2    1    2    0    0  0.12038808915E+02  0.25953023114E+02  0.32636336042E+02  0.47787276975E+02  0.20000027039E+02 0.  0.
        -12    1    1    2    0    0 -0.12038808915E+02 -0.25953023114E+02 -0.32636336042E+02  0.43400723025E+02  0.00000000000E+00 0.  1.
         11    1    3    3    0    0  0.10074304139E+02  0.14926443909E+02  0.12581984506E+02  0.21968082893E+02  0.51100000000E-03 0. -1.
        -11    1    3    3    0    0 -0.45901506689E+01  0.73828045884E+01  0.11947232776E+02  0.14775373363E+02  0.51100000000E-03 0.  1.
        -12    1    3    3    0    0  0.65546554456E+01  0.36437746172E+01  0.81071187607E+01  0.11043820719E+02  0.00000000000E+00 0.  1.
</event>
<event>
 7    1  0.2655656E-009  0.4778728E+02  0.7816164E-02  0.1312668E+00
        -11   -1    0    0    0    0  0.00000000000E+00  0.00000000000E+00  0.45593999997E+02  0.45594000000E+02  0.51100000000E-03 0.  1.
         11   -1    0    0    0    0 -0.00000000000E+00 -0.00000000000E+00 -0.45593999997E+02  0.45594000000E+02  0.51100000000E-03 0. -1.
    9900012    2    1    2    0    0  0.23991225979E+02 -0.39542258948E+01 -0.35950073154E+02  0.47787278967E+02  0.20000036121E+02 0.  0.
        -12    1    1    2    0    0 -0.23991225979E+02  0.39542258948E+01  0.35950073154E+02  0.43400721033E+02  0.00000000000E+00 0.  1.
         11    1    3    3    0    0  0.73176091250E+01 -0.27820566079E+00 -0.64526675171E+01  0.97602110656E+01  0.51100000000E-03 0. -1.
        -11    1    3    3    0    0  0.13386393876E+02 -0.99756996483E+01 -0.22831622196E+02  0.28284149216E+02  0.51100000000E-03 0.  1.
        -12    1    3    3    0    0  0.32872229782E+01  0.62996794143E+01 -0.66657834409E+01  0.97429186855E+01  0.00000000000E+00 0.  1.
</event>
<event>
 7    1  0.2655656E-009  0.4778727E+02  0.7816164E-02  0.1312668E+00
        -11   -1    0    0    0    0  0.00000000000E+00  0.00000000000E+00  0.45593999997E+02  0.45594000000E+02  0.51100000000E-03 0. -1.
         11   -1    0    0    0    0 -0.00000000000E+00 -0.00000000000E+00 -0.45593999997E+02  0.45594000000E+02  0.51100000000E-03 0.  1.
    9900012    2    1    2    0    0  0.40508375709E+02 -0.13891441954E+02  0.70514290177E+01  0.47787270590E+02  0.19999997929E+02 0.  0.
        -12    1    1    2    0    0 -0.40508375709E+02  0.13891441954E+02 -0.70514290177E+01  0.43400729410E+02  0.00000000000E+00 0.  1.
         11    1    3    3    0    0  0.38529537520E+02 -0.15335023694E+02  0.34472492621E+01  0.41612158571E+02  0.51100000000E-03 0. -1.
        -11    1    3    3    0    0  0.11834165433E+01  0.28346257195E+01  0.33629209490E+01  0.45546476543E+01  0.51100000000E-03 0.  1.
        -12    1    3    3    0    0  0.79542164579E+00 -0.13910439793E+01  0.24125880657E+00  0.16204643651E+01  0.00000000000E+00 0.  1.
</event>
<event>
 7    1  0.2655656E-009  0.4778728E+02  0.7816164E-02  0.1312668E+00
        -11   -1    0    0    0    0  0.00000000000E+00  0.00000000000E+00  0.45593999997E+02  0.45594000000E+02  0.51100000000E-03 0. -1.
         11   -1    0    0    0    0 -0.00000000000E+00 -0.00000000000E+00 -0.45593999997E+02  0.45594000000E+02  0.51100000000E-03 0.  1.
    9900012    2    1    2    0    0  0.55281466445E+01 -0.46939277997E+01  0.42790528116E+02  0.47787278117E+02  0.20000032248E+02 0.  0.
        -12    1    1    2    0    0 -0.55281466445E+01  0.46939277997E+01 -0.42790528116E+02  0.43400721883E+02  0.00000000000E+00 0.  1.
         11    1    3    3    0    0 -0.32822831584E+01  0.16283383476E+01  0.19457078075E+02  0.19799059472E+02  0.51100000000E-03 0. -1.
        -11    1    3    3    0    0  0.29381118593E+01 -0.24233606238E+01  0.21008436722E+00  0.38143562646E+01  0.51100000000E-03 0.  1.
        -12    1    3    3    0    0  0.58723179436E+01 -0.38989055235E+01  0.23123365674E+02  0.24173862380E+02  0.00000000000E+00 0.  1.
</event>
<event>
 7    1  0.2655656E-009  0.4778727E+02  0.7816164E-02  0.1312668E+00
        -11   -1    0    0    0    0  0.00000000000E+00  0.00000000000E+00  0.45593999997E+02  0.45594000000E+02  0.51100000000E-03 0.  1.
         11   -1    0    0    0    0 -0.00000000000E+00 -0.00000000000E+00 -0.45593999997E+02  0.45594000000E+02  0.51100000000E-03 0. -1.
    9900012    2    1    2    0    0 -0.25210297280E+00  0.12913883359E+02 -0.41434181856E+02  0.47787269991E+02  0.19999995195E+02 0.  0.
        -12    1    1    2    0    0  0.25210297280E+00 -0.12913883359E+02  0.41434181856E+02  0.43400730009E+02  0.00000000000E+00 0.  1.
         11    1    3    3    0    0 -0.17642652139E+01  0.26384072101E+01 -0.69307671996E+00  0.32487197405E+01  0.51100000000E-03 0. -1.
        -11    1    3    3    0    0 -0.22340238033E+01  0.57488724205E+01 -0.37136694221E+02  0.37645377597E+02  0.51100000000E-03 0.  1.
        -12    1    3    3    0    0  0.37461860444E+01  0.45266037280E+01 -0.36044109145E+01  0.68931726534E+01  0.00000000000E+00 0.  1.
</event>
<event>
 7    1  0.2655656E-009  0.4778728E+02  0.7816164E-02  0.1312668E+00
        -11   -1    0    0    0    0  0.00000000000E+00  0.00000000000E+00  0.45593999997E+02  0.45594000000E+02  0.51100000000E-03 0.  1.
         11   -1    0    0    0    0 -0.00000000000E+00 -0.00000000000E+00 -0.45593999997E+02  0.45594000000E+02  0.51100000000E-03 0. -1.
    9900012    2    1    2    0    0  0.13355426904E+02  0.37534455981E+02 -0.17216846320E+02  0.47787278684E+02  0.20000034830E+02 0.  0.
        -12    1    1    2    0    0 -0.13355426904E+02 -0.37534455981E+02  0.17216846320E+02  0.43400721316E+02  0.00000000000E+00 0.  1.
         11    1    3    3    0    0  0.64380598844E+01  0.24998252668E+01 -0.54627954664E+00  0.69279263163E+01  0.51100000000E-03 0. -1.
        -11    1    3    3    0    0 -0.13138661356E+01  0.24906098108E+01  0.91803857039E+00  0.29617860372E+01  0.51100000000E-03 0.  1.
         12    1    3    3    0    0  0.82312331553E+01  0.32544020903E+02 -0.17588605344E+02  0.37897566330E+02  0.00000000000E+00 0. -1.
</event>
<event>
 7    1  0.2655656E-009  0.4778727E+02  0.7816164E-02  0.1312668E+00
        -11   -1    0    0    0    0  0.00000000000E+00  0.00000000000E+00  0.45593999997E+02  0.45594000000E+02  0.51100000000E-03 0.  1.
         11   -1    0    0    0    0 -0.00000000000E+00 -0.00000000000E+00 -0.45593999997E+02  0.45594000000E+02  0.51100000000E-03 0. -1.
    9900012    2    1    2    0    0 -0.13150768223E+02 -0.36786403559E+02 -0.18906116281E+02  0.47787269309E+02  0.19999992089E+02 0.  0.
        -12    1    1    2    0    0  0.13150768223E+02  0.36786403559E+02  0.18906116281E+02  0.43400730691E+02  0.00000000000E+00 0.  1.
         11    1    3    3    0    0 -0.89125066082E+01 -0.21819166140E+02 -0.74512421212E+01  0.24719016860E+02  0.51100000000E-03 0. -1.
        -11    1    3    3    0    0  0.29131412579E+01 -0.77898230939E+01 -0.97138229345E+01  0.12787732093E+02  0.51100000000E-03 0.  1.
        -12    1    3    3    0    0 -0.71514028723E+01 -0.71774143250E+01 -0.17410512252E+01  0.10280520357E+02  0.00000000000E+00 0.  1.
</event>
<event>
 7    1  0.2655656E-009  0.4778728E+02  0.7816164E-02  0.1312668E+00
        -11   -1    0    0    0    0  0.00000000000E+00  0.00000000000E+00  0.45593999997E+02  0.45594000000E+02  0.51100000000E-03 0.  1.
         11   -1    0    0    0    0 -0.00000000000E+00 -0.00000000000E+00 -0.45593999997E+02  0.45594000000E+02  0.51100000000E-03 0. -1.
    9900012    2    1    2    0    0 -0.39774576823E+02 -0.41273419677E+01 -0.16869224226E+02  0.47787278357E+02  0.20000033341E+02 0.  0.
        -12    1    1    2    0    0  0.39774576823E+02  0.41273419677E+01  0.16869224226E+02  0.43400721643E+02  0.00000000000E+00 0.  1.
         11    1    3    3    0    0 -0.13325398980E+02 -0.24422065619E+01  0.14244442695E+01  0.13622028946E+02  0.51100000000E-03 0. -1.
        -11    1    3    3    0    0 -0.67439141528E+01  0.15322428863E+00 -0.11328002438E+02  0.13184365562E+02  0.51100000000E-03 0.  1.
        -12    1    3    3    0    0 -0.19705263690E+02 -0.18383596945E+01 -0.69656660579E+01  0.20980883849E+02  0.00000000000E+00 0.  1.
</event>
<event>
 7    1  0.2655656E-009  0.4778723E+02  0.7816164E-02  0.1312668E+00
        -11   -1    0    0    0    0  0.00000000000E+00  0.00000000000E+00  0.45593999997E+02  0.45594000000E+02  0.51100000000E-03 0.  1.
         11   -1    0    0    0    0 -0.00000000000E+00 -0.00000000000E+00 -0.45593999997E+02  0.45594000000E+02  0.51100000000E-03 0. -1.
    9900012    2    1    2    0    0  0.19829887260E+02  0.38544147467E+02  0.21797359529E+01  0.47787228331E+02  0.19999805250E+02 0.  0.
        -12    1    1    2    0    0 -0.19829887260E+02 -0.38544147467E+02 -0.21797359529E+01  0.43400771669E+02  0.00000000000E+00 0.  1.
         11    1    3    3    0    0  0.67634459704E+01  0.12737113978E+02 -0.79117385182E+01  0.16449130084E+02  0.51100000000E-03 0. -1.
        -11    1    3    3    0    0  0.43661061774E+01  0.83701693922E+01  0.66552353561E+01  0.11550531447E+02  0.51100000000E-03 0.  1.
         12    1    3    3    0    0  0.87003351122E+01  0.17436864096E+02  0.34362391150E+01  0.19787566799E+02  0.00000000000E+00 0. -1.
</event>
<event>
 7    1  0.2655656E-009  0.4778727E+02  0.7816164E-02  0.1312668E+00
        -11   -1    0    0    0    0  0.00000000000E+00  0.00000000000E+00  0.45593999997E+02  0.45594000000E+02  0.51100000000E-03 0.  1.
         11   -1    0    0    0    0 -0.00000000000E+00 -0.00000000000E+00 -0.45593999997E+02  0.45594000000E+02  0.51100000000E-03 0. -1.
    9900012    2    1    2    0    0 -0.41865993587E+02  0.10432509276E+02 -0.46930240719E+01  0.47787272544E+02  0.20000006836E+02 0.  0.
        -12    1    1    2    0    0  0.41865993587E+02 -0.10432509276E+02  0.46930240719E+01  0.43400727456E+02  0.00000000000E+00 0.  1.
         11    1    3    3    0    0 -0.51767472918E+01  0.44605522635E+00 -0.12201069637E+00  0.51973613169E+01  0.51100000000E-03 0. -1.
        -11    1    3    3    0    0 -0.14073886200E+02  0.84451918951E+01  0.61332662669E+01  0.17521772007E+02  0.51100000000E-03 0.  1.
        -12    1    3    3    0    0 -0.22615360095E+02  0.15412621541E+01 -0.10704279642E+02  0.25068139220E+02  0.00000000000E+00 0.  1.
</event>
<event>
 7    1  0.2655656E-009  0.4778727E+02  0.7816164E-02  0.1312668E+00
        -11   -1    0    0    0    0  0.00000000000E+00  0.00000000000E+00  0.45593999997E+02  0.45594000000E+02  0.51100000000E-03 0. -1.
         11   -1    0    0    0    0 -0.00000000000E+00 -0.00000000000E+00 -0.45593999997E+02  0.45594000000E+02  0.51100000000E-03 0.  1.
    9900012    2    1    2    0    0 -0.39190918636E+02  0.47656372736E+01  0.18027316477E+02  0.47787267961E+02  0.19999985941E+02 0.  0.
        -12    1    1    2    0    0  0.39190918636E+02 -0.47656372736E+01 -0.18027316477E+02  0.43400732039E+02  0.00000000000E+00 0.  1.
         11    1    3    3    0    0 -0.30180697080E+02  0.34646075737E+01  0.10530102346E+02  0.32152154478E+02  0.51100000000E-03 0. -1.
        -11    1    3    3    0    0  0.22629731339E+01  0.73394278268E+00  0.18507727210E+01  0.30141465357E+01  0.51100000000E-03 0.  1.
        -12    1    3    3    0    0 -0.11273194690E+02  0.56708691727E+00  0.56464414104E+01  0.12620966947E+02  0.00000000000E+00 0.  1.
</event>
<event>
 7    1  0.2655656E-009  0.4778727E+02  0.7816164E-02  0.1312668E+00
        -11   -1    0    0    0    0  0.00000000000E+00  0.00000000000E+00  0.45593999997E+02  0.45594000000E+02  0.51100000000E-03 0.  1.
         11   -1    0    0    0    0 -0.00000000000E+00 -0.00000000000E+00 -0.45593999997E+02  0.45594000000E+02  0.51100000000E-03 0. -1.
    9900012    2    1    2    0    0 -0.16178481467E+02 -0.31799479783E+02  0.24711797672E+02  0.47787272803E+02  0.20000008020E+02 0.  0.
        -12    1    1    2    0    0  0.16178481467E+02  0.31799479783E+02 -0.24711797672E+02  0.43400727197E+02  0.00000000000E+00 0.  1.
         11    1    3    3    0    0 -0.15852488803E+02 -0.12133466907E+02  0.84467305353E+01  0.21676477514E+02  0.51100000000E-03 0. -1.
        -11    1    3    3    0    0  0.18408092033E+01 -0.77079450658E+01  0.41285503028E+01  0.89356546221E+01  0.51100000000E-03 0.  1.
         12    1    3    3    0    0 -0.21668018675E+01 -0.11958067810E+02  0.12136516833E+02  0.17175140667E+02  0.00000000000E+00 0. -1.
</event>
<event>
 7    1  0.2655656E-009  0.4778728E+02  0.7816164E-02  0.1312668E+00
        -11   -1    0    0    0    0  0.00000000000E+00  0.00000000000E+00  0.45593999997E+02  0.45594000000E+02  0.51100000000E-03 0.  1.
         11   -1    0    0    0    0 -0.00000000000E+00 -0.00000000000E+00 -0.45593999997E+02  0.45594000000E+02  0.51100000000E-03 0. -1.
    9900012    2    1    2    0    0  0.29252268840E+02 -0.11302457811E+02 -0.30003034948E+02  0.47787275456E+02  0.20000020116E+02 0.  0.
        -12    1    1    2    0    0 -0.29252268840E+02  0.11302457811E+02  0.30003034948E+02  0.43400724544E+02  0.00000000000E+00 0.  1.
         11    1    3    3    0    0  0.91120331134E+01 -0.74220500221E+01 -0.22437955038E+02  0.25329386107E+02  0.51100000000E-03 0. -1.
        -11    1    3    3    0    0  0.12671305359E+02 -0.48244572880E+01 -0.56572286552E+01  0.14691548725E+02  0.51100000000E-03 0.  1.
         12    1    3    3    0    0  0.74689303676E+01  0.94404949926E+00 -0.19078512544E+01  0.77663406249E+01  0.00000000000E+00 0. -1.
</event>
<event>
 7    1  0.2655656E-009  0.4778727E+02  0.7816164E-02  0.1312668E+00
        -11   -1    0    0    0    0  0.00000000000E+00  0.00000000000E+00  0.45593999997E+02  0.45594000000E+02  0.51100000000E-03 0.  1.
         11   -1    0    0    0    0 -0.00000000000E+00 -0.00000000000E+00 -0.45593999997E+02  0.45594000000E+02  0.51100000000E-03 0. -1.
    9900012    2    1    2    0    0 -0.11136775069E+02 -0.23399805137E+02 -0.34814435297E+02  0.47787267928E+02  0.19999985789E+02 0.  0.
        -12    1    1    2    0    0  0.11136775069E+02  0.23399805137E+02  0.34814435297E+02  0.43400732072E+02  0.00000000000E+00 0.  1.
         11    1    3    3    0    0 -0.59490466420E+01 -0.12651789511E+02 -0.69588362115E+01  0.15616796581E+02  0.51100000000E-03 0. -1.
        -11    1    3    3    0    0 -0.43797442696E+00 -0.42840903053E+01 -0.21525978630E+02  0.21952517112E+02  0.51100000000E-03 0.  1.
        -12    1    3    3    0    0 -0.47497540005E+01 -0.64639253209E+01 -0.63296204556E+01  0.10217954234E+02  0.00000000000E+00 0.  1.
</event>
<event>
 7    1  0.2655656E-009  0.4778728E+02  0.7816164E-02  0.1312668E+00
        -11   -1    0    0    0    0  0.00000000000E+00  0.00000000000E+00  0.45593999997E+02  0.45594000000E+02  0.51100000000E-03 0.  1.
         11   -1    0    0    0    0 -0.00000000000E+00 -0.00000000000E+00 -0.45593999997E+02  0.45594000000E+02  0.51100000000E-03 0. -1.
    9900012    2    1    2    0    0  0.49245935294E+01 -0.38448303942E+02 -0.19521750057E+02  0.47787280850E+02  0.20000044708E+02 0.  0.
        -12    1    1    2    0    0 -0.49245935294E+01  0.38448303942E+02  0.19521750057E+02  0.43400719150E+02  0.00000000000E+00 0.  1.
         11    1    3    3    0    0  0.27238449769E+01 -0.33709748940E+02 -0.22685641463E+02  0.40723516964E+02  0.51100000000E-03 0. -1.
        -11    1    3    3    0    0  0.20738578778E+01 -0.51532195913E+01  0.34548049226E+01  0.65415774831E+01  0.51100000000E-03 0.  1.
         12    1    3    3    0    0  0.12689067464E+00  0.41466458980E+00 -0.29091351667E+00  0.52218640305E+00  0.00000000000E+00 0. -1.
</event>
<event>
 7    1  0.2655656E-009  0.4778727E+02  0.7816164E-02  0.1312668E+00
        -11   -1    0    0    0    0  0.00000000000E+00  0.00000000000E+00  0.45593999997E+02  0.45594000000E+02  0.51100000000E-03 0.  1.
         11   -1    0    0    0    0 -0.00000000000E+00 -0.00000000000E+00 -0.45593999997E+02  0.45594000000E+02  0.51100000000E-03 0. -1.
    9900012    2    1    2    0    0 -0.79198114515E+01 -0.51178472780E-01 -0.42671971434E+02  0.47787272140E+02  0.20000004996E+02 0.  0.
        -12    1    1    2    0    0  0.79198114515E+01  0.51178472780E-01  0.42671971434E+02  0.43400727860E+02  0.00000000000E+00 0.  1.
         11    1    3    3    0    0 -0.42911499078E+01  0.18121290752E+01 -0.33685537383E+02  0.34006076050E+02  0.51100000000E-03 0. -1.
        -11    1    3    3    0    0  0.25934285023E+01  0.46515610762E+00 -0.36571431730E-01  0.26350672348E+01  0.51100000000E-03 0.  1.
        -12    1    3    3    0    0 -0.62220900460E+01 -0.23284636556E+01 -0.89498626201E+01  0.11146128855E+02  0.00000000000E+00 0.  1.
</event>
<event>
 7    1  0.2655656E-009  0.4778727E+02  0.7816164E-02  0.1312668E+00
        -11   -1    0    0    0    0  0.00000000000E+00  0.00000000000E+00  0.45593999997E+02  0.45594000000E+02  0.51100000000E-03 0. -1.
         11   -1    0    0    0    0 -0.00000000000E+00 -0.00000000000E+00 -0.45593999997E+02  0.45594000000E+02  0.51100000000E-03 0.  1.
    9900012    2    1    2    0    0 -0.23146292857E+02  0.31197939358E+02  0.19353582226E+02  0.47787269151E+02  0.19999991368E+02 0.  0.
        -12    1    1    2    0    0  0.23146292857E+02 -0.31197939358E+02 -0.19353582226E+02  0.43400730849E+02  0.00000000000E+00 0.  1.
         11    1    3    3    0    0 -0.65245878134E+01  0.10141791897E+02  0.77413607686E+01  0.14330207809E+02  0.51100000000E-03 0. -1.
        -11    1    3    3    0    0 -0.18279433006E+02  0.17133992840E+02  0.13870250317E+02  0.28637304793E+02  0.51100000000E-03 0.  1.
        -12    1    3    3    0    0  0.16577279630E+01  0.39221546205E+01 -0.22580288597E+01  0.48197565496E+01  0.00000000000E+00 0.  1.
</event>
<event>
 7    1  0.2655656E-009  0.4778728E+02  0.7816164E-02  0.1312668E+00
        -11   -1    0    0    0    0  0.00000000000E+00  0.00000000000E+00  0.45593999997E+02  0.45594000000E+02  0.51100000000E-03 0.  1.
         11   -1    0    0    0    0 -0.00000000000E+00 -0.00000000000E+00 -0.45593999997E+02  0.45594000000E+02  0.51100000000E-03 0. -1.
    9900012    2    1    2    0    0 -0.26041395031E+01 -0.37575987179E+02 -0.21561228382E+02  0.47787275071E+02  0.20000018358E+02 0.  0.
        -12    1    1    2    0    0  0.26041395031E+01  0.37575987179E+02  0.21561228382E+02  0.43400724929E+02  0.00000000000E+00 0.  1.
         11    1    3    3    0    0  0.58595895689E+00 -0.17297953010E+02 -0.13527800431E+02  0.21967337367E+02  0.51100000000E-03 0. -1.
        -11    1    3    3    0    0 -0.38506985694E+01 -0.80218406434E+01  0.29241951391E+01  0.93663613134E+01  0.51100000000E-03 0.  1.
        -12    1    3    3    0    0  0.66060010938E+00 -0.12256193525E+02 -0.10957623091E+02  0.16453576390E+02  0.00000000000E+00 0.  1.
</event>
<event>
 7    1  0.2655656E-009  0.4778727E+02  0.7816164E-02  0.1312668E+00
        -11   -1    0    0    0    0  0.00000000000E+00  0.00000000000E+00  0.45593999997E+02  0.45594000000E+02  0.51100000000E-03 0.  1.
         11   -1    0    0    0    0 -0.00000000000E+00 -0.00000000000E+00 -0.45593999997E+02  0.45594000000E+02  0.51100000000E-03 0. -1.
    9900012    2    1    2    0    0  0.18270944840E+01 -0.16838916800E+02 -0.39959176303E+02  0.47787272310E+02  0.20000005768E+02 0.  0.
        -12    1    1    2    0    0 -0.18270944840E+01  0.16838916800E+02  0.39959176303E+02  0.43400727690E+02  0.00000000000E+00 0.  1.
         11    1    3    3    0    0  0.59916979834E+00  0.33383370399E+01 -0.13608256570E+01  0.36544965958E+01  0.51100000000E-03 0. -1.
        -11    1    3    3    0    0  0.12188770943E+01 -0.14861539418E+01 -0.10515260974E+01  0.21908953202E+01  0.51100000000E-03 0.  1.
         12    1    3    3    0    0  0.90475913998E-02 -0.18691099898E+02 -0.37546824549E+02  0.41941880393E+02  0.00000000000E+00 0. -1.
</event>
<event>
 7    1  0.2655656E-009  0.4778730E+02  0.7816164E-02  0.1312668E+00
        -11   -1    0    0    0    0  0.00000000000E+00  0.00000000000E+00  0.45593999997E+02  0.45594000000E+02  0.51100000000E-03 0.  1.
         11   -1    0    0    0    0 -0.00000000000E+00 -0.00000000000E+00 -0.45593999997E+02  0.45594000000E+02  0.51100000000E-03 0. -1.
    9900012    2    1    2    0    0 -0.28906243902E+02 -0.31285658050E+02  0.83221010518E+01  0.47787300674E+02  0.20000135090E+02 0.  0.
        -12    1    1    2    0    0  0.28906243902E+02  0.31285658050E+02 -0.83221010518E+01  0.43400699326E+02  0.00000000000E+00 0.  1.
         11    1    3    3    0    0 -0.14094688700E+02 -0.63127646264E+01  0.25123706170E+01  0.15646828853E+02  0.51100000000E-03 0. -1.
        -11    1    3    3    0    0 -0.78814648454E+01 -0.33060707561E+01  0.36382280197E+01  0.92889340259E+01  0.51100000000E-03 0.  1.
         12    1    3    3    0    0 -0.69300903565E+01 -0.21666822667E+02  0.21715024151E+01  0.22851537795E+02  0.00000000000E+00 0. -1.
</event>
<event>
 7    1  0.2655656E-009  0.4778724E+02  0.7816164E-02  0.1312668E+00
        -11   -1    0    0    0    0  0.00000000000E+00  0.00000000000E+00  0.45593999997E+02  0.45594000000E+02  0.51100000000E-03 0. -1.
         11   -1    0    0    0    0 -0.00000000000E+00 -0.00000000000E+00 -0.45593999997E+02  0.45594000000E+02  0.51100000000E-03 0.  1.
    9900012    2    1    2    0    0  0.30811231005E+02 -0.29335128237E+02 -0.85874732119E+01  0.47787235020E+02  0.19999835748E+02 0.  0.
        -12    1    1    2    0    0 -0.30811231005E+02  0.29335128237E+02  0.85874732119E+01  0.43400764980E+02  0.00000000000E+00 0.  1.
         11    1    3    3    0    0  0.34232404108E+01  0.18952168384E+01 -0.23831657868E+01  0.45814736934E+01  0.51100000000E-03 0. -1.
        -11    1    3    3    0    0  0.67424619306E+01 -0.14949435183E+02 -0.12209365770E+01  0.16444971620E+02  0.51100000000E-03 0.  1.
         12    1    3    3    0    0  0.20645528664E+02 -0.16280909892E+02 -0.49833708481E+01  0.26760789706E+02  0.00000000000E+00 0. -1.
</event>
<event>
 7    1  0.2655656E-009  0.4778727E+02  0.7816164E-02  0.1312668E+00
        -11   -1    0    0    0    0  0.00000000000E+00  0.00000000000E+00  0.45593999997E+02  0.45594000000E+02  0.51100000000E-03 0. -1.
         11   -1    0    0    0    0 -0.00000000000E+00 -0.00000000000E+00 -0.45593999997E+02  0.45594000000E+02  0.51100000000E-03 0.  1.
    9900012    2    1    2    0    0 -0.11461520280E+02 -0.39393021157E+02  0.14157919462E+02  0.47787271359E+02  0.20000001436E+02 0.  0.
        -12    1    1    2    0    0  0.11461520280E+02  0.39393021157E+02 -0.14157919462E+02  0.43400728641E+02  0.00000000000E+00 0.  1.
         11    1    3    3    0    0 -0.13043829749E+02 -0.20663933111E+02  0.14572824372E+02  0.28451833624E+02  0.51100000000E-03 0. -1.
        -11    1    3    3    0    0 -0.15693274474E+01 -0.48279210099E+01 -0.16734930886E+00  0.50793322364E+01  0.51100000000E-03 0.  1.
         12    1    3    3    0    0  0.31516369156E+01 -0.13901167036E+02 -0.24755560087E+00  0.14256105499E+02  0.00000000000E+00 0. -1.
</event>
<event>
 7    1  0.2655656E-009  0.4778726E+02  0.7816164E-02  0.1312668E+00
        -11   -1    0    0    0    0  0.00000000000E+00  0.00000000000E+00  0.45593999997E+02  0.45594000000E+02  0.51100000000E-03 0.  1.
         11   -1    0    0    0    0 -0.00000000000E+00 -0.00000000000E+00 -0.45593999997E+02  0.45594000000E+02  0.51100000000E-03 0. -1.
    9900012    2    1    2    0    0  0.48632596243E+00  0.15465208829E+00 -0.43397740306E+02  0.47787259293E+02  0.19999946421E+02 0.  0.
        -12    1    1    2    0    0 -0.48632596243E+00 -0.15465208829E+00  0.43397740306E+02  0.43400740707E+02  0.00000000000E+00 0.  1.
         11    1    3    3    0    0 -0.66517776646E+01 -0.92674103287E+00 -0.27185804340E+02  0.28003088275E+02  0.51100000000E-03 0. -1.
        -11    1    3    3    0    0  0.71042161966E+01  0.41191796660E+01 -0.10671065298E+02  0.13465109125E+02  0.51100000000E-03 0.  1.
        -12    1    3    3    0    0  0.33887430375E-01 -0.30377865448E+01 -0.55408706682E+01  0.63190618933E+01  0.00000000000E+00 0.  1.
</event>
<event>
 7    1  0.2655656E-009  0.4778727E+02  0.7816164E-02  0.1312668E+00
        -11   -1    0    0    0    0  0.00000000000E+00  0.00000000000E+00  0.45593999997E+02  0.45594000000E+02  0.51100000000E-03 0.  1.
         11   -1    0    0    0    0 -0.00000000000E+00 -0.00000000000E+00 -0.45593999997E+02  0.45594000000E+02  0.51100000000E-03 0. -1.
    9900012    2    1    2    0    0  0.11234044839E+02  0.41416559348E+02 -0.64875170563E+01  0.47787273863E+02  0.20000012849E+02 0.  0.
        -12    1    1    2    0    0 -0.11234044839E+02 -0.41416559348E+02  0.64875170563E+01  0.43400726137E+02  0.00000000000E+00 0.  1.
         11    1    3    3    0    0  0.11943506838E+02  0.32027296538E+02 -0.91620116106E+01  0.35388381372E+02  0.51100000000E-03 0. -1.
        -11    1    3    3    0    0  0.14570239490E+01  0.73403401452E+01  0.46605485249E+01  0.88161343598E+01  0.51100000000E-03 0.  1.
         12    1    3    3    0    0 -0.21664859482E+01  0.20489226656E+01 -0.19860539706E+01  0.35827581313E+01  0.00000000000E+00 0. -1.
</event>
<event>
 7    1  0.2655656E-009  0.4778728E+02  0.7816164E-02  0.1312668E+00
        -11   -1    0    0    0    0  0.00000000000E+00  0.00000000000E+00  0.45593999997E+02  0.45594000000E+02  0.51100000000E-03 0. -1.
         11   -1    0    0    0    0 -0.00000000000E+00 -0.00000000000E+00 -0.45593999997E+02  0.45594000000E+02  0.51100000000E-03 0.  1.
    9900012    2    1    2    0    0  0.39786687775E+02 -0.16631940364E+02 -0.49010567204E+01  0.47787282018E+02  0.20000050032E+02 0.  0.
        -12    1    1    2    0    0 -0.39786687775E+02  0.16631940364E+02  0.49010567204E+01  0.43400717982E+02  0.00000000000E+00 0.  1.
         11    1    3    3    0    0  0.23867165571E+02 -0.56576909498E+01  0.59931552640E+01  0.25250128110E+02  0.51100000000E-03 0. -1.
        -11    1    3    3    0    0  0.61872172793E+01 -0.45093789793E+01 -0.65372851591E+01  0.10067385656E+02  0.51100000000E-03 0.  1.
         12    1    3    3    0    0  0.97323049247E+01 -0.64648704354E+01 -0.43569268254E+01  0.12469768252E+02  0.00000000000E+00 0. -1.
</event>
<event>
 7    1  0.2655656E-009  0.4778727E+02  0.7816164E-02  0.1312668E+00
        -11   -1    0    0    0    0  0.00000000000E+00  0.00000000000E+00  0.45593999997E+02  0.45594000000E+02  0.51100000000E-03 0.  1.
         11   -1    0    0    0    0 -0.00000000000E+00 -0.00000000000E+00 -0.45593999997E+02  0.45594000000E+02  0.51100000000E-03 0. -1.
    9900012    2    1    2    0    0 -0.20897944779E+00  0.18784400059E+02 -0.39124490874E+02  0.47787272539E+02  0.20000006814E+02 0.  0.
        -12    1    1    2    0    0  0.20897944779E+00 -0.18784400059E+02  0.39124490874E+02  0.43400727461E+02  0.00000000000E+00 0.  1.
         11    1    3    3    0    0 -0.32107355076E+01  0.58681332549E+00 -0.11556485128E+02  0.12008560328E+02  0.51100000000E-03 0. -1.
        -11    1    3    3    0    0 -0.14464794011E+00  0.46809870444E+01  0.25127428479E+00  0.46899575439E+01  0.51100000000E-03 0.  1.
        -12    1    3    3    0    0  0.31464040000E+01  0.13516599689E+02 -0.27819280031E+02  0.31088754667E+02  0.00000000000E+00 0.  1.
</event>
<event>
 7    1  0.2655656E-009  0.4778727E+02  0.7816164E-02  0.1312668E+00
        -11   -1    0    0    0    0  0.00000000000E+00  0.00000000000E+00  0.45593999997E+02  0.45594000000E+02  0.51100000000E-03 0.  1.
         11   -1    0    0    0    0 -0.00000000000E+00 -0.00000000000E+00 -0.45593999997E+02  0.45594000000E+02  0.51100000000E-03 0. -1.
    9900012    2    1    2    0    0 -0.41605669237E+02  0.33945884739E+01 -0.11877210875E+02  0.47787273258E+02  0.20000010093E+02 0.  0.
        -12    1    1    2    0    0  0.41605669237E+02 -0.33945884739E+01  0.11877210875E+02  0.43400726742E+02  0.00000000000E+00 0.  1.
         11    1    3    3    0    0 -0.28910804976E+02 -0.37537881148E+01 -0.10885203799E+02  0.31119338547E+02  0.51100000000E-03 0. -1.
        -11    1    3    3    0    0 -0.85254880207E+01  0.66324325423E+01 -0.39811866612E+01  0.11511861488E+02  0.51100000000E-03 0.  1.
        -12    1    3    3    0    0 -0.41693762401E+01  0.51594404631E+00  0.29891795858E+01  0.51560732236E+01  0.00000000000E+00 0.  1.
</event>
<event>
 7    1  0.2655656E-009  0.4778728E+02  0.7816164E-02  0.1312668E+00
        -11   -1    0    0    0    0  0.00000000000E+00  0.00000000000E+00  0.45593999997E+02  0.45594000000E+02  0.51100000000E-03 0.  1.
         11   -1    0    0    0    0 -0.00000000000E+00 -0.00000000000E+00 -0.45593999997E+02  0.45594000000E+02  0.51100000000E-03 0. -1.
    9900012    2    1    2    0    0 -0.26549358382E+01  0.38089362075E+02  0.20634309509E+02  0.47787275161E+02  0.20000018770E+02 0.  0.
        -12    1    1    2    0    0  0.26549358382E+01 -0.38089362075E+02 -0.20634309509E+02  0.43400724839E+02  0.00000000000E+00 0.  1.
         11    1    3    3    0    0  0.16960488867E+01  0.79496844704E+00 -0.21708498976E+01  0.28672541214E+01  0.51100000000E-03 0. -1.
        -11    1    3    3    0    0 -0.69473221084E+01  0.29236235209E+02  0.19548119157E+02  0.35849012490E+02  0.51100000000E-03 0.  1.
         12    1    3    3    0    0  0.25963373836E+01  0.80581584193E+01  0.32570402503E+01  0.90710085499E+01  0.00000000000E+00 0. -1.
</event>
<event>
 7    1  0.2655656E-009  0.4778727E+02  0.7816164E-02  0.1312668E+00
        -11   -1    0    0    0    0  0.00000000000E+00  0.00000000000E+00  0.45593999997E+02  0.45594000000E+02  0.51100000000E-03 0. -1.
         11   -1    0    0    0    0 -0.00000000000E+00 -0.00000000000E+00 -0.45593999997E+02  0.45594000000E+02  0.51100000000E-03 0.  1.
    9900012    2    1    2    0    0  0.37127593955E+02  0.60954408303E+01  0.21633550469E+02  0.47787272613E+02  0.20000007153E+02 0.  0.
        -12    1    1    2    0    0 -0.37127593955E+02 -0.60954408303E+01 -0.21633550469E+02  0.43400727387E+02  0.00000000000E+00 0.  1.
         11    1    3    3    0    0  0.15675728438E+02  0.11475809245E+01  0.14853711715E+00  0.15718379928E+02  0.51100000000E-03 0. -1.
        -11    1    3    3    0    0  0.17215739277E+02  0.71292164167E+01  0.14485997965E+02  0.23601939388E+02  0.51100000000E-03 0.  1.
        -12    1    3    3    0    0  0.42361262397E+01 -0.21813565108E+01  0.69990153870E+01  0.84669532970E+01  0.00000000000E+00 0.  1.
</event>
<event>
 7    1  0.2655656E-009  0.4778727E+02  0.7816164E-02  0.1312668E+00
        -11   -1    0    0    0    0  0.00000000000E+00  0.00000000000E+00  0.45593999997E+02  0.45594000000E+02  0.51100000000E-03 0.  1.
         11   -1    0    0    0    0 -0.00000000000E+00 -0.00000000000E+00 -0.45593999997E+02  0.45594000000E+02  0.51100000000E-03 0. -1.
    9900012    2    1    2    0    0  0.10526989143E+02 -0.28950271121E+02 -0.30572664743E+02  0.47787268118E+02  0.19999986656E+02 0.  0.
        -12    1    1    2    0    0 -0.10526989143E+02  0.28950271121E+02  0.30572664743E+02  0.43400731882E+02  0.00000000000E+00 0.  1.
         11    1    3    3    0    0  0.67755256292E+01 -0.50987447357E+01 -0.19133618054E+02  0.20928456358E+02  0.51100000000E-03 0. -1.
        -11    1    3    3    0    0  0.17778875183E+01 -0.14276375917E+02 -0.53950618134E+01  0.15364975938E+02  0.51100000000E-03 0.  1.
         12    1    3    3    0    0  0.19735759954E+01 -0.95751504691E+01 -0.60439848757E+01  0.11493835822E+02  0.00000000000E+00 0. -1.
</event>
<event>
 7    1  0.2655656E-009  0.4778727E+02  0.7816164E-02  0.1312668E+00
        -11   -1    0    0    0    0  0.00000000000E+00  0.00000000000E+00  0.45593999997E+02  0.45594000000E+02  0.51100000000E-03 0.  1.
         11   -1    0    0    0    0 -0.00000000000E+00 -0.00000000000E+00 -0.45593999997E+02  0.45594000000E+02  0.51100000000E-03 0. -1.
    9900012    2    1    2    0    0 -0.13187864942E+02  0.21578572562E+02 -0.35271357433E+02  0.47787271542E+02  0.20000002267E+02 0.  0.
        -12    1    1    2    0    0  0.13187864942E+02 -0.21578572562E+02  0.35271357433E+02  0.43400728458E+02  0.00000000000E+00 0.  1.
         11    1    3    3    0    0 -0.37711590259E+00  0.24860912444E+01 -0.91771573483E+01  0.95154129357E+01  0.51100000000E-03 0. -1.
        -11    1    3    3    0    0 -0.74167595243E+01  0.13407291580E+01 -0.18816593958E+01  0.77683021864E+01  0.51100000000E-03 0.  1.
        -12    1    3    3    0    0 -0.53939895156E+01  0.17751752159E+02 -0.24212540689E+02  0.30503556420E+02  0.00000000000E+00 0.  1.
</event>
<event>
 7    1  0.2655656E-009  0.4778727E+02  0.7816164E-02  0.1312668E+00
        -11   -1    0    0    0    0  0.00000000000E+00  0.00000000000E+00  0.45593999997E+02  0.45594000000E+02  0.51100000000E-03 0.  1.
         11   -1    0    0    0    0 -0.00000000000E+00 -0.00000000000E+00 -0.45593999997E+02  0.45594000000E+02  0.51100000000E-03 0. -1.
    9900012    2    1    2    0    0 -0.12059820798E+01  0.25212674104E+02 -0.35305668127E+02  0.47787268092E+02  0.19999986540E+02 0.  0.
        -12    1    1    2    0    0  0.12059820798E+01 -0.25212674104E+02  0.35305668127E+02  0.43400731908E+02  0.00000000000E+00 0.  1.
         11    1    3    3    0    0  0.51391008675E+00  0.12444565346E+02 -0.25105357111E+02  0.28025172009E+02  0.51100000000E-03 0. -1.
        -11    1    3    3    0    0 -0.10848619226E+01  0.73362692627E+00  0.21428902454E+01  0.25113965683E+01  0.51100000000E-03 0.  1.
         12    1    3    3    0    0 -0.63503024393E+00  0.12034481831E+02 -0.12343201261E+02  0.17250699515E+02  0.00000000000E+00 0. -1.
</event>
<event>
 7    1  0.2655656E-009  0.4778727E+02  0.7816164E-02  0.1312668E+00
        -11   -1    0    0    0    0  0.00000000000E+00  0.00000000000E+00  0.45593999997E+02  0.45594000000E+02  0.51100000000E-03 0.  1.
         11   -1    0    0    0    0 -0.00000000000E+00 -0.00000000000E+00 -0.45593999997E+02  0.45594000000E+02  0.51100000000E-03 0. -1.
    9900012    2    1    2    0    0 -0.22196503236E+02  0.76820312876E+01 -0.36495548857E+02  0.47787269050E+02  0.19999990906E+02 0.  0.
        -12    1    1    2    0    0  0.22196503236E+02 -0.76820312876E+01  0.36495548857E+02  0.43400730950E+02  0.00000000000E+00 0.  1.
         11    1    3    3    0    0 -0.13786455440E+02  0.32251052614E+01 -0.19807432126E+02  0.24347526060E+02  0.51100000000E-03 0. -1.
        -11    1    3    3    0    0 -0.42671916347E+01  0.82683645094E+01 -0.52306412757E+01  0.10674005084E+02  0.51100000000E-03 0.  1.
        -12    1    3    3    0    0 -0.41428561605E+01 -0.38114384832E+01 -0.11457475456E+02  0.12765737906E+02  0.00000000000E+00 0.  1.
</event>
<event>
 7    1  0.2655656E-009  0.4778728E+02  0.7816164E-02  0.1312668E+00
        -11   -1    0    0    0    0  0.00000000000E+00  0.00000000000E+00  0.45593999997E+02  0.45594000000E+02  0.51100000000E-03 0. -1.
         11   -1    0    0    0    0 -0.00000000000E+00 -0.00000000000E+00 -0.45593999997E+02  0.45594000000E+02  0.51100000000E-03 0.  1.
    9900012    2    1    2    0    0  0.28350084594E+02  0.14821689536E+02  0.29329389991E+02  0.47787275416E+02  0.20000019933E+02 0.  0.
        -12    1    1    2    0    0 -0.28350084594E+02 -0.14821689536E+02 -0.29329389991E+02  0.43400724584E+02  0.00000000000E+00 0.  1.
         11    1    3    3    0    0  0.87743556047E+01  0.11471990917E+02  0.58556443043E+01  0.15584750956E+02  0.51100000000E-03 0.  1.
        -11    1    3    3    0    0  0.18772897438E+02  0.52980233147E+01  0.22765798867E+02  0.29979531810E+02  0.51100000000E-03 0. -1.
        -12    1    3    3    0    0  0.80283155116E+00 -0.19483246963E+01  0.70794681965E+00  0.22229926498E+01  0.00000000000E+00 0.  1.
</event>
<event>
 7    1  0.2655656E-009  0.4778727E+02  0.7816164E-02  0.1312668E+00
        -11   -1    0    0    0    0  0.00000000000E+00  0.00000000000E+00  0.45593999997E+02  0.45594000000E+02  0.51100000000E-03 0.  1.
         11   -1    0    0    0    0 -0.00000000000E+00 -0.00000000000E+00 -0.45593999997E+02  0.45594000000E+02  0.51100000000E-03 0. -1.
    9900012    2    1    2    0    0 -0.38962666009E+02  0.41156481892E+01 -0.18670712294E+02  0.47787269590E+02  0.19999993370E+02 0.  0.
        -12    1    1    2    0    0  0.38962666009E+02 -0.41156481892E+01  0.18670712294E+02  0.43400730410E+02  0.00000000000E+00 0.  1.
         11    1    3    3    0    0 -0.10402059301E+02  0.84009020861E+01 -0.10909023629E+01  0.13415217545E+02  0.51100000000E-03 0. -1.
        -11    1    3    3    0    0 -0.13127640167E+02 -0.37025522348E+01 -0.52701505400E+01  0.14622527702E+02  0.51100000000E-03 0.  1.
         12    1    3    3    0    0 -0.15432966541E+02 -0.58270166201E+00 -0.12309659391E+02  0.19749524343E+02  0.00000000000E+00 0. -1.
</event>
<event>
 7    1  0.2655656E-009  0.4778728E+02  0.7816164E-02  0.1312668E+00
        -11   -1    0    0    0    0  0.00000000000E+00  0.00000000000E+00  0.45593999997E+02  0.45594000000E+02  0.51100000000E-03 0.  1.
         11   -1    0    0    0    0 -0.00000000000E+00 -0.00000000000E+00 -0.45593999997E+02  0.45594000000E+02  0.51100000000E-03 0. -1.
    9900012    2    1    2    0    0 -0.35408733992E+02  0.24721991344E+02 -0.43205711431E+01  0.47787278417E+02  0.20000033616E+02 0.  0.
        -12    1    1    2    0    0  0.35408733992E+02 -0.24721991344E+02  0.43205711431E+01  0.43400721583E+02  0.00000000000E+00 0.  1.
         11    1    3    3    0    0 -0.53811587946E+01  0.12154899864E+02 -0.35501070290E+01  0.13758696190E+02  0.51100000000E-03 0. -1.
        -11    1    3    3    0    0 -0.79962951118E+01  0.79717125288E+01 -0.20966005979E+01  0.11484105123E+02  0.51100000000E-03 0.  1.
         12    1    3    3    0    0 -0.22031280085E+02  0.45953789506E+01  0.13261364838E+01  0.22544477104E+02  0.00000000000E+00 0. -1.
</event>
<event>
 7    1  0.2946973E-009  0.4778728E+02  0.7816164E-02  0.1312668E+00
        -11   -1    0    0    0    0  0.00000000000E+00  0.00000000000E+00  0.45593999997E+02  0.45594000000E+02  0.51100000000E-03 0.  1.
         11   -1    0    0    0    0 -0.00000000000E+00 -0.00000000000E+00 -0.45593999997E+02  0.45594000000E+02  0.51100000000E-03 0. -1.
    9900012    2    1    2    0    0 -0.25732671046E+01 -0.69295109109E+01 -0.42766606044E+02  0.47787280909E+02  0.20000044976E+02 0.  0.
        -12    1    1    2    0    0  0.25732671046E+01  0.69295109109E+01  0.42766606044E+02  0.43400719091E+02  0.00000000000E+00 0.  1.
         11    1    3    3    0    0 -0.97753611134E+00 -0.10121101829E+02 -0.31385692693E+02  0.32991726011E+02  0.51100000000E-03 0. -1.
        -11    1    3    3    0    0  0.65126849802E+00  0.19306938934E+01 -0.11978500305E+02  0.12150563748E+02  0.51100000000E-03 0.  1.
         12    1    3    3    0    0 -0.22469994912E+01  0.12608970250E+01  0.59758695331E+00  0.26449911508E+01  0.00000000000E+00 0. -1.
</event>
<event>
 7    1  0.2655656E-009  0.4778728E+02  0.7816164E-02  0.1312668E+00
        -11   -1    0    0    0    0  0.00000000000E+00  0.00000000000E+00  0.45593999997E+02  0.45594000000E+02  0.51100000000E-03 0.  1.
         11   -1    0    0    0    0 -0.00000000000E+00 -0.00000000000E+00 -0.45593999997E+02  0.45594000000E+02  0.51100000000E-03 0. -1.
    9900012    2    1    2    0    0 -0.35833843415E+02  0.20200313679E+02 -0.13838561986E+02  0.47787276453E+02  0.20000024658E+02 0.  0.
        -12    1    1    2    0    0  0.35833843415E+02 -0.20200313679E+02  0.13838561986E+02  0.43400723547E+02  0.00000000000E+00 0.  1.
         11    1    3    3    0    0 -0.26119491660E+02  0.15169921582E+02 -0.17740891564E+01  0.30257259592E+02  0.51100000000E-03 0. -1.
        -11    1    3    3    0    0 -0.39215524162E+01 -0.87947016226E+00 -0.61947857935E+01  0.73842678992E+01  0.51100000000E-03 0.  1.
         12    1    3    3    0    0 -0.57927993381E+01  0.59098622592E+01 -0.58696870363E+01  0.10145748962E+02  0.00000000000E+00 0. -1.
</event>
<event>
 7    1  0.2655656E-009  0.4778728E+02  0.7816164E-02  0.1312668E+00
        -11   -1    0    0    0    0  0.00000000000E+00  0.00000000000E+00  0.45593999997E+02  0.45594000000E+02  0.51100000000E-03 0. -1.
         11   -1    0    0    0    0 -0.00000000000E+00 -0.00000000000E+00 -0.45593999997E+02  0.45594000000E+02  0.51100000000E-03 0.  1.
    9900012    2    1    2    0    0 -0.19794283791E+02  0.36808840729E+02  0.11701183601E+02  0.47787284288E+02  0.20000060383E+02 0.  0.
        -12    1    1    2    0    0  0.19794283791E+02 -0.36808840729E+02 -0.11701183601E+02  0.43400715712E+02  0.00000000000E+00 0.  1.
         11    1    3    3    0    0 -0.18921841855E+02  0.32007657979E+02  0.95449176478E+01  0.38387911139E+02  0.51100000000E-03 0. -1.
        -11    1    3    3    0    0  0.31093434635E+01  0.10841291025E+01  0.21854844734E+01  0.39521760246E+01  0.51100000000E-03 0.  1.
        -12    1    3    3    0    0 -0.39817853992E+01  0.37170536480E+01 -0.29218519827E-01  0.54471971242E+01  0.00000000000E+00 0.  1.
</event>
<event>
 7    1  0.2655656E-009  0.4778728E+02  0.7816164E-02  0.1312668E+00
        -11   -1    0    0    0    0  0.00000000000E+00  0.00000000000E+00  0.45593999997E+02  0.45594000000E+02  0.51100000000E-03 0.  1.
         11   -1    0    0    0    0 -0.00000000000E+00 -0.00000000000E+00 -0.45593999997E+02  0.45594000000E+02  0.51100000000E-03 0. -1.
    9900012    2    1    2    0    0  0.40353069233E+02  0.12197095442E+01 -0.15929990850E+02  0.47787280001E+02  0.20000040838E+02 0.  0.
        -12    1    1    2    0    0 -0.40353069233E+02 -0.12197095442E+01  0.15929990850E+02  0.43400719999E+02  0.00000000000E+00 0.  1.
         11    1    3    3    0    0  0.87350685727E+01  0.17664148166E+01  0.29063216620E+01  0.93738119321E+01  0.51100000000E-03 0. -1.
        -11    1    3    3    0    0  0.14711062344E+02  0.31013787921E+01 -0.13778286489E+02  0.20393015582E+02  0.51100000000E-03 0.  1.
         12    1    3    3    0    0  0.16906938317E+02 -0.36480840646E+01 -0.50580260235E+01  0.18020452487E+02  0.00000000000E+00 0. -1.
</event>
<event>
 7    1  0.2655656E-009  0.4778727E+02  0.7816164E-02  0.1312668E+00
        -11   -1    0    0    0    0  0.00000000000E+00  0.00000000000E+00  0.45593999997E+02  0.45594000000E+02  0.51100000000E-03 0. -1.
         11   -1    0    0    0    0 -0.00000000000E+00 -0.00000000000E+00 -0.45593999997E+02  0.45594000000E+02  0.51100000000E-03 0.  1.
    9900012    2    1    2    0    0 -0.27279108568E+01  0.30157239589E+02  0.31092159190E+02  0.47787274657E+02  0.20000016470E+02 0.  0.
        -12    1    1    2    0    0  0.27279108568E+01 -0.30157239589E+02 -0.31092159190E+02  0.43400725343E+02  0.00000000000E+00 0.  1.
         11    1    3    3    0    0  0.70004419068E+01  0.47116910289E+01  0.50481172905E+01  0.98330924780E+01  0.51100000000E-03 0.  1.
        -11    1    3    3    0    0 -0.82777208874E+01  0.22302915254E+02  0.20425684857E+02  0.31355211593E+02  0.51100000000E-03 0. -1.
        -12    1    3    3    0    0 -0.14506318762E+01  0.31426333055E+01  0.56183570425E+01  0.65989705856E+01  0.00000000000E+00 0.  1.
</event>
<event>
 7    1  0.2655656E-009  0.4778727E+02  0.7816164E-02  0.1312668E+00
        -11   -1    0    0    0    0  0.00000000000E+00  0.00000000000E+00  0.45593999997E+02  0.45594000000E+02  0.51100000000E-03 0.  1.
         11   -1    0    0    0    0 -0.00000000000E+00 -0.00000000000E+00 -0.45593999997E+02  0.45594000000E+02  0.51100000000E-03 0. -1.
    9900012    2    1    2    0    0  0.72013442133E+01  0.34923896568E+02 -0.24740360306E+02  0.47787270306E+02  0.19999996631E+02 0.  0.
        -12    1    1    2    0    0 -0.72013442133E+01 -0.34923896568E+02  0.24740360306E+02  0.43400729694E+02  0.00000000000E+00 0.  1.
         11    1    3    3    0    0 -0.18901309200E+01  0.56026050891E+01 -0.13272449694E+02  0.14529958700E+02  0.51100000000E-03 0. -1.
        -11    1    3    3    0    0  0.54250894487E+01  0.14429774627E+02 -0.28876487720E+01  0.15684020754E+02  0.51100000000E-03 0.  1.
         12    1    3    3    0    0  0.36663856846E+01  0.14891516852E+02 -0.85802618403E+01  0.17573290852E+02  0.00000000000E+00 0. -1.
</event>
<event>
 7    1  0.3082231E-009  0.4778727E+02  0.7816164E-02  0.1312668E+00
        -11   -1    0    0    0    0  0.00000000000E+00  0.00000000000E+00  0.45593999997E+02  0.45594000000E+02  0.51100000000E-03 0. -1.
         11   -1    0    0    0    0 -0.00000000000E+00 -0.00000000000E+00 -0.45593999997E+02  0.45594000000E+02  0.51100000000E-03 0.  1.
    9900012    2    1    2    0    0  0.37772636260E+02 -0.11990929956E+02  0.17693750084E+02  0.47787271397E+02  0.20000001608E+02 0.  0.
        -12    1    1    2    0    0 -0.37772636260E+02  0.11990929956E+02 -0.17693750084E+02  0.43400728603E+02  0.00000000000E+00 0.  1.
         11    1    3    3    0    0  0.77983565063E+01 -0.61711651337E+01  0.11415783729E+02  0.15139939290E+02  0.51100000000E-03 0. -1.
        -11    1    3    3    0    0  0.83027581174E+01  0.47129786837E+00 -0.20982432761E+01  0.85767440875E+01  0.51100000000E-03 0.  1.
         12    1    3    3    0    0  0.21671521636E+02 -0.62910626905E+01  0.83762096311E+01  0.24070588019E+02  0.00000000000E+00 0. -1.
</event>
<event>
 7    1  0.2655656E-009  0.4778726E+02  0.7816164E-02  0.1312668E+00
        -11   -1    0    0    0    0  0.00000000000E+00  0.00000000000E+00  0.45593999997E+02  0.45594000000E+02  0.51100000000E-03 0.  1.
         11   -1    0    0    0    0 -0.00000000000E+00 -0.00000000000E+00 -0.45593999997E+02  0.45594000000E+02  0.51100000000E-03 0. -1.
    9900012    2    1    2    0    0 -0.24830991860E+02 -0.29138082999E+02 -0.20445490241E+02  0.47787261426E+02  0.19999956146E+02 0.  0.
        -12    1    1    2    0    0  0.24830991860E+02  0.29138082999E+02  0.20445490241E+02  0.43400738574E+02  0.00000000000E+00 0.  1.
         11    1    3    3    0    0 -0.31201958279E+01 -0.13732502695E+01 -0.73916549386E+00  0.34882379786E+01  0.51100000000E-03 0. -1.
        -11    1    3    3    0    0 -0.21195265229E+02 -0.25263550179E+02 -0.22945329963E+02  0.40174300282E+02  0.51100000000E-03 0.  1.
        -12    1    3    3    0    0 -0.51553080349E+00 -0.25012825499E+01  0.32390052160E+01  0.41247231657E+01  0.00000000000E+00 0.  1.
</event>
<event>
 7    1  0.2655656E-009  0.4778727E+02  0.7816164E-02  0.1312668E+00
        -11   -1    0    0    0    0  0.00000000000E+00  0.00000000000E+00  0.45593999997E+02  0.45594000000E+02  0.51100000000E-03 0. -1.
         11   -1    0    0    0    0 -0.00000000000E+00 -0.00000000000E+00 -0.45593999997E+02  0.45594000000E+02  0.51100000000E-03 0.  1.
    9900012    2    1    2    0    0 -0.35608316883E+02  0.12150744918E+02  0.21634012017E+02  0.47787270637E+02  0.19999998144E+02 0.  0.
        -12    1    1    2    0    0  0.35608316883E+02 -0.12150744918E+02 -0.21634012017E+02  0.43400729363E+02  0.00000000000E+00 0.  1.
         11    1    3    3    0    0 -0.16630759843E+02  0.10359687038E+02  0.11571589608E+02  0.22755372439E+02  0.51100000000E-03 0. -1.
        -11    1    3    3    0    0 -0.13008983437E+02 -0.32948367707E+01  0.16324679388E+01  0.13518674167E+02  0.51100000000E-03 0.  1.
        -12    1    3    3    0    0 -0.59685736027E+01  0.50858946500E+01  0.84299544701E+01  0.11513224032E+02  0.00000000000E+00 0.  1.
</event>
<event>
 7    1  0.2655656E-009  0.4778727E+02  0.7816164E-02  0.1312668E+00
        -11   -1    0    0    0    0  0.00000000000E+00  0.00000000000E+00  0.45593999997E+02  0.45594000000E+02  0.51100000000E-03 0.  1.
         11   -1    0    0    0    0 -0.00000000000E+00 -0.00000000000E+00 -0.45593999997E+02  0.45594000000E+02  0.51100000000E-03 0. -1.
    9900012    2    1    2    0    0 -0.41323385934E+02  0.65326309196E+01 -0.11546669412E+02  0.47787273436E+02  0.20000010904E+02 0.  0.
        -12    1    1    2    0    0  0.41323385934E+02 -0.65326309196E+01  0.11546669412E+02  0.43400726564E+02  0.00000000000E+00 0.  1.
         11    1    3    3    0    0 -0.23823813401E+02  0.12087895720E+02 -0.10363140590E+02  0.28654598079E+02  0.51100000000E-03 0. -1.
        -11    1    3    3    0    0 -0.44393431548E+01 -0.39237377576E+01 -0.88813050253E-01  0.59254850988E+01  0.51100000000E-03 0.  1.
         12    1    3    3    0    0 -0.13060229378E+02 -0.16315270432E+01 -0.10947157716E+01  0.13207190258E+02  0.00000000000E+00 0. -1.
</event>
<event>
 7    1  0.2655656E-009  0.4778730E+02  0.7816164E-02  0.1312668E+00
        -11   -1    0    0    0    0  0.00000000000E+00  0.00000000000E+00  0.45593999997E+02  0.45594000000E+02  0.51100000000E-03 0.  1.
         11   -1    0    0    0    0 -0.00000000000E+00 -0.00000000000E+00 -0.45593999997E+02  0.45594000000E+02  0.51100000000E-03 0. -1.
    9900012    2    1    2    0    0 -0.42468331946E+02 -0.78097798923E+01 -0.43668055871E+01  0.47787298724E+02  0.20000126201E+02 0.  0.
        -12    1    1    2    0    0  0.42468331946E+02  0.78097798923E+01  0.43668055871E+01  0.43400701276E+02  0.00000000000E+00 0.  1.
         11    1    3    3    0    0 -0.25655361959E+02 -0.11560922256E+02 -0.62187986709E+01  0.28818847615E+02  0.51100000000E-03 0. -1.
        -11    1    3    3    0    0 -0.73897776794E+01  0.45402256264E+01  0.35311066926E+01  0.93643567651E+01  0.51100000000E-03 0.  1.
        -12    1    3    3    0    0 -0.94231923073E+01 -0.78908326222E+00 -0.16791136088E+01  0.96040943439E+01  0.00000000000E+00 0.  1.
</event>
<event>
 7    1  0.2655656E-009  0.4778727E+02  0.7816164E-02  0.1312668E+00
        -11   -1    0    0    0    0  0.00000000000E+00  0.00000000000E+00  0.45593999997E+02  0.45594000000E+02  0.51100000000E-03 0.  1.
         11   -1    0    0    0    0 -0.00000000000E+00 -0.00000000000E+00 -0.45593999997E+02  0.45594000000E+02  0.51100000000E-03 0. -1.
    9900012    2    1    2    0    0 -0.41591612552E+01 -0.23862960687E+02 -0.36012272931E+02  0.47787270550E+02  0.19999997746E+02 0.  0.
        -12    1    1    2    0    0  0.41591612552E+01  0.23862960687E+02  0.36012272931E+02  0.43400729450E+02  0.00000000000E+00 0.  1.
         11    1    3    3    0    0 -0.54767931432E+00 -0.53143920134E+01 -0.17673828010E+01  0.56272868533E+01  0.51100000000E-03 0. -1.
        -11    1    3    3    0    0 -0.35577788621E+01 -0.15782068547E+01  0.53877800302E-01  0.38924838325E+01  0.51100000000E-03 0.  1.
         12    1    3    3    0    0 -0.53703078703E-01 -0.16970361819E+02 -0.34298767931E+02  0.38267499864E+02  0.00000000000E+00 0. -1.
</event>
<event>
 7    1  0.2655656E-009  0.4778728E+02  0.7816164E-02  0.1312668E+00
        -11   -1    0    0    0    0  0.00000000000E+00  0.00000000000E+00  0.45593999997E+02  0.45594000000E+02  0.51100000000E-03 0.  1.
         11   -1    0    0    0    0 -0.00000000000E+00 -0.00000000000E+00 -0.45593999997E+02  0.45594000000E+02  0.51100000000E-03 0. -1.
    9900012    2    1    2    0    0  0.22940583459E+02 -0.26499090838E+02  0.25595909712E+02  0.47787276749E+02  0.20000026010E+02 0.  0.
        -12    1    1    2    0    0 -0.22940583459E+02  0.26499090838E+02 -0.25595909712E+02  0.43400723251E+02  0.00000000000E+00 0.  1.
         11    1    3    3    0    0  0.35111564041E+01 -0.12981104096E+02  0.86850936694E+01  0.16008377031E+02  0.51100000000E-03 0. -1.
        -11    1    3    3    0    0  0.17625844581E+02 -0.12114325685E+02  0.84190140844E+01  0.22984931638E+02  0.51100000000E-03 0.  1.
        -12    1    3    3    0    0  0.18035824742E+01 -0.14036610574E+01  0.84918019582E+01  0.87939680806E+01  0.00000000000E+00 0.  1.
</event>
<event>
 7    1  0.2655656E-009  0.4778728E+02  0.7816164E-02  0.1312668E+00
        -11   -1    0    0    0    0  0.00000000000E+00  0.00000000000E+00  0.45593999997E+02  0.45594000000E+02  0.51100000000E-03 0. -1.
         11   -1    0    0    0    0 -0.00000000000E+00 -0.00000000000E+00 -0.45593999997E+02  0.45594000000E+02  0.51100000000E-03 0.  1.
    9900012    2    1    2    0    0 -0.34757249924E+02  0.24255979798E+02  0.93383001482E+01  0.47787276183E+02  0.20000023427E+02 0.  0.
        -12    1    1    2    0    0  0.34757249924E+02 -0.24255979798E+02 -0.93383001482E+01  0.43400723817E+02  0.00000000000E+00 0.  1.
         11    1    3    3    0    0 -0.14858618671E+02  0.11189362174E+02  0.66874550705E+01  0.19766194126E+02  0.51100000000E-03 0. -1.
        -11    1    3    3    0    0 -0.18607420165E+02  0.12219700421E+02 -0.27255318092E+01  0.22427342408E+02  0.51100000000E-03 0.  1.
        -12    1    3    3    0    0 -0.12912110877E+01  0.84691720306E+00  0.53763768868E+01  0.55937396481E+01  0.00000000000E+00 0.  1.
</event>
<event>
 7    1  0.2655656E-009  0.4778727E+02  0.7816164E-02  0.1312668E+00
        -11   -1    0    0    0    0  0.00000000000E+00  0.00000000000E+00  0.45593999997E+02  0.45594000000E+02  0.51100000000E-03 0.  1.
         11   -1    0    0    0    0 -0.00000000000E+00 -0.00000000000E+00 -0.45593999997E+02  0.45594000000E+02  0.51100000000E-03 0. -1.
    9900012    2    1    2    0    0 -0.26188333063E+02  0.27146090478E+02 -0.21468209949E+02  0.47787273563E+02  0.20000011481E+02 0.  0.
        -12    1    1    2    0    0  0.26188333063E+02 -0.27146090478E+02  0.21468209949E+02  0.43400726437E+02  0.00000000000E+00 0.  1.
         11    1    3    3    0    0 -0.66726160116E+01  0.21403340224E+01 -0.10712290971E+02  0.12800703585E+02  0.51100000000E-03 0. -1.
        -11    1    3    3    0    0 -0.87272766802E+01  0.12405252920E+02  0.89291102050E-01  0.15167848609E+02  0.51100000000E-03 0.  1.
         12    1    3    3    0    0 -0.10788440371E+02  0.12600503536E+02 -0.10845210081E+02  0.19818721369E+02  0.00000000000E+00 0. -1.
</event>
<event>
 7    1  0.2655656E-009  0.4778727E+02  0.7816164E-02  0.1312668E+00
        -11   -1    0    0    0    0  0.00000000000E+00  0.00000000000E+00  0.45593999997E+02  0.45594000000E+02  0.51100000000E-03 0.  1.
         11   -1    0    0    0    0 -0.00000000000E+00 -0.00000000000E+00 -0.45593999997E+02  0.45594000000E+02  0.51100000000E-03 0. -1.
    9900012    2    1    2    0    0  0.68914549569E+01 -0.20493903409E+02 -0.37631514940E+02  0.47787272529E+02  0.20000006767E+02 0.  0.
        -12    1    1    2    0    0 -0.68914549569E+01  0.20493903409E+02  0.37631514940E+02  0.43400727471E+02  0.00000000000E+00 0.  1.
         11    1    3    3    0    0 -0.10836005327E+01 -0.11178518223E+02 -0.29712077779E+02  0.31763832042E+02  0.51100000000E-03 0. -1.
        -11    1    3    3    0    0  0.29615763329E+01 -0.11595178882E+01  0.56623095421E+00  0.32304850817E+01  0.51100000000E-03 0.  1.
         12    1    3    3    0    0  0.50134791567E+01 -0.81558672977E+01 -0.84856681152E+01  0.12792955405E+02  0.00000000000E+00 0. -1.
</event>
<event>
 7    1  0.2655656E-009  0.4778724E+02  0.7816164E-02  0.1312668E+00
        -11   -1    0    0    0    0  0.00000000000E+00  0.00000000000E+00  0.45593999997E+02  0.45594000000E+02  0.51100000000E-03 0.  1.
         11   -1    0    0    0    0 -0.00000000000E+00 -0.00000000000E+00 -0.45593999997E+02  0.45594000000E+02  0.51100000000E-03 0. -1.
    9900012    2    1    2    0    0  0.13699023145E+02 -0.43650465183E+01 -0.40950082715E+02  0.47787238018E+02  0.19999849419E+02 0.  0.
        -12    1    1    2    0    0 -0.13699023145E+02  0.43650465183E+01  0.40950082715E+02  0.43400761982E+02  0.00000000000E+00 0.  1.
         11    1    3    3    0    0  0.93087300805E+01  0.34552545445E-01 -0.66659360822E+01  0.11449382241E+02  0.51100000000E-03 0. -1.
        -11    1    3    3    0    0 -0.11216772477E+00 -0.46110002078E+01 -0.29121107356E+02  0.29484110948E+02  0.51100000000E-03 0.  1.
        -12    1    3    3    0    0  0.45024607888E+01  0.21140114405E+00 -0.51630392775E+01  0.68537448288E+01  0.00000000000E+00 0.  1.
</event>
<event>
 7    1  0.2655656E-009  0.4778727E+02  0.7816164E-02  0.1312668E+00
        -11   -1    0    0    0    0  0.00000000000E+00  0.00000000000E+00  0.45593999997E+02  0.45594000000E+02  0.51100000000E-03 0. -1.
         11   -1    0    0    0    0 -0.00000000000E+00 -0.00000000000E+00 -0.45593999997E+02  0.45594000000E+02  0.51100000000E-03 0.  1.
    9900012    2    1    2    0    0  0.34097641007E+02  0.22565321762E+02 -0.14552676333E+02  0.47787271239E+02  0.20000000887E+02 0.  0.
        -12    1    1    2    0    0 -0.34097641007E+02 -0.22565321762E+02  0.14552676333E+02  0.43400728761E+02  0.00000000000E+00 0.  1.
         11    1    3    3    0    0  0.95921003799E+01  0.10682853151E+02 -0.57930546347E+01  0.15481964456E+02  0.51100000000E-03 0. -1.
        -11    1    3    3    0    0  0.10677921360E+02 -0.25261494806E+01 -0.15911735394E+01  0.11087437453E+02  0.51100000000E-03 0.  1.
        -12    1    3    3    0    0  0.13827619268E+02  0.14408618092E+02 -0.71684481592E+01  0.21217869331E+02  0.00000000000E+00 0.  1.
</event>
<event>
 7    1  0.2655656E-009  0.4778728E+02  0.7816164E-02  0.1312668E+00
        -11   -1    0    0    0    0  0.00000000000E+00  0.00000000000E+00  0.45593999997E+02  0.45594000000E+02  0.51100000000E-03 0.  1.
         11   -1    0    0    0    0 -0.00000000000E+00 -0.00000000000E+00 -0.45593999997E+02  0.45594000000E+02  0.51100000000E-03 0. -1.
    9900012    2    1    2    0    0  0.13571275739E+02 -0.18176368283E+01 -0.41184215308E+02  0.47787275128E+02  0.20000018620E+02 0.  0.
        -12    1    1    2    0    0 -0.13571275739E+02  0.18176368283E+01  0.41184215308E+02  0.43400724872E+02  0.00000000000E+00 0.  1.
         11    1    3    3    0    0  0.32824858238E+00 -0.14669656140E+01 -0.43038959623E+01  0.45588656440E+01  0.51100000000E-03 0. -1.
        -11    1    3    3    0    0 -0.36019871474E-01 -0.44591813540E+01 -0.23553081657E+02  0.23971509164E+02  0.51100000000E-03 0.  1.
        -12    1    3    3    0    0  0.13279047028E+02  0.41085101396E+01 -0.13327237689E+02  0.19256900321E+02  0.00000000000E+00 0.  1.
</event>
<event>
 7    1  0.2655656E-009  0.4778724E+02  0.7816164E-02  0.1312668E+00
        -11   -1    0    0    0    0  0.00000000000E+00  0.00000000000E+00  0.45593999997E+02  0.45594000000E+02  0.51100000000E-03 0.  1.
         11   -1    0    0    0    0 -0.00000000000E+00 -0.00000000000E+00 -0.45593999997E+02  0.45594000000E+02  0.51100000000E-03 0. -1.
    9900012    2    1    2    0    0  0.15134859949E+02 -0.10544359728E+02 -0.39285850451E+02  0.47787244783E+02  0.19999880261E+02 0.  0.
        -12    1    1    2    0    0 -0.15134859949E+02  0.10544359728E+02  0.39285850451E+02  0.43400755217E+02  0.00000000000E+00 0.  1.
         11    1    3    3    0    0  0.12187291386E+00  0.30612307669E+01 -0.47254502456E+00  0.30998848167E+01  0.51100000000E-03 0.  1.
        -11    1    3    3    0    0  0.58914838317E+01 -0.11280194444E+02 -0.22889173555E+02  0.26189055629E+02  0.51100000000E-03 0. -1.
        -12    1    3    3    0    0  0.91215032032E+01 -0.23253960516E+01 -0.15924131872E+02  0.18498304337E+02  0.00000000000E+00 0.  1.
</event>
<event>
 7    1  0.2655656E-009  0.4778727E+02  0.7816164E-02  0.1312668E+00
        -11   -1    0    0    0    0  0.00000000000E+00  0.00000000000E+00  0.45593999997E+02  0.45594000000E+02  0.51100000000E-03 0.  1.
         11   -1    0    0    0    0 -0.00000000000E+00 -0.00000000000E+00 -0.45593999997E+02  0.45594000000E+02  0.51100000000E-03 0. -1.
    9900012    2    1    2    0    0  0.17365386532E+02 -0.37959519968E+02  0.11880305169E+02  0.47787268940E+02  0.19999990405E+02 0.  0.
        -12    1    1    2    0    0 -0.17365386532E+02  0.37959519968E+02 -0.11880305169E+02  0.43400731060E+02  0.00000000000E+00 0.  1.
         11    1    3    3    0    0  0.35524781666E+01 -0.14727792360E+02  0.69870279988E+01  0.16683720491E+02  0.51100000000E-03 0. -1.
        -11    1    3    3    0    0  0.81095324728E+01 -0.39178500142E+01  0.61821487928E+01  0.10923965837E+02  0.51100000000E-03 0.  1.
        -12    1    3    3    0    0  0.57033758926E+01 -0.19313877594E+02 -0.12888716223E+01  0.20179582611E+02  0.00000000000E+00 0.  1.
</event>
<event>
 7    1  0.2655656E-009  0.4778727E+02  0.7816164E-02  0.1312668E+00
        -11   -1    0    0    0    0  0.00000000000E+00  0.00000000000E+00  0.45593999997E+02  0.45594000000E+02  0.51100000000E-03 0. -1.
         11   -1    0    0    0    0 -0.00000000000E+00 -0.00000000000E+00 -0.45593999997E+02  0.45594000000E+02  0.51100000000E-03 0.  1.
    9900012    2    1    2    0    0 -0.28678153482E+02 -0.28548957803E+02  0.15688959976E+02  0.47787274846E+02  0.20000017332E+02 0.  0.
        -12    1    1    2    0    0  0.28678153482E+02  0.28548957803E+02 -0.15688959976E+02  0.43400725154E+02  0.00000000000E+00 0.  1.
         11    1    3    3    0    0 -0.17367035520E+02 -0.13815485144E+02  0.12435676129E+02  0.25438702671E+02  0.51100000000E-03 0. -1.
        -11    1    3    3    0    0  0.17343189123E+01 -0.33568294683E-01  0.20107295807E+01  0.26555644650E+01  0.51100000000E-03 0.  1.
         12    1    3    3    0    0 -0.13045436874E+02 -0.14699904365E+02  0.12425542660E+01  0.19693007710E+02  0.00000000000E+00 0. -1.
</event>
<event>
 7    1  0.2655656E-009  0.4778727E+02  0.7816164E-02  0.1312668E+00
        -11   -1    0    0    0    0  0.00000000000E+00  0.00000000000E+00  0.45593999997E+02  0.45594000000E+02  0.51100000000E-03 0. -1.
         11   -1    0    0    0    0 -0.00000000000E+00 -0.00000000000E+00 -0.45593999997E+02  0.45594000000E+02  0.51100000000E-03 0.  1.
    9900012    2    1    2    0    0 -0.72290228310E+01  0.41628968781E+02  0.99193461592E+01  0.47787271422E+02  0.20000001721E+02 0.  0.
        -12    1    1    2    0    0  0.72290228310E+01 -0.41628968781E+02 -0.99193461592E+01  0.43400728578E+02  0.00000000000E+00 0.  1.
         11    1    3    3    0    0 -0.28347232635E+01  0.22155186144E+02 -0.33165780430E+01  0.22580691292E+02  0.51100000000E-03 0. -1.
        -11    1    3    3    0    0  0.18165972002E+01  0.13987846333E+01  0.92394817216E+00  0.24719029763E+01  0.51100000000E-03 0.  1.
         12    1    3    3    0    0 -0.62108967677E+01  0.18074998004E+02  0.12311976030E+02  0.22734677153E+02  0.00000000000E+00 0. -1.
</event>
<event>
 7    1  0.2655656E-009  0.4778727E+02  0.7816164E-02  0.1312668E+00
        -11   -1    0    0    0    0  0.00000000000E+00  0.00000000000E+00  0.45593999997E+02  0.45594000000E+02  0.51100000000E-03 0.  1.
         11   -1    0    0    0    0 -0.00000000000E+00 -0.00000000000E+00 -0.45593999997E+02  0.45594000000E+02  0.51100000000E-03 0. -1.
    9900012    2    1    2    0    0  0.41397388926E+01 -0.41130955932E+02 -0.13218558596E+02  0.47787271143E+02  0.20000000448E+02 0.  0.
        -12    1    1    2    0    0 -0.41397388926E+01  0.41130955932E+02  0.13218558596E+02  0.43400728857E+02  0.00000000000E+00 0.  1.
         11    1    3    3    0    0 -0.56842277006E+01 -0.94239116983E+01  0.24533109909E+00  0.11008212564E+02  0.51100000000E-03 0. -1.
        -11    1    3    3    0    0 -0.84296199523E+00 -0.40969327064E+00 -0.11774440305E+01  0.15049279742E+01  0.51100000000E-03 0.  1.
         12    1    3    3    0    0  0.10666928588E+02 -0.31297350963E+02 -0.12286445665E+02  0.35274130604E+02  0.00000000000E+00 0. -1.
</event>
<event>
 7    1  0.2655656E-009  0.4778727E+02  0.7816164E-02  0.1312668E+00
        -11   -1    0    0    0    0  0.00000000000E+00  0.00000000000E+00  0.45593999997E+02  0.45594000000E+02  0.51100000000E-03 0. -1.
         11   -1    0    0    0    0 -0.00000000000E+00 -0.00000000000E+00 -0.45593999997E+02  0.45594000000E+02  0.51100000000E-03 0.  1.
    9900012    2    1    2    0    0 -0.34869878393E+02  0.23249866271E+02  0.11276468974E+02  0.47787268978E+02  0.19999990578E+02 0.  0.
        -12    1    1    2    0    0  0.34869878393E+02 -0.23249866271E+02 -0.11276468974E+02  0.43400731022E+02  0.00000000000E+00 0.  1.
         11    1    3    3    0    0 -0.33861293200E+02  0.23305285469E+02  0.14162358759E+02  0.43477533438E+02  0.51100000000E-03 0. -1.
        -11    1    3    3    0    0 -0.20063365501E+01  0.19903352896E+00 -0.24962835987E+01  0.32088055042E+01  0.51100000000E-03 0.  1.
         12    1    3    3    0    0  0.99775135759E+00 -0.25445272756E+00 -0.38960618660E+00  0.11009300354E+01  0.00000000000E+00 0. -1.
</event>
<event>
 7    1  0.2655656E-009  0.4778726E+02  0.7816164E-02  0.1312668E+00
        -11   -1    0    0    0    0  0.00000000000E+00  0.00000000000E+00  0.45593999997E+02  0.45594000000E+02  0.51100000000E-03 0. -1.
         11   -1    0    0    0    0 -0.00000000000E+00 -0.00000000000E+00 -0.45593999997E+02  0.45594000000E+02  0.51100000000E-03 0.  1.
    9900012    2    1    2    0    0  0.40775587901E+02  0.27683765306E+01 -0.14605208398E+02  0.47787255886E+02  0.19999930885E+02 0.  0.
        -12    1    1    2    0    0 -0.40775587901E+02 -0.27683765306E+01  0.14605208398E+02  0.43400744114E+02  0.00000000000E+00 0.  1.
         11    1    3    3    0    0  0.37323441163E+01 -0.49255159312E+01 -0.23598136586E+00  0.61843986981E+01  0.51100000000E-03 0. -1.
        -11    1    3    3    0    0  0.14090086762E+02  0.71454531053E+01 -0.34122307822E+01  0.16162653378E+02  0.51100000000E-03 0.  1.
         12    1    3    3    0    0  0.22953157023E+02  0.54843935656E+00 -0.10956996250E+02  0.25440203809E+02  0.00000000000E+00 0. -1.
</event>
<event>
 7    1  0.2655656E-009  0.4778727E+02  0.7816164E-02  0.1312668E+00
        -11   -1    0    0    0    0  0.00000000000E+00  0.00000000000E+00  0.45593999997E+02  0.45594000000E+02  0.51100000000E-03 0.  1.
         11   -1    0    0    0    0 -0.00000000000E+00 -0.00000000000E+00 -0.45593999997E+02  0.45594000000E+02  0.51100000000E-03 0. -1.
    9900012    2    1    2    0    0 -0.39888460893E+02  0.16252725557E+02 -0.53275887849E+01  0.47787267256E+02  0.19999982728E+02 0.  0.
        -12    1    1    2    0    0  0.39888460893E+02 -0.16252725557E+02  0.53275887849E+01  0.43400732744E+02  0.00000000000E+00 0.  1.
         11    1    3    3    0    0 -0.27752937604E+02  0.10448491790E+02 -0.28409122427E+01  0.29790389541E+02  0.51100000000E-03 0. -1.
        -11    1    3    3    0    0  0.97449587896E+00 -0.13101585529E+01  0.18458363608E+01  0.24644004918E+01  0.51100000000E-03 0.  1.
        -12    1    3    3    0    0 -0.13110019168E+02  0.71143923199E+01 -0.43325129030E+01  0.15532477224E+02  0.00000000000E+00 0.  1.
</event>
<event>
 7    1  0.2655656E-009  0.4778727E+02  0.7816164E-02  0.1312668E+00
        -11   -1    0    0    0    0  0.00000000000E+00  0.00000000000E+00  0.45593999997E+02  0.45594000000E+02  0.51100000000E-03 0. -1.
         11   -1    0    0    0    0 -0.00000000000E+00 -0.00000000000E+00 -0.45593999997E+02  0.45594000000E+02  0.51100000000E-03 0.  1.
    9900012    2    1    2    0    0  0.39800285938E+02 -0.21353208338E+01  0.17175594377E+02  0.47787269614E+02  0.19999993480E+02 0.  0.
        -12    1    1    2    0    0 -0.39800285938E+02  0.21353208338E+01 -0.17175594377E+02  0.43400730386E+02  0.00000000000E+00 0.  1.
         11    1    3    3    0    0  0.34030845529E+02 -0.40453358861E+00  0.19214031903E+02  0.39082491183E+02  0.51100000000E-03 0. -1.
        -11    1    3    3    0    0  0.45683672804E+01 -0.18082410441E+01 -0.40455604779E+01  0.63644540319E+01  0.51100000000E-03 0.  1.
        -12    1    3    3    0    0  0.12010731291E+01  0.77453798956E-01  0.20071229520E+01  0.23403243999E+01  0.00000000000E+00 0.  1.
</event>
<event>
 7    1  0.2655656E-009  0.4778727E+02  0.7816164E-02  0.1312668E+00
        -11   -1    0    0    0    0  0.00000000000E+00  0.00000000000E+00  0.45593999997E+02  0.45594000000E+02  0.51100000000E-03 0.  1.
         11   -1    0    0    0    0 -0.00000000000E+00 -0.00000000000E+00 -0.45593999997E+02  0.45594000000E+02  0.51100000000E-03 0. -1.
    9900012    2    1    2    0    0  0.40044232378E+02 -0.15909987784E+02  0.51918149241E+01  0.47787271892E+02  0.20000003866E+02 0.  0.
        -12    1    1    2    0    0 -0.40044232378E+02  0.15909987784E+02 -0.51918149241E+01  0.43400728108E+02  0.00000000000E+00 0.  1.
         11    1    3    3    0    0  0.16001184042E+02 -0.58906900202E+01  0.82017804019E+01  0.18921081409E+02  0.51100000000E-03 0. -1.
        -11    1    3    3    0    0  0.21350311722E+02 -0.73306541521E+01 -0.67189003604E+01  0.23552450472E+02  0.51100000000E-03 0.  1.
        -12    1    3    3    0    0  0.26927366142E+01 -0.26886436120E+01  0.37089348826E+01  0.53137400115E+01  0.00000000000E+00 0.  1.
</event>
<event>
 7    1  0.2655656E-009  0.4778727E+02  0.7816164E-02  0.1312668E+00
        -11   -1    0    0    0    0  0.00000000000E+00  0.00000000000E+00  0.45593999997E+02  0.45594000000E+02  0.51100000000E-03 0.  1.
         11   -1    0    0    0    0 -0.00000000000E+00 -0.00000000000E+00 -0.45593999997E+02  0.45594000000E+02  0.51100000000E-03 0. -1.
    9900012    2    1    2    0    0  0.97669491798E+01  0.93282256174E+01 -0.41245778040E+02  0.47787270794E+02  0.19999998860E+02 0.  0.
        -12    1    1    2    0    0 -0.97669491798E+01 -0.93282256174E+01  0.41245778040E+02  0.43400729206E+02  0.00000000000E+00 0.  1.
         11    1    3    3    0    0  0.85622095630E+01  0.12250898545E+02 -0.17438548923E+02  0.22967345005E+02  0.51100000000E-03 0.  1.
        -11    1    3    3    0    0  0.81338995465E+00 -0.48644355185E+01 -0.14897587074E+02  0.15692751098E+02  0.51100000000E-03 0. -1.
        -12    1    3    3    0    0  0.39134966217E+00  0.19417625907E+01 -0.89096420433E+01  0.91271746919E+01  0.00000000000E+00 0.  1.
</event>
<event>
 7    1  0.2655656E-009  0.4778727E+02  0.7816164E-02  0.1312668E+00
        -11   -1    0    0    0    0  0.00000000000E+00  0.00000000000E+00  0.45593999997E+02  0.45594000000E+02  0.51100000000E-03 0.  1.
         11   -1    0    0    0    0 -0.00000000000E+00 -0.00000000000E+00 -0.45593999997E+02  0.45594000000E+02  0.51100000000E-03 0. -1.
    9900012    2    1    2    0    0  0.27147978901E+02 -0.33801336772E+02 -0.20198967157E+01  0.47787272947E+02  0.20000008676E+02 0.  0.
        -12    1    1    2    0    0 -0.27147978901E+02  0.33801336772E+02  0.20198967157E+01  0.43400727053E+02  0.00000000000E+00 0.  1.
         11    1    3    3    0    0  0.85959306903E+01 -0.32554034832E+01 -0.14440629464E+01  0.93044609906E+01  0.51100000000E-03 0. -1.
        -11    1    3    3    0    0  0.27209951470E+01 -0.15935582746E+02  0.35431640311E+01  0.16549943313E+02  0.51100000000E-03 0.  1.
        -12    1    3    3    0    0  0.15831053064E+02 -0.14610350543E+02 -0.41189978004E+01  0.21932868644E+02  0.00000000000E+00 0.  1.
</event>
<event>
 7    1  0.2655656E-009  0.4778728E+02  0.7816164E-02  0.1312668E+00
        -11   -1    0    0    0    0  0.00000000000E+00  0.00000000000E+00  0.45593999997E+02  0.45594000000E+02  0.51100000000E-03 0. -1.
         11   -1    0    0    0    0 -0.00000000000E+00 -0.00000000000E+00 -0.45593999997E+02  0.45594000000E+02  0.51100000000E-03 0.  1.
    9900012    2    1    2    0    0  0.23282536472E+02 -0.25650933443E+02  0.26145282397E+02  0.47787277855E+02  0.20000031050E+02 0.  0.
        -12    1    1    2    0    0 -0.23282536472E+02  0.25650933443E+02 -0.26145282397E+02  0.43400722145E+02  0.00000000000E+00 0.  1.
         11    1    3    3    0    0  0.68514530462E+01 -0.13317580544E+02  0.16145664686E+02  0.22022326144E+02  0.51100000000E-03 0. -1.
        -11    1    3    3    0    0  0.73029075382E+01 -0.22008860863E+01 -0.16790421952E+01  0.78099642144E+01  0.51100000000E-03 0.  1.
        -12    1    3    3    0    0  0.91281758880E+01 -0.10132466813E+02  0.11678659907E+02  0.17954987496E+02  0.00000000000E+00 0.  1.
</event>
<event>
 7    1  0.2655656E-009  0.4778728E+02  0.7816164E-02  0.1312668E+00
        -11   -1    0    0    0    0  0.00000000000E+00  0.00000000000E+00  0.45593999997E+02  0.45594000000E+02  0.51100000000E-03 0.  1.
         11   -1    0    0    0    0 -0.00000000000E+00 -0.00000000000E+00 -0.45593999997E+02  0.45594000000E+02  0.51100000000E-03 0. -1.
    9900012    2    1    2    0    0  0.29525910725E+02  0.31800342456E+02 -0.76252104508E+00  0.47787278545E+02  0.20000034198E+02 0.  0.
        -12    1    1    2    0    0 -0.29525910725E+02 -0.31800342456E+02  0.76252104508E+00  0.43400721455E+02  0.00000000000E+00 0.  1.
         11    1    3    3    0    0  0.10281786811E+02  0.24265476788E+02 -0.21440107294E+01  0.26440977403E+02  0.51100000000E-03 0. -1.
        -11    1    3    3    0    0  0.89050279354E+01  0.12633629509E+01 -0.90469364687E+00  0.90395840243E+01  0.51100000000E-03 0.  1.
         12    1    3    3    0    0  0.10339095978E+02  0.62715027174E+01  0.22861833311E+01  0.12306717117E+02  0.00000000000E+00 0. -1.
</event>
<event>
 7    1  0.2655656E-009  0.4778727E+02  0.7816164E-02  0.1312668E+00
        -11   -1    0    0    0    0  0.00000000000E+00  0.00000000000E+00  0.45593999997E+02  0.45594000000E+02  0.51100000000E-03 0.  1.
         11   -1    0    0    0    0 -0.00000000000E+00 -0.00000000000E+00 -0.45593999997E+02  0.45594000000E+02  0.51100000000E-03 0. -1.
    9900012    2    1    2    0    0  0.23993000324E+01  0.32595717646E+02 -0.28554958050E+02  0.47787273292E+02  0.20000010250E+02 0.  0.
        -12    1    1    2    0    0 -0.23993000324E+01 -0.32595717646E+02  0.28554958050E+02  0.43400726708E+02  0.00000000000E+00 0.  1.
         11    1    3    3    0    0  0.47398010351E+01  0.12982798348E+02 -0.13168749457E+02  0.19090173633E+02  0.51100000000E-03 0. -1.
        -11    1    3    3    0    0 -0.15096665043E+01  0.12013856390E+02 -0.68559981050E+00  0.12127732092E+02  0.51100000000E-03 0.  1.
        -12    1    3    3    0    0 -0.83083449845E+00  0.75990629072E+01 -0.14700608783E+02  0.16569367568E+02  0.00000000000E+00 0.  1.
</event>
<event>
 7    1  0.2655656E-009  0.4778727E+02  0.7816164E-02  0.1312668E+00
        -11   -1    0    0    0    0  0.00000000000E+00  0.00000000000E+00  0.45593999997E+02  0.45594000000E+02  0.51100000000E-03 0. -1.
         11   -1    0    0    0    0 -0.00000000000E+00 -0.00000000000E+00 -0.45593999997E+02  0.45594000000E+02  0.51100000000E-03 0.  1.
    9900012    2    1    2    0    0  0.16996613107E+02 -0.17203516051E+02  0.36038556337E+02  0.47787270001E+02  0.19999995242E+02 0.  0.
        -12    1    1    2    0    0 -0.16996613107E+02  0.17203516051E+02 -0.36038556337E+02  0.43400729999E+02  0.00000000000E+00 0.  1.
         11    1    3    3    0    0  0.73932114933E+01 -0.14341104376E+02  0.23091443962E+02  0.28169871058E+02  0.51100000000E-03 0. -1.
        -11    1    3    3    0    0  0.13894137753E+01 -0.56599728176E+01  0.35378425233E+01  0.68177777110E+01  0.51100000000E-03 0.  1.
         12    1    3    3    0    0  0.82139878380E+01  0.27975611420E+01  0.94092698514E+01  0.12799621232E+02  0.00000000000E+00 0. -1.
</event>
<event>
 7    1  0.2655656E-009  0.4778727E+02  0.7816164E-02  0.1312668E+00
        -11   -1    0    0    0    0  0.00000000000E+00  0.00000000000E+00  0.45593999997E+02  0.45594000000E+02  0.51100000000E-03 0.  1.
         11   -1    0    0    0    0 -0.00000000000E+00 -0.00000000000E+00 -0.45593999997E+02  0.45594000000E+02  0.51100000000E-03 0. -1.
    9900012    2    1    2    0    0  0.28146309884E+02  0.33023719252E+02  0.91799499351E+00  0.47787268345E+02  0.19999987693E+02 0.  0.
        -12    1    1    2    0    0 -0.28146309884E+02 -0.33023719252E+02 -0.91799499351E+00  0.43400731655E+02  0.00000000000E+00 0.  1.
         11    1    3    3    0    0  0.14557363088E+01  0.52960986982E+01 -0.75781246899E+00  0.55445567560E+01  0.51100000000E-03 0. -1.
        -11    1    3    3    0    0  0.10095592291E+02  0.91381837282E+01 -0.76700199205E+01  0.15628710484E+02  0.51100000000E-03 0.  1.
        -12    1    3    3    0    0  0.16594981285E+02  0.18589436826E+02  0.93458273830E+01  0.26614001105E+02  0.00000000000E+00 0.  1.
</event>
<event>
 7    1  0.2655656E-009  0.4778726E+02  0.7816164E-02  0.1312668E+00
        -11   -1    0    0    0    0  0.00000000000E+00  0.00000000000E+00  0.45593999997E+02  0.45594000000E+02  0.51100000000E-03 0.  1.
         11   -1    0    0    0    0 -0.00000000000E+00 -0.00000000000E+00 -0.45593999997E+02  0.45594000000E+02  0.51100000000E-03 0. -1.
    9900012    2    1    2    0    0  0.14677047521E+02 -0.16174437635E+02 -0.37504609649E+02  0.47787263812E+02  0.19999967024E+02 0.  0.
        -12    1    1    2    0    0 -0.14677047521E+02  0.16174437635E+02  0.37504609649E+02  0.43400736188E+02  0.00000000000E+00 0.  1.
         11    1    3    3    0    0  0.10224736053E+02 -0.10064052878E+02 -0.29930708183E+02  0.33191530249E+02  0.51100000000E-03 0. -1.
        -11    1    3    3    0    0  0.33798537609E+01 -0.10145153911E+01  0.17326946981E+01  0.39312700368E+01  0.51100000000E-03 0.  1.
        -12    1    3    3    0    0  0.10724577068E+01 -0.50958693657E+01 -0.93065961648E+01  0.10664463526E+02  0.00000000000E+00 0.  1.
</event>
<event>
 7    1  0.2655656E-009  0.4778726E+02  0.7816164E-02  0.1312668E+00
        -11   -1    0    0    0    0  0.00000000000E+00  0.00000000000E+00  0.45593999997E+02  0.45594000000E+02  0.51100000000E-03 0. -1.
         11   -1    0    0    0    0 -0.00000000000E+00 -0.00000000000E+00 -0.45593999997E+02  0.45594000000E+02  0.51100000000E-03 0.  1.
    9900012    2    1    2    0    0 -0.40630958453E+02 -0.60378508479E+00  0.15244168828E+02  0.47787262397E+02  0.19999960571E+02 0.  0.
        -12    1    1    2    0    0  0.40630958453E+02  0.60378508479E+00 -0.15244168828E+02  0.43400737603E+02  0.00000000000E+00 0.  1.
         11    1    3    3    0    0 -0.64500678961E+01  0.64246581740E+01  0.45770883995E+01  0.10189668640E+02  0.51100000000E-03 0. -1.
        -11    1    3    3    0    0 -0.45046862138E+01  0.80802489750E+00 -0.11317995859E+01  0.47144535933E+01  0.51100000000E-03 0.  1.
         12    1    3    3    0    0 -0.29676204343E+02 -0.78364681563E+01  0.11798880015E+02  0.32883140163E+02  0.00000000000E+00 0. -1.
</event>
<event>
 7    1  0.2655656E-009  0.4778727E+02  0.7816164E-02  0.1312668E+00
        -11   -1    0    0    0    0  0.00000000000E+00  0.00000000000E+00  0.45593999997E+02  0.45594000000E+02  0.51100000000E-03 0. -1.
         11   -1    0    0    0    0 -0.00000000000E+00 -0.00000000000E+00 -0.45593999997E+02  0.45594000000E+02  0.51100000000E-03 0.  1.
    9900012    2    1    2    0    0  0.35211170887E+02 -0.60221979036E+01  0.24648120637E+02  0.47787271045E+02  0.20000000004E+02 0.  0.
        -12    1    1    2    0    0 -0.35211170887E+02  0.60221979036E+01 -0.24648120637E+02  0.43400728955E+02  0.00000000000E+00 0.  1.
         11    1    3    3    0    0  0.95384318813E+01 -0.70437618977E+01  0.16028239120E+02  0.19937419943E+02  0.51100000000E-03 0. -1.
        -11    1    3    3    0    0  0.13031874667E+02  0.83743721194E+00  0.77328574626E+01  0.15176565594E+02  0.51100000000E-03 0.  1.
         12    1    3    3    0    0  0.12640864339E+02  0.18412678216E+00  0.88702405452E+00  0.12673285508E+02  0.00000000000E+00 0. -1.
</event>
<event>
 7    1  0.2655656E-009  0.4778730E+02  0.7816164E-02  0.1312668E+00
        -11   -1    0    0    0    0  0.00000000000E+00  0.00000000000E+00  0.45593999997E+02  0.45594000000E+02  0.51100000000E-03 0.  1.
         11   -1    0    0    0    0 -0.00000000000E+00 -0.00000000000E+00 -0.45593999997E+02  0.45594000000E+02  0.51100000000E-03 0. -1.
    9900012    2    1    2    0    0  0.28531970525E+02  0.10763858267E+02 -0.30881821969E+02  0.47787298221E+02  0.20000123908E+02 0.  0.
        -12    1    1    2    0    0 -0.28531970525E+02 -0.10763858267E+02  0.30881821969E+02  0.43400701779E+02  0.00000000000E+00 0.  1.
         11    1    3    3    0    0  0.76225387893E+01  0.71296870373E+01 -0.21416369605E+02  0.23824282196E+02  0.51100000000E-03 0. -1.
        -11    1    3    3    0    0  0.16573252357E+02  0.13983879639E+01 -0.50472853687E+01  0.17381118274E+02  0.51100000000E-03 0.  1.
        -12    1    3    3    0    0  0.43361793784E+01  0.22357832656E+01 -0.44181669953E+01  0.65818977514E+01  0.00000000000E+00 0.  1.
</event>
<event>
 7    1  0.2655656E-009  0.4778727E+02  0.7816164E-02  0.1312668E+00
        -11   -1    0    0    0    0  0.00000000000E+00  0.00000000000E+00  0.45593999997E+02  0.45594000000E+02  0.51100000000E-03 0.  1.
         11   -1    0    0    0    0 -0.00000000000E+00 -0.00000000000E+00 -0.45593999997E+02  0.45594000000E+02  0.51100000000E-03 0. -1.
    9900012    2    1    2    0    0 -0.19427885404E+01 -0.17149124318E+02 -0.39821558621E+02  0.47787269325E+02  0.19999992158E+02 0.  0.
        -12    1    1    2    0    0  0.19427885404E+01  0.17149124318E+02  0.39821558621E+02  0.43400730675E+02  0.00000000000E+00 0.  1.
         11    1    3    3    0    0 -0.50293201044E+00 -0.12494237297E+02 -0.67424755421E+01  0.14206332494E+02  0.51100000000E-03 0. -1.
        -11    1    3    3    0    0 -0.42819796109E+00 -0.91546915042E-01 -0.11180687480E+02  0.11189258560E+02  0.51100000000E-03 0.  1.
         12    1    3    3    0    0 -0.10116585688E+01 -0.45633401060E+01 -0.21898395599E+02  0.22391678271E+02  0.00000000000E+00 0. -1.
</event>
<event>
 7    1  0.2655656E-009  0.4778728E+02  0.7816164E-02  0.1312668E+00
        -11   -1    0    0    0    0  0.00000000000E+00  0.00000000000E+00  0.45593999997E+02  0.45594000000E+02  0.51100000000E-03 0.  1.
         11   -1    0    0    0    0 -0.00000000000E+00 -0.00000000000E+00 -0.45593999997E+02  0.45594000000E+02  0.51100000000E-03 0. -1.
    9900012    2    1    2    0    0  0.39812994208E+02  0.28496115460E+01 -0.17041939983E+02  0.47787279819E+02  0.20000040009E+02 0.  0.
        -12    1    1    2    0    0 -0.39812994208E+02 -0.28496115460E+01  0.17041939983E+02  0.43400720181E+02  0.00000000000E+00 0.  1.
         11    1    3    3    0    0  0.31155268607E+02  0.58542827417E+01 -0.49938756481E+01  0.32091465885E+02  0.51100000000E-03 0. -1.
        -11    1    3    3    0    0  0.39762748848E+01 -0.31729694538E+01 -0.81223499614E+01  0.95838961947E+01  0.51100000000E-03 0.  1.
         12    1    3    3    0    0  0.46814507169E+01  0.16829825812E+00 -0.39257143737E+01  0.61119177402E+01  0.00000000000E+00 0. -1.
</event>
<event>
 7    1  0.2655656E-009  0.4778727E+02  0.7816164E-02  0.1312668E+00
        -11   -1    0    0    0    0  0.00000000000E+00  0.00000000000E+00  0.45593999997E+02  0.45594000000E+02  0.51100000000E-03 0.  1.
         11   -1    0    0    0    0 -0.00000000000E+00 -0.00000000000E+00 -0.45593999997E+02  0.45594000000E+02  0.51100000000E-03 0. -1.
    9900012    2    1    2    0    0  0.52934605076E+01 -0.97349531403E+01 -0.41962285333E+02  0.47787269279E+02  0.19999991949E+02 0.  0.
        -12    1    1    2    0    0 -0.52934605076E+01  0.97349531403E+01  0.41962285333E+02  0.43400730721E+02  0.00000000000E+00 0.  1.
         11    1    3    3    0    0  0.26248370661E+01 -0.48069662509E+01 -0.24527113137E+02  0.25131175326E+02  0.51100000000E-03 0. -1.
        -11    1    3    3    0    0  0.45231460266E+01  0.20468251054E+01 -0.15381911256E+01  0.51975354920E+01  0.51100000000E-03 0.  1.
         12    1    3    3    0    0 -0.18545225851E+01 -0.69748119948E+01 -0.15896981070E+02  0.17458558461E+02  0.00000000000E+00 0. -1.
</event>
<event>
 7    1  0.2655656E-009  0.4778727E+02  0.7816164E-02  0.1312668E+00
        -11   -1    0    0    0    0  0.00000000000E+00  0.00000000000E+00  0.45593999997E+02  0.45594000000E+02  0.51100000000E-03 0.  1.
         11   -1    0    0    0    0 -0.00000000000E+00 -0.00000000000E+00 -0.45593999997E+02  0.45594000000E+02  0.51100000000E-03 0. -1.
    9900012    2    1    2    0    0  0.10419006289E+01 -0.11816356251E+02 -0.41748188212E+02  0.47787273612E+02  0.20000011708E+02 0.  0.
        -12    1    1    2    0    0 -0.10419006289E+01  0.11816356251E+02  0.41748188212E+02  0.43400726388E+02  0.00000000000E+00 0.  1.
         11    1    3    3    0    0  0.56362702502E+00  0.19725423165E+01  0.86016836355E-01  0.20532895000E+01  0.51100000000E-03 0.  1.
        -11    1    3    3    0    0  0.41872636715E+01 -0.72300233851E+01 -0.33377880421E+02  0.34407692699E+02  0.51100000000E-03 0. -1.
         12    1    3    3    0    0 -0.37089900677E+01 -0.65588751820E+01 -0.84563246276E+01  0.11326291413E+02  0.00000000000E+00 0. -1.
</event>
<event>
 7    1  0.2655656E-009  0.4778727E+02  0.7816164E-02  0.1312668E+00
        -11   -1    0    0    0    0  0.00000000000E+00  0.00000000000E+00  0.45593999997E+02  0.45594000000E+02  0.51100000000E-03 0.  1.
         11   -1    0    0    0    0 -0.00000000000E+00 -0.00000000000E+00 -0.45593999997E+02  0.45594000000E+02  0.51100000000E-03 0. -1.
    9900012    2    1    2    0    0 -0.23664310507E+02  0.76353776025E+00 -0.36373629025E+02  0.47787268783E+02  0.19999989691E+02 0.  0.
        -12    1    1    2    0    0  0.23664310507E+02 -0.76353776025E+00  0.36373629025E+02  0.43400731217E+02  0.00000000000E+00 0.  1.
         11    1    3    3    0    0 -0.20572349051E+02 -0.34515435809E+01 -0.26778125375E+02  0.33944111381E+02  0.51100000000E-03 0. -1.
        -11    1    3    3    0    0 -0.14713927528E+01  0.29419879003E+01  0.68343290044E+00  0.33596681725E+01  0.51100000000E-03 0.  1.
         12    1    3    3    0    0 -0.16205687031E+01  0.12730934409E+01 -0.10278936550E+02  0.10483489230E+02  0.00000000000E+00 0. -1.
</event>
<event>
 7    1  0.2655656E-009  0.4778727E+02  0.7816164E-02  0.1312668E+00
        -11   -1    0    0    0    0  0.00000000000E+00  0.00000000000E+00  0.45593999997E+02  0.45594000000E+02  0.51100000000E-03 0.  1.
         11   -1    0    0    0    0 -0.00000000000E+00 -0.00000000000E+00 -0.45593999997E+02  0.45594000000E+02  0.51100000000E-03 0. -1.
    9900012    2    1    2    0    0 -0.93742329392E+01 -0.21958079390E+02 -0.36243478284E+02  0.47787271759E+02  0.20000003257E+02 0.  0.
        -12    1    1    2    0    0  0.93742329392E+01  0.21958079390E+02  0.36243478284E+02  0.43400728241E+02  0.00000000000E+00 0.  1.
         11    1    3    3    0    0 -0.10304853917E+02 -0.59092610794E+01 -0.25747216218E+02  0.28355396735E+02  0.51100000000E-03 0. -1.
        -11    1    3    3    0    0 -0.14231818264E+00 -0.14246814542E+02 -0.89369593878E+01  0.16818478600E+02  0.51100000000E-03 0.  1.
         12    1    3    3    0    0  0.10729391605E+01 -0.18020037692E+01 -0.15593026787E+01  0.26133964242E+01  0.00000000000E+00 0. -1.
</event>
<event>
 7    1  0.2655656E-009  0.4778728E+02  0.7816164E-02  0.1312668E+00
        -11   -1    0    0    0    0  0.00000000000E+00  0.00000000000E+00  0.45593999997E+02  0.45594000000E+02  0.51100000000E-03 0. -1.
         11   -1    0    0    0    0 -0.00000000000E+00 -0.00000000000E+00 -0.45593999997E+02  0.45594000000E+02  0.51100000000E-03 0.  1.
    9900012    2    1    2    0    0  0.25309973957E+02 -0.26274606249E+02  0.23508997655E+02  0.47787277817E+02  0.20000030879E+02 0.  0.
        -12    1    1    2    0    0 -0.25309973957E+02  0.26274606249E+02 -0.23508997655E+02  0.43400722183E+02  0.00000000000E+00 0.  1.
         11    1    3    3    0    0  0.10009321960E+02 -0.28080562931E+00  0.30491831509E+01  0.10467229626E+02  0.51100000000E-03 0. -1.
        -11    1    3    3    0    0  0.46464072310E+01 -0.13164847402E+02  0.58046546937E+01  0.15119402225E+02  0.51100000000E-03 0.  1.
        -12    1    3    3    0    0  0.10654244766E+02 -0.12828953218E+02  0.14655159810E+02  0.22200645965E+02  0.00000000000E+00 0.  1.
</event>
<event>
 7    1  0.2655656E-009  0.4778728E+02  0.7816164E-02  0.1312668E+00
        -11   -1    0    0    0    0  0.00000000000E+00  0.00000000000E+00  0.45593999997E+02  0.45594000000E+02  0.51100000000E-03 0.  1.
         11   -1    0    0    0    0 -0.00000000000E+00 -0.00000000000E+00 -0.45593999997E+02  0.45594000000E+02  0.51100000000E-03 0. -1.
    9900012    2    1    2    0    0  0.14773773228E+02 -0.78291853653E+00 -0.40801287712E+02  0.47787280930E+02  0.20000045071E+02 0.  0.
        -12    1    1    2    0    0 -0.14773773228E+02  0.78291853653E+00  0.40801287712E+02  0.43400719070E+02  0.00000000000E+00 0.  1.
         11    1    3    3    0    0  0.94341549067E+01  0.48931083219E+01 -0.27155278489E+02  0.29160845974E+02  0.51100000000E-03 0. -1.
        -11    1    3    3    0    0  0.34071078773E+01 -0.85547774820E+01 -0.10074253279E+02  0.13648559677E+02  0.51100000000E-03 0.  1.
         12    1    3    3    0    0  0.19325104439E+01  0.28787506235E+01 -0.35717559442E+01  0.49778752790E+01  0.00000000000E+00 0. -1.
</event>
<event>
 7    1  0.2655656E-009  0.4778727E+02  0.7816164E-02  0.1312668E+00
        -11   -1    0    0    0    0  0.00000000000E+00  0.00000000000E+00  0.45593999997E+02  0.45594000000E+02  0.51100000000E-03 0. -1.
         11   -1    0    0    0    0 -0.00000000000E+00 -0.00000000000E+00 -0.45593999997E+02  0.45594000000E+02  0.51100000000E-03 0.  1.
    9900012    2    1    2    0    0  0.26448302586E+02 -0.91095368812E+00  0.34398849164E+02  0.47787269936E+02  0.19999994946E+02 0.  0.
        -12    1    1    2    0    0 -0.26448302586E+02  0.91095368812E+00 -0.34398849164E+02  0.43400730064E+02  0.00000000000E+00 0.  1.
         11    1    3    3    0    0  0.30236057443E+01 -0.25492719912E+01  0.13464665083E+02  0.14033466623E+02  0.51100000000E-03 0. -1.
        -11    1    3    3    0    0  0.94286932844E+01  0.22466318595E+00  0.11831374370E+01  0.95052903719E+01  0.51100000000E-03 0.  1.
         12    1    3    3    0    0  0.13996003557E+02  0.14136551172E+01  0.19751046644E+02  0.24248512941E+02  0.00000000000E+00 0. -1.
</event>
<event>
 7    1  0.2655656E-009  0.4778727E+02  0.7816164E-02  0.1312668E+00
        -11   -1    0    0    0    0  0.00000000000E+00  0.00000000000E+00  0.45593999997E+02  0.45594000000E+02  0.51100000000E-03 0. -1.
         11   -1    0    0    0    0 -0.00000000000E+00 -0.00000000000E+00 -0.45593999997E+02  0.45594000000E+02  0.51100000000E-03 0.  1.
    9900012    2    1    2    0    0 -0.29070093541E+02  0.32225457898E+02 -0.26932587686E+00  0.47787274065E+02  0.20000013774E+02 0.  0.
        -12    1    1    2    0    0  0.29070093541E+02 -0.32225457898E+02  0.26932587686E+00  0.43400725935E+02  0.00000000000E+00 0.  1.
         11    1    3    3    0    0 -0.13679725598E+02  0.13658657265E+02  0.61305820814E+01  0.20279986382E+02  0.51100000000E-03 0. -1.
        -11    1    3    3    0    0 -0.88981086112E+01  0.81570728418E+01 -0.88865446319E+01  0.14989491318E+02  0.51100000000E-03 0.  1.
         12    1    3    3    0    0 -0.64922593315E+01  0.10409727792E+02  0.24866366736E+01  0.12517796366E+02  0.00000000000E+00 0. -1.
</event>
<event>
 7    1  0.2655656E-009  0.4778728E+02  0.7816164E-02  0.1312668E+00
        -11   -1    0    0    0    0  0.00000000000E+00  0.00000000000E+00  0.45593999997E+02  0.45594000000E+02  0.51100000000E-03 0.  1.
         11   -1    0    0    0    0 -0.00000000000E+00 -0.00000000000E+00 -0.45593999997E+02  0.45594000000E+02  0.51100000000E-03 0. -1.
    9900012    2    1    2    0    0  0.75517905946E+01 -0.41634400660E+02 -0.96524429660E+01  0.47787279790E+02  0.20000039875E+02 0.  0.
        -12    1    1    2    0    0 -0.75517905946E+01  0.41634400660E+02  0.96524429660E+01  0.43400720210E+02  0.00000000000E+00 0.  1.
         11    1    3    3    0    0  0.15656549574E+01 -0.38580380712E+01 -0.73459308710E+01  0.84438399930E+01  0.51100000000E-03 0. -1.
        -11    1    3    3    0    0  0.48314561374E+01 -0.82889787563E+01 -0.21538266135E+01  0.98330619123E+01  0.51100000000E-03 0.  1.
         12    1    3    3    0    0  0.11546794998E+01 -0.29487383833E+02 -0.15268548139E+00  0.29510377885E+02  0.00000000000E+00 0. -1.
</event>
<event>
 7    1  0.2655656E-009  0.4778728E+02  0.7816164E-02  0.1312668E+00
        -11   -1    0    0    0    0  0.00000000000E+00  0.00000000000E+00  0.45593999997E+02  0.45594000000E+02  0.51100000000E-03 0. -1.
         11   -1    0    0    0    0 -0.00000000000E+00 -0.00000000000E+00 -0.45593999997E+02  0.45594000000E+02  0.51100000000E-03 0.  1.
    9900012    2    1    2    0    0 -0.22618506097E+02  0.13552378781E+02  0.34472584876E+02  0.47787275389E+02  0.20000019810E+02 0.  0.
        -12    1    1    2    0    0  0.22618506097E+02 -0.13552378781E+02 -0.34472584876E+02  0.43400724611E+02  0.00000000000E+00 0.  1.
         11    1    3    3    0    0 -0.15220282963E+02  0.60551990237E+01  0.98474778665E+01  0.19112699163E+02  0.51100000000E-03 0. -1.
        -11    1    3    3    0    0 -0.67814713345E+01  0.78143782067E+00  0.17869160476E+02  0.19128666835E+02  0.51100000000E-03 0.  1.
         12    1    3    3    0    0 -0.61675179950E+00  0.67157419363E+01  0.67559465338E+01  0.95459093912E+01  0.00000000000E+00 0. -1.
</event>
<event>
 7    1  0.2655656E-009  0.4778727E+02  0.7816164E-02  0.1312668E+00
        -11   -1    0    0    0    0  0.00000000000E+00  0.00000000000E+00  0.45593999997E+02  0.45594000000E+02  0.51100000000E-03 0.  1.
         11   -1    0    0    0    0 -0.00000000000E+00 -0.00000000000E+00 -0.45593999997E+02  0.45594000000E+02  0.51100000000E-03 0. -1.
    9900012    2    1    2    0    0 -0.32859471086E+02  0.13926534869E+02 -0.24696762053E+02  0.47787271096E+02  0.20000000234E+02 0.  0.
        -12    1    1    2    0    0  0.32859471086E+02 -0.13926534869E+02  0.24696762053E+02  0.43400728904E+02  0.00000000000E+00 0.  1.
         11    1    3    3    0    0 -0.13663957729E+01  0.55623997800E+01 -0.62670724512E+01  0.84902017697E+01  0.51100000000E-03 0. -1.
        -11    1    3    3    0    0 -0.23305274151E+02  0.26796511967E+01 -0.77916139925E+01  0.24718931665E+02  0.51100000000E-03 0.  1.
        -12    1    3    3    0    0 -0.81878011620E+01  0.56844838925E+01 -0.10638075609E+02  0.14578137661E+02  0.00000000000E+00 0.  1.
</event>
<event>
 7    1  0.2655656E-009  0.4778727E+02  0.7816164E-02  0.1312668E+00
        -11   -1    0    0    0    0  0.00000000000E+00  0.00000000000E+00  0.45593999997E+02  0.45594000000E+02  0.51100000000E-03 0. -1.
         11   -1    0    0    0    0 -0.00000000000E+00 -0.00000000000E+00 -0.45593999997E+02  0.45594000000E+02  0.51100000000E-03 0.  1.
    9900012    2    1    2    0    0  0.37091511370E+02  0.20382606710E+01  0.22443004344E+02  0.47787272284E+02  0.20000005651E+02 0.  0.
        -12    1    1    2    0    0 -0.37091511370E+02 -0.20382606710E+01 -0.22443004344E+02  0.43400727716E+02  0.00000000000E+00 0.  1.
         11    1    3    3    0    0  0.66193146066E+01 -0.44482293282E+01  0.10970128732E+02  0.13562661784E+02  0.51100000000E-03 0. -1.
        -11    1    3    3    0    0  0.65598077680E+01  0.46324437197E+01  0.11470389448E+01  0.81121089349E+01  0.51100000000E-03 0.  1.
         12    1    3    3    0    0  0.23912388996E+02  0.18540462796E+01  0.10325836667E+02  0.26112501565E+02  0.00000000000E+00 0. -1.
</event>
<event>
 7    1  0.2655656E-009  0.4778727E+02  0.7816164E-02  0.1312668E+00
        -11   -1    0    0    0    0  0.00000000000E+00  0.00000000000E+00  0.45593999997E+02  0.45594000000E+02  0.51100000000E-03 0. -1.
         11   -1    0    0    0    0 -0.00000000000E+00 -0.00000000000E+00 -0.45593999997E+02  0.45594000000E+02  0.51100000000E-03 0.  1.
    9900012    2    1    2    0    0  0.17261286531E+02 -0.32074189379E+02  0.23599107041E+02  0.47787268553E+02  0.19999988641E+02 0.  0.
        -12    1    1    2    0    0 -0.17261286531E+02  0.32074189379E+02 -0.23599107041E+02  0.43400731447E+02  0.00000000000E+00 0.  1.
         11    1    3    3    0    0  0.15307326211E+02 -0.29684687692E+02  0.20285729666E+02  0.39076920905E+02  0.51100000000E-03 0. -1.
        -11    1    3    3    0    0 -0.24652726772E+01 -0.63195714939E+00  0.30143906221E+01  0.39450589724E+01  0.51100000000E-03 0.  1.
         12    1    3    3    0    0  0.44192329969E+01 -0.17575445376E+01  0.29898675282E+00  0.47652886755E+01  0.00000000000E+00 0. -1.
</event>
<event>
 7    1  0.2655656E-009  0.4778727E+02  0.7816164E-02  0.1312668E+00
        -11   -1    0    0    0    0  0.00000000000E+00  0.00000000000E+00  0.45593999997E+02  0.45594000000E+02  0.51100000000E-03 0.  1.
         11   -1    0    0    0    0 -0.00000000000E+00 -0.00000000000E+00 -0.45593999997E+02  0.45594000000E+02  0.51100000000E-03 0. -1.
    9900012    2    1    2    0    0  0.33973814518E+02  0.24382730754E+02 -0.11614013708E+02  0.47787274818E+02  0.20000017205E+02 0.  0.
        -12    1    1    2    0    0 -0.33973814518E+02 -0.24382730754E+02  0.11614013708E+02  0.43400725182E+02  0.00000000000E+00 0.  1.
         11    1    3    3    0    0  0.16045831291E+01  0.24816305711E+01 -0.71516234119E+01  0.77381454494E+01  0.51100000000E-03 0. -1.
        -11    1    3    3    0    0  0.23219069490E+02  0.11744766794E+02 -0.43295347032E+01  0.26378203238E+02  0.51100000000E-03 0.  1.
        -12    1    3    3    0    0  0.91501618985E+01  0.10156333389E+02 -0.13285559323E+00  0.13670926131E+02  0.00000000000E+00 0.  1.
</event>
<event>
 7    1  0.2655656E-009  0.4778727E+02  0.7816164E-02  0.1312668E+00
        -11   -1    0    0    0    0  0.00000000000E+00  0.00000000000E+00  0.45593999997E+02  0.45594000000E+02  0.51100000000E-03 0.  1.
         11   -1    0    0    0    0 -0.00000000000E+00 -0.00000000000E+00 -0.45593999997E+02  0.45594000000E+02  0.51100000000E-03 0. -1.
    9900012    2    1    2    0    0 -0.11929710437E+02  0.36676145383E+02  0.19903921539E+02  0.47787265860E+02  0.19999976362E+02 0.  0.
        -12    1    1    2    0    0  0.11929710437E+02 -0.36676145383E+02 -0.19903921539E+02  0.43400734140E+02  0.00000000000E+00 0.  1.
         11    1    3    3    0    0 -0.17033178871E+02  0.24403100027E+02  0.14203910249E+02  0.32975620388E+02  0.51100000000E-03 0. -1.
        -11    1    3    3    0    0  0.33423180380E+01  0.10862946174E+02  0.42735089137E+01  0.12142387251E+02  0.51100000000E-03 0.  1.
         12    1    3    3    0    0  0.17611503960E+01  0.14100991823E+01  0.14265023764E+01  0.26692582211E+01  0.00000000000E+00 0. -1.
</event>
<event>
 7    1  0.2655656E-009  0.4778727E+02  0.7816164E-02  0.1312668E+00
        -11   -1    0    0    0    0  0.00000000000E+00  0.00000000000E+00  0.45593999997E+02  0.45594000000E+02  0.51100000000E-03 0.  1.
         11   -1    0    0    0    0 -0.00000000000E+00 -0.00000000000E+00 -0.45593999997E+02  0.45594000000E+02  0.51100000000E-03 0. -1.
    9900012    2    1    2    0    0 -0.35993450927E+02 -0.23441121769E+02  0.62135674235E+01  0.47787272822E+02  0.20000008106E+02 0.  0.
        -12    1    1    2    0    0  0.35993450927E+02  0.23441121769E+02 -0.62135674235E+01  0.43400727178E+02  0.00000000000E+00 0.  1.
         11    1    3    3    0    0 -0.52210599937E+01 -0.19592197027E+01 -0.29691961011E+01  0.63177634531E+01  0.51100000000E-03 0. -1.
        -11    1    3    3    0    0 -0.11568988926E+01 -0.73525965101E+01  0.32611480384E+01  0.81261415984E+01  0.51100000000E-03 0.  1.
        -12    1    3    3    0    0 -0.29615492041E+02 -0.14129305556E+02  0.59216154861E+01  0.33343367771E+02  0.00000000000E+00 0.  1.
</event>
<event>
 7    1  0.2655656E-009  0.4778727E+02  0.7816164E-02  0.1312668E+00
        -11   -1    0    0    0    0  0.00000000000E+00  0.00000000000E+00  0.45593999997E+02  0.45594000000E+02  0.51100000000E-03 0.  1.
         11   -1    0    0    0    0 -0.00000000000E+00 -0.00000000000E+00 -0.45593999997E+02  0.45594000000E+02  0.51100000000E-03 0. -1.
    9900012    2    1    2    0    0  0.25800150630E+00  0.41400880777E+02 -0.13020124351E+02  0.47787272679E+02  0.20000007451E+02 0.  0.
        -12    1    1    2    0    0 -0.25800150630E+00 -0.41400880777E+02  0.13020124351E+02  0.43400727321E+02  0.00000000000E+00 0.  1.
         11    1    3    3    0    0 -0.45444971156E+01  0.22364570477E+02 -0.22880923501E+01  0.22936037878E+02  0.51100000000E-03 0. -1.
        -11    1    3    3    0    0  0.25327426303E+01 -0.32000031848E+00  0.99057298654E-01  0.25547990223E+01  0.51100000000E-03 0.  1.
        -12    1    3    3    0    0  0.22697559917E+01  0.19356310619E+02 -0.10831089299E+02  0.22296435779E+02  0.00000000000E+00 0.  1.
</event>
<event>
 7    1  0.2655656E-009  0.4778727E+02  0.7816164E-02  0.1312668E+00
        -11   -1    0    0    0    0  0.00000000000E+00  0.00000000000E+00  0.45593999997E+02  0.45594000000E+02  0.51100000000E-03 0.  1.
         11   -1    0    0    0    0 -0.00000000000E+00 -0.00000000000E+00 -0.45593999997E+02  0.45594000000E+02  0.51100000000E-03 0. -1.
    9900012    2    1    2    0    0  0.23732225881E+02  0.17960902172E+02 -0.31588139606E+02  0.47787272865E+02  0.20000008299E+02 0.  0.
        -12    1    1    2    0    0 -0.23732225881E+02 -0.17960902172E+02  0.31588139606E+02  0.43400727135E+02  0.00000000000E+00 0.  1.
         11    1    3    3    0    0  0.66245558779E+01  0.68693674937E+00 -0.13290416607E+02  0.14865792832E+02  0.51100000000E-03 0. -1.
        -11    1    3    3    0    0  0.10895528742E+02  0.18030170514E+02 -0.13309972885E+02  0.24918968152E+02  0.51100000000E-03 0.  1.
        -12    1    3    3    0    0  0.62121412614E+01 -0.75620509108E+00 -0.49877501135E+01  0.80025118797E+01  0.00000000000E+00 0.  1.
</event>
<event>
 7    1  0.2655656E-009  0.4778727E+02  0.7816164E-02  0.1312668E+00
        -11   -1    0    0    0    0  0.00000000000E+00  0.00000000000E+00  0.45593999997E+02  0.45594000000E+02  0.51100000000E-03 0. -1.
         11   -1    0    0    0    0 -0.00000000000E+00 -0.00000000000E+00 -0.45593999997E+02  0.45594000000E+02  0.51100000000E-03 0.  1.
    9900012    2    1    2    0    0  0.31308791319E+02  0.39198532960E+01  0.29799624130E+02  0.47787271181E+02  0.20000000624E+02 0.  0.
        -12    1    1    2    0    0 -0.31308791319E+02 -0.39198532960E+01 -0.29799624130E+02  0.43400728819E+02  0.00000000000E+00 0.  1.
         11    1    3    3    0    0  0.18424433475E+02 -0.10585127930E+00  0.23866468804E+02  0.30150941723E+02  0.51100000000E-03 0. -1.
        -11    1    3    3    0    0  0.84697327558E+01  0.68433137130E+01  0.59306064832E+01  0.12399169692E+02  0.51100000000E-03 0.  1.
         12    1    3    3    0    0  0.44146250882E+01 -0.28176091378E+01  0.25488430404E-02  0.52371597664E+01  0.00000000000E+00 0. -1.
</event>
<event>
 7    1  0.2655656E-009  0.4778727E+02  0.7816164E-02  0.1312668E+00
        -11   -1    0    0    0    0  0.00000000000E+00  0.00000000000E+00  0.45593999997E+02  0.45594000000E+02  0.51100000000E-03 0.  1.
         11   -1    0    0    0    0 -0.00000000000E+00 -0.00000000000E+00 -0.45593999997E+02  0.45594000000E+02  0.51100000000E-03 0. -1.
    9900012    2    1    2    0    0 -0.58958460593E+01  0.40118923643E+02 -0.15470433527E+02  0.47787270185E+02  0.19999996080E+02 0.  0.
        -12    1    1    2    0    0  0.58958460593E+01 -0.40118923643E+02  0.15470433527E+02  0.43400729815E+02  0.00000000000E+00 0.  1.
         11    1    3    3    0    0  0.14749799869E+01  0.29336213947E+02 -0.79479920531E+01  0.30429584168E+02  0.51100000000E-03 0. -1.
        -11    1    3    3    0    0 -0.83519584692E+01  0.11215025698E+02 -0.54186752130E+01  0.14996468018E+02  0.51100000000E-03 0.  1.
        -12    1    3    3    0    0  0.98113242304E+00 -0.43231600246E+00 -0.21037662609E+01  0.23612179989E+01  0.00000000000E+00 0.  1.
</event>
<event>
 7    1  0.2655656E-009  0.4778727E+02  0.7816164E-02  0.1312668E+00
        -11   -1    0    0    0    0  0.00000000000E+00  0.00000000000E+00  0.45593999997E+02  0.45594000000E+02  0.51100000000E-03 0. -1.
         11   -1    0    0    0    0 -0.00000000000E+00 -0.00000000000E+00 -0.45593999997E+02  0.45594000000E+02  0.51100000000E-03 0.  1.
    9900012    2    1    2    0    0 -0.10767662386E+02  0.13625014762E+02  0.39774867592E+02  0.47787266452E+02  0.19999979063E+02 0.  0.
        -12    1    1    2    0    0  0.10767662386E+02 -0.13625014762E+02 -0.39774867592E+02  0.43400733548E+02  0.00000000000E+00 0.  1.
         11    1    3    3    0    0 -0.55055560185E+01  0.17735822056E+02  0.24153389056E+02  0.30467305989E+02  0.51100000000E-03 0. -1.
        -11    1    3    3    0    0 -0.23793190449E+01 -0.28774281524E+01  0.49680549920E+01  0.62146860382E+01  0.51100000000E-03 0.  1.
         12    1    3    3    0    0 -0.28827873225E+01 -0.12333791417E+01  0.10653423544E+02  0.11105274425E+02  0.00000000000E+00 0. -1.
</event>
<event>
 7    1  0.2655656E-009  0.4778727E+02  0.7816164E-02  0.1312668E+00
        -11   -1    0    0    0    0  0.00000000000E+00  0.00000000000E+00  0.45593999997E+02  0.45594000000E+02  0.51100000000E-03 0.  1.
         11   -1    0    0    0    0 -0.00000000000E+00 -0.00000000000E+00 -0.45593999997E+02  0.45594000000E+02  0.51100000000E-03 0. -1.
    9900012    2    1    2    0    0 -0.21578032421E+01 -0.37534528210E+02 -0.21682404211E+02  0.47787267574E+02  0.19999984177E+02 0.  0.
        -12    1    1    2    0    0  0.21578032421E+01  0.37534528210E+02  0.21682404211E+02  0.43400732426E+02  0.00000000000E+00 0.  1.
         11    1    3    3    0    0 -0.64447298172E+01 -0.35548944951E+02 -0.22948008206E+02  0.42800386802E+02  0.51100000000E-03 0. -1.
        -11    1    3    3    0    0  0.22237890978E+01 -0.51603670693E+00  0.45912116497E+00  0.23285884865E+01  0.51100000000E-03 0.  1.
         12    1    3    3    0    0  0.20631374774E+01 -0.14695465517E+01  0.80648283022E+00  0.26582922852E+01  0.00000000000E+00 0. -1.
</event>
<event>
 7    1  0.2655656E-009  0.4778727E+02  0.7816164E-02  0.1312668E+00
        -11   -1    0    0    0    0  0.00000000000E+00  0.00000000000E+00  0.45593999997E+02  0.45594000000E+02  0.51100000000E-03 0.  1.
         11   -1    0    0    0    0 -0.00000000000E+00 -0.00000000000E+00 -0.45593999997E+02  0.45594000000E+02  0.51100000000E-03 0. -1.
    9900012    2    1    2    0    0  0.51676622626E+01 -0.76547931664E+00 -0.43085179924E+02  0.47787269350E+02  0.19999992276E+02 0.  0.
        -12    1    1    2    0    0 -0.51676622626E+01  0.76547931664E+00  0.43085179924E+02  0.43400730650E+02  0.00000000000E+00 0.  1.
         11    1    3    3    0    0  0.20180286152E+01 -0.47372953245E+01 -0.13152116347E+02  0.14124183911E+02  0.51100000000E-03 0. -1.
        -11    1    3    3    0    0  0.31494410373E+01  0.17075357704E+01  0.61600078979E-01  0.35830785765E+01  0.51100000000E-03 0.  1.
        -12    1    3    3    0    0  0.19261012731E-03  0.22642802375E+01 -0.29994663656E+02  0.30080006863E+02  0.00000000000E+00 0.  1.
</event>
<event>
 7    1  0.2655656E-009  0.4778728E+02  0.7816164E-02  0.1312668E+00
        -11   -1    0    0    0    0  0.00000000000E+00  0.00000000000E+00  0.45593999997E+02  0.45594000000E+02  0.51100000000E-03 0. -1.
         11   -1    0    0    0    0 -0.00000000000E+00 -0.00000000000E+00 -0.45593999997E+02  0.45594000000E+02  0.51100000000E-03 0.  1.
    9900012    2    1    2    0    0 -0.36182273880E+02 -0.20676885542E+02  0.12121538323E+02  0.47787283069E+02  0.20000054824E+02 0.  0.
        -12    1    1    2    0    0  0.36182273880E+02  0.20676885542E+02 -0.12121538323E+02  0.43400716931E+02  0.00000000000E+00 0.  1.
         11    1    3    3    0    0 -0.16462473130E+02 -0.77241144582E+01  0.11637590042E+02  0.21589545340E+02  0.51100000000E-03 0. -1.
        -11    1    3    3    0    0 -0.21077436360E+02 -0.11560323379E+02 -0.44243404598E+00  0.24043609303E+02  0.51100000000E-03 0.  1.
        -12    1    3    3    0    0  0.13576356109E+01 -0.13924477049E+01  0.92638232722E+00  0.21541284268E+01  0.00000000000E+00 0.  1.
</event>
<event>
 7    1  0.2655656E-009  0.4778727E+02  0.7816164E-02  0.1312668E+00
        -11   -1    0    0    0    0  0.00000000000E+00  0.00000000000E+00  0.45593999997E+02  0.45594000000E+02  0.51100000000E-03 0. -1.
         11   -1    0    0    0    0 -0.00000000000E+00 -0.00000000000E+00 -0.45593999997E+02  0.45594000000E+02  0.51100000000E-03 0.  1.
    9900012    2    1    2    0    0 -0.35954300695E+02 -0.22253837541E+02 -0.97815218428E+01  0.47787271972E+02  0.20000004230E+02 0.  0.
        -12    1    1    2    0    0  0.35954300695E+02  0.22253837541E+02  0.97815218428E+01  0.43400728028E+02  0.00000000000E+00 0.  1.
         11    1    3    3    0    0 -0.22596777215E+02 -0.10456519240E+02 -0.10618754406E+02  0.27068636473E+02  0.51100000000E-03 0. -1.
        -11    1    3    3    0    0 -0.98829794088E+00 -0.67360646128E+01  0.24962902261E+01  0.72513974131E+01  0.51100000000E-03 0.  1.
        -12    1    3    3    0    0 -0.12369225540E+02 -0.50612536879E+01 -0.16590576631E+01  0.13467238086E+02  0.00000000000E+00 0.  1.
</event>
<event>
 7    1  0.2655656E-009  0.4778727E+02  0.7816164E-02  0.1312668E+00
        -11   -1    0    0    0    0  0.00000000000E+00  0.00000000000E+00  0.45593999997E+02  0.45594000000E+02  0.51100000000E-03 0. -1.
         11   -1    0    0    0    0 -0.00000000000E+00 -0.00000000000E+00 -0.45593999997E+02  0.45594000000E+02  0.51100000000E-03 0.  1.
    9900012    2    1    2    0    0  0.17809184618E+02  0.37738481301E+02 -0.11927418137E+02  0.47787270385E+02  0.19999996994E+02 0.  0.
        -12    1    1    2    0    0 -0.17809184618E+02 -0.37738481301E+02  0.11927418137E+02  0.43400729615E+02  0.00000000000E+00 0.  1.
         11    1    3    3    0    0  0.10012540865E+02  0.32635898935E+02 -0.11079268582E+02  0.35890152778E+02  0.51100000000E-03 0. -1.
        -11    1    3    3    0    0  0.83669903031E+01  0.49989958627E+01  0.11521885379E+01  0.98144803762E+01  0.51100000000E-03 0.  1.
         12    1    3    3    0    0 -0.57034655026E+00  0.10358650396E+00 -0.20003380923E+01  0.20826372307E+01  0.00000000000E+00 0. -1.
</event>
<event>
 7    1  0.2655656E-009  0.4778725E+02  0.7816164E-02  0.1312668E+00
        -11   -1    0    0    0    0  0.00000000000E+00  0.00000000000E+00  0.45593999997E+02  0.45594000000E+02  0.51100000000E-03 0. -1.
         11   -1    0    0    0    0 -0.00000000000E+00 -0.00000000000E+00 -0.45593999997E+02  0.45594000000E+02  0.51100000000E-03 0.  1.
    9900012    2    1    2    0    0 -0.32043309485E+02  0.16863995987E+02 -0.23926076734E+02  0.47787248955E+02  0.19999899285E+02 0.  0.
        -12    1    1    2    0    0  0.32043309485E+02 -0.16863995987E+02  0.23926076734E+02  0.43400751045E+02  0.00000000000E+00 0.  1.
         11    1    3    3    0    0 -0.28082131226E+02  0.17740468765E+02 -0.24321406118E+02  0.41168691041E+02  0.51100000000E-03 0. -1.
        -11    1    3    3    0    0 -0.26542116007E+01 -0.28525497038E+01 -0.78024801232E+00  0.39737471303E+01  0.51100000000E-03 0.  1.
         12    1    3    3    0    0 -0.13069666591E+01  0.19760769263E+01  0.11755773972E+01  0.26448107840E+01  0.00000000000E+00 0. -1.
</event>
<event>
 7    1  0.2655656E-009  0.4778727E+02  0.7816164E-02  0.1312668E+00
        -11   -1    0    0    0    0  0.00000000000E+00  0.00000000000E+00  0.45593999997E+02  0.45594000000E+02  0.51100000000E-03 0.  1.
         11   -1    0    0    0    0 -0.00000000000E+00 -0.00000000000E+00 -0.45593999997E+02  0.45594000000E+02  0.51100000000E-03 0. -1.
    9900012    2    1    2    0    0  0.22007182150E+02 -0.86818457903E+00 -0.37397242009E+02  0.47787268203E+02  0.19999987044E+02 0.  0.
        -12    1    1    2    0    0 -0.22007182150E+02  0.86818457903E+00  0.37397242009E+02  0.43400731797E+02  0.00000000000E+00 0.  1.
         11    1    3    3    0    0  0.23263068679E+02  0.31649236030E+01 -0.26901823777E+02  0.35705675019E+02  0.51100000000E-03 0. -1.
        -11    1    3    3    0    0 -0.98197679734E+00 -0.14919109236E+01 -0.63547419868E+00  0.18957595714E+01  0.51100000000E-03 0.  1.
         12    1    3    3    0    0 -0.27390973096E+00 -0.25411972585E+01 -0.98599440334E+01  0.10185833613E+02  0.00000000000E+00 0. -1.
</event>
<event>
 7    1  0.2655656E-009  0.4778727E+02  0.7816164E-02  0.1312668E+00
        -11   -1    0    0    0    0  0.00000000000E+00  0.00000000000E+00  0.45593999997E+02  0.45594000000E+02  0.51100000000E-03 0.  1.
         11   -1    0    0    0    0 -0.00000000000E+00 -0.00000000000E+00 -0.45593999997E+02  0.45594000000E+02  0.51100000000E-03 0. -1.
    9900012    2    1    2    0    0 -0.78483457590E+01  0.27513631847E+02 -0.32634744589E+02  0.47787273935E+02  0.20000013181E+02 0.  0.
        -12    1    1    2    0    0  0.78483457590E+01 -0.27513631847E+02  0.32634744589E+02  0.43400726065E+02  0.00000000000E+00 0.  1.
         11    1    3    3    0    0  0.30582395911E+01  0.12495056843E+02 -0.11200989986E+02  0.17057005945E+02  0.51100000000E-03 0. -1.
        -11    1    3    3    0    0 -0.92355745713E+01  0.16020460531E+02 -0.21963263038E+02  0.28711250701E+02  0.51100000000E-03 0.  1.
        -12    1    3    3    0    0 -0.16710107789E+01 -0.10018855269E+01  0.52950843442E+00  0.20190172892E+01  0.00000000000E+00 0.  1.
</event>
<event>
 7    1  0.2655656E-009  0.4778727E+02  0.7816164E-02  0.1312668E+00
        -11   -1    0    0    0    0  0.00000000000E+00  0.00000000000E+00  0.45593999997E+02  0.45594000000E+02  0.51100000000E-03 0.  1.
         11   -1    0    0    0    0 -0.00000000000E+00 -0.00000000000E+00 -0.45593999997E+02  0.45594000000E+02  0.51100000000E-03 0. -1.
    9900012    2    1    2    0    0 -0.20224264851E+02 -0.16724449388E+02 -0.34567255530E+02  0.47787271309E+02  0.20000001206E+02 0.  0.
        -12    1    1    2    0    0  0.20224264851E+02  0.16724449388E+02  0.34567255530E+02  0.43400728691E+02  0.00000000000E+00 0.  1.
         11    1    3    3    0    0  0.46051933355E+00 -0.22489015008E+01 -0.51672979928E+01  0.56542554615E+01  0.51100000000E-03 0. -1.
        -11    1    3    3    0    0 -0.33597342270E+01  0.37490441845E+01 -0.49833848076E+01  0.70835916579E+01  0.51100000000E-03 0.  1.
        -12    1    3    3    0    0 -0.17325049957E+02 -0.18224592071E+02 -0.24416572729E+02  0.35049424190E+02  0.00000000000E+00 0.  1.
</event>
<event>
 7    1  0.2655656E-009  0.4778727E+02  0.7816164E-02  0.1312668E+00
        -11   -1    0    0    0    0  0.00000000000E+00  0.00000000000E+00  0.45593999997E+02  0.45594000000E+02  0.51100000000E-03 0. -1.
         11   -1    0    0    0    0 -0.00000000000E+00 -0.00000000000E+00 -0.45593999997E+02  0.45594000000E+02  0.51100000000E-03 0.  1.
    9900012    2    1    2    0    0 -0.39942980992E+02 -0.25300675608E+01  0.16786313566E+02  0.47787270795E+02  0.19999998864E+02 0.  0.
        -12    1    1    2    0    0  0.39942980992E+02  0.25300675608E+01 -0.16786313566E+02  0.43400729205E+02  0.00000000000E+00 0.  1.
         11    1    3    3    0    0 -0.16886470457E+02 -0.45550055599E+01  0.16576083943E+02  0.24097043787E+02  0.51100000000E-03 0. -1.
        -11    1    3    3    0    0 -0.15856626030E+02  0.43867080854E+00  0.22967497450E+01  0.16028102844E+02  0.51100000000E-03 0.  1.
         12    1    3    3    0    0 -0.71998845044E+01  0.15862671905E+01 -0.20865201220E+01  0.76621241634E+01  0.00000000000E+00 0. -1.
</event>
<event>
 7    1  0.2655656E-009  0.4778727E+02  0.7816164E-02  0.1312668E+00
        -11   -1    0    0    0    0  0.00000000000E+00  0.00000000000E+00  0.45593999997E+02  0.45594000000E+02  0.51100000000E-03 0. -1.
         11   -1    0    0    0    0 -0.00000000000E+00 -0.00000000000E+00 -0.45593999997E+02  0.45594000000E+02  0.51100000000E-03 0.  1.
    9900012    2    1    2    0    0  0.48769631265E+01 -0.25575075292E+02  0.34723971238E+02  0.47787269315E+02  0.19999992113E+02 0.  0.
        -12    1    1    2    0    0 -0.48769631265E+01  0.25575075292E+02 -0.34723971238E+02  0.43400730685E+02  0.00000000000E+00 0.  1.
         11    1    3    3    0    0 -0.26822803808E+01 -0.12095467936E+01 -0.95476657478E+00  0.30934141269E+01  0.51100000000E-03 0. -1.
        -11    1    3    3    0    0  0.66809939992E+01 -0.15272534599E+02  0.16522230940E+02  0.23470622262E+02  0.51100000000E-03 0.  1.
         12    1    3    3    0    0  0.87824950810E+00 -0.90929938996E+01  0.19156506872E+02  0.21223232925E+02  0.00000000000E+00 0. -1.
</event>
<event>
 7    1  0.2655656E-009  0.4778727E+02  0.7816164E-02  0.1312668E+00
        -11   -1    0    0    0    0  0.00000000000E+00  0.00000000000E+00  0.45593999997E+02  0.45594000000E+02  0.51100000000E-03 0.  1.
         11   -1    0    0    0    0 -0.00000000000E+00 -0.00000000000E+00 -0.45593999997E+02  0.45594000000E+02  0.51100000000E-03 0. -1.
    9900012    2    1    2    0    0 -0.29789071390E+02  0.29530578776E+02 -0.11143579660E+02  0.47787271610E+02  0.20000002580E+02 0.  0.
        -12    1    1    2    0    0  0.29789071390E+02 -0.29530578776E+02  0.11143579660E+02  0.43400728390E+02  0.00000000000E+00 0.  1.
         11    1    3    3    0    0 -0.11723307699E+02  0.26073381471E+01 -0.54611307069E+01  0.13193108219E+02  0.51100000000E-03 0.  1.
        -11    1    3    3    0    0 -0.17406618333E+02  0.22418472456E+02 -0.79957027598E+01  0.29487447023E+02  0.51100000000E-03 0. -1.
         12    1    3    3    0    0 -0.65914535835E+00  0.45047681727E+01  0.23132538065E+01  0.51067163683E+01  0.00000000000E+00 0. -1.
</event>
<event>
 7    1  0.2655656E-009  0.4778726E+02  0.7816164E-02  0.1312668E+00
        -11   -1    0    0    0    0  0.00000000000E+00  0.00000000000E+00  0.45593999997E+02  0.45594000000E+02  0.51100000000E-03 0.  1.
         11   -1    0    0    0    0 -0.00000000000E+00 -0.00000000000E+00 -0.45593999997E+02  0.45594000000E+02  0.51100000000E-03 0. -1.
    9900012    2    1    2    0    0  0.41214061917E+02 -0.10074565301E+02  0.91394102001E+01  0.47787255946E+02  0.19999931159E+02 0.  0.
        -12    1    1    2    0    0 -0.41214061917E+02  0.10074565301E+02 -0.91394102001E+01  0.43400744054E+02  0.00000000000E+00 0.  1.
         11    1    3    3    0    0  0.18323172126E+02 -0.41477553609E+01 -0.24292924636E+00  0.18788334843E+02  0.51100000000E-03 0.  1.
        -11    1    3    3    0    0  0.55834765167E+01  0.25249114199E+01 -0.22152853362E+01  0.65159709233E+01  0.51100000000E-03 0. -1.
        -12    1    3    3    0    0  0.17307413274E+02 -0.84517213598E+01  0.11597624783E+02  0.22482950180E+02  0.00000000000E+00 0.  1.
</event>
<event>
 7    1  0.2655656E-009  0.4778728E+02  0.7816164E-02  0.1312668E+00
        -11   -1    0    0    0    0  0.00000000000E+00  0.00000000000E+00  0.45593999997E+02  0.45594000000E+02  0.51100000000E-03 0.  1.
         11   -1    0    0    0    0 -0.00000000000E+00 -0.00000000000E+00 -0.45593999997E+02  0.45594000000E+02  0.51100000000E-03 0. -1.
    9900012    2    1    2    0    0 -0.35715261195E+02  0.11426069670E+02 -0.21851495957E+02  0.47787276205E+02  0.20000023530E+02 0.  0.
        -12    1    1    2    0    0  0.35715261195E+02 -0.11426069670E+02  0.21851495957E+02  0.43400723795E+02  0.00000000000E+00 0.  1.
         11    1    3    3    0    0 -0.20814229620E+02  0.67944556615E+01 -0.66556054169E+01  0.22884358547E+02  0.51100000000E-03 0. -1.
        -11    1    3    3    0    0 -0.98914956894E+01  0.47863565690E+01 -0.16406837131E+02  0.19746776979E+02  0.51100000000E-03 0.  1.
        -12    1    3    3    0    0 -0.50095358858E+01 -0.15474256004E+00  0.12109465904E+01  0.51561406785E+01  0.00000000000E+00 0.  1.
</event>
<event>
 7    1  0.2655656E-009  0.4778727E+02  0.7816164E-02  0.1312668E+00
        -11   -1    0    0    0    0  0.00000000000E+00  0.00000000000E+00  0.45593999997E+02  0.45594000000E+02  0.51100000000E-03 0.  1.
         11   -1    0    0    0    0 -0.00000000000E+00 -0.00000000000E+00 -0.45593999997E+02  0.45594000000E+02  0.51100000000E-03 0. -1.
    9900012    2    1    2    0    0 -0.15267025576E+02 -0.22211462009E+02 -0.34017529978E+02  0.47787268897E+02  0.19999990208E+02 0.  0.
        -12    1    1    2    0    0  0.15267025576E+02  0.22211462009E+02  0.34017529978E+02  0.43400731103E+02  0.00000000000E+00 0.  1.
         11    1    3    3    0    0  0.41070341861E+01 -0.55327268455E+01 -0.92010679690E+01  0.11495148898E+02  0.51100000000E-03 0. -1.
        -11    1    3    3    0    0 -0.11143663417E+02 -0.71709857771E+01 -0.16725475640E+02  0.21338833310E+02  0.51100000000E-03 0.  1.
         12    1    3    3    0    0 -0.82303963448E+01 -0.95077493863E+01 -0.80909863685E+01  0.14953286689E+02  0.00000000000E+00 0. -1.
</event>
<event>
 7    1  0.2655656E-009  0.4778727E+02  0.7816164E-02  0.1312668E+00
        -11   -1    0    0    0    0  0.00000000000E+00  0.00000000000E+00  0.45593999997E+02  0.45594000000E+02  0.51100000000E-03 0.  1.
         11   -1    0    0    0    0 -0.00000000000E+00 -0.00000000000E+00 -0.45593999997E+02  0.45594000000E+02  0.51100000000E-03 0. -1.
    9900012    2    1    2    0    0 -0.27193071526E+01  0.27278022111E+02 -0.33647258326E+02  0.47787272880E+02  0.20000008369E+02 0.  0.
        -12    1    1    2    0    0  0.27193071526E+01 -0.27278022111E+02  0.33647258326E+02  0.43400727120E+02  0.00000000000E+00 0.  1.
         11    1    3    3    0    0 -0.57590427908E+01  0.23993429682E+01 -0.53427894293E+01  0.82139405703E+01  0.51100000000E-03 0. -1.
        -11    1    3    3    0    0 -0.24191791061E+01  0.87926631820E+00 -0.52625595392E+01  0.58583333782E+01  0.51100000000E-03 0.  1.
         12    1    3    3    0    0  0.54589147443E+01  0.23999412824E+02 -0.23041909358E+02  0.33714998932E+02  0.00000000000E+00 0. -1.
</event>
<event>
 7    1  0.2655656E-009  0.4778727E+02  0.7816164E-02  0.1312668E+00
        -11   -1    0    0    0    0  0.00000000000E+00  0.00000000000E+00  0.45593999997E+02  0.45594000000E+02  0.51100000000E-03 0.  1.
         11   -1    0    0    0    0 -0.00000000000E+00 -0.00000000000E+00 -0.45593999997E+02  0.45594000000E+02  0.51100000000E-03 0. -1.
    9900012    2    1    2    0    0  0.45546316080E+01  0.25929832222E+01 -0.43083118151E+02  0.47787270735E+02  0.19999998590E+02 0.  0.
        -12    1    1    2    0    0 -0.45546316080E+01 -0.25929832222E+01  0.43083118151E+02  0.43400729265E+02  0.00000000000E+00 0.  1.
         11    1    3    3    0    0 -0.63689108018E+00  0.33753692847E+01 -0.21783675641E+02  0.22052829132E+02  0.51100000000E-03 0. -1.
        -11    1    3    3    0    0  0.91823246396E+01  0.19651030602E+01 -0.11890355774E+02  0.15151147697E+02  0.51100000000E-03 0.  1.
        -12    1    3    3    0    0 -0.39908019514E+01 -0.27474891227E+01 -0.94090867361E+01  0.10583293906E+02  0.00000000000E+00 0.  1.
</event>
<event>
 7    1  0.2655656E-009  0.4778727E+02  0.7816164E-02  0.1312668E+00
        -11   -1    0    0    0    0  0.00000000000E+00  0.00000000000E+00  0.45593999997E+02  0.45594000000E+02  0.51100000000E-03 0. -1.
         11   -1    0    0    0    0 -0.00000000000E+00 -0.00000000000E+00 -0.45593999997E+02  0.45594000000E+02  0.51100000000E-03 0.  1.
    9900012    2    1    2    0    0  0.12262997271E+02  0.27629780492E+02  0.31142213377E+02  0.47787270443E+02  0.19999997256E+02 0.  0.
        -12    1    1    2    0    0 -0.12262997271E+02 -0.27629780492E+02 -0.31142213377E+02  0.43400729557E+02  0.00000000000E+00 0.  1.
         11    1    3    3    0    0  0.14305627935E+00 -0.11300219863E+01  0.61636048149E+01  0.62679693174E+01  0.51100000000E-03 0. -1.
        -11    1    3    3    0    0  0.64638809185E+01  0.14829072582E+02  0.58788290773E+01  0.17211733839E+02  0.51100000000E-03 0.  1.
        -12    1    3    3    0    0  0.56560600728E+01  0.13930729896E+02  0.19099779485E+02  0.24307567286E+02  0.00000000000E+00 0.  1.
</event>
<event>
 7    1  0.2655656E-009  0.4778726E+02  0.7816164E-02  0.1312668E+00
        -11   -1    0    0    0    0  0.00000000000E+00  0.00000000000E+00  0.45593999997E+02  0.45594000000E+02  0.51100000000E-03 0.  1.
         11   -1    0    0    0    0 -0.00000000000E+00 -0.00000000000E+00 -0.45593999997E+02  0.45594000000E+02  0.51100000000E-03 0. -1.
    9900012    2    1    2    0    0  0.29961837086E+02  0.16051474595E+02 -0.26986338981E+02  0.47787262566E+02  0.19999961343E+02 0.  0.
        -12    1    1    2    0    0 -0.29961837086E+02 -0.16051474595E+02  0.26986338981E+02  0.43400737434E+02  0.00000000000E+00 0.  1.
         11    1    3    3    0    0  0.13758863987E+01  0.84921368767E+01 -0.87132251763E+01  0.12244580244E+02  0.51100000000E-03 0. -1.
        -11    1    3    3    0    0  0.90266192785E+01  0.21259148790E+01 -0.19083886272E+01  0.94679098583E+01  0.51100000000E-03 0.  1.
         12    1    3    3    0    0  0.19559331408E+02  0.54334228395E+01 -0.16364725178E+02  0.26074772464E+02  0.00000000000E+00 0. -1.
</event>
<event>
 7    1  0.2655656E-009  0.4778727E+02  0.7816164E-02  0.1312668E+00
        -11   -1    0    0    0    0  0.00000000000E+00  0.00000000000E+00  0.45593999997E+02  0.45594000000E+02  0.51100000000E-03 0. -1.
         11   -1    0    0    0    0 -0.00000000000E+00 -0.00000000000E+00 -0.45593999997E+02  0.45594000000E+02  0.51100000000E-03 0.  1.
    9900012    2    1    2    0    0 -0.28307955785E+02 -0.10604762389E+02  0.31141964379E+02  0.47787270842E+02  0.19999999078E+02 0.  0.
        -12    1    1    2    0    0  0.28307955785E+02  0.10604762389E+02 -0.31141964379E+02  0.43400729158E+02  0.00000000000E+00 0.  1.
         11    1    3    3    0    0 -0.94984631223E+01 -0.75091801649E+00  0.10558786930E+02  0.14222259358E+02  0.51100000000E-03 0. -1.
        -11    1    3    3    0    0 -0.15184111031E+02 -0.10504402276E+02  0.22743850480E+02  0.29294750893E+02  0.51100000000E-03 0.  1.
        -12    1    3    3    0    0 -0.36253816322E+01  0.65055790332E+00 -0.21606730317E+01  0.42702605909E+01  0.00000000000E+00 0.  1.
</event>
<event>
 7    1  0.2655656E-009  0.4778727E+02  0.7816164E-02  0.1312668E+00
        -11   -1    0    0    0    0  0.00000000000E+00  0.00000000000E+00  0.45593999997E+02  0.45594000000E+02  0.51100000000E-03 0. -1.
         11   -1    0    0    0    0 -0.00000000000E+00 -0.00000000000E+00 -0.45593999997E+02  0.45594000000E+02  0.51100000000E-03 0.  1.
    9900012    2    1    2    0    0  0.71939463987E+01  0.19180967139E+02  0.38261740391E+02  0.47787272553E+02  0.20000006876E+02 0.  0.
        -12    1    1    2    0    0 -0.71939463987E+01 -0.19180967139E+02 -0.38261740391E+02  0.43400727447E+02  0.00000000000E+00 0.  1.
         11    1    3    3    0    0  0.52866795992E+00 -0.22629666736E+01  0.76325346592E+01  0.79784768949E+01  0.51100000000E-03 0. -1.
        -11    1    3    3    0    0  0.81970937816E+00  0.15879666171E+02  0.13442370984E+02  0.20821456700E+02  0.51100000000E-03 0.  1.
         12    1    3    3    0    0  0.58455690606E+01  0.55642676414E+01  0.17186834749E+02  0.18987338958E+02  0.00000000000E+00 0. -1.
</event>
<event>
 7    1  0.2655656E-009  0.4778727E+02  0.7816164E-02  0.1312668E+00
        -11   -1    0    0    0    0  0.00000000000E+00  0.00000000000E+00  0.45593999997E+02  0.45594000000E+02  0.51100000000E-03 0. -1.
         11   -1    0    0    0    0 -0.00000000000E+00 -0.00000000000E+00 -0.45593999997E+02  0.45594000000E+02  0.51100000000E-03 0.  1.
    9900012    2    1    2    0    0 -0.27391039849E+02 -0.33126573167E+02  0.59986998545E+01  0.47787270586E+02  0.19999997908E+02 0.  0.
        -12    1    1    2    0    0  0.27391039849E+02  0.33126573167E+02 -0.59986998545E+01  0.43400729414E+02  0.00000000000E+00 0.  1.
         11    1    3    3    0    0 -0.27603429053E+02 -0.29672819741E+02  0.30009483020E+00  0.40527960521E+02  0.51100000000E-03 0. -1.
        -11    1    3    3    0    0 -0.32585552345E+00 -0.22466219036E+01  0.54641788495E+01  0.59169876255E+01  0.51100000000E-03 0.  1.
         12    1    3    3    0    0  0.53824472743E+00 -0.12071315221E+01  0.23442617482E+00  0.13423224388E+01  0.00000000000E+00 0. -1.
</event>
<event>
 7    1  0.2655656E-009  0.4778727E+02  0.7816164E-02  0.1312668E+00
        -11   -1    0    0    0    0  0.00000000000E+00  0.00000000000E+00  0.45593999997E+02  0.45594000000E+02  0.51100000000E-03 0. -1.
         11   -1    0    0    0    0 -0.00000000000E+00 -0.00000000000E+00 -0.45593999997E+02  0.45594000000E+02  0.51100000000E-03 0.  1.
    9900012    2    1    2    0    0 -0.46416735527E+01  0.43113727718E+02 -0.18123594911E+01  0.47787270766E+02  0.19999998732E+02 0.  0.
        -12    1    1    2    0    0  0.46416735527E+01 -0.43113727718E+02  0.18123594911E+01  0.43400729234E+02  0.00000000000E+00 0.  1.
         11    1    3    3    0    0 -0.13909610470E+01  0.68708874480E+01  0.33091573506E+01  0.77520571198E+01  0.51100000000E-03 0. -1.
        -11    1    3    3    0    0  0.52315623396E+01  0.61395718984E+01  0.11182890815E+01  0.81433505598E+01  0.51100000000E-03 0.  1.
        -12    1    3    3    0    0 -0.84822748453E+01  0.30103268371E+02 -0.62398059233E+01  0.31891863087E+02  0.00000000000E+00 0.  1.
</event>
<event>
 7    1  0.2655656E-009  0.4778728E+02  0.7816164E-02  0.1312668E+00
        -11   -1    0    0    0    0  0.00000000000E+00  0.00000000000E+00  0.45593999997E+02  0.45594000000E+02  0.51100000000E-03 0. -1.
         11   -1    0    0    0    0 -0.00000000000E+00 -0.00000000000E+00 -0.45593999997E+02  0.45594000000E+02  0.51100000000E-03 0.  1.
    9900012    2    1    2    0    0  0.26409685347E+02  0.34723770783E+01  0.34265055207E+02  0.47787275455E+02  0.20000020108E+02 0.  0.
        -12    1    1    2    0    0 -0.26409685347E+02 -0.34723770783E+01 -0.34265055207E+02  0.43400724545E+02  0.00000000000E+00 0.  1.
         11    1    3    3    0    0  0.54178159640E+01  0.17705545486E+01  0.61876578139E+01  0.84127702163E+01  0.51100000000E-03 0. -1.
        -11    1    3    3    0    0  0.19289034448E+02  0.79948373019E+01  0.23333102448E+02  0.31311626332E+02  0.51100000000E-03 0.  1.
        -12    1    3    3    0    0  0.17028349348E+01 -0.62930147721E+01  0.47442949450E+01  0.80628789066E+01  0.00000000000E+00 0.  1.
</event>
<event>
 7    1  0.2655656E-009  0.4778727E+02  0.7816164E-02  0.1312668E+00
        -11   -1    0    0    0    0  0.00000000000E+00  0.00000000000E+00  0.45593999997E+02  0.45594000000E+02  0.51100000000E-03 0. -1.
         11   -1    0    0    0    0 -0.00000000000E+00 -0.00000000000E+00 -0.45593999997E+02  0.45594000000E+02  0.51100000000E-03 0.  1.
    9900012    2    1    2    0    0  0.29981121660E+02  0.96646150617E+01  0.29855496564E+02  0.47787272871E+02  0.20000008327E+02 0.  0.
        -12    1    1    2    0    0 -0.29981121660E+02 -0.96646150617E+01 -0.29855496564E+02  0.43400727129E+02  0.00000000000E+00 0.  1.
         11    1    3    3    0    0  0.79747660782E+01 -0.32209993168E+01  0.95458471991E+00  0.86534942567E+01  0.51100000000E-03 0. -1.
        -11    1    3    3    0    0  0.18245203518E+01  0.18075933681E+01  0.57497803577E+00  0.26318944320E+01  0.51100000000E-03 0.  1.
         12    1    3    3    0    0  0.20181835230E+02  0.11078021010E+02  0.28325933808E+02  0.36501884182E+02  0.00000000000E+00 0. -1.
</event>
<event>
 7    1  0.2655656E-009  0.4778728E+02  0.7816164E-02  0.1312668E+00
        -11   -1    0    0    0    0  0.00000000000E+00  0.00000000000E+00  0.45593999997E+02  0.45594000000E+02  0.51100000000E-03 0.  1.
         11   -1    0    0    0    0 -0.00000000000E+00 -0.00000000000E+00 -0.45593999997E+02  0.45594000000E+02  0.51100000000E-03 0. -1.
    9900012    2    1    2    0    0 -0.19206223613E+02  0.24085642403E+02 -0.30571649013E+02  0.47787275135E+02  0.20000018650E+02 0.  0.
        -12    1    1    2    0    0  0.19206223613E+02 -0.24085642403E+02  0.30571649013E+02  0.43400724865E+02  0.00000000000E+00 0.  1.
         11    1    3    3    0    0 -0.13340772121E+02  0.63683193959E+01 -0.72059332694E+01  0.16445581998E+02  0.51100000000E-03 0. -1.
        -11    1    3    3    0    0 -0.14349462285E+01  0.58760395217E+01 -0.17444354199E+01  0.62952336203E+01  0.51100000000E-03 0.  1.
         12    1    3    3    0    0 -0.44305052640E+01  0.11841283486E+02 -0.21621280324E+02  0.25046459517E+02  0.00000000000E+00 0. -1.
</event>
<event>
 7    1  0.2655656E-009  0.4778728E+02  0.7816164E-02  0.1312668E+00
        -11   -1    0    0    0    0  0.00000000000E+00  0.00000000000E+00  0.45593999997E+02  0.45594000000E+02  0.51100000000E-03 0. -1.
         11   -1    0    0    0    0 -0.00000000000E+00 -0.00000000000E+00 -0.45593999997E+02  0.45594000000E+02  0.51100000000E-03 0.  1.
    9900012    2    1    2    0    0 -0.40000293398E+01  0.87681287328E+01  0.42317162377E+02  0.47787279409E+02  0.20000038138E+02 0.  0.
        -12    1    1    2    0    0  0.40000293398E+01 -0.87681287328E+01 -0.42317162377E+02  0.43400720591E+02  0.00000000000E+00 0.  1.
         11    1    3    3    0    0  0.17693244433E+01  0.14314013532E+01  0.21357205918E+02  0.21478120581E+02  0.51100000000E-03 0. -1.
        -11    1    3    3    0    0 -0.93479669552E+01  0.79152384234E+01  0.16801821478E+02  0.20792707633E+02  0.51100000000E-03 0.  1.
        -12    1    3    3    0    0  0.35786131720E+01 -0.57851104388E+00  0.41581349808E+01  0.55164511945E+01  0.00000000000E+00 0.  1.
</event>
<event>
 7    1  0.2655656E-009  0.4778727E+02  0.7816164E-02  0.1312668E+00
        -11   -1    0    0    0    0  0.00000000000E+00  0.00000000000E+00  0.45593999997E+02  0.45594000000E+02  0.51100000000E-03 0. -1.
         11   -1    0    0    0    0 -0.00000000000E+00 -0.00000000000E+00 -0.45593999997E+02  0.45594000000E+02  0.51100000000E-03 0.  1.
    9900012    2    1    2    0    0 -0.20437259736E+01  0.23053693401E+02  0.36714758151E+02  0.47787273493E+02  0.20000011164E+02 0.  0.
        -12    1    1    2    0    0  0.20437259736E+01 -0.23053693401E+02 -0.36714758151E+02  0.43400726507E+02  0.00000000000E+00 0.  1.
         11    1    3    3    0    0  0.14634535068E+01  0.85534106949E+01  0.25200902326E+02  0.26653105053E+02  0.51100000000E-03 0. -1.
        -11    1    3    3    0    0  0.24936286979E+00  0.13552132027E+02  0.72446574019E+01  0.15369044390E+02  0.51100000000E-03 0.  1.
        -12    1    3    3    0    0 -0.37565423502E+01  0.94815067869E+00  0.42691984229E+01  0.57651240500E+01  0.00000000000E+00 0.  1.
</event>
<event>
 7    1  0.2655656E-009  0.4778727E+02  0.7816164E-02  0.1312668E+00
        -11   -1    0    0    0    0  0.00000000000E+00  0.00000000000E+00  0.45593999997E+02  0.45594000000E+02  0.51100000000E-03 0.  1.
         11   -1    0    0    0    0 -0.00000000000E+00 -0.00000000000E+00 -0.45593999997E+02  0.45594000000E+02  0.51100000000E-03 0. -1.
    9900012    2    1    2    0    0 -0.28031754018E+02 -0.33121396302E+02 -0.90400143896E+00  0.47787270226E+02  0.19999996268E+02 0.  0.
        -12    1    1    2    0    0  0.28031754018E+02  0.33121396302E+02  0.90400143896E+00  0.43400729774E+02  0.00000000000E+00 0.  1.
         11    1    3    3    0    0 -0.16102706488E+02 -0.19883032343E+02  0.37755561547E+01  0.25862848952E+02  0.51100000000E-03 0. -1.
        -11    1    3    3    0    0 -0.30439917784E+01  0.20631832592E+01 -0.25871365623E+00  0.36863998867E+01  0.51100000000E-03 0.  1.
         12    1    3    3    0    0 -0.88850557521E+01 -0.15301547219E+02 -0.44208439374E+01  0.18238021387E+02  0.00000000000E+00 0. -1.
</event>
<event>
 7    1  0.2655656E-009  0.4778727E+02  0.7816164E-02  0.1312668E+00
        -11   -1    0    0    0    0  0.00000000000E+00  0.00000000000E+00  0.45593999997E+02  0.45594000000E+02  0.51100000000E-03 0.  1.
         11   -1    0    0    0    0 -0.00000000000E+00 -0.00000000000E+00 -0.45593999997E+02  0.45594000000E+02  0.51100000000E-03 0. -1.
    9900012    2    1    2    0    0 -0.40522040399E+01 -0.26556674945E+01 -0.43129461433E+02  0.47787269926E+02  0.19999994901E+02 0.  0.
        -12    1    1    2    0    0  0.40522040399E+01  0.26556674945E+01  0.43129461433E+02  0.43400730074E+02  0.00000000000E+00 0.  1.
         11    1    3    3    0    0 -0.40158408976E+01  0.41592359390E+01 -0.11191449279E+02  0.12596616964E+02  0.51100000000E-03 0.  1.
        -11    1    3    3    0    0  0.54325106789E+01 -0.75009586450E+01 -0.20375598886E+02  0.22381724310E+02  0.51100000000E-03 0. -1.
         12    1    3    3    0    0 -0.54688738212E+01  0.68605521156E+00 -0.11562413268E+02  0.12808928652E+02  0.00000000000E+00 0. -1.
</event>
<event>
 7    1  0.2655656E-009  0.4778727E+02  0.7816164E-02  0.1312668E+00
        -11   -1    0    0    0    0  0.00000000000E+00  0.00000000000E+00  0.45593999997E+02  0.45594000000E+02  0.51100000000E-03 0.  1.
         11   -1    0    0    0    0 -0.00000000000E+00 -0.00000000000E+00 -0.45593999997E+02  0.45594000000E+02  0.51100000000E-03 0. -1.
    9900012    2    1    2    0    0 -0.11025474324E+02 -0.22067338703E+02 -0.35708468074E+02  0.47787271737E+02  0.20000003159E+02 0.  0.
        -12    1    1    2    0    0  0.11025474324E+02  0.22067338703E+02  0.35708468074E+02  0.43400728263E+02  0.00000000000E+00 0.  1.
         11    1    3    3    0    0  0.44255169487E+01 -0.47848127362E+01 -0.57374240875E+01  0.86831830917E+01  0.51100000000E-03 0. -1.
        -11    1    3    3    0    0  0.12343010540E+01 -0.25818171131E+01 -0.39016077363E+01  0.48385764318E+01  0.51100000000E-03 0.  1.
         12    1    3    3    0    0 -0.16685292327E+02 -0.14700708854E+02 -0.26069436250E+02  0.34265512214E+02  0.00000000000E+00 0. -1.
</event>
<event>
 7    1  0.2655656E-009  0.4778727E+02  0.7816164E-02  0.1312668E+00
        -11   -1    0    0    0    0  0.00000000000E+00  0.00000000000E+00  0.45593999997E+02  0.45594000000E+02  0.51100000000E-03 0. -1.
         11   -1    0    0    0    0 -0.00000000000E+00 -0.00000000000E+00 -0.45593999997E+02  0.45594000000E+02  0.51100000000E-03 0.  1.
    9900012    2    1    2    0    0 -0.11956556632E+02 -0.19598388726E+02  0.36831605073E+02  0.47787271672E+02  0.20000002861E+02 0.  0.
        -12    1    1    2    0    0  0.11956556632E+02  0.19598388726E+02 -0.36831605073E+02  0.43400728328E+02  0.00000000000E+00 0.  1.
         11    1    3    3    0    0 -0.46945555001E+01  0.19374607316E+01  0.47830335584E+01  0.69763898767E+01  0.51100000000E-03 0.  1.
        -11    1    3    3    0    0 -0.44778036508E+01 -0.13564552223E+02  0.28029721674E+02  0.31459705974E+02  0.51100000000E-03 0. -1.
        -12    1    3    3    0    0 -0.27841974807E+01 -0.79712972339E+01  0.40188498409E+01  0.93511758216E+01  0.00000000000E+00 0.  1.
</event>
<event>
 7    1  0.2655656E-009  0.4778727E+02  0.7816164E-02  0.1312668E+00
        -11   -1    0    0    0    0  0.00000000000E+00  0.00000000000E+00  0.45593999997E+02  0.45594000000E+02  0.51100000000E-03 0.  1.
         11   -1    0    0    0    0 -0.00000000000E+00 -0.00000000000E+00 -0.45593999997E+02  0.45594000000E+02  0.51100000000E-03 0. -1.
    9900012    2    1    2    0    0  0.28661394447E+02 -0.17676305987E+02 -0.27380574051E+02  0.47787272352E+02  0.20000005963E+02 0.  0.
        -12    1    1    2    0    0 -0.28661394447E+02  0.17676305987E+02  0.27380574051E+02  0.43400727648E+02  0.00000000000E+00 0.  1.
         11    1    3    3    0    0  0.17508843807E+02 -0.13720124354E+02 -0.75666174722E+01  0.23495853336E+02  0.51100000000E-03 0. -1.
        -11    1    3    3    0    0  0.95557294489E+01 -0.58888185676E+01 -0.17937500537E+02  0.21159963969E+02  0.51100000000E-03 0.  1.
         12    1    3    3    0    0  0.15968211906E+01  0.19326369340E+01 -0.18764560421E+01  0.31314550470E+01  0.00000000000E+00 0. -1.
</event>
<event>
 7    1  0.2655656E-009  0.4778727E+02  0.7816164E-02  0.1312668E+00
        -11   -1    0    0    0    0  0.00000000000E+00  0.00000000000E+00  0.45593999997E+02  0.45594000000E+02  0.51100000000E-03 0. -1.
         11   -1    0    0    0    0 -0.00000000000E+00 -0.00000000000E+00 -0.45593999997E+02  0.45594000000E+02  0.51100000000E-03 0.  1.
    9900012    2    1    2    0    0 -0.48298569970E+00  0.43397143216E+02 -0.27893302415E+00  0.47787272839E+02  0.20000008182E+02 0.  0.
        -12    1    1    2    0    0  0.48298569970E+00 -0.43397143216E+02  0.27893302415E+00  0.43400727161E+02  0.00000000000E+00 0.  1.
         11    1    3    3    0    0 -0.13974485519E+00  0.20316849072E+01  0.48597675851E+01  0.52692137392E+01  0.51100000000E-03 0. -1.
        -11    1    3    3    0    0  0.23347792968E+01  0.40889382245E+01 -0.16231308180E+01  0.49804782985E+01  0.51100000000E-03 0.  1.
         12    1    3    3    0    0 -0.26780201413E+01  0.37276520084E+02 -0.35155697912E+01  0.37537580801E+02  0.00000000000E+00 0. -1.
</event>
<event>
 7    1  0.2655656E-009  0.4778727E+02  0.7816164E-02  0.1312668E+00
        -11   -1    0    0    0    0  0.00000000000E+00  0.00000000000E+00  0.45593999997E+02  0.45594000000E+02  0.51100000000E-03 0.  1.
         11   -1    0    0    0    0 -0.00000000000E+00 -0.00000000000E+00 -0.45593999997E+02  0.45594000000E+02  0.51100000000E-03 0. -1.
    9900012    2    1    2    0    0  0.19093631623E+01  0.31068751406E+02 -0.30244183792E+02  0.47787266886E+02  0.19999981041E+02 0.  0.
        -12    1    1    2    0    0 -0.19093631623E+01 -0.31068751406E+02  0.30244183792E+02  0.43400733114E+02  0.00000000000E+00 0.  1.
         11    1    3    3    0    0  0.29343115292E+01  0.23655669175E+02 -0.13992318435E+02  0.27640293843E+02  0.51100000000E-03 0. -1.
        -11    1    3    3    0    0  0.11988324286E+01 -0.19073585511E+01 -0.22817724168E+01  0.32065092324E+01  0.51100000000E-03 0.  1.
         12    1    3    3    0    0 -0.22237807955E+01  0.93204407815E+01 -0.13970092939E+02  0.16940463811E+02  0.00000000000E+00 0. -1.
</event>
<event>
 7    1  0.2655656E-009  0.4778727E+02  0.7816164E-02  0.1312668E+00
        -11   -1    0    0    0    0  0.00000000000E+00  0.00000000000E+00  0.45593999997E+02  0.45594000000E+02  0.51100000000E-03 0. -1.
         11   -1    0    0    0    0 -0.00000000000E+00 -0.00000000000E+00 -0.45593999997E+02  0.45594000000E+02  0.51100000000E-03 0.  1.
    9900012    2    1    2    0    0  0.14535524356E+02 -0.17707343629E+02  0.36861788941E+02  0.47787274538E+02  0.20000015928E+02 0.  0.
        -12    1    1    2    0    0 -0.14535524356E+02  0.17707343629E+02 -0.36861788941E+02  0.43400725462E+02  0.00000000000E+00 0.  1.
         11    1    3    3    0    0  0.14903563384E+02 -0.12421206657E+02  0.35585673231E+02  0.40530762587E+02  0.51100000000E-03 0. -1.
        -11    1    3    3    0    0 -0.92917081810E+00  0.10736754639E-01 -0.10863817803E+01  0.14295801204E+01  0.51100000000E-03 0.  1.
         12    1    3    3    0    0  0.56113178932E+00 -0.52968737263E+01  0.23624974910E+01  0.58269318300E+01  0.00000000000E+00 0. -1.
</event>
<event>
 7    1  0.2655656E-009  0.4778729E+02  0.7816164E-02  0.1312668E+00
        -11   -1    0    0    0    0  0.00000000000E+00  0.00000000000E+00  0.45593999997E+02  0.45594000000E+02  0.51100000000E-03 0. -1.
         11   -1    0    0    0    0 -0.00000000000E+00 -0.00000000000E+00 -0.45593999997E+02  0.45594000000E+02  0.51100000000E-03 0.  1.
    9900012    2    1    2    0    0  0.34490769785E+02 -0.22131959612E+02 -0.14289327411E+02  0.47787289009E+02  0.20000081909E+02 0.  0.
        -12    1    1    2    0    0 -0.34490769785E+02  0.22131959612E+02  0.14289327411E+02  0.43400710991E+02  0.00000000000E+00 0.  1.
         11    1    3    3    0    0  0.21853480552E+01 -0.29007978570E+01  0.41403305598E+01  0.55075141157E+01  0.51100000000E-03 0. -1.
        -11    1    3    3    0    0  0.29766209472E+02 -0.19134889193E+02 -0.18005720896E+02  0.39703616913E+02  0.51100000000E-03 0.  1.
         12    1    3    3    0    0  0.25392122578E+01 -0.96272562353E-01 -0.42393707433E+00  0.25761579802E+01  0.00000000000E+00 0. -1.
</event>
<event>
 7    1  0.2655656E-009  0.4778727E+02  0.7816164E-02  0.1312668E+00
        -11   -1    0    0    0    0  0.00000000000E+00  0.00000000000E+00  0.45593999997E+02  0.45594000000E+02  0.51100000000E-03 0.  1.
         11   -1    0    0    0    0 -0.00000000000E+00 -0.00000000000E+00 -0.45593999997E+02  0.45594000000E+02  0.51100000000E-03 0. -1.
    9900012    2    1    2    0    0 -0.42256675437E+02 -0.97343117241E+01 -0.17999131457E+01  0.47787272690E+02  0.20000007502E+02 0.  0.
        -12    1    1    2    0    0  0.42256675437E+02  0.97343117241E+01  0.17999131457E+01  0.43400727310E+02  0.00000000000E+00 0.  1.
         11    1    3    3    0    0 -0.12163648379E+02  0.38805134590E+01  0.46946752224E+00  0.12776272015E+02  0.51100000000E-03 0.  1.
        -11    1    3    3    0    0 -0.28200931391E+02 -0.10214593784E+02 -0.47911476837E+01  0.30374093466E+02  0.51100000000E-03 0. -1.
         12    1    3    3    0    0 -0.18920956674E+01 -0.34002313993E+01  0.25217670158E+01  0.46369072091E+01  0.00000000000E+00 0. -1.
</event>
<event>
 7    1  0.2655656E-009  0.4778727E+02  0.7816164E-02  0.1312668E+00
        -11   -1    0    0    0    0  0.00000000000E+00  0.00000000000E+00  0.45593999997E+02  0.45594000000E+02  0.51100000000E-03 0. -1.
         11   -1    0    0    0    0 -0.00000000000E+00 -0.00000000000E+00 -0.45593999997E+02  0.45594000000E+02  0.51100000000E-03 0.  1.
    9900012    2    1    2    0    0  0.18129953904E+02  0.35634571059E+02 -0.16885064662E+02  0.47787270838E+02  0.19999999060E+02 0.  0.
        -12    1    1    2    0    0 -0.18129953904E+02 -0.35634571059E+02  0.16885064662E+02  0.43400729162E+02  0.00000000000E+00 0.  1.
         11    1    3    3    0    0  0.40093086013E+01  0.44048960370E+01  0.30690090789E+01  0.67004836799E+01  0.51100000000E-03 0. -1.
        -11    1    3    3    0    0  0.88863875636E+01  0.11091526844E+02 -0.12674325441E+02  0.19042803819E+02  0.51100000000E-03 0.  1.
         12    1    3    3    0    0  0.52342577386E+01  0.20138148179E+02 -0.72797483006E+01  0.22043983339E+02  0.00000000000E+00 0. -1.
</event>
<event>
 7    1  0.2655656E-009  0.4778727E+02  0.7816164E-02  0.1312668E+00
        -11   -1    0    0    0    0  0.00000000000E+00  0.00000000000E+00  0.45593999997E+02  0.45594000000E+02  0.51100000000E-03 0. -1.
         11   -1    0    0    0    0 -0.00000000000E+00 -0.00000000000E+00 -0.45593999997E+02  0.45594000000E+02  0.51100000000E-03 0.  1.
    9900012    2    1    2    0    0  0.39917361316E+02 -0.11215756166E+02  0.12823191339E+02  0.47787272392E+02  0.20000006143E+02 0.  0.
        -12    1    1    2    0    0 -0.39917361316E+02  0.11215756166E+02 -0.12823191339E+02  0.43400727608E+02  0.00000000000E+00 0.  1.
         11    1    3    3    0    0  0.20987463934E+02 -0.60188794584E+01  0.64795683280E+01  0.22774664834E+02  0.51100000000E-03 0. -1.
        -11    1    3    3    0    0  0.75836375303E+00 -0.58525907065E+01  0.54304023221E+00  0.59264514268E+01  0.51100000000E-03 0.  1.
        -12    1    3    3    0    0  0.18171533629E+02  0.65571399915E+00  0.58005827791E+01  0.19086156131E+02  0.00000000000E+00 0.  1.
</event>
<event>
 7    1  0.2655656E-009  0.4778727E+02  0.7816164E-02  0.1312668E+00
        -11   -1    0    0    0    0  0.00000000000E+00  0.00000000000E+00  0.45593999997E+02  0.45594000000E+02  0.51100000000E-03 0. -1.
         11   -1    0    0    0    0 -0.00000000000E+00 -0.00000000000E+00 -0.45593999997E+02  0.45594000000E+02  0.51100000000E-03 0.  1.
    9900012    2    1    2    0    0  0.17896973534E+01 -0.39530831896E+02  0.17825097153E+02  0.47787265266E+02  0.19999973652E+02 0.  0.
        -12    1    1    2    0    0 -0.17896973534E+01  0.39530831896E+02 -0.17825097153E+02  0.43400734734E+02  0.00000000000E+00 0.  1.
         11    1    3    3    0    0 -0.53235378947E+01 -0.33778298061E+02  0.15795884578E+02  0.37667272870E+02  0.51100000000E-03 0. -1.
        -11    1    3    3    0    0  0.51630610386E+01 -0.43458288674E+01  0.31729276883E+01  0.74572714989E+01  0.51100000000E-03 0.  1.
         12    1    3    3    0    0  0.19501742095E+01 -0.14067049672E+01 -0.11437151131E+01  0.26627208964E+01  0.00000000000E+00 0. -1.
</event>
<event>
 7    1  0.2655656E-009  0.4778722E+02  0.7816164E-02  0.1312668E+00
        -11   -1    0    0    0    0  0.00000000000E+00  0.00000000000E+00  0.45593999997E+02  0.45594000000E+02  0.51100000000E-03 0. -1.
         11   -1    0    0    0    0 -0.00000000000E+00 -0.00000000000E+00 -0.45593999997E+02  0.45594000000E+02  0.51100000000E-03 0.  1.
    9900012    2    1    2    0    0  0.33352788286E+02  0.24815515309E+02  0.12466328731E+02  0.47787220761E+02  0.19999770737E+02 0.  0.
        -12    1    1    2    0    0 -0.33352788286E+02 -0.24815515309E+02 -0.12466328731E+02  0.43400779239E+02  0.00000000000E+00 0.  1.
         11    1    3    3    0    0  0.18427223426E+01  0.43973779012E+01  0.11920664717E+01  0.49146292609E+01  0.51100000000E-03 0. -1.
        -11    1    3    3    0    0  0.20719164969E+02  0.17085374744E+02 -0.83841567787E-01  0.26855183053E+02  0.51100000000E-03 0.  1.
        -12    1    3    3    0    0  0.10790900974E+02  0.33327626646E+01  0.11358103828E+02  0.16017408447E+02  0.00000000000E+00 0.  1.
</event>
<event>
 7    1  0.2655656E-009  0.4778727E+02  0.7816164E-02  0.1312668E+00
        -11   -1    0    0    0    0  0.00000000000E+00  0.00000000000E+00  0.45593999997E+02  0.45594000000E+02  0.51100000000E-03 0.  1.
         11   -1    0    0    0    0 -0.00000000000E+00 -0.00000000000E+00 -0.45593999997E+02  0.45594000000E+02  0.51100000000E-03 0. -1.
    9900012    2    1    2    0    0 -0.40044368549E+01 -0.29986332020E+02 -0.31119247696E+02  0.47787271899E+02  0.20000003896E+02 0.  0.
        -12    1    1    2    0    0  0.40044368549E+01  0.29986332020E+02  0.31119247696E+02  0.43400728101E+02  0.00000000000E+00 0.  1.
         11    1    3    3    0    0 -0.50562611576E-01 -0.15919907977E+02 -0.13143267417E+02  0.20644406149E+02  0.51100000000E-03 0. -1.
        -11    1    3    3    0    0 -0.69595859678E+01 -0.27347892997E+01 -0.11590169556E+02  0.13793003297E+02  0.51100000000E-03 0.  1.
        -12    1    3    3    0    0  0.30057117244E+01 -0.11331634743E+02 -0.63858107228E+01  0.13349862453E+02  0.00000000000E+00 0.  1.
</event>
<event>
 7    1  0.2655656E-009  0.4778727E+02  0.7816164E-02  0.1312668E+00
        -11   -1    0    0    0    0  0.00000000000E+00  0.00000000000E+00  0.45593999997E+02  0.45594000000E+02  0.51100000000E-03 0.  1.
         11   -1    0    0    0    0 -0.00000000000E+00 -0.00000000000E+00 -0.45593999997E+02  0.45594000000E+02  0.51100000000E-03 0. -1.
    9900012    2    1    2    0    0  0.26807149073E+02  0.80620789120E+00 -0.34122579762E+02  0.47787266570E+02  0.19999979601E+02 0.  0.
        -12    1    1    2    0    0 -0.26807149073E+02 -0.80620789120E+00  0.34122579762E+02  0.43400733430E+02  0.00000000000E+00 0.  1.
         11    1    3    3    0    0  0.17191112425E+02 -0.69596660711E+01 -0.16879003309E+02  0.25077321452E+02  0.51100000000E-03 0. -1.
        -11    1    3    3    0    0  0.10266191554E+02  0.87012180737E+01 -0.14739357400E+02  0.19958821153E+02  0.51100000000E-03 0.  1.
         12    1    3    3    0    0 -0.65015490592E+00 -0.93534411141E+00 -0.25042190530E+01  0.27511239655E+01  0.00000000000E+00 0. -1.
</event>
<event>
 7    1  0.2655656E-009  0.4778727E+02  0.7816164E-02  0.1312668E+00
        -11   -1    0    0    0    0  0.00000000000E+00  0.00000000000E+00  0.45593999997E+02  0.45594000000E+02  0.51100000000E-03 0.  1.
         11   -1    0    0    0    0 -0.00000000000E+00 -0.00000000000E+00 -0.45593999997E+02  0.45594000000E+02  0.51100000000E-03 0. -1.
    9900012    2    1    2    0    0 -0.18836715967E+02  0.42933800796E+01 -0.38863458834E+02  0.47787269436E+02  0.19999992668E+02 0.  0.
        -12    1    1    2    0    0  0.18836715967E+02 -0.42933800796E+01  0.38863458834E+02  0.43400730564E+02  0.00000000000E+00 0.  1.
         11    1    3    3    0    0 -0.18778628719E+02  0.50138752676E+01 -0.20261342415E+02  0.28076642222E+02  0.51100000000E-03 0. -1.
        -11    1    3    3    0    0  0.15454589192E+01  0.18515986371E+01 -0.13958571374E+02  0.14165400660E+02  0.51100000000E-03 0.  1.
         12    1    3    3    0    0 -0.16035461677E+01 -0.25720938250E+01 -0.46435450449E+01  0.55452265545E+01  0.00000000000E+00 0. -1.
</event>
<event>
 7    1  0.2655656E-009  0.4778727E+02  0.7816164E-02  0.1312668E+00
        -11   -1    0    0    0    0  0.00000000000E+00  0.00000000000E+00  0.45593999997E+02  0.45594000000E+02  0.51100000000E-03 0.  1.
         11   -1    0    0    0    0 -0.00000000000E+00 -0.00000000000E+00 -0.45593999997E+02  0.45594000000E+02  0.51100000000E-03 0. -1.
    9900012    2    1    2    0    0 -0.34111475549E+02  0.16849742133E+02 -0.20883409439E+02  0.47787270008E+02  0.19999995273E+02 0.  0.
        -12    1    1    2    0    0  0.34111475549E+02 -0.16849742133E+02  0.20883409439E+02  0.43400729992E+02  0.00000000000E+00 0.  1.
         11    1    3    3    0    0  0.12342126261E+01  0.25025728133E+01 -0.44472450886E+00  0.28255851858E+01  0.51100000000E-03 0. -1.
        -11    1    3    3    0    0 -0.19064426137E+02  0.27530788322E+01 -0.14502367922E+02  0.24111210310E+02  0.51100000000E-03 0.  1.
        -12    1    3    3    0    0 -0.16281262037E+02  0.11594090487E+02 -0.59363170090E+01  0.20850474512E+02  0.00000000000E+00 0.  1.
</event>
<event>
 7    1  0.2655656E-009  0.4778727E+02  0.7816164E-02  0.1312668E+00
        -11   -1    0    0    0    0  0.00000000000E+00  0.00000000000E+00  0.45593999997E+02  0.45594000000E+02  0.51100000000E-03 0.  1.
         11   -1    0    0    0    0 -0.00000000000E+00 -0.00000000000E+00 -0.45593999997E+02  0.45594000000E+02  0.51100000000E-03 0. -1.
    9900012    2    1    2    0    0  0.37862168842E+02  0.67992361355E+01 -0.20096009590E+02  0.47787273706E+02  0.20000012134E+02 0.  0.
        -12    1    1    2    0    0 -0.37862168842E+02 -0.67992361355E+01  0.20096009590E+02  0.43400726294E+02  0.00000000000E+00 0.  1.
         11    1    3    3    0    0 -0.28068908439E+00  0.28970650676E+01  0.78180077284E+00  0.30137991104E+01  0.51100000000E-03 0. -1.
        -11    1    3    3    0    0  0.10829362711E+02  0.34717776221E+01 -0.19459840465E+01  0.11537555666E+02  0.51100000000E-03 0.  1.
         12    1    3    3    0    0  0.27313495215E+02  0.43039344577E+00 -0.18931826317E+02  0.33235918929E+02  0.00000000000E+00 0. -1.
</event>
<event>
 7    1  0.2655656E-009  0.4778728E+02  0.7816164E-02  0.1312668E+00
        -11   -1    0    0    0    0  0.00000000000E+00  0.00000000000E+00  0.45593999997E+02  0.45594000000E+02  0.51100000000E-03 0.  1.
         11   -1    0    0    0    0 -0.00000000000E+00 -0.00000000000E+00 -0.45593999997E+02  0.45594000000E+02  0.51100000000E-03 0. -1.
    9900012    2    1    2    0    0 -0.52448074394E+01  0.35045305208E+02 -0.25058751537E+02  0.47787280527E+02  0.20000043233E+02 0.  0.
        -12    1    1    2    0    0  0.52448074394E+01 -0.35045305208E+02  0.25058751537E+02  0.43400719473E+02  0.00000000000E+00 0.  1.
         11    1    3    3    0    0 -0.70523909366E+00  0.87136370346E+01 -0.93634140637E+01  0.12810088046E+02  0.51100000000E-03 0. -1.
        -11    1    3    3    0    0  0.34394274807E+01  0.18656309928E+02 -0.14427209993E+02  0.23833420862E+02  0.51100000000E-03 0.  1.
        -12    1    3    3    0    0 -0.79789958265E+01  0.76753582452E+01 -0.12681274803E+01  0.11143771619E+02  0.00000000000E+00 0.  1.
</event>
<event>
 7    1  0.2655656E-009  0.4778729E+02  0.7816164E-02  0.1312668E+00
        -11   -1    0    0    0    0  0.00000000000E+00  0.00000000000E+00  0.45593999997E+02  0.45594000000E+02  0.51100000000E-03 0.  1.
         11   -1    0    0    0    0 -0.00000000000E+00 -0.00000000000E+00 -0.45593999997E+02  0.45594000000E+02  0.51100000000E-03 0. -1.
    9900012    2    1    2    0    0 -0.83995989203E-02  0.74364230236E+01 -0.42758876924E+02  0.47787285562E+02  0.20000066192E+02 0.  0.
        -12    1    1    2    0    0  0.83995989203E-02 -0.74364230236E+01  0.42758876924E+02  0.43400714438E+02  0.00000000000E+00 0.  1.
         11    1    3    3    0    0 -0.76210639393E+00  0.68386677669E+01 -0.10630476656E+02  0.12663144048E+02  0.51100000000E-03 0. -1.
        -11    1    3    3    0    0 -0.23782393437E+00 -0.43577942946E+00 -0.33281622085E+02  0.33285324586E+02  0.51100000000E-03 0.  1.
        -12    1    3    3    0    0  0.99153072938E+00  0.10335346861E+01  0.11532218174E+01  0.18388169280E+01  0.00000000000E+00 0.  1.
</event>
<event>
 7    1  0.2655656E-009  0.4778727E+02  0.7816164E-02  0.1312668E+00
        -11   -1    0    0    0    0  0.00000000000E+00  0.00000000000E+00  0.45593999997E+02  0.45594000000E+02  0.51100000000E-03 0.  1.
         11   -1    0    0    0    0 -0.00000000000E+00 -0.00000000000E+00 -0.45593999997E+02  0.45594000000E+02  0.51100000000E-03 0. -1.
    9900012    2    1    2    0    0 -0.40703655586E+01  0.24768425614E+02 -0.35405938012E+02  0.47787271553E+02  0.20000002320E+02 0.  0.
        -12    1    1    2    0    0  0.40703655586E+01 -0.24768425614E+02  0.35405938012E+02  0.43400728447E+02  0.00000000000E+00 0.  1.
         11    1    3    3    0    0  0.52020159124E+01  0.34044429436E+01 -0.70757505068E+01  0.94189939380E+01  0.51100000000E-03 0. -1.
        -11    1    3    3    0    0 -0.99253085348E+01  0.92759767587E+01 -0.12686524760E+02  0.18587721891E+02  0.51100000000E-03 0.  1.
        -12    1    3    3    0    0  0.65292706390E+00  0.12088005912E+02 -0.15643662746E+02  0.19780555725E+02  0.00000000000E+00 0.  1.
</event>
<event>
 7    1  0.2655656E-009  0.4778727E+02  0.7816164E-02  0.1312668E+00
        -11   -1    0    0    0    0  0.00000000000E+00  0.00000000000E+00  0.45593999997E+02  0.45594000000E+02  0.51100000000E-03 0.  1.
         11   -1    0    0    0    0 -0.00000000000E+00 -0.00000000000E+00 -0.45593999997E+02  0.45594000000E+02  0.51100000000E-03 0. -1.
    9900012    2    1    2    0    0  0.11452071034E+02  0.32302499501E+02 -0.26627471959E+02  0.47787266505E+02  0.19999979304E+02 0.  0.
        -12    1    1    2    0    0 -0.11452071034E+02 -0.32302499501E+02  0.26627471959E+02  0.43400733495E+02  0.00000000000E+00 0.  1.
         11    1    3    3    0    0  0.13080796232E+02  0.12741764853E+02 -0.19477269050E+02  0.26698760488E+02  0.51100000000E-03 0. -1.
        -11    1    3    3    0    0 -0.17956372763E+01  0.61302044904E+01 -0.18645642427E+01  0.66543459782E+01  0.51100000000E-03 0.  1.
         12    1    3    3    0    0  0.16691207826E+00  0.13430530157E+02 -0.52856386659E+01  0.14434160039E+02  0.00000000000E+00 0. -1.
</event>
<event>
 7    1  0.2655656E-009  0.4778728E+02  0.7816164E-02  0.1312668E+00
        -11   -1    0    0    0    0  0.00000000000E+00  0.00000000000E+00  0.45593999997E+02  0.45594000000E+02  0.51100000000E-03 0. -1.
         11   -1    0    0    0    0 -0.00000000000E+00 -0.00000000000E+00 -0.45593999997E+02  0.45594000000E+02  0.51100000000E-03 0.  1.
    9900012    2    1    2    0    0  0.27116989174E+02 -0.33849142575E+02 -0.15897086418E+01  0.47787277328E+02  0.20000028647E+02 0.  0.
        -12    1    1    2    0    0 -0.27116989174E+02  0.33849142575E+02  0.15897086418E+01  0.43400722672E+02  0.00000000000E+00 0.  1.
         11    1    3    3    0    0  0.70961100135E+01 -0.11195553987E+02 -0.88056243838E+01  0.15913334894E+02  0.51100000000E-03 0.  1.
        -11    1    3    3    0    0  0.63172917496E+01 -0.42572686435E+01  0.43063205033E+01  0.87508232693E+01  0.51100000000E-03 0. -1.
         12    1    3    3    0    0  0.13703587411E+02 -0.18396319944E+02  0.29095952386E+01  0.23123119164E+02  0.00000000000E+00 0. -1.
</event>
<event>
 7    1  0.2655656E-009  0.4778727E+02  0.7816164E-02  0.1312668E+00
        -11   -1    0    0    0    0  0.00000000000E+00  0.00000000000E+00  0.45593999997E+02  0.45594000000E+02  0.51100000000E-03 0.  1.
         11   -1    0    0    0    0 -0.00000000000E+00 -0.00000000000E+00 -0.45593999997E+02  0.45594000000E+02  0.51100000000E-03 0. -1.
    9900012    2    1    2    0    0 -0.27063738783E+02  0.33708198269E+02 -0.38645201308E+01  0.47787273009E+02  0.20000008958E+02 0.  0.
        -12    1    1    2    0    0  0.27063738783E+02 -0.33708198269E+02  0.38645201308E+01  0.43400726991E+02  0.00000000000E+00 0.  1.
         11    1    3    3    0    0 -0.10328581623E+02  0.19237168178E+02  0.40205389813E+00  0.21838266540E+02  0.51100000000E-03 0. -1.
        -11    1    3    3    0    0  0.90494133449E+00 -0.13366838079E+01  0.67964496365E+00  0.17514451059E+01  0.51100000000E-03 0.  1.
        -12    1    3    3    0    0 -0.17640098495E+02  0.15807713899E+02 -0.49462189925E+01  0.24197561364E+02  0.00000000000E+00 0.  1.
</event>
<event>
 7    1  0.2655656E-009  0.4778727E+02  0.7816164E-02  0.1312668E+00
        -11   -1    0    0    0    0  0.00000000000E+00  0.00000000000E+00  0.45593999997E+02  0.45594000000E+02  0.51100000000E-03 0.  1.
         11   -1    0    0    0    0 -0.00000000000E+00 -0.00000000000E+00 -0.45593999997E+02  0.45594000000E+02  0.51100000000E-03 0. -1.
    9900012    2    1    2    0    0 -0.23844580229E+02 -0.27406340731E+02 -0.23747671024E+02  0.47787269619E+02  0.19999993500E+02 0.  0.
        -12    1    1    2    0    0  0.23844580229E+02  0.27406340731E+02  0.23747671024E+02  0.43400730381E+02  0.00000000000E+00 0.  1.
         11    1    3    3    0    0 -0.17873388908E+02 -0.24281183962E+02 -0.11856688623E+02  0.32397762130E+02  0.51100000000E-03 0. -1.
        -11    1    3    3    0    0 -0.47448308988E+01  0.12146387313E+01 -0.40997754257E+01  0.63872471619E+01  0.51100000000E-03 0.  1.
         12    1    3    3    0    0 -0.12263604227E+01 -0.43397955002E+01 -0.77912069749E+01  0.90022603270E+01  0.00000000000E+00 0. -1.
</event>
<event>
 7    1  0.2655656E-009  0.4778727E+02  0.7816164E-02  0.1312668E+00
        -11   -1    0    0    0    0  0.00000000000E+00  0.00000000000E+00  0.45593999997E+02  0.45594000000E+02  0.51100000000E-03 0.  1.
         11   -1    0    0    0    0 -0.00000000000E+00 -0.00000000000E+00 -0.45593999997E+02  0.45594000000E+02  0.51100000000E-03 0. -1.
    9900012    2    1    2    0    0  0.55785970606E+01  0.19741465399E+02 -0.38246267055E+02  0.47787272531E+02  0.20000006776E+02 0.  0.
        -12    1    1    2    0    0 -0.55785970606E+01 -0.19741465399E+02  0.38246267055E+02  0.43400727469E+02  0.00000000000E+00 0.  1.
         11    1    3    3    0    0 -0.12075114677E+01  0.17342174111E+02 -0.31831161858E+02  0.36268884078E+02  0.51100000000E-03 0. -1.
        -11    1    3    3    0    0  0.24563892010E+01  0.41416766645E+01 -0.40187226208E+01  0.62719586465E+01  0.51100000000E-03 0.  1.
         12    1    3    3    0    0  0.43297193273E+01 -0.17423853765E+01 -0.23963825763E+01  0.52464298056E+01  0.00000000000E+00 0. -1.
</event>
<event>
 7    1  0.2655656E-009  0.4778727E+02  0.7816164E-02  0.1312668E+00
        -11   -1    0    0    0    0  0.00000000000E+00  0.00000000000E+00  0.45593999997E+02  0.45594000000E+02  0.51100000000E-03 0.  1.
         11   -1    0    0    0    0 -0.00000000000E+00 -0.00000000000E+00 -0.45593999997E+02  0.45594000000E+02  0.51100000000E-03 0. -1.
    9900012    2    1    2    0    0  0.68771521186E+01 -0.91570559629E+01 -0.41862589764E+02  0.47787270548E+02  0.19999997738E+02 0.  0.
        -12    1    1    2    0    0 -0.68771521186E+01  0.91570559629E+01  0.41862589764E+02  0.43400729452E+02  0.00000000000E+00 0.  1.
         11    1    3    3    0    0  0.10687491061E+02 -0.10123329041E+02 -0.24489409184E+02  0.28573334046E+02  0.51100000000E-03 0. -1.
        -11    1    3    3    0    0 -0.31643636785E+01 -0.23858838938E+01 -0.13409107562E+02  0.13982482087E+02  0.51100000000E-03 0.  1.
         12    1    3    3    0    0 -0.64597526436E+00  0.33521569720E+01 -0.39640730187E+01  0.52314544158E+01  0.00000000000E+00 0. -1.
</event>
<event>
 7    1  0.2655656E-009  0.4778727E+02  0.7816164E-02  0.1312668E+00
        -11   -1    0    0    0    0  0.00000000000E+00  0.00000000000E+00  0.45593999997E+02  0.45594000000E+02  0.51100000000E-03 0. -1.
         11   -1    0    0    0    0 -0.00000000000E+00 -0.00000000000E+00 -0.45593999997E+02  0.45594000000E+02  0.51100000000E-03 0.  1.
    9900012    2    1    2    0    0 -0.22995879198E+02 -0.36800990086E+02 -0.70713035007E+00  0.47787269998E+02  0.19999995227E+02 0.  0.
        -12    1    1    2    0    0  0.22995879198E+02  0.36800990086E+02  0.70713035007E+00  0.43400730002E+02  0.00000000000E+00 0.  1.
         11    1    3    3    0    0 -0.19208558185E+01 -0.76129890809E+01  0.61393386630E+01  0.99668836304E+01  0.51100000000E-03 0. -1.
        -11    1    3    3    0    0 -0.36557050765E+01 -0.12252272179E+02 -0.37766257474E+01  0.13332113690E+02  0.51100000000E-03 0.  1.
         12    1    3    3    0    0 -0.17419318303E+02 -0.16935728826E+02 -0.30698432656E+01  0.24488272677E+02  0.00000000000E+00 0. -1.
</event>
<event>
 7    1  0.2655656E-009  0.4778727E+02  0.7816164E-02  0.1312668E+00
        -11   -1    0    0    0    0  0.00000000000E+00  0.00000000000E+00  0.45593999997E+02  0.45594000000E+02  0.51100000000E-03 0.  1.
         11   -1    0    0    0    0 -0.00000000000E+00 -0.00000000000E+00 -0.45593999997E+02  0.45594000000E+02  0.51100000000E-03 0. -1.
    9900012    2    1    2    0    0  0.20889233152E+02  0.13216870458E+02 -0.35673204114E+02  0.47787271686E+02  0.20000002927E+02 0.  0.
        -12    1    1    2    0    0 -0.20889233152E+02 -0.13216870458E+02  0.35673204114E+02  0.43400728314E+02  0.00000000000E+00 0.  1.
         11    1    3    3    0    0  0.18415775747E+01  0.62627153580E+01 -0.18211050087E+02  0.19345680581E+02  0.51100000000E-03 0. -1.
        -11    1    3    3    0    0 -0.90228149230E-01  0.27744607285E+01 -0.30361022649E+01  0.41138413530E+01  0.51100000000E-03 0.  1.
         12    1    3    3    0    0  0.19137883726E+02  0.41796943717E+01 -0.14426051762E+02  0.24327749752E+02  0.00000000000E+00 0. -1.
</event>
<event>
 7    1  0.2655656E-009  0.4778727E+02  0.7816164E-02  0.1312668E+00
        -11   -1    0    0    0    0  0.00000000000E+00  0.00000000000E+00  0.45593999997E+02  0.45594000000E+02  0.51100000000E-03 0.  1.
         11   -1    0    0    0    0 -0.00000000000E+00 -0.00000000000E+00 -0.45593999997E+02  0.45594000000E+02  0.51100000000E-03 0. -1.
    9900012    2    1    2    0    0 -0.41088337331E+02 -0.83723006427E+01  0.11192690553E+02  0.47787271843E+02  0.20000003643E+02 0.  0.
        -12    1    1    2    0    0  0.41088337331E+02  0.83723006427E+01 -0.11192690553E+02  0.43400728157E+02  0.00000000000E+00 0.  1.
         11    1    3    3    0    0 -0.24882508772E+02 -0.56624845469E+01  0.48670061263E+01  0.25978658990E+02  0.51100000000E-03 0. -1.
        -11    1    3    3    0    0 -0.84384655511E+01  0.41184286030E+01 -0.52321469158E+00  0.94044090133E+01  0.51100000000E-03 0.  1.
        -12    1    3    3    0    0 -0.77673630081E+01 -0.68282446989E+01  0.68488991186E+01  0.12404203840E+02  0.00000000000E+00 0.  1.
</event>
<event>
 7    1  0.2655656E-009  0.4778727E+02  0.7816164E-02  0.1312668E+00
        -11   -1    0    0    0    0  0.00000000000E+00  0.00000000000E+00  0.45593999997E+02  0.45594000000E+02  0.51100000000E-03 0. -1.
         11   -1    0    0    0    0 -0.00000000000E+00 -0.00000000000E+00 -0.45593999997E+02  0.45594000000E+02  0.51100000000E-03 0.  1.
    9900012    2    1    2    0    0 -0.39791387477E+02 -0.37021838414E+01  0.16928160756E+02  0.47787270638E+02  0.19999998147E+02 0.  0.
        -12    1    1    2    0    0  0.39791387477E+02  0.37021838414E+01 -0.16928160756E+02  0.43400729362E+02  0.00000000000E+00 0.  1.
         11    1    3    3    0    0 -0.40924836402E+01  0.39662883770E+01 -0.18969580233E+01  0.60065227743E+01  0.51100000000E-03 0.  1.
        -11    1    3    3    0    0 -0.13840463164E+02 -0.63392880334E+01  0.97382344530E+01  0.18071474868E+02  0.51100000000E-03 0. -1.
         12    1    3    3    0    0 -0.21858440673E+02 -0.13291841850E+01  0.90868843263E+01  0.23709272996E+02  0.00000000000E+00 0. -1.
</event>
<event>
 7    1  0.2655656E-009  0.4778724E+02  0.7816164E-02  0.1312668E+00
        -11   -1    0    0    0    0  0.00000000000E+00  0.00000000000E+00  0.45593999997E+02  0.45594000000E+02  0.51100000000E-03 0. -1.
         11   -1    0    0    0    0 -0.00000000000E+00 -0.00000000000E+00 -0.45593999997E+02  0.45594000000E+02  0.51100000000E-03 0.  1.
    9900012    2    1    2    0    0 -0.35816314668E+02 -0.36745296923E+01  0.24234593034E+02  0.47787238897E+02  0.19999853426E+02 0.  0.
        -12    1    1    2    0    0  0.35816314668E+02  0.36745296923E+01 -0.24234593034E+02  0.43400761103E+02  0.00000000000E+00 0.  1.
         11    1    3    3    0    0 -0.13991305905E+02 -0.62981443039E+01  0.29293078489E+01  0.15620630824E+02  0.51100000000E-03 0. -1.
        -11    1    3    3    0    0 -0.41933109740E+00  0.15547786308E+01  0.49536944239E+01  0.52088639709E+01  0.51100000000E-03 0.  1.
         12    1    3    3    0    0 -0.21405677665E+02  0.10688359808E+01  0.16351590761E+02  0.26957744102E+02  0.00000000000E+00 0. -1.
</event>
<event>
 7    1  0.2655656E-009  0.4778727E+02  0.7816164E-02  0.1312668E+00
        -11   -1    0    0    0    0  0.00000000000E+00  0.00000000000E+00  0.45593999997E+02  0.45594000000E+02  0.51100000000E-03 0. -1.
         11   -1    0    0    0    0 -0.00000000000E+00 -0.00000000000E+00 -0.45593999997E+02  0.45594000000E+02  0.51100000000E-03 0.  1.
    9900012    2    1    2    0    0  0.30419591835E+02  0.14962190503E+02 -0.27099897603E+02  0.47787272332E+02  0.20000005868E+02 0.  0.
        -12    1    1    2    0    0 -0.30419591835E+02 -0.14962190503E+02  0.27099897603E+02  0.43400727668E+02  0.00000000000E+00 0.  1.
         11    1    3    3    0    0  0.10754565136E+02 -0.26202395720E+01 -0.51003648757E+01  0.12187700719E+02  0.51100000000E-03 0. -1.
        -11    1    3    3    0    0  0.81845547498E+00  0.53137718633E+01 -0.56283047212E+01  0.77835631349E+01  0.51100000000E-03 0.  1.
         12    1    3    3    0    0  0.18846571224E+02  0.12268658212E+02 -0.16371228006E+02  0.27816008478E+02  0.00000000000E+00 0. -1.
</event>
<event>
 7    1  0.2655656E-009  0.4778727E+02  0.7816164E-02  0.1312668E+00
        -11   -1    0    0    0    0  0.00000000000E+00  0.00000000000E+00  0.45593999997E+02  0.45594000000E+02  0.51100000000E-03 0.  1.
         11   -1    0    0    0    0 -0.00000000000E+00 -0.00000000000E+00 -0.45593999997E+02  0.45594000000E+02  0.51100000000E-03 0. -1.
    9900012    2    1    2    0    0  0.15828447372E+02  0.15619758308E+02 -0.37270724356E+02  0.47787268557E+02  0.19999988657E+02 0.  0.
        -12    1    1    2    0    0 -0.15828447372E+02 -0.15619758308E+02  0.37270724356E+02  0.43400731443E+02  0.00000000000E+00 0.  1.
         11    1    3    3    0    0  0.84257594516E+01  0.14014460120E+02 -0.22439745973E+02  0.27765819173E+02  0.51100000000E-03 0. -1.
        -11    1    3    3    0    0  0.93037314341E+01 -0.15766530978E+00 -0.66435804835E+01  0.11433347666E+02  0.51100000000E-03 0.  1.
        -12    1    3    3    0    0 -0.19010435139E+01  0.17629634977E+01 -0.81873978998E+01  0.85881017173E+01  0.00000000000E+00 0.  1.
</event>
<event>
 7    1  0.2655656E-009  0.4778727E+02  0.7816164E-02  0.1312668E+00
        -11   -1    0    0    0    0  0.00000000000E+00  0.00000000000E+00  0.45593999997E+02  0.45594000000E+02  0.51100000000E-03 0.  1.
         11   -1    0    0    0    0 -0.00000000000E+00 -0.00000000000E+00 -0.45593999997E+02  0.45594000000E+02  0.51100000000E-03 0. -1.
    9900012    2    1    2    0    0  0.36215350285E+02  0.60353114115E+01  0.23144038074E+02  0.47787273295E+02  0.20000010262E+02 0.  0.
        -12    1    1    2    0    0 -0.36215350285E+02 -0.60353114115E+01 -0.23144038074E+02  0.43400726705E+02  0.00000000000E+00 0.  1.
         11    1    3    3    0    0  0.12518022808E+02  0.18106248168E+01  0.97183771627E+01  0.15950740177E+02  0.51100000000E-03 0. -1.
        -11    1    3    3    0    0  0.95081724832E+01  0.54861692763E+01  0.13741585559E+02  0.17587909803E+02  0.51100000000E-03 0.  1.
        -12    1    3    3    0    0  0.14189154994E+02 -0.12614826816E+01 -0.31592464715E+00  0.14248623316E+02  0.00000000000E+00 0.  1.
</event>
<event>
 7    1  0.2655656E-009  0.4778727E+02  0.7816164E-02  0.1312668E+00
        -11   -1    0    0    0    0  0.00000000000E+00  0.00000000000E+00  0.45593999997E+02  0.45594000000E+02  0.51100000000E-03 0. -1.
         11   -1    0    0    0    0 -0.00000000000E+00 -0.00000000000E+00 -0.45593999997E+02  0.45594000000E+02  0.51100000000E-03 0.  1.
    9900012    2    1    2    0    0  0.41697374059E+02  0.40918912646E+01  0.11322928116E+02  0.47787270989E+02  0.19999999748E+02 0.  0.
        -12    1    1    2    0    0 -0.41697374059E+02 -0.40918912646E+01 -0.11322928116E+02  0.43400729011E+02  0.00000000000E+00 0.  1.
         11    1    3    3    0    0  0.40505644333E+02  0.74399278026E+01  0.10773706354E+02  0.42569149597E+02  0.51100000000E-03 0. -1.
        -11    1    3    3    0    0 -0.11388706392E+01 -0.14210830711E+00 -0.25045499700E+00  0.11747123352E+01  0.51100000000E-03 0.  1.
         12    1    3    3    0    0  0.23306003650E+01 -0.32059282308E+01  0.79967675903E+00  0.40434090569E+01  0.00000000000E+00 0. -1.
</event>
<event>
 7    1  0.2655656E-009  0.4778727E+02  0.7816164E-02  0.1312668E+00
        -11   -1    0    0    0    0  0.00000000000E+00  0.00000000000E+00  0.45593999997E+02  0.45594000000E+02  0.51100000000E-03 0.  1.
         11   -1    0    0    0    0 -0.00000000000E+00 -0.00000000000E+00 -0.45593999997E+02  0.45594000000E+02  0.51100000000E-03 0. -1.
    9900012    2    1    2    0    0  0.20711113490E+02  0.33492186960E+02 -0.18246833419E+02  0.47787265684E+02  0.19999975559E+02 0.  0.
        -12    1    1    2    0    0 -0.20711113490E+02 -0.33492186960E+02  0.18246833419E+02  0.43400734316E+02  0.00000000000E+00 0.  1.
         11    1    3    3    0    0  0.10119671268E+02  0.21614708386E+02 -0.17163540410E+02  0.29397116948E+02  0.51100000000E-03 0. -1.
        -11    1    3    3    0    0  0.75933039760E+00  0.24276042626E+01  0.32077796124E+01  0.40938606976E+01  0.51100000000E-03 0.  1.
        -12    1    3    3    0    0  0.98321118243E+01  0.94498743118E+01 -0.42910726211E+01  0.14296288038E+02  0.00000000000E+00 0.  1.
</event>
<event>
 7    1  0.2655656E-009  0.4778727E+02  0.7816164E-02  0.1312668E+00
        -11   -1    0    0    0    0  0.00000000000E+00  0.00000000000E+00  0.45593999997E+02  0.45594000000E+02  0.51100000000E-03 0. -1.
         11   -1    0    0    0    0 -0.00000000000E+00 -0.00000000000E+00 -0.45593999997E+02  0.45594000000E+02  0.51100000000E-03 0.  1.
    9900012    2    1    2    0    0  0.39524301241E+02  0.17924190080E+02  0.42037672131E+00  0.47787266190E+02  0.19999977868E+02 0.  0.
        -12    1    1    2    0    0 -0.39524301241E+02 -0.17924190080E+02 -0.42037672131E+00  0.43400733810E+02  0.00000000000E+00 0.  1.
         11    1    3    3    0    0  0.19446651976E+02  0.40800170041E+01 -0.41657223457E+00  0.19874414318E+02  0.51100000000E-03 0. -1.
        -11    1    3    3    0    0  0.76296852647E+01  0.13066767727E+02 -0.15634876441E+01  0.15211739215E+02  0.51100000000E-03 0.  1.
        -12    1    3    3    0    0  0.12447964001E+02  0.77740534872E+00  0.24004366000E+01  0.12701112657E+02  0.00000000000E+00 0.  1.
</event>
<event>
 7    1  0.2655656E-009  0.4778727E+02  0.7816164E-02  0.1312668E+00
        -11   -1    0    0    0    0  0.00000000000E+00  0.00000000000E+00  0.45593999997E+02  0.45594000000E+02  0.51100000000E-03 0. -1.
         11   -1    0    0    0    0 -0.00000000000E+00 -0.00000000000E+00 -0.45593999997E+02  0.45594000000E+02  0.51100000000E-03 0.  1.
    9900012    2    1    2    0    0  0.11136507428E+02 -0.38699978424E+02  0.16183733333E+02  0.47787270141E+02  0.19999995879E+02 0.  0.
        -12    1    1    2    0    0 -0.11136507428E+02  0.38699978424E+02 -0.16183733333E+02  0.43400729859E+02  0.00000000000E+00 0.  1.
         11    1    3    3    0    0  0.10801114940E+02 -0.25056634679E+02  0.49282604343E+01  0.27727004464E+02  0.51100000000E-03 0. -1.
        -11    1    3    3    0    0 -0.43532236415E+01 -0.52682124260E+01  0.61236675099E+01  0.91762695183E+01  0.51100000000E-03 0.  1.
        -12    1    3    3    0    0  0.46886161297E+01 -0.83751313193E+01  0.51318053891E+01  0.10883996159E+02  0.00000000000E+00 0.  1.
</event>
<event>
 7    1  0.2655656E-009  0.4778727E+02  0.7816164E-02  0.1312668E+00
        -11   -1    0    0    0    0  0.00000000000E+00  0.00000000000E+00  0.45593999997E+02  0.45594000000E+02  0.51100000000E-03 0.  1.
         11   -1    0    0    0    0 -0.00000000000E+00 -0.00000000000E+00 -0.45593999997E+02  0.45594000000E+02  0.51100000000E-03 0. -1.
    9900012    2    1    2    0    0 -0.32628741892E+02  0.37170838552E+01 -0.28375549891E+02  0.47787270266E+02  0.19999996450E+02 0.  0.
        -12    1    1    2    0    0  0.32628741892E+02 -0.37170838552E+01  0.28375549891E+02  0.43400729734E+02  0.00000000000E+00 0.  1.
         11    1    3    3    0    0 -0.68112927740E+01  0.83688310963E+01 -0.10755728894E+02  0.15235378153E+02  0.51100000000E-03 0.  1.
        -11    1    3    3    0    0 -0.26191448743E+02 -0.51828997181E+01 -0.16987673375E+02  0.31645465453E+02  0.51100000000E-03 0. -1.
         12    1    3    3    0    0  0.37399962546E+00  0.53115247698E+00 -0.63214762228E+00  0.90642666002E+00  0.00000000000E+00 0. -1.
</event>
<event>
 7    1  0.2655656E-009  0.4778728E+02  0.7816164E-02  0.1312668E+00
        -11   -1    0    0    0    0  0.00000000000E+00  0.00000000000E+00  0.45593999997E+02  0.45594000000E+02  0.51100000000E-03 0.  1.
         11   -1    0    0    0    0 -0.00000000000E+00 -0.00000000000E+00 -0.45593999997E+02  0.45594000000E+02  0.51100000000E-03 0. -1.
    9900012    2    1    2    0    0  0.76595025934E+01 -0.50548296428E+01 -0.42419376423E+02  0.47787276748E+02  0.20000026005E+02 0.  0.
        -12    1    1    2    0    0 -0.76595025934E+01  0.50548296428E+01  0.42419376423E+02  0.43400723252E+02  0.00000000000E+00 0.  1.
         11    1    3    3    0    0  0.35325450933E+00 -0.10391786984E+02 -0.24579123154E+02  0.26687962095E+02  0.51100000000E-03 0. -1.
        -11    1    3    3    0    0  0.83470502533E+01  0.33267940526E+01 -0.14686983040E+02  0.17217673411E+02  0.51100000000E-03 0.  1.
        -12    1    3    3    0    0 -0.10408021692E+01  0.20101632886E+01 -0.31532702283E+01  0.38816412424E+01  0.00000000000E+00 0.  1.
</event>
<event>
 7    1  0.2655656E-009  0.4778727E+02  0.7816164E-02  0.1312668E+00
        -11   -1    0    0    0    0  0.00000000000E+00  0.00000000000E+00  0.45593999997E+02  0.45594000000E+02  0.51100000000E-03 0.  1.
         11   -1    0    0    0    0 -0.00000000000E+00 -0.00000000000E+00 -0.45593999997E+02  0.45594000000E+02  0.51100000000E-03 0. -1.
    9900012    2    1    2    0    0  0.31620051221E+02  0.23668632899E+02 -0.17988652094E+02  0.47787269284E+02  0.19999991976E+02 0.  0.
        -12    1    1    2    0    0 -0.31620051221E+02 -0.23668632899E+02  0.17988652094E+02  0.43400730716E+02  0.00000000000E+00 0.  1.
         11    1    3    3    0    0  0.27397212626E+02  0.16005209416E+02 -0.62907873538E+01  0.32347302730E+02  0.51100000000E-03 0. -1.
        -11    1    3    3    0    0  0.51874860978E+01  0.69365847111E+01 -0.11135493449E+02  0.14107637438E+02  0.51100000000E-03 0.  1.
         12    1    3    3    0    0 -0.96464750310E+00  0.72683877139E+00 -0.56237129110E+00  0.13323291162E+01  0.00000000000E+00 0. -1.
</event>
<event>
 7    1  0.2655656E-009  0.4778728E+02  0.7816164E-02  0.1312668E+00
        -11   -1    0    0    0    0  0.00000000000E+00  0.00000000000E+00  0.45593999997E+02  0.45594000000E+02  0.51100000000E-03 0.  1.
         11   -1    0    0    0    0 -0.00000000000E+00 -0.00000000000E+00 -0.45593999997E+02  0.45594000000E+02  0.51100000000E-03 0. -1.
    9900012    2    1    2    0    0  0.37243340103E+02  0.15200467019E+01 -0.22231627743E+02  0.47787283460E+02  0.20000056609E+02 0.  0.
        -12    1    1    2    0    0 -0.37243340103E+02 -0.15200467019E+01  0.22231627743E+02  0.43400716540E+02  0.00000000000E+00 0.  1.
         11    1    3    3    0    0  0.14869025640E+02  0.25866494826E+01 -0.20023491555E+02  0.25074267554E+02  0.51100000000E-03 0. -1.
        -11    1    3    3    0    0  0.14996149908E+02 -0.20175557814E+01 -0.20729274653E+01  0.15272592181E+02  0.51100000000E-03 0.  1.
         12    1    3    3    0    0  0.73781645548E+01  0.95095300070E+00 -0.13520872267E+00  0.74404237249E+01  0.00000000000E+00 0. -1.
</event>
<event>
 7    1  0.2655656E-009  0.4778725E+02  0.7816164E-02  0.1312668E+00
        -11   -1    0    0    0    0  0.00000000000E+00  0.00000000000E+00  0.45593999997E+02  0.45594000000E+02  0.51100000000E-03 0.  1.
         11   -1    0    0    0    0 -0.00000000000E+00 -0.00000000000E+00 -0.45593999997E+02  0.45594000000E+02  0.51100000000E-03 0. -1.
    9900012    2    1    2    0    0 -0.42985652407E+02 -0.45391773965E+01 -0.39057310516E+01  0.47787249092E+02  0.19999899910E+02 0.  0.
        -12    1    1    2    0    0  0.42985652407E+02  0.45391773965E+01  0.39057310516E+01  0.43400750908E+02  0.00000000000E+00 0.  1.
         11    1    3    3    0    0 -0.16091680340E+02  0.56151734867E+01 -0.17206370703E+01  0.17129884460E+02  0.51100000000E-03 0. -1.
        -11    1    3    3    0    0 -0.35654441050E+01  0.20235888796E+01 -0.13921698504E+01  0.43296005328E+01  0.51100000000E-03 0.  1.
         12    1    3    3    0    0 -0.23328527963E+02 -0.12177939763E+02 -0.79292413086E+00  0.26327764099E+02  0.00000000000E+00 0. -1.
</event>
<event>
 7    1  0.2655656E-009  0.4778727E+02  0.7816164E-02  0.1312668E+00
        -11   -1    0    0    0    0  0.00000000000E+00  0.00000000000E+00  0.45593999997E+02  0.45594000000E+02  0.51100000000E-03 0.  1.
         11   -1    0    0    0    0 -0.00000000000E+00 -0.00000000000E+00 -0.45593999997E+02  0.45594000000E+02  0.51100000000E-03 0. -1.
    9900012    2    1    2    0    0  0.38837701652E+02 -0.62362712959E+01 -0.18340256706E+02  0.47787272295E+02  0.20000005701E+02 0.  0.
        -12    1    1    2    0    0 -0.38837701652E+02  0.62362712959E+01  0.18340256706E+02  0.43400727705E+02  0.00000000000E+00 0.  1.
         11    1    3    3    0    0  0.30388336058E+02 -0.81675382928E+01 -0.13394519420E+02  0.34199017543E+02  0.51100000000E-03 0. -1.
        -11    1    3    3    0    0  0.17642209738E+01  0.20937856567E+01 -0.62062599501E+01  0.67833676629E+01  0.51100000000E-03 0.  1.
         12    1    3    3    0    0  0.66851446198E+01 -0.16251865976E+00  0.12605226643E+01  0.68048870887E+01  0.00000000000E+00 0. -1.
</event>
<event>
 7    1  0.2655656E-009  0.4778727E+02  0.7816164E-02  0.1312668E+00
        -11   -1    0    0    0    0  0.00000000000E+00  0.00000000000E+00  0.45593999997E+02  0.45594000000E+02  0.51100000000E-03 0.  1.
         11   -1    0    0    0    0 -0.00000000000E+00 -0.00000000000E+00 -0.45593999997E+02  0.45594000000E+02  0.51100000000E-03 0. -1.
    9900012    2    1    2    0    0  0.26322817017E+02  0.28417929987E+02 -0.19574315146E+02  0.47787271274E+02  0.20000001049E+02 0.  0.
        -12    1    1    2    0    0 -0.26322817017E+02 -0.28417929987E+02  0.19574315146E+02  0.43400728726E+02  0.00000000000E+00 0.  1.
         11    1    3    3    0    0  0.18599659295E+02  0.21101664479E+02 -0.19287215807E+02  0.34106073704E+02  0.51100000000E-03 0. -1.
        -11    1    3    3    0    0  0.71915904885E+01  0.89474384226E+01  0.10197283067E+01  0.11524559608E+02  0.51100000000E-03 0.  1.
         12    1    3    3    0    0  0.53156723339E+00 -0.16311729149E+01 -0.13068276465E+01  0.21566379621E+01  0.00000000000E+00 0. -1.
</event>
<event>
 7    1  0.2655656E-009  0.4778727E+02  0.7816164E-02  0.1312668E+00
        -11   -1    0    0    0    0  0.00000000000E+00  0.00000000000E+00  0.45593999997E+02  0.45594000000E+02  0.51100000000E-03 0.  1.
         11   -1    0    0    0    0 -0.00000000000E+00 -0.00000000000E+00 -0.45593999997E+02  0.45594000000E+02  0.51100000000E-03 0. -1.
    9900012    2    1    2    0    0  0.11329453431E+02  0.30172881024E+02 -0.29066544344E+02  0.47787271153E+02  0.20000000496E+02 0.  0.
        -12    1    1    2    0    0 -0.11329453431E+02 -0.30172881024E+02  0.29066544344E+02  0.43400728847E+02  0.00000000000E+00 0.  1.
         11    1    3    3    0    0  0.91783766734E+01  0.18480779416E+02 -0.21027969569E+02  0.29461115231E+02  0.51100000000E-03 0. -1.
        -11    1    3    3    0    0 -0.44805888859E+01  0.60022320716E+01 -0.52759864599E+01  0.91617956751E+01  0.51100000000E-03 0.  1.
        -12    1    3    3    0    0  0.66316656432E+01  0.56898695364E+01 -0.27625883146E+01  0.91643602472E+01  0.00000000000E+00 0.  1.
</event>
<event>
 7    1  0.2655656E-009  0.4778727E+02  0.7816164E-02  0.1312668E+00
        -11   -1    0    0    0    0  0.00000000000E+00  0.00000000000E+00  0.45593999997E+02  0.45594000000E+02  0.51100000000E-03 0. -1.
         11   -1    0    0    0    0 -0.00000000000E+00 -0.00000000000E+00 -0.45593999997E+02  0.45594000000E+02  0.51100000000E-03 0.  1.
    9900012    2    1    2    0    0  0.35404402667E+02  0.22909835151E+02  0.10261147803E+02  0.47787269256E+02  0.19999991845E+02 0.  0.
        -12    1    1    2    0    0 -0.35404402667E+02 -0.22909835151E+02 -0.10261147803E+02  0.43400730744E+02  0.00000000000E+00 0.  1.
         11    1    3    3    0    0  0.20010546207E+02  0.84492667222E+01  0.10665695979E+02  0.24198535878E+02  0.51100000000E-03 0. -1.
        -11    1    3    3    0    0  0.30786195519E+01  0.22055219807E+01 -0.43550737941E+01  0.57713857579E+01  0.51100000000E-03 0.  1.
        -12    1    3    3    0    0  0.12315236908E+02  0.12255046448E+02  0.39505256183E+01  0.17817347620E+02  0.00000000000E+00 0.  1.
</event>
<event>
 7    1  0.2655656E-009  0.4778727E+02  0.7816164E-02  0.1312668E+00
        -11   -1    0    0    0    0  0.00000000000E+00  0.00000000000E+00  0.45593999997E+02  0.45594000000E+02  0.51100000000E-03 0. -1.
         11   -1    0    0    0    0 -0.00000000000E+00 -0.00000000000E+00 -0.45593999997E+02  0.45594000000E+02  0.51100000000E-03 0.  1.
    9900012    2    1    2    0    0 -0.35885584585E+02 -0.19881313485E+02  0.14162680157E+02  0.47787270558E+02  0.19999997781E+02 0.  0.
        -12    1    1    2    0    0  0.35885584585E+02  0.19881313485E+02 -0.14162680157E+02  0.43400729442E+02  0.00000000000E+00 0.  1.
         11    1    3    3    0    0 -0.23085329137E+02 -0.15366346920E+02  0.13662453834E+02  0.30914716302E+02  0.51100000000E-03 0. -1.
        -11    1    3    3    0    0 -0.21301964877E+01  0.30155378797E+01 -0.69959830697E+00  0.37577445140E+01  0.51100000000E-03 0.  1.
        -12    1    3    3    0    0 -0.10670058960E+02 -0.75305044455E+01  0.11998246298E+01  0.13114809742E+02  0.00000000000E+00 0.  1.
</event>
<event>
 7    1  0.2655656E-009  0.4778727E+02  0.7816164E-02  0.1312668E+00
        -11   -1    0    0    0    0  0.00000000000E+00  0.00000000000E+00  0.45593999997E+02  0.45594000000E+02  0.51100000000E-03 0.  1.
         11   -1    0    0    0    0 -0.00000000000E+00 -0.00000000000E+00 -0.45593999997E+02  0.45594000000E+02  0.51100000000E-03 0. -1.
    9900012    2    1    2    0    0 -0.32338237118E+02 -0.28696204338E+02 -0.37933728386E+01  0.47787269582E+02  0.19999993331E+02 0.  0.
        -12    1    1    2    0    0  0.32338237118E+02  0.28696204338E+02  0.37933728386E+01  0.43400730418E+02  0.00000000000E+00 0.  1.
         11    1    3    3    0    0 -0.10702272835E+02 -0.60406907758E+01 -0.71658938598E+01  0.14225984112E+02  0.51100000000E-03 0. -1.
        -11    1    3    3    0    0 -0.25904003683E+01 -0.94505919219E+01  0.34407476122E+01  0.10385692376E+02  0.51100000000E-03 0.  1.
         12    1    3    3    0    0 -0.19045563915E+02 -0.13204921641E+02 -0.68226591049E-01  0.23175593093E+02  0.00000000000E+00 0. -1.
</event>
<event>
 7    1  0.2655656E-009  0.4778727E+02  0.7816164E-02  0.1312668E+00
        -11   -1    0    0    0    0  0.00000000000E+00  0.00000000000E+00  0.45593999997E+02  0.45594000000E+02  0.51100000000E-03 0.  1.
         11   -1    0    0    0    0 -0.00000000000E+00 -0.00000000000E+00 -0.45593999997E+02  0.45594000000E+02  0.51100000000E-03 0. -1.
    9900012    2    1    2    0    0 -0.12602764127E+02  0.22664691791E+02 -0.34800940776E+02  0.47787269632E+02  0.19999993560E+02 0.  0.
        -12    1    1    2    0    0  0.12602764127E+02 -0.22664691791E+02  0.34800940776E+02  0.43400730368E+02  0.00000000000E+00 0.  1.
         11    1    3    3    0    0 -0.14223905944E+00  0.53809804809E+01 -0.76063649115E+01  0.93183673631E+01  0.51100000000E-03 0. -1.
        -11    1    3    3    0    0  0.25531029094E+01 -0.15328855083E+01 -0.44263320142E+01  0.53348371867E+01  0.51100000000E-03 0.  1.
        -12    1    3    3    0    0 -0.15013627977E+02  0.18816596819E+02 -0.22768243850E+02  0.33134065082E+02  0.00000000000E+00 0.  1.
</event>
<event>
 7    1  0.2655656E-009  0.4778727E+02  0.7816164E-02  0.1312668E+00
        -11   -1    0    0    0    0  0.00000000000E+00  0.00000000000E+00  0.45593999997E+02  0.45594000000E+02  0.51100000000E-03 0.  1.
         11   -1    0    0    0    0 -0.00000000000E+00 -0.00000000000E+00 -0.45593999997E+02  0.45594000000E+02  0.51100000000E-03 0. -1.
    9900012    2    1    2    0    0 -0.19784146525E+02 -0.15759949355E+02 -0.35268039830E+02  0.47787273153E+02  0.20000009616E+02 0.  0.
        -12    1    1    2    0    0  0.19784146525E+02  0.15759949355E+02  0.35268039830E+02  0.43400726847E+02  0.00000000000E+00 0.  1.
         11    1    3    3    0    0 -0.82318919272E+01  0.23124660925E+01 -0.17127550716E+02  0.19143263513E+02  0.51100000000E-03 0. -1.
        -11    1    3    3    0    0 -0.11993686414E+02 -0.17910005389E+02 -0.18142147873E+02  0.28173646135E+02  0.51100000000E-03 0.  1.
        -12    1    3    3    0    0  0.44143181704E+00 -0.16241005892E+00  0.16587588555E-02  0.47036350604E+00  0.00000000000E+00 0.  1.
</event>
<event>
 7    1  0.2655656E-009  0.4778727E+02  0.7816164E-02  0.1312668E+00
        -11   -1    0    0    0    0  0.00000000000E+00  0.00000000000E+00  0.45593999997E+02  0.45594000000E+02  0.51100000000E-03 0.  1.
         11   -1    0    0    0    0 -0.00000000000E+00 -0.00000000000E+00 -0.45593999997E+02  0.45594000000E+02  0.51100000000E-03 0. -1.
    9900012    2    1    2    0    0 -0.24682509138E+02 -0.10591633264E+02 -0.34091263935E+02  0.47787271559E+02  0.20000002345E+02 0.  0.
        -12    1    1    2    0    0  0.24682509138E+02  0.10591633264E+02  0.34091263935E+02  0.43400728441E+02  0.00000000000E+00 0.  1.
         11    1    3    3    0    0 -0.14850751982E+02 -0.93714186302E+01 -0.14421381526E+02  0.22723216475E+02  0.51100000000E-03 0. -1.
        -11    1    3    3    0    0 -0.51154867088E+01  0.48911051454E+01 -0.56370283195E+01  0.90480496433E+01  0.51100000000E-03 0.  1.
        -12    1    3    3    0    0 -0.47162704468E+01 -0.61113197797E+01 -0.14032854090E+02  0.16016005441E+02  0.00000000000E+00 0.  1.
</event>
<event>
 7    1  0.2655656E-009  0.4778727E+02  0.7816164E-02  0.1312668E+00
        -11   -1    0    0    0    0  0.00000000000E+00  0.00000000000E+00  0.45593999997E+02  0.45594000000E+02  0.51100000000E-03 0. -1.
         11   -1    0    0    0    0 -0.00000000000E+00 -0.00000000000E+00 -0.45593999997E+02  0.45594000000E+02  0.51100000000E-03 0.  1.
    9900012    2    1    2    0    0 -0.21774204656E+02 -0.29749056434E+02  0.22901989330E+02  0.47787268873E+02  0.19999990097E+02 0.  0.
        -12    1    1    2    0    0  0.21774204656E+02  0.29749056434E+02 -0.22901989330E+02  0.43400731127E+02  0.00000000000E+00 0.  1.
         11    1    3    3    0    0 -0.15841064077E+02 -0.15551348701E+02  0.79711288655E+01  0.23586493024E+02  0.51100000000E-03 0. -1.
        -11    1    3    3    0    0  0.23105712945E+01 -0.87146112262E+01  0.85282532566E+01  0.12410249490E+02  0.51100000000E-03 0.  1.
        -12    1    3    3    0    0 -0.82437118735E+01 -0.54830965070E+01  0.64026072077E+01  0.11790526359E+02  0.00000000000E+00 0.  1.
</event>
<event>
 7    1  0.2655656E-009  0.4778727E+02  0.7816164E-02  0.1312668E+00
        -11   -1    0    0    0    0  0.00000000000E+00  0.00000000000E+00  0.45593999997E+02  0.45594000000E+02  0.51100000000E-03 0.  1.
         11   -1    0    0    0    0 -0.00000000000E+00 -0.00000000000E+00 -0.45593999997E+02  0.45594000000E+02  0.51100000000E-03 0. -1.
    9900012    2    1    2    0    0 -0.23877081300E+02  0.35426067612E+02 -0.76486421894E+01  0.47787274140E+02  0.20000014113E+02 0.  0.
        -12    1    1    2    0    0  0.23877081300E+02 -0.35426067612E+02  0.76486421894E+01  0.43400725860E+02  0.00000000000E+00 0.  1.
         11    1    3    3    0    0 -0.89907795457E+00  0.84160547976E+01  0.37108693914E+01  0.92416920218E+01  0.51100000000E-03 0.  1.
        -11    1    3    3    0    0 -0.22960991754E+02  0.23984331890E+02 -0.12250967149E+02  0.35391263256E+02  0.51100000000E-03 0. -1.
         12    1    3    3    0    0 -0.17011591254E-01  0.30256809249E+01  0.89145556784E+00  0.31543188620E+01  0.00000000000E+00 0. -1.
</event>
<event>
 7    1  0.2655656E-009  0.4778727E+02  0.7816164E-02  0.1312668E+00
        -11   -1    0    0    0    0  0.00000000000E+00  0.00000000000E+00  0.45593999997E+02  0.45594000000E+02  0.51100000000E-03 0. -1.
         11   -1    0    0    0    0 -0.00000000000E+00 -0.00000000000E+00 -0.45593999997E+02  0.45594000000E+02  0.51100000000E-03 0.  1.
    9900012    2    1    2    0    0  0.33155844710E+02 -0.12452661302E+02  0.25084743906E+02  0.47787272025E+02  0.20000004470E+02 0.  0.
        -12    1    1    2    0    0 -0.33155844710E+02  0.12452661302E+02 -0.25084743906E+02  0.43400727975E+02  0.00000000000E+00 0.  1.
         11    1    3    3    0    0  0.30015212108E+02 -0.91704587565E+01  0.17092224621E+02  0.35737297246E+02  0.51100000000E-03 0. -1.
        -11    1    3    3    0    0 -0.15249155312E-01  0.19550908992E+00 -0.14716836999E+01  0.14846917238E+01  0.51100000000E-03 0.  1.
         12    1    3    3    0    0  0.31558817572E+01 -0.34777116358E+01  0.94642029851E+01  0.10565283055E+02  0.00000000000E+00 0. -1.
</event>
<event>
 7    1  0.2655656E-009  0.4778727E+02  0.7816164E-02  0.1312668E+00
        -11   -1    0    0    0    0  0.00000000000E+00  0.00000000000E+00  0.45593999997E+02  0.45594000000E+02  0.51100000000E-03 0.  1.
         11   -1    0    0    0    0 -0.00000000000E+00 -0.00000000000E+00 -0.45593999997E+02  0.45594000000E+02  0.51100000000E-03 0. -1.
    9900012    2    1    2    0    0  0.14937637975E+02  0.72261968558E+01 -0.40103268818E+02  0.47787272827E+02  0.20000008127E+02 0.  0.
        -12    1    1    2    0    0 -0.14937637975E+02 -0.72261968558E+01  0.40103268818E+02  0.43400727173E+02  0.00000000000E+00 0.  1.
         11    1    3    3    0    0  0.11877203054E+02  0.88114833431E+00 -0.24168556476E+02  0.26943709788E+02  0.51100000000E-03 0. -1.
        -11    1    3    3    0    0 -0.23701513198E+01  0.96708600686E-01  0.51572643483E+00  0.24275386401E+01  0.51100000000E-03 0.  1.
        -12    1    3    3    0    0  0.54305862406E+01  0.62483399208E+01 -0.16450438777E+02  0.18416024398E+02  0.00000000000E+00 0.  1.
</event>
<event>
 7    1  0.2655656E-009  0.4778727E+02  0.7816164E-02  0.1312668E+00
        -11   -1    0    0    0    0  0.00000000000E+00  0.00000000000E+00  0.45593999997E+02  0.45594000000E+02  0.51100000000E-03 0.  1.
         11   -1    0    0    0    0 -0.00000000000E+00 -0.00000000000E+00 -0.45593999997E+02  0.45594000000E+02  0.51100000000E-03 0. -1.
    9900012    2    1    2    0    0  0.50166978426E+01 -0.28942126245E+02 -0.31950109985E+02  0.47787268936E+02  0.19999990387E+02 0.  0.
        -12    1    1    2    0    0 -0.50166978426E+01  0.28942126245E+02  0.31950109985E+02  0.43400731064E+02  0.00000000000E+00 0.  1.
         11    1    3    3    0    0  0.22436947015E+01 -0.30261806233E+01  0.16820665275E+01  0.41256857784E+01  0.51100000000E-03 0. -1.
        -11    1    3    3    0    0  0.21942117535E+01 -0.17691662839E+01 -0.85356623853E+00  0.29450110601E+01  0.51100000000E-03 0.  1.
         12    1    3    3    0    0  0.57879138760E+00 -0.24146779338E+02 -0.32778610274E+02  0.40716572097E+02  0.00000000000E+00 0. -1.
</event>
<event>
 7    1  0.2655656E-009  0.4778727E+02  0.7816164E-02  0.1312668E+00
        -11   -1    0    0    0    0  0.00000000000E+00  0.00000000000E+00  0.45593999997E+02  0.45594000000E+02  0.51100000000E-03 0.  1.
         11   -1    0    0    0    0 -0.00000000000E+00 -0.00000000000E+00 -0.45593999997E+02  0.45594000000E+02  0.51100000000E-03 0. -1.
    9900012    2    1    2    0    0  0.19094128648E+02 -0.17617408513E+02 -0.34765852797E+02  0.47787270142E+02  0.19999995885E+02 0.  0.
        -12    1    1    2    0    0 -0.19094128648E+02  0.17617408513E+02  0.34765852797E+02  0.43400729858E+02  0.00000000000E+00 0.  1.
         11    1    3    3    0    0  0.16037366940E+02 -0.88799807244E+01 -0.11039565012E+02  0.21399139982E+02  0.51100000000E-03 0. -1.
        -11    1    3    3    0    0 -0.15262385588E+01 -0.60119357052E+01 -0.12087537822E+02  0.13586071762E+02  0.51100000000E-03 0.  1.
         12    1    3    3    0    0  0.45830002668E+01 -0.27254920830E+01 -0.11638749963E+02  0.12802058398E+02  0.00000000000E+00 0. -1.
</event>
<event>
 7    1  0.2655656E-009  0.4778727E+02  0.7816164E-02  0.1312668E+00
        -11   -1    0    0    0    0  0.00000000000E+00  0.00000000000E+00  0.45593999997E+02  0.45594000000E+02  0.51100000000E-03 0. -1.
         11   -1    0    0    0    0 -0.00000000000E+00 -0.00000000000E+00 -0.45593999997E+02  0.45594000000E+02  0.51100000000E-03 0.  1.
    9900012    2    1    2    0    0 -0.23212819928E+02 -0.24260919537E+02  0.27499019441E+02  0.47787270789E+02  0.19999998838E+02 0.  0.
        -12    1    1    2    0    0  0.23212819928E+02  0.24260919537E+02 -0.27499019441E+02  0.43400729211E+02  0.00000000000E+00 0.  1.
         11    1    3    3    0    0 -0.21336492211E+02 -0.18439214878E+02  0.13124955658E+02  0.31104903254E+02  0.51100000000E-03 0. -1.
        -11    1    3    3    0    0 -0.95143729923E+00 -0.63025265652E+01  0.80250102979E+01  0.10248310328E+02  0.51100000000E-03 0.  1.
         12    1    3    3    0    0 -0.92489041790E+00  0.48082190536E+00  0.63490534854E+01  0.64340572075E+01  0.00000000000E+00 0. -1.
</event>
<event>
 7    1  0.2655656E-009  0.4778727E+02  0.7816164E-02  0.1312668E+00
        -11   -1    0    0    0    0  0.00000000000E+00  0.00000000000E+00  0.45593999997E+02  0.45594000000E+02  0.51100000000E-03 0. -1.
         11   -1    0    0    0    0 -0.00000000000E+00 -0.00000000000E+00 -0.45593999997E+02  0.45594000000E+02  0.51100000000E-03 0.  1.
    9900012    2    1    2    0    0 -0.17052699324E+02  0.30956460948E+02  0.25189808905E+02  0.47787268424E+02  0.19999988053E+02 0.  0.
        -12    1    1    2    0    0  0.17052699324E+02 -0.30956460948E+02 -0.25189808905E+02  0.43400731576E+02  0.00000000000E+00 0.  1.
         11    1    3    3    0    0 -0.13674880393E+02  0.23244557285E+02  0.12987161729E+02  0.29932894400E+02  0.51100000000E-03 0. -1.
        -11    1    3    3    0    0  0.37211749995E+00  0.63422679775E+01  0.12318660445E+02  0.13860455619E+02  0.51100000000E-03 0.  1.
        -12    1    3    3    0    0 -0.37499364309E+01  0.13696356850E+01 -0.11601326926E+00  0.39939184048E+01  0.00000000000E+00 0.  1.
</event>
<event>
 7    1  0.2655656E-009  0.4778727E+02  0.7816164E-02  0.1312668E+00
        -11   -1    0    0    0    0  0.00000000000E+00  0.00000000000E+00  0.45593999997E+02  0.45594000000E+02  0.51100000000E-03 0.  1.
         11   -1    0    0    0    0 -0.00000000000E+00 -0.00000000000E+00 -0.45593999997E+02  0.45594000000E+02  0.51100000000E-03 0. -1.
    9900012    2    1    2    0    0 -0.34415213144E+02 -0.12717409826E+02 -0.23183699290E+02  0.47787270500E+02  0.19999997516E+02 0.  0.
        -12    1    1    2    0    0  0.34415213144E+02  0.12717409826E+02  0.23183699290E+02  0.43400729500E+02  0.00000000000E+00 0.  1.
         11    1    3    3    0    0 -0.16343166799E+02 -0.90173354645E+01 -0.17421022232E+02  0.25532400117E+02  0.51100000000E-03 0. -1.
        -11    1    3    3    0    0 -0.19278297178E+02 -0.34857840324E+01 -0.38226172312E+01  0.19960356589E+02  0.51100000000E-03 0.  1.
        -12    1    3    3    0    0  0.12062508330E+01 -0.21429032926E+00 -0.19400598265E+01  0.22945137933E+01  0.00000000000E+00 0.  1.
</event>
<event>
 7    1  0.2655656E-009  0.4778726E+02  0.7816164E-02  0.1312668E+00
        -11   -1    0    0    0    0  0.00000000000E+00  0.00000000000E+00  0.45593999997E+02  0.45594000000E+02  0.51100000000E-03 0.  1.
         11   -1    0    0    0    0 -0.00000000000E+00 -0.00000000000E+00 -0.45593999997E+02  0.45594000000E+02  0.51100000000E-03 0. -1.
    9900012    2    1    2    0    0 -0.24665424785E+02  0.34013132902E+02 -0.10878786544E+02  0.47787258228E+02  0.19999941565E+02 0.  0.
        -12    1    1    2    0    0  0.24665424785E+02 -0.34013132902E+02  0.10878786544E+02  0.43400741772E+02  0.00000000000E+00 0.  1.
         11    1    3    3    0    0 -0.37810332215E+01  0.16188674900E+02 -0.10022881764E+02  0.19412046938E+02  0.51100000000E-03 0. -1.
        -11    1    3    3    0    0 -0.19541886805E+02  0.17786284307E+02  0.55134113275E+00  0.26429930508E+02  0.51100000000E-03 0.  1.
         12    1    3    3    0    0 -0.13425047594E+01  0.38173695331E-01 -0.14072459134E+01  0.19452807820E+01  0.00000000000E+00 0. -1.
</event>
<event>
 7    1  0.2655656E-009  0.4778728E+02  0.7816164E-02  0.1312668E+00
        -11   -1    0    0    0    0  0.00000000000E+00  0.00000000000E+00  0.45593999997E+02  0.45594000000E+02  0.51100000000E-03 0. -1.
         11   -1    0    0    0    0 -0.00000000000E+00 -0.00000000000E+00 -0.45593999997E+02  0.45594000000E+02  0.51100000000E-03 0.  1.
    9900012    2    1    2    0    0 -0.14454144621E+02  0.40227259360E+02  0.75145177923E+01  0.47787278002E+02  0.20000031722E+02 0.  0.
        -12    1    1    2    0    0  0.14454144621E+02 -0.40227259360E+02 -0.75145177923E+01  0.43400721998E+02  0.00000000000E+00 0.  1.
         11    1    3    3    0    0  0.33178120429E+01  0.94286055552E+01  0.38848340815E+01  0.10723731420E+02  0.51100000000E-03 0.  1.
        -11    1    3    3    0    0 -0.10550609181E+02  0.24675426705E+02  0.55463935092E+01  0.27403549376E+02  0.51100000000E-03 0. -1.
         12    1    3    3    0    0 -0.72213474821E+01  0.61232270994E+01 -0.19167097984E+01  0.96599972060E+01  0.00000000000E+00 0. -1.
</event>
<event>
 7    1  0.2655656E-009  0.4778727E+02  0.7816164E-02  0.1312668E+00
        -11   -1    0    0    0    0  0.00000000000E+00  0.00000000000E+00  0.45593999997E+02  0.45594000000E+02  0.51100000000E-03 0.  1.
         11   -1    0    0    0    0 -0.00000000000E+00 -0.00000000000E+00 -0.45593999997E+02  0.45594000000E+02  0.51100000000E-03 0. -1.
    9900012    2    1    2    0    0 -0.72672725121E+01 -0.37205245480E+02 -0.21132432503E+02  0.47787271383E+02  0.20000001546E+02 0.  0.
        -12    1    1    2    0    0  0.72672725121E+01  0.37205245480E+02  0.21132432503E+02  0.43400728617E+02  0.00000000000E+00 0.  1.
         11    1    3    3    0    0  0.17792861858E+01 -0.30105402744E+02 -0.10136993038E+02  0.31816029951E+02  0.51100000000E-03 0. -1.
        -11    1    3    3    0    0 -0.55696934605E+01 -0.43341527008E+01 -0.76625507002E+01  0.10417343633E+02  0.51100000000E-03 0.  1.
         12    1    3    3    0    0 -0.34768652374E+01 -0.27656900345E+01 -0.33328887649E+01  0.55538977993E+01  0.00000000000E+00 0. -1.
</event>
<event>
 7    1  0.2655656E-009  0.4778727E+02  0.7816164E-02  0.1312668E+00
        -11   -1    0    0    0    0  0.00000000000E+00  0.00000000000E+00  0.45593999997E+02  0.45594000000E+02  0.51100000000E-03 0.  1.
         11   -1    0    0    0    0 -0.00000000000E+00 -0.00000000000E+00 -0.45593999997E+02  0.45594000000E+02  0.51100000000E-03 0. -1.
    9900012    2    1    2    0    0  0.24155573433E+01  0.20388950233E+02 -0.38237146571E+02  0.47787267440E+02  0.19999983565E+02 0.  0.
        -12    1    1    2    0    0 -0.24155573433E+01 -0.20388950233E+02  0.38237146571E+02  0.43400732560E+02  0.00000000000E+00 0.  1.
         11    1    3    3    0    0 -0.45287793408E+01  0.13892318906E+01 -0.97176040468E+01  0.10810718581E+02  0.51100000000E-03 0.  1.
        -11    1    3    3    0    0  0.51318138125E+01  0.18167836377E+02 -0.29283029884E+02  0.34841091130E+02  0.51100000000E-03 0. -1.
        -12    1    3    3    0    0  0.18125228715E+01  0.83188196536E+00  0.76348736022E+00  0.21354577292E+01  0.00000000000E+00 0.  1.
</event>
<event>
 7    1  0.2655656E-009  0.4778730E+02  0.7816164E-02  0.1312668E+00
        -11   -1    0    0    0    0  0.00000000000E+00  0.00000000000E+00  0.45593999997E+02  0.45594000000E+02  0.51100000000E-03 0.  1.
         11   -1    0    0    0    0 -0.00000000000E+00 -0.00000000000E+00 -0.45593999997E+02  0.45594000000E+02  0.51100000000E-03 0. -1.
    9900012    2    1    2    0    0 -0.37300101312E+02 -0.37816048402E+00 -0.22185139096E+02  0.47787297702E+02  0.20000121543E+02 0.  0.
        -12    1    1    2    0    0  0.37300101312E+02  0.37816048402E+00  0.22185139096E+02  0.43400702298E+02  0.00000000000E+00 0.  1.
         11    1    3    3    0    0 -0.74597935340E+01 -0.28331593144E+01 -0.53130472648E+01  0.95866460647E+01  0.51100000000E-03 0. -1.
        -11    1    3    3    0    0 -0.18639569656E+02  0.64458551201E+00 -0.98329353566E+00  0.18676614090E+02  0.51100000000E-03 0.  1.
        -12    1    3    3    0    0 -0.11200738122E+02  0.18104133184E+01 -0.15888798296E+02  0.19524037547E+02  0.00000000000E+00 0.  1.
</event>
<event>
 7    1  0.2655656E-009  0.4778728E+02  0.7816164E-02  0.1312668E+00
        -11   -1    0    0    0    0  0.00000000000E+00  0.00000000000E+00  0.45593999997E+02  0.45594000000E+02  0.51100000000E-03 0. -1.
         11   -1    0    0    0    0 -0.00000000000E+00 -0.00000000000E+00 -0.45593999997E+02  0.45594000000E+02  0.51100000000E-03 0.  1.
    9900012    2    1    2    0    0  0.36581089024E+02 -0.19799596258E+02  0.12386377317E+02  0.47787280775E+02  0.20000044367E+02 0.  0.
        -12    1    1    2    0    0 -0.36581089024E+02  0.19799596258E+02 -0.12386377317E+02  0.43400719225E+02  0.00000000000E+00 0.  1.
         11    1    3    3    0    0  0.15470814175E+02 -0.40469063407E+01  0.35062302049E+01  0.16371230641E+02  0.51100000000E-03 0.  1.
        -11    1    3    3    0    0  0.68656817490E+01  0.34107288844E+00 -0.22237027363E+01  0.72248716746E+01  0.51100000000E-03 0. -1.
        -12    1    3    3    0    0  0.14244593100E+02 -0.16093762806E+02  0.11103849849E+02  0.24191178460E+02  0.00000000000E+00 0.  1.
</event>
<event>
 7    1  0.2655656E-009  0.4778727E+02  0.7816164E-02  0.1312668E+00
        -11   -1    0    0    0    0  0.00000000000E+00  0.00000000000E+00  0.45593999997E+02  0.45594000000E+02  0.51100000000E-03 0.  1.
         11   -1    0    0    0    0 -0.00000000000E+00 -0.00000000000E+00 -0.45593999997E+02  0.45594000000E+02  0.51100000000E-03 0. -1.
    9900012    2    1    2    0    0  0.93141944408E+00 -0.81116935626E+01 -0.42625767754E+02  0.47787271996E+02  0.20000004339E+02 0.  0.
        -12    1    1    2    0    0 -0.93141944408E+00  0.81116935626E+01  0.42625767754E+02  0.43400728004E+02  0.00000000000E+00 0.  1.
         11    1    3    3    0    0 -0.24969138370E+01 -0.42696732052E+01 -0.83809702248E+01  0.97316673884E+01  0.51100000000E-03 0. -1.
        -11    1    3    3    0    0  0.84860138348E+00 -0.37528595925E+01 -0.13676483482E+00  0.38500369233E+01  0.51100000000E-03 0.  1.
        -12    1    3    3    0    0  0.25797318976E+01 -0.89160764804E-01 -0.34108032695E+02  0.34205567684E+02  0.00000000000E+00 0.  1.
</event>
<event>
 7    1  0.2655656E-009  0.4778726E+02  0.7816164E-02  0.1312668E+00
        -11   -1    0    0    0    0  0.00000000000E+00  0.00000000000E+00  0.45593999997E+02  0.45594000000E+02  0.51100000000E-03 0.  1.
         11   -1    0    0    0    0 -0.00000000000E+00 -0.00000000000E+00 -0.45593999997E+02  0.45594000000E+02  0.51100000000E-03 0. -1.
    9900012    2    1    2    0    0  0.33739861532E+02 -0.34996912657E+00 -0.27296951122E+02  0.47787259509E+02  0.19999947407E+02 0.  0.
        -12    1    1    2    0    0 -0.33739861532E+02  0.34996912657E+00  0.27296951122E+02  0.43400740491E+02  0.00000000000E+00 0.  1.
         11    1    3    3    0    0  0.16376134601E+02  0.23297066566E+01 -0.79685405804E+01  0.18360363744E+02  0.51100000000E-03 0. -1.
        -11    1    3    3    0    0  0.72489646862E+01 -0.64627899151E+01 -0.14833131813E+02  0.17729549970E+02  0.51100000000E-03 0.  1.
        -12    1    3    3    0    0  0.10114762245E+02  0.37831141319E+01 -0.44952787291E+01  0.11697345795E+02  0.00000000000E+00 0.  1.
</event>
<event>
 7    1  0.2655656E-009  0.4778727E+02  0.7816164E-02  0.1312668E+00
        -11   -1    0    0    0    0  0.00000000000E+00  0.00000000000E+00  0.45593999997E+02  0.45594000000E+02  0.51100000000E-03 0. -1.
         11   -1    0    0    0    0 -0.00000000000E+00 -0.00000000000E+00 -0.45593999997E+02  0.45594000000E+02  0.51100000000E-03 0.  1.
    9900012    2    1    2    0    0 -0.22899334551E+02  0.36318711870E+02  0.63399460713E+01  0.47787271078E+02  0.20000000152E+02 0.  0.
        -12    1    1    2    0    0  0.22899334551E+02 -0.36318711870E+02 -0.63399460713E+01  0.43400728922E+02  0.00000000000E+00 0.  1.
         11    1    3    3    0    0 -0.51069046225E+01  0.11408578165E+02  0.22440043892E+01  0.12699278977E+02  0.51100000000E-03 0. -1.
        -11    1    3    3    0    0 -0.20888107018E+02  0.19418319679E+02  0.28511788094E+01  0.28662054617E+02  0.51100000000E-03 0.  1.
        -12    1    3    3    0    0  0.30956770901E+01  0.54918140260E+01  0.12447628726E+01  0.64259374842E+01  0.00000000000E+00 0.  1.
</event>
<event>
 7    1  0.2655656E-009  0.4778727E+02  0.7816164E-02  0.1312668E+00
        -11   -1    0    0    0    0  0.00000000000E+00  0.00000000000E+00  0.45593999997E+02  0.45594000000E+02  0.51100000000E-03 0.  1.
         11   -1    0    0    0    0 -0.00000000000E+00 -0.00000000000E+00 -0.45593999997E+02  0.45594000000E+02  0.51100000000E-03 0. -1.
    9900012    2    1    2    0    0 -0.16115008145E+01  0.17413645543E+02 -0.39721423258E+02  0.47787268997E+02  0.19999990664E+02 0.  0.
        -12    1    1    2    0    0  0.16115008145E+01 -0.17413645543E+02  0.39721423258E+02  0.43400731003E+02  0.00000000000E+00 0.  1.
         11    1    3    3    0    0 -0.55976344037E+01 -0.12625964229E+01 -0.93769823484E+01  0.10993427985E+02  0.51100000000E-03 0. -1.
        -11    1    3    3    0    0  0.78219467350E+00 -0.65414121408E+00 -0.62347268743E+00  0.11951768439E+01  0.51100000000E-03 0.  1.
         12    1    3    3    0    0  0.32039389156E+01  0.19330383180E+02 -0.29720968222E+02  0.35598664168E+02  0.00000000000E+00 0. -1.
</event>
<event>
 7    1  0.2655656E-009  0.4778726E+02  0.7816164E-02  0.1312668E+00
        -11   -1    0    0    0    0  0.00000000000E+00  0.00000000000E+00  0.45593999997E+02  0.45594000000E+02  0.51100000000E-03 0. -1.
         11   -1    0    0    0    0 -0.00000000000E+00 -0.00000000000E+00 -0.45593999997E+02  0.45594000000E+02  0.51100000000E-03 0.  1.
    9900012    2    1    2    0    0 -0.16188460642E+02  0.90382990985E+01  0.39241144899E+02  0.47787256210E+02  0.19999932365E+02 0.  0.
        -12    1    1    2    0    0  0.16188460642E+02 -0.90382990985E+01 -0.39241144899E+02  0.43400743790E+02  0.00000000000E+00 0.  1.
         11    1    3    3    0    0 -0.15296286881E+02  0.84232514654E+01  0.23353113117E+02  0.29159825962E+02  0.51100000000E-03 0. -1.
        -11    1    3    3    0    0  0.34709538731E+01  0.17336156210E+01  0.12212120677E+02  0.12813619146E+02  0.51100000000E-03 0.  1.
         12    1    3    3    0    0 -0.43631276339E+01 -0.11185679878E+01  0.36759111041E+01  0.58138111028E+01  0.00000000000E+00 0. -1.
</event>
<event>
 7    1  0.2655656E-009  0.4778727E+02  0.7816164E-02  0.1312668E+00
        -11   -1    0    0    0    0  0.00000000000E+00  0.00000000000E+00  0.45593999997E+02  0.45594000000E+02  0.51100000000E-03 0.  1.
         11   -1    0    0    0    0 -0.00000000000E+00 -0.00000000000E+00 -0.45593999997E+02  0.45594000000E+02  0.51100000000E-03 0. -1.
    9900012    2    1    2    0    0  0.18543113962E+02  0.35386740719E+01 -0.39080097823E+02  0.47787270335E+02  0.19999996767E+02 0.  0.
        -12    1    1    2    0    0 -0.18543113962E+02 -0.35386740719E+01  0.39080097823E+02  0.43400729665E+02  0.00000000000E+00 0.  1.
         11    1    3    3    0    0 -0.18294655796E+01  0.52582602047E+01 -0.63375850076E+01  0.84357115099E+01  0.51100000000E-03 0. -1.
        -11    1    3    3    0    0  0.15922042570E+02 -0.44599442306E+01 -0.23510728296E+02  0.28742945003E+02  0.51100000000E-03 0.  1.
         12    1    3    3    0    0  0.44505369717E+01  0.27403580977E+01 -0.92317845188E+01  0.10608613823E+02  0.00000000000E+00 0. -1.
</event>
<event>
 7    1  0.2655656E-009  0.4778727E+02  0.7816164E-02  0.1312668E+00
        -11   -1    0    0    0    0  0.00000000000E+00  0.00000000000E+00  0.45593999997E+02  0.45594000000E+02  0.51100000000E-03 0. -1.
         11   -1    0    0    0    0 -0.00000000000E+00 -0.00000000000E+00 -0.45593999997E+02  0.45594000000E+02  0.51100000000E-03 0.  1.
    9900012    2    1    2    0    0 -0.16575637029E+02 -0.40107120257E+02 -0.53896025509E+00  0.47787270554E+02  0.19999997765E+02 0.  0.
        -12    1    1    2    0    0  0.16575637029E+02  0.40107120257E+02  0.53896025509E+00  0.43400729446E+02  0.00000000000E+00 0.  1.
         11    1    3    3    0    0 -0.16096928997E+02 -0.37225020260E+02 -0.33291667392E+01  0.40692709518E+02  0.51100000000E-03 0. -1.
        -11    1    3    3    0    0  0.87604743063E+00  0.15133305629E+01  0.68097945078E-01  0.17499331657E+01  0.51100000000E-03 0.  1.
         12    1    3    3    0    0 -0.13547554630E+01 -0.43954305602E+01  0.27221085390E+01  0.53446278703E+01  0.00000000000E+00 0. -1.
</event>
<event>
 7    1  0.5799490E-009  0.4778727E+02  0.7816164E-02  0.1312668E+00
        -11   -1    0    0    0    0  0.00000000000E+00  0.00000000000E+00  0.45593999997E+02  0.45594000000E+02  0.51100000000E-03 0.  1.
         11   -1    0    0    0    0 -0.00000000000E+00 -0.00000000000E+00 -0.45593999997E+02  0.45594000000E+02  0.51100000000E-03 0. -1.
    9900012    2    1    2    0    0  0.14025227868E+02  0.31643522079E+02 -0.26184035785E+02  0.47787271478E+02  0.20000001975E+02 0.  0.
        -12    1    1    2    0    0 -0.14025227868E+02 -0.31643522079E+02  0.26184035785E+02  0.43400728522E+02  0.00000000000E+00 0.  1.
         11    1    3    3    0    0  0.11284194666E+02  0.81352650828E+01 -0.13656198461E+02  0.19493777056E+02  0.51100000000E-03 0. -1.
        -11    1    3    3    0    0 -0.15711096749E+01  0.36096729388E+01 -0.54804966281E+01  0.67478861792E+01  0.51100000000E-03 0.  1.
         12    1    3    3    0    0  0.43121428767E+01  0.19898584057E+02 -0.70473406958E+01  0.21545608243E+02  0.00000000000E+00 0. -1.
</event>
<event>
 7    1  0.2655656E-009  0.4778723E+02  0.7816164E-02  0.1312668E+00
        -11   -1    0    0    0    0  0.00000000000E+00  0.00000000000E+00  0.45593999997E+02  0.45594000000E+02  0.51100000000E-03 0.  1.
         11   -1    0    0    0    0 -0.00000000000E+00 -0.00000000000E+00 -0.45593999997E+02  0.45594000000E+02  0.51100000000E-03 0. -1.
    9900012    2    1    2    0    0  0.14691917788E+02 -0.34261515993E+02 -0.22224374093E+02  0.47787231225E+02  0.19999818449E+02 0.  0.
        -12    1    1    2    0    0 -0.14691917788E+02  0.34261515993E+02  0.22224374093E+02  0.43400768775E+02  0.00000000000E+00 0.  1.
         11    1    3    3    0    0  0.61676466826E+00 -0.49115319076E+01 -0.48750953134E+01  0.69476685954E+01  0.51100000000E-03 0. -1.
        -11    1    3    3    0    0 -0.79717831544E+00 -0.53775234008E+00  0.25984297383E+01  0.27706512253E+01  0.51100000000E-03 0.  1.
        -12    1    3    3    0    0  0.14872331435E+02 -0.28812231745E+02 -0.19947708518E+02  0.38068911405E+02  0.00000000000E+00 0.  1.
</event>
<event>
 7    1  0.2655656E-009  0.4778727E+02  0.7816164E-02  0.1312668E+00
        -11   -1    0    0    0    0  0.00000000000E+00  0.00000000000E+00  0.45593999997E+02  0.45594000000E+02  0.51100000000E-03 0. -1.
         11   -1    0    0    0    0 -0.00000000000E+00 -0.00000000000E+00 -0.45593999997E+02  0.45594000000E+02  0.51100000000E-03 0.  1.
    9900012    2    1    2    0    0 -0.19927136217E+02 -0.22477868671E+02  0.31325356936E+02  0.47787270456E+02  0.19999997316E+02 0.  0.
        -12    1    1    2    0    0  0.19927136217E+02  0.22477868671E+02 -0.31325356936E+02  0.43400729544E+02  0.00000000000E+00 0.  1.
         11    1    3    3    0    0 -0.15733529165E+02 -0.15861321401E+02  0.16939490332E+02  0.28036971833E+02  0.51100000000E-03 0. -1.
        -11    1    3    3    0    0  0.32342621966E+01 -0.49539582346E+01  0.60451039152E+01  0.84584535083E+01  0.51100000000E-03 0.  1.
        -12    1    3    3    0    0 -0.74278692482E+01 -0.16625890362E+01  0.83407626883E+01  0.11291845115E+02  0.00000000000E+00 0.  1.
</event>
<event>
 7    1  0.2655656E-009  0.4778727E+02  0.7816164E-02  0.1312668E+00
        -11   -1    0    0    0    0  0.00000000000E+00  0.00000000000E+00  0.45593999997E+02  0.45594000000E+02  0.51100000000E-03 0. -1.
         11   -1    0    0    0    0 -0.00000000000E+00 -0.00000000000E+00 -0.45593999997E+02  0.45594000000E+02  0.51100000000E-03 0.  1.
    9900012    2    1    2    0    0  0.21873362792E+02  0.31649096664E+02  0.20087654049E+02  0.47787272303E+02  0.20000005737E+02 0.  0.
        -12    1    1    2    0    0 -0.21873362792E+02 -0.31649096664E+02 -0.20087654049E+02  0.43400727697E+02  0.00000000000E+00 0.  1.
         11    1    3    3    0    0  0.13616891333E+01  0.89215895607E+01 -0.11738746479E+01  0.91009306961E+01  0.51100000000E-03 0. -1.
        -11    1    3    3    0    0  0.19103194578E+02  0.17229346571E+02  0.13445509638E+02  0.29026955680E+02  0.51100000000E-03 0.  1.
        -12    1    3    3    0    0  0.14084790805E+01  0.54981605323E+01  0.78160190582E+01  0.96593859265E+01  0.00000000000E+00 0.  1.
</event>
<event>
 7    1  0.2655656E-009  0.4778727E+02  0.7816164E-02  0.1312668E+00
        -11   -1    0    0    0    0  0.00000000000E+00  0.00000000000E+00  0.45593999997E+02  0.45594000000E+02  0.51100000000E-03 0.  1.
         11   -1    0    0    0    0 -0.00000000000E+00 -0.00000000000E+00 -0.45593999997E+02  0.45594000000E+02  0.51100000000E-03 0. -1.
    9900012    2    1    2    0    0  0.15325721189E+02  0.13627081649E+02 -0.38249811966E+02  0.47787271900E+02  0.20000003900E+02 0.  0.
        -12    1    1    2    0    0 -0.15325721189E+02 -0.13627081649E+02  0.38249811966E+02  0.43400728100E+02  0.00000000000E+00 0.  1.
         11    1    3    3    0    0  0.14195579968E+02  0.65747976848E+01 -0.15921639190E+02  0.22321313805E+02  0.51100000000E-03 0. -1.
        -11    1    3    3    0    0 -0.16315043643E+01  0.84967655398E+01 -0.19154441590E+02  0.21017836806E+02  0.51100000000E-03 0.  1.
        -12    1    3    3    0    0  0.27616455850E+01 -0.14444815755E+01 -0.31737311856E+01  0.44481212885E+01  0.00000000000E+00 0.  1.
</event>
<event>
 7    1  0.2655656E-009  0.4778728E+02  0.7816164E-02  0.1312668E+00
        -11   -1    0    0    0    0  0.00000000000E+00  0.00000000000E+00  0.45593999997E+02  0.45594000000E+02  0.51100000000E-03 0.  1.
         11   -1    0    0    0    0 -0.00000000000E+00 -0.00000000000E+00 -0.45593999997E+02  0.45594000000E+02  0.51100000000E-03 0. -1.
    9900012    2    1    2    0    0  0.34038941089E+02 -0.26302393164E+02 -0.57581938521E+01  0.47787283496E+02  0.20000056773E+02 0.  0.
        -12    1    1    2    0    0 -0.34038941089E+02  0.26302393164E+02  0.57581938521E+01  0.43400716504E+02  0.00000000000E+00 0.  1.
         11    1    3    3    0    0  0.73393570185E+01 -0.75159804422E+01  0.64282999728E+01  0.12315809525E+02  0.51100000000E-03 0.  1.
        -11    1    3    3    0    0  0.90475902949E+01 -0.95766076431E+01 -0.68967765686E+01  0.14870636550E+02  0.51100000000E-03 0. -1.
         12    1    3    3    0    0  0.17651993775E+02 -0.92098050786E+01 -0.52897172564E+01  0.20600837422E+02  0.00000000000E+00 0. -1.
</event>
<event>
 7    1  0.2655656E-009  0.4778727E+02  0.7816164E-02  0.1312668E+00
        -11   -1    0    0    0    0  0.00000000000E+00  0.00000000000E+00  0.45593999997E+02  0.45594000000E+02  0.51100000000E-03 0. -1.
         11   -1    0    0    0    0 -0.00000000000E+00 -0.00000000000E+00 -0.45593999997E+02  0.45594000000E+02  0.51100000000E-03 0.  1.
    9900012    2    1    2    0    0 -0.15245856941E+02  0.88350362738E+01  0.39662694120E+02  0.47787270459E+02  0.19999997330E+02 0.  0.
        -12    1    1    2    0    0  0.15245856941E+02 -0.88350362738E+01 -0.39662694120E+02  0.43400729541E+02  0.00000000000E+00 0.  1.
         11    1    3    3    0    0 -0.18127918266E+01  0.37666784082E+01  0.80712612393E+01  0.90895180671E+01  0.51100000000E-03 0. -1.
        -11    1    3    3    0    0  0.16849026139E+01 -0.44251846046E-01  0.16969694336E+02  0.17053192697E+02  0.51100000000E-03 0.  1.
        -12    1    3    3    0    0 -0.15117967728E+02  0.51126097117E+01  0.14621738545E+02  0.21644559695E+02  0.00000000000E+00 0.  1.
</event>
<event>
 7    1  0.2655656E-009  0.4778727E+02  0.7816164E-02  0.1312668E+00
        -11   -1    0    0    0    0  0.00000000000E+00  0.00000000000E+00  0.45593999997E+02  0.45594000000E+02  0.51100000000E-03 0.  1.
         11   -1    0    0    0    0 -0.00000000000E+00 -0.00000000000E+00 -0.45593999997E+02  0.45594000000E+02  0.51100000000E-03 0. -1.
    9900012    2    1    2    0    0 -0.22058971644E+02 -0.83958733919E+01 -0.36421620454E+02  0.47787270092E+02  0.19999995658E+02 0.  0.
        -12    1    1    2    0    0  0.22058971644E+02  0.83958733919E+01  0.36421620454E+02  0.43400729908E+02  0.00000000000E+00 0.  1.
         11    1    3    3    0    0 -0.20576922980E+02 -0.11037356579E+01 -0.18011793847E+02  0.27368827333E+02  0.51100000000E-03 0. -1.
        -11    1    3    3    0    0 -0.10366463652E+01 -0.41554380629E+01 -0.15621707170E+02  0.16198149164E+02  0.51100000000E-03 0.  1.
        -12    1    3    3    0    0 -0.44540229940E+00 -0.31366996711E+01 -0.27881194375E+01  0.42202935955E+01  0.00000000000E+00 0.  1.
</event>
<event>
 7    1  0.2655656E-009  0.4778727E+02  0.7816164E-02  0.1312668E+00
        -11   -1    0    0    0    0  0.00000000000E+00  0.00000000000E+00  0.45593999997E+02  0.45594000000E+02  0.51100000000E-03 0.  1.
         11   -1    0    0    0    0 -0.00000000000E+00 -0.00000000000E+00 -0.45593999997E+02  0.45594000000E+02  0.51100000000E-03 0. -1.
    9900012    2    1    2    0    0  0.91382226224E+01 -0.58055321314E+01 -0.42028700518E+02  0.47787274393E+02  0.20000015267E+02 0.  0.
        -12    1    1    2    0    0 -0.91382226224E+01  0.58055321314E+01  0.42028700518E+02  0.43400725607E+02  0.00000000000E+00 0.  1.
         11    1    3    3    0    0  0.11025212937E+02 -0.58536506713E+01 -0.17267088793E+02  0.21306639860E+02  0.51100000000E-03 0.  1.
        -11    1    3    3    0    0 -0.53052256200E+01 -0.14544626793E+00 -0.19451129354E+02  0.20162167714E+02  0.51100000000E-03 0. -1.
         12    1    3    3    0    0  0.34182353059E+01  0.19356480776E+00 -0.53104823700E+01  0.63184668191E+01  0.00000000000E+00 0. -1.
</event>
<event>
 7    1  0.2655656E-009  0.4778727E+02  0.7816164E-02  0.1312668E+00
        -11   -1    0    0    0    0  0.00000000000E+00  0.00000000000E+00  0.45593999997E+02  0.45594000000E+02  0.51100000000E-03 0. -1.
         11   -1    0    0    0    0 -0.00000000000E+00 -0.00000000000E+00 -0.45593999997E+02  0.45594000000E+02  0.51100000000E-03 0.  1.
    9900012    2    1    2    0    0  0.39557475719E+02  0.51199112448E+00 -0.17848457288E+02  0.47787269042E+02  0.19999990870E+02 0.  0.
        -12    1    1    2    0    0 -0.39557475719E+02 -0.51199112448E+00  0.17848457288E+02  0.43400730958E+02  0.00000000000E+00 0.  1.
         11    1    3    3    0    0  0.32245987684E+02  0.63145610310E+01 -0.14868472487E+02  0.36065896316E+02  0.51100000000E-03 0. -1.
        -11    1    3    3    0    0  0.82661050805E+01 -0.57610243876E+01 -0.34585939468E+01  0.10652688278E+02  0.51100000000E-03 0.  1.
         12    1    3    3    0    0 -0.95461704599E+00 -0.41545518936E-01  0.47860914590E+00  0.10686844479E+01  0.00000000000E+00 0. -1.
</event>
<event>
 7    1  0.2655656E-009  0.4778726E+02  0.7816164E-02  0.1312668E+00
        -11   -1    0    0    0    0  0.00000000000E+00  0.00000000000E+00  0.45593999997E+02  0.45594000000E+02  0.51100000000E-03 0. -1.
         11   -1    0    0    0    0 -0.00000000000E+00 -0.00000000000E+00 -0.45593999997E+02  0.45594000000E+02  0.51100000000E-03 0.  1.
    9900012    2    1    2    0    0 -0.13695843908E+02  0.31910724659E+02  0.26033700815E+02  0.47787261910E+02  0.19999958353E+02 0.  0.
        -12    1    1    2    0    0  0.13695843908E+02 -0.31910724659E+02 -0.26033700815E+02  0.43400738090E+02  0.00000000000E+00 0.  1.
         11    1    3    3    0    0 -0.89021139553E+01  0.27664880525E+01  0.61023349375E+01  0.11141794333E+02  0.51100000000E-03 0. -1.
        -11    1    3    3    0    0 -0.41641600249E+01  0.46325569257E+01  0.42194640342E+01  0.75236088003E+01  0.51100000000E-03 0.  1.
         12    1    3    3    0    0 -0.62956992830E+00  0.24511679681E+02  0.15711901843E+02  0.29121858776E+02  0.00000000000E+00 0. -1.
</event>
<event>
 7    1  0.2655656E-009  0.4778727E+02  0.7816164E-02  0.1312668E+00
        -11   -1    0    0    0    0  0.00000000000E+00  0.00000000000E+00  0.45593999997E+02  0.45594000000E+02  0.51100000000E-03 0.  1.
         11   -1    0    0    0    0 -0.00000000000E+00 -0.00000000000E+00 -0.45593999997E+02  0.45594000000E+02  0.51100000000E-03 0. -1.
    9900012    2    1    2    0    0 -0.24031874056E+01  0.40709286852E+02 -0.14852672229E+02  0.47787271688E+02  0.20000002933E+02 0.  0.
        -12    1    1    2    0    0  0.24031874056E+01 -0.40709286852E+02  0.14852672229E+02  0.43400728312E+02  0.00000000000E+00 0.  1.
         11    1    3    3    0    0  0.46726449338E+01  0.14477987639E+02 -0.12094093293E+02  0.19434835466E+02  0.51100000000E-03 0. -1.
        -11    1    3    3    0    0 -0.81460391188E+01  0.16449511270E+02 -0.12651105746E+01  0.18399589109E+02  0.51100000000E-03 0.  1.
         12    1    3    3    0    0  0.10702067795E+01  0.97817879425E+01 -0.14934683621E+01  0.99528471128E+01  0.00000000000E+00 0. -1.
</event>
<event>
 7    1  0.2655656E-009  0.4778727E+02  0.7816164E-02  0.1312668E+00
        -11   -1    0    0    0    0  0.00000000000E+00  0.00000000000E+00  0.45593999997E+02  0.45594000000E+02  0.51100000000E-03 0. -1.
         11   -1    0    0    0    0 -0.00000000000E+00 -0.00000000000E+00 -0.45593999997E+02  0.45594000000E+02  0.51100000000E-03 0.  1.
    9900012    2    1    2    0    0 -0.17394848200E+02  0.20035188581E+02  0.34345792203E+02  0.47787274575E+02  0.20000016096E+02 0.  0.
        -12    1    1    2    0    0  0.17394848200E+02 -0.20035188581E+02 -0.34345792203E+02  0.43400725425E+02  0.00000000000E+00 0.  1.
         11    1    3    3    0    0 -0.89751629339E+00  0.10938277422E+02  0.11101453036E+02  0.15610692113E+02  0.51100000000E-03 0. -1.
        -11    1    3    3    0    0 -0.12963076644E+02  0.27231085105E+01  0.85263246460E+01  0.15752932688E+02  0.51100000000E-03 0.  1.
        -12    1    3    3    0    0 -0.35342552619E+01  0.63738026493E+01  0.14718014521E+02  0.16423649774E+02  0.00000000000E+00 0.  1.
</event>
<event>
 7    1  0.2655656E-009  0.4778725E+02  0.7816164E-02  0.1312668E+00
        -11   -1    0    0    0    0  0.00000000000E+00  0.00000000000E+00  0.45593999997E+02  0.45594000000E+02  0.51100000000E-03 0.  1.
         11   -1    0    0    0    0 -0.00000000000E+00 -0.00000000000E+00 -0.45593999997E+02  0.45594000000E+02  0.51100000000E-03 0. -1.
    9900012    2    1    2    0    0  0.95561561604E+01 -0.35330884781E+02 -0.23324529459E+02  0.47787248688E+02  0.19999898066E+02 0.  0.
        -12    1    1    2    0    0 -0.95561561604E+01  0.35330884781E+02  0.23324529459E+02  0.43400751312E+02  0.00000000000E+00 0.  1.
         11    1    3    3    0    0  0.21546334206E+01 -0.25155861427E+02 -0.24278838876E+02  0.35027443909E+02  0.51100000000E-03 0. -1.
        -11    1    3    3    0    0  0.33352892488E+01 -0.32580560074E+01  0.82616258305E+00  0.47351481703E+01  0.51100000000E-03 0.  1.
         12    1    3    3    0    0  0.40662334911E+01 -0.69169673464E+01  0.12814683396E+00  0.80246566086E+01  0.00000000000E+00 0. -1.
</event>
<event>
 7    1  0.2655656E-009  0.4778727E+02  0.7816164E-02  0.1312668E+00
        -11   -1    0    0    0    0  0.00000000000E+00  0.00000000000E+00  0.45593999997E+02  0.45594000000E+02  0.51100000000E-03 0.  1.
         11   -1    0    0    0    0 -0.00000000000E+00 -0.00000000000E+00 -0.45593999997E+02  0.45594000000E+02  0.51100000000E-03 0. -1.
    9900012    2    1    2    0    0 -0.22398467965E+02  0.36964759471E+02 -0.39418963449E+01  0.47787270090E+02  0.19999995650E+02 0.  0.
        -12    1    1    2    0    0  0.22398467965E+02 -0.36964759471E+02  0.39418963449E+01  0.43400729910E+02  0.00000000000E+00 0.  1.
         11    1    3    3    0    0 -0.15930431803E+02  0.29522588043E+02 -0.59256098364E+01  0.34065741066E+02  0.51100000000E-03 0. -1.
        -11    1    3    3    0    0  0.20335650462E+01  0.15020510944E+00 -0.78326326449E+00  0.21843648904E+01  0.51100000000E-03 0.  1.
        -12    1    3    3    0    0 -0.85016012080E+01  0.72919663185E+01  0.27669767560E+01  0.11537164134E+02  0.00000000000E+00 0.  1.
</event>
<event>
 7    1  0.2655656E-009  0.4778727E+02  0.7816164E-02  0.1312668E+00
        -11   -1    0    0    0    0  0.00000000000E+00  0.00000000000E+00  0.45593999997E+02  0.45594000000E+02  0.51100000000E-03 0. -1.
         11   -1    0    0    0    0 -0.00000000000E+00 -0.00000000000E+00 -0.45593999997E+02  0.45594000000E+02  0.51100000000E-03 0.  1.
    9900012    2    1    2    0    0  0.24860283121E+02  0.24559165529E+02  0.25737858733E+02  0.47787266590E+02  0.19999979691E+02 0.  0.
        -12    1    1    2    0    0 -0.24860283121E+02 -0.24559165529E+02 -0.25737858733E+02  0.43400733410E+02  0.00000000000E+00 0.  1.
         11    1    3    3    0    0  0.18357986798E+02  0.22811666077E+02  0.10615425467E+02  0.31146027782E+02  0.51100000000E-03 0. -1.
        -11    1    3    3    0    0  0.38466067960E+01  0.18220162353E+01  0.85099673562E+01  0.95150234718E+01  0.51100000000E-03 0.  1.
         12    1    3    3    0    0  0.26556895269E+01 -0.74516782944E-01  0.66124659098E+01  0.71262153365E+01  0.00000000000E+00 0. -1.
</event>
<event>
 7    1  0.2655656E-009  0.4778727E+02  0.7816164E-02  0.1312668E+00
        -11   -1    0    0    0    0  0.00000000000E+00  0.00000000000E+00  0.45593999997E+02  0.45594000000E+02  0.51100000000E-03 0.  1.
         11   -1    0    0    0    0 -0.00000000000E+00 -0.00000000000E+00 -0.45593999997E+02  0.45594000000E+02  0.51100000000E-03 0. -1.
    9900012    2    1    2    0    0  0.41848400404E+02  0.11470259581E+02  0.87626527776E+00  0.47787270605E+02  0.19999997995E+02 0.  0.
        -12    1    1    2    0    0 -0.41848400404E+02 -0.11470259581E+02 -0.87626527776E+00  0.43400729395E+02  0.00000000000E+00 0.  1.
         11    1    3    3    0    0  0.98661507344E+01  0.85677106039E+01 -0.31436507398E+01  0.13439833910E+02  0.51100000000E-03 0. -1.
        -11    1    3    3    0    0  0.19461906558E+02  0.26121899164E+01  0.80043683665E+01  0.21205170507E+02  0.51100000000E-03 0.  1.
        -12    1    3    3    0    0  0.12520343111E+02  0.29035906084E+00 -0.39844523490E+01  0.13142266187E+02  0.00000000000E+00 0.  1.
</event>
<event>
 7    1  0.2655656E-009  0.4778732E+02  0.7816164E-02  0.1312668E+00
        -11   -1    0    0    0    0  0.00000000000E+00  0.00000000000E+00  0.45593999997E+02  0.45594000000E+02  0.51100000000E-03 0.  1.
         11   -1    0    0    0    0 -0.00000000000E+00 -0.00000000000E+00 -0.45593999997E+02  0.45594000000E+02  0.51100000000E-03 0. -1.
    9900012    2    1    2    0    0  0.30934452237E+02 -0.29624478787E+02 -0.70049379828E+01  0.47787317578E+02  0.20000212164E+02 0.  0.
        -12    1    1    2    0    0 -0.30934452237E+02  0.29624478787E+02  0.70049379828E+01  0.43400682422E+02  0.00000000000E+00 0.  1.
         11    1    3    3    0    0  0.20942895138E+02 -0.17494594864E+02 -0.10227598677E+02  0.29142228487E+02  0.51100000000E-03 0. -1.
        -11    1    3    3    0    0  0.13469104402E+01  0.61538664059E+00 -0.19055716978E+01  0.24133114610E+01  0.51100000000E-03 0.  1.
         12    1    3    3    0    0  0.86446466583E+01 -0.12745270563E+02  0.51282323919E+01  0.16231777630E+02  0.00000000000E+00 0. -1.
</event>
<event>
 7    1  0.2655656E-009  0.4778727E+02  0.7816164E-02  0.1312668E+00
        -11   -1    0    0    0    0  0.00000000000E+00  0.00000000000E+00  0.45593999997E+02  0.45594000000E+02  0.51100000000E-03 0. -1.
         11   -1    0    0    0    0 -0.00000000000E+00 -0.00000000000E+00 -0.45593999997E+02  0.45594000000E+02  0.51100000000E-03 0.  1.
    9900012    2    1    2    0    0 -0.25436723406E+00  0.41526372081E+02  0.12614241047E+02  0.47787270074E+02  0.19999995576E+02 0.  0.
        -12    1    1    2    0    0  0.25436723406E+00 -0.41526372081E+02 -0.12614241047E+02  0.43400729926E+02  0.00000000000E+00 0.  1.
         11    1    3    3    0    0 -0.45864661698E+01  0.37196583597E+02  0.75190137135E+01  0.38225084313E+02  0.51100000000E-03 0.  1.
        -11    1    3    3    0    0  0.43114418231E+01  0.51250482047E+01  0.55030361843E+01  0.86682211094E+01  0.51100000000E-03 0. -1.
        -12    1    3    3    0    0  0.20657112591E-01 -0.79525972093E+00 -0.40780885064E+00  0.89396465181E+00  0.00000000000E+00 0.  1.
</event>
<event>
 7    1  0.2655656E-009  0.4778727E+02  0.7816164E-02  0.1312668E+00
        -11   -1    0    0    0    0  0.00000000000E+00  0.00000000000E+00  0.45593999997E+02  0.45594000000E+02  0.51100000000E-03 0.  1.
         11   -1    0    0    0    0 -0.00000000000E+00 -0.00000000000E+00 -0.45593999997E+02  0.45594000000E+02  0.51100000000E-03 0. -1.
    9900012    2    1    2    0    0  0.31720913429E+02 -0.26379685269E+02 -0.13472894726E+02  0.47787273785E+02  0.20000012496E+02 0.  0.
        -12    1    1    2    0    0 -0.31720913429E+02  0.26379685269E+02  0.13472894726E+02  0.43400726215E+02  0.00000000000E+00 0.  1.
         11    1    3    3    0    0  0.19325328804E+02 -0.19129131637E+02 -0.11253455224E+01  0.27215040205E+02  0.51100000000E-03 0. -1.
        -11    1    3    3    0    0  0.47367132578E+01 -0.84769539047E+00 -0.15525090661E+00  0.48144722521E+01  0.51100000000E-03 0.  1.
         12    1    3    3    0    0  0.76588713675E+01 -0.64028582411E+01 -0.12192298297E+02  0.15757761328E+02  0.00000000000E+00 0. -1.
</event>
<event>
 7    1  0.2655656E-009  0.4778728E+02  0.7816164E-02  0.1312668E+00
        -11   -1    0    0    0    0  0.00000000000E+00  0.00000000000E+00  0.45593999997E+02  0.45594000000E+02  0.51100000000E-03 0.  1.
         11   -1    0    0    0    0 -0.00000000000E+00 -0.00000000000E+00 -0.45593999997E+02  0.45594000000E+02  0.51100000000E-03 0. -1.
    9900012    2    1    2    0    0  0.25266854721E+02 -0.27392467006E+02 -0.22245486033E+02  0.47787275985E+02  0.20000022526E+02 0.  0.
        -12    1    1    2    0    0 -0.25266854721E+02  0.27392467006E+02  0.22245486033E+02  0.43400724015E+02  0.00000000000E+00 0.  1.
         11    1    3    3    0    0  0.18399555275E+02 -0.93768489290E+01 -0.47018130841E+01  0.21179612289E+02  0.51100000000E-03 0.  1.
        -11    1    3    3    0    0  0.61130628227E+01 -0.11998975659E+02 -0.92648861028E+01  0.16345735490E+02  0.51100000000E-03 0. -1.
         12    1    3    3    0    0  0.75423662312E+00 -0.60166424184E+01 -0.82787868460E+01  0.10261928207E+02  0.00000000000E+00 0. -1.
</event>
<event>
 7    1  0.2655656E-009  0.4778727E+02  0.7816164E-02  0.1312668E+00
        -11   -1    0    0    0    0  0.00000000000E+00  0.00000000000E+00  0.45593999997E+02  0.45594000000E+02  0.51100000000E-03 0.  1.
         11   -1    0    0    0    0 -0.00000000000E+00 -0.00000000000E+00 -0.45593999997E+02  0.45594000000E+02  0.51100000000E-03 0. -1.
    9900012    2    1    2    0    0  0.14399025907E+02 -0.15620191907E+02 -0.37845755052E+02  0.47787268236E+02  0.19999987193E+02 0.  0.
        -12    1    1    2    0    0 -0.14399025907E+02  0.15620191907E+02  0.37845755052E+02  0.43400731764E+02  0.00000000000E+00 0.  1.
         11    1    3    3    0    0  0.12787574504E+02 -0.13171222799E+02 -0.28653770011E+02  0.34030011869E+02  0.51100000000E-03 0. -1.
        -11    1    3    3    0    0 -0.38832562314E+01 -0.78933224531E+00 -0.59973392763E+01  0.71882406059E+01  0.51100000000E-03 0.  1.
        -12    1    3    3    0    0  0.54947076345E+01 -0.16596368626E+01 -0.31946457641E+01  0.65690157605E+01  0.00000000000E+00 0.  1.
</event>
<event>
 7    1  0.2655656E-009  0.4778728E+02  0.7816164E-02  0.1312668E+00
        -11   -1    0    0    0    0  0.00000000000E+00  0.00000000000E+00  0.45593999997E+02  0.45594000000E+02  0.51100000000E-03 0.  1.
         11   -1    0    0    0    0 -0.00000000000E+00 -0.00000000000E+00 -0.45593999997E+02  0.45594000000E+02  0.51100000000E-03 0. -1.
    9900012    2    1    2    0    0 -0.26985644744E+02 -0.17770290096E+02 -0.28976105429E+02  0.47787275142E+02  0.20000018684E+02 0.  0.
        -12    1    1    2    0    0  0.26985644744E+02  0.17770290096E+02  0.28976105429E+02  0.43400724858E+02  0.00000000000E+00 0.  1.
         11    1    3    3    0    0 -0.10125585165E+02 -0.53667504169E+01 -0.17154883765E+02  0.20630548277E+02  0.51100000000E-03 0. -1.
        -11    1    3    3    0    0 -0.12059724104E+02 -0.40159445407E+01 -0.11544172506E+01  0.12763127966E+02  0.51100000000E-03 0.  1.
        -12    1    3    3    0    0 -0.48003354746E+01 -0.83875951382E+01 -0.10666804414E+02  0.14393598899E+02  0.00000000000E+00 0.  1.
</event>
<event>
 7    1  0.2655656E-009  0.4778728E+02  0.7816164E-02  0.1312668E+00
        -11   -1    0    0    0    0  0.00000000000E+00  0.00000000000E+00  0.45593999997E+02  0.45594000000E+02  0.51100000000E-03 0. -1.
         11   -1    0    0    0    0 -0.00000000000E+00 -0.00000000000E+00 -0.45593999997E+02  0.45594000000E+02  0.51100000000E-03 0.  1.
    9900012    2    1    2    0    0  0.30794040837E+02 -0.49875780247E+01  0.30174057128E+02  0.47787278702E+02  0.20000034914E+02 0.  0.
        -12    1    1    2    0    0 -0.30794040837E+02  0.49875780247E+01 -0.30174057128E+02  0.43400721298E+02  0.00000000000E+00 0.  1.
         11    1    3    3    0    0  0.51350557187E+01  0.11348304990E+00  0.25124395122E+01  0.57178692011E+01  0.51100000000E-03 0. -1.
        -11    1    3    3    0    0  0.19633176231E+02 -0.10150398226E+02  0.13576083797E+02  0.25938431806E+02  0.51100000000E-03 0.  1.
        -12    1    3    3    0    0  0.60258088879E+01  0.50493371512E+01  0.14085533819E+02  0.16130977695E+02  0.00000000000E+00 0.  1.
</event>
<event>
 7    1  0.2655656E-009  0.4778728E+02  0.7816164E-02  0.1312668E+00
        -11   -1    0    0    0    0  0.00000000000E+00  0.00000000000E+00  0.45593999997E+02  0.45594000000E+02  0.51100000000E-03 0.  1.
         11   -1    0    0    0    0 -0.00000000000E+00 -0.00000000000E+00 -0.45593999997E+02  0.45594000000E+02  0.51100000000E-03 0. -1.
    9900012    2    1    2    0    0 -0.18656602838E+02  0.27214218450E+02 -0.28194685434E+02  0.47787276480E+02  0.20000024784E+02 0.  0.
        -12    1    1    2    0    0  0.18656602838E+02 -0.27214218450E+02  0.28194685434E+02  0.43400723520E+02  0.00000000000E+00 0.  1.
         11    1    3    3    0    0 -0.59189447823E+01  0.49058853350E+01 -0.15578119058E+02  0.17371799329E+02  0.51100000000E-03 0. -1.
        -11    1    3    3    0    0  0.63242958779E+00 -0.21815673662E+00  0.75152956566E+00  0.10061592789E+01  0.51100000000E-03 0.  1.
         12    1    3    3    0    0 -0.13370087644E+02  0.22526489852E+02 -0.13368095941E+02  0.29409317873E+02  0.00000000000E+00 0. -1.
</event>
<event>
 7    1  0.2655656E-009  0.4778727E+02  0.7816164E-02  0.1312668E+00
        -11   -1    0    0    0    0  0.00000000000E+00  0.00000000000E+00  0.45593999997E+02  0.45594000000E+02  0.51100000000E-03 0.  1.
         11   -1    0    0    0    0 -0.00000000000E+00 -0.00000000000E+00 -0.45593999997E+02  0.45594000000E+02  0.51100000000E-03 0. -1.
    9900012    2    1    2    0    0  0.35442598292E+01  0.38189525546E+02 -0.20313089629E+02  0.47787271326E+02  0.20000001285E+02 0.  0.
        -12    1    1    2    0    0 -0.35442598292E+01 -0.38189525546E+02  0.20313089629E+02  0.43400728674E+02  0.00000000000E+00 0.  1.
         11    1    3    3    0    0 -0.23289037499E+00  0.33422601644E+02 -0.13454857727E+02  0.36029956082E+02  0.51100000000E-03 0. -1.
        -11    1    3    3    0    0 -0.20547434554E+01  0.51819907602E+00 -0.59067858599E+00  0.21998641783E+01  0.51100000000E-03 0.  1.
         12    1    3    3    0    0  0.58318936596E+01  0.42487248256E+01 -0.62675533160E+01  0.95574510655E+01  0.00000000000E+00 0. -1.
</event>
<event>
 7    1  0.2655656E-009  0.4778727E+02  0.7816164E-02  0.1312668E+00
        -11   -1    0    0    0    0  0.00000000000E+00  0.00000000000E+00  0.45593999997E+02  0.45594000000E+02  0.51100000000E-03 0.  1.
         11   -1    0    0    0    0 -0.00000000000E+00 -0.00000000000E+00 -0.45593999997E+02  0.45594000000E+02  0.51100000000E-03 0. -1.
    9900012    2    1    2    0    0 -0.16738047206E+02 -0.22854854955E+02 -0.32880336700E+02  0.47787272348E+02  0.20000005942E+02 0.  0.
        -12    1    1    2    0    0  0.16738047206E+02  0.22854854955E+02  0.32880336700E+02  0.43400727652E+02  0.00000000000E+00 0.  1.
         11    1    3    3    0    0 -0.89262665702E+00 -0.67652160845E+01 -0.10273757906E+02  0.12333492320E+02  0.51100000000E-03 0. -1.
        -11    1    3    3    0    0 -0.13299123067E+02 -0.12746463691E+02 -0.24656568080E+02  0.30778001246E+02  0.51100000000E-03 0.  1.
        -12    1    3    3    0    0 -0.25462974819E+01 -0.33431751792E+01  0.20499892863E+01  0.46757787821E+01  0.00000000000E+00 0.  1.
</event>
<event>
 7    1  0.2655656E-009  0.4778727E+02  0.7816164E-02  0.1312668E+00
        -11   -1    0    0    0    0  0.00000000000E+00  0.00000000000E+00  0.45593999997E+02  0.45594000000E+02  0.51100000000E-03 0.  1.
         11   -1    0    0    0    0 -0.00000000000E+00 -0.00000000000E+00 -0.45593999997E+02  0.45594000000E+02  0.51100000000E-03 0. -1.
    9900012    2    1    2    0    0 -0.22493417729E+02  0.14447165018E+02 -0.34189898478E+02  0.47787267562E+02  0.19999984124E+02 0.  0.
        -12    1    1    2    0    0  0.22493417729E+02 -0.14447165018E+02  0.34189898478E+02  0.43400732438E+02  0.00000000000E+00 0.  1.
         11    1    3    3    0    0 -0.14549430310E+02  0.18994253719E+02 -0.24154322294E+02  0.33998512944E+02  0.51100000000E-03 0. -1.
        -11    1    3    3    0    0 -0.54500028718E+01 -0.18290622605E+01 -0.56884319141E+01  0.80874135518E+01  0.51100000000E-03 0.  1.
         12    1    3    3    0    0 -0.24939845472E+01 -0.27180264400E+01 -0.43471442697E+01  0.57013410660E+01  0.00000000000E+00 0. -1.
</event>
<event>
 7    1  0.2655656E-009  0.4778727E+02  0.7816164E-02  0.1312668E+00
        -11   -1    0    0    0    0  0.00000000000E+00  0.00000000000E+00  0.45593999997E+02  0.45594000000E+02  0.51100000000E-03 0. -1.
         11   -1    0    0    0    0 -0.00000000000E+00 -0.00000000000E+00 -0.45593999997E+02  0.45594000000E+02  0.51100000000E-03 0.  1.
    9900012    2    1    2    0    0  0.62291169835E+01 -0.51762835604E+00  0.42948261898E+02  0.47787273767E+02  0.20000012415E+02 0.  0.
        -12    1    1    2    0    0 -0.62291169835E+01  0.51762835604E+00 -0.42948261898E+02  0.43400726233E+02  0.00000000000E+00 0.  1.
         11    1    3    3    0    0  0.31092112872E+01  0.49232491925E+01  0.22085157562E+02  0.22839872202E+02  0.51100000000E-03 0. -1.
        -11    1    3    3    0    0 -0.92220587675E-01 -0.80127510717E+01  0.75385241685E+01  0.11001910347E+02  0.51100000000E-03 0.  1.
         12    1    3    3    0    0  0.32121262839E+01  0.25718735231E+01  0.13324580167E+02  0.13945491218E+02  0.00000000000E+00 0. -1.
</event>
<event>
 7    1  0.2655656E-009  0.4778727E+02  0.7816164E-02  0.1312668E+00
        -11   -1    0    0    0    0  0.00000000000E+00  0.00000000000E+00  0.45593999997E+02  0.45594000000E+02  0.51100000000E-03 0. -1.
         11   -1    0    0    0    0 -0.00000000000E+00 -0.00000000000E+00 -0.45593999997E+02  0.45594000000E+02  0.51100000000E-03 0.  1.
    9900012    2    1    2    0    0 -0.11270164682E+02  0.20330454698E+01  0.41862557477E+02  0.47787267238E+02  0.19999982643E+02 0.  0.
        -12    1    1    2    0    0  0.11270164682E+02 -0.20330454698E+01 -0.41862557477E+02  0.43400732762E+02  0.00000000000E+00 0.  1.
         11    1    3    3    0    0 -0.34215337767E+01  0.83800705598E+01  0.11671116313E+02  0.14769814901E+02  0.51100000000E-03 0. -1.
        -11    1    3    3    0    0 -0.55637713861E+01 -0.84507791887E+01  0.20892178591E+02  0.23213236471E+02  0.51100000000E-03 0.  1.
         12    1    3    3    0    0 -0.22848595189E+01  0.21037540987E+01  0.92992625734E+01  0.98042158655E+01  0.00000000000E+00 0. -1.
</event>
<event>
 7    1  0.2655656E-009  0.4778727E+02  0.7816164E-02  0.1312668E+00
        -11   -1    0    0    0    0  0.00000000000E+00  0.00000000000E+00  0.45593999997E+02  0.45594000000E+02  0.51100000000E-03 0. -1.
         11   -1    0    0    0    0 -0.00000000000E+00 -0.00000000000E+00 -0.45593999997E+02  0.45594000000E+02  0.51100000000E-03 0.  1.
    9900012    2    1    2    0    0  0.11040787303E+02 -0.35812990435E+02  0.21889583113E+02  0.47787272851E+02  0.20000008238E+02 0.  0.
        -12    1    1    2    0    0 -0.11040787303E+02  0.35812990435E+02 -0.21889583113E+02  0.43400727149E+02  0.00000000000E+00 0.  1.
         11    1    3    3    0    0 -0.32639384669E+01 -0.10774782982E+02  0.18284755197E+01  0.11405812799E+02  0.51100000000E-03 0. -1.
        -11    1    3    3    0    0  0.34157003727E+01 -0.90844534705E+00  0.43218692601E+01  0.55830848236E+01  0.51100000000E-03 0.  1.
         12    1    3    3    0    0  0.10889025397E+02 -0.24129762107E+02  0.15739238333E+02  0.30798375229E+02  0.00000000000E+00 0. -1.
</event>
<event>
 7    1  0.2655656E-009  0.4778729E+02  0.7816164E-02  0.1312668E+00
        -11   -1    0    0    0    0  0.00000000000E+00  0.00000000000E+00  0.45593999997E+02  0.45594000000E+02  0.51100000000E-03 0.  1.
         11   -1    0    0    0    0 -0.00000000000E+00 -0.00000000000E+00 -0.45593999997E+02  0.45594000000E+02  0.51100000000E-03 0. -1.
    9900012    2    1    2    0    0  0.22616152483E+02 -0.30105946134E+02 -0.21581558606E+02  0.47787285517E+02  0.20000065988E+02 0.  0.
        -12    1    1    2    0    0 -0.22616152483E+02  0.30105946134E+02  0.21581558606E+02  0.43400714483E+02  0.00000000000E+00 0.  1.
         11    1    3    3    0    0  0.18719901368E+02 -0.26254123460E+02 -0.22978797200E+02  0.39594681800E+02  0.51100000000E-03 0. -1.
        -11    1    3    3    0    0  0.20847174126E+01  0.14673943740E+00  0.28807079379E+01  0.35589405218E+01  0.51100000000E-03 0.  1.
         12    1    3    3    0    0  0.18115337019E+01 -0.39985621114E+01 -0.14834693444E+01  0.46336631953E+01  0.00000000000E+00 0. -1.
</event>
<event>
 7    1  0.2655656E-009  0.4778727E+02  0.7816164E-02  0.1312668E+00
        -11   -1    0    0    0    0  0.00000000000E+00  0.00000000000E+00  0.45593999997E+02  0.45594000000E+02  0.51100000000E-03 0. -1.
         11   -1    0    0    0    0 -0.00000000000E+00 -0.00000000000E+00 -0.45593999997E+02  0.45594000000E+02  0.51100000000E-03 0.  1.
    9900012    2    1    2    0    0  0.19767892925E+02  0.90503847008E+01  0.37562537566E+02  0.47787270947E+02  0.19999999555E+02 0.  0.
        -12    1    1    2    0    0 -0.19767892925E+02 -0.90503847008E+01 -0.37562537566E+02  0.43400729053E+02  0.00000000000E+00 0.  1.
         11    1    3    3    0    0  0.56767845890E+01  0.11425514934E+02  0.26064247441E+02  0.29019187957E+02  0.51100000000E-03 0.  1.
        -11    1    3    3    0    0  0.11610298722E+02 -0.11978127510E+01  0.10873261078E+02  0.15951852511E+02  0.51100000000E-03 0. -1.
        -12    1    3    3    0    0  0.24808096146E+01 -0.11773174824E+01  0.62502904690E+00  0.28162304784E+01  0.00000000000E+00 0.  1.
</event>
<event>
 7    1  0.2655656E-009  0.4778727E+02  0.7816164E-02  0.1312668E+00
        -11   -1    0    0    0    0  0.00000000000E+00  0.00000000000E+00  0.45593999997E+02  0.45594000000E+02  0.51100000000E-03 0.  1.
         11   -1    0    0    0    0 -0.00000000000E+00 -0.00000000000E+00 -0.45593999997E+02  0.45594000000E+02  0.51100000000E-03 0. -1.
    9900012    2    1    2    0    0  0.42983561336E+02 -0.35530717273E+01  0.48386149971E+01  0.47787273521E+02  0.20000011291E+02 0.  0.
        -12    1    1    2    0    0 -0.42983561336E+02  0.35530717273E+01 -0.48386149971E+01  0.43400726479E+02  0.00000000000E+00 0.  1.
         11    1    3    3    0    0  0.16536058204E+02 -0.69655399374E+01  0.75459443666E+01  0.19465385796E+02  0.51100000000E-03 0.  1.
        -11    1    3    3    0    0  0.14359329708E+02  0.25708019469E+01 -0.59870371400E+01  0.15768449077E+02  0.51100000000E-03 0. -1.
         12    1    3    3    0    0  0.12088173424E+02  0.84166626323E+00  0.32797077706E+01  0.12553438648E+02  0.00000000000E+00 0. -1.
</event>
<event>
 7    1  0.2655656E-009  0.4778727E+02  0.7816164E-02  0.1312668E+00
        -11   -1    0    0    0    0  0.00000000000E+00  0.00000000000E+00  0.45593999997E+02  0.45594000000E+02  0.51100000000E-03 0.  1.
         11   -1    0    0    0    0 -0.00000000000E+00 -0.00000000000E+00 -0.45593999997E+02  0.45594000000E+02  0.51100000000E-03 0. -1.
    9900012    2    1    2    0    0 -0.67536096337E+01  0.31786695829E+02 -0.28768351120E+02  0.47787270732E+02  0.19999998576E+02 0.  0.
        -12    1    1    2    0    0  0.67536096337E+01 -0.31786695829E+02  0.28768351120E+02  0.43400729268E+02  0.00000000000E+00 0.  1.
         11    1    3    3    0    0  0.36887758461E+01  0.15955066921E+02 -0.19816316231E+02  0.25707151085E+02  0.51100000000E-03 0. -1.
        -11    1    3    3    0    0 -0.96170090288E+01  0.10538172336E+02 -0.87138912299E+01  0.16717411267E+02  0.51100000000E-03 0.  1.
        -12    1    3    3    0    0 -0.82537645101E+00  0.52934565719E+01 -0.23814365925E+00  0.53627083798E+01  0.00000000000E+00 0.  1.
</event>
<event>
 7    1  0.2655656E-009  0.4778727E+02  0.7816164E-02  0.1312668E+00
        -11   -1    0    0    0    0  0.00000000000E+00  0.00000000000E+00  0.45593999997E+02  0.45594000000E+02  0.51100000000E-03 0.  1.
         11   -1    0    0    0    0 -0.00000000000E+00 -0.00000000000E+00 -0.45593999997E+02  0.45594000000E+02  0.51100000000E-03 0. -1.
    9900012    2    1    2    0    0 -0.55549556528E+01 -0.26476071089E+02 -0.33937937154E+02  0.47787269005E+02  0.19999990703E+02 0.  0.
        -12    1    1    2    0    0  0.55549556528E+01  0.26476071089E+02  0.33937937154E+02  0.43400730995E+02  0.00000000000E+00 0.  1.
         11    1    3    3    0    0 -0.67922425363E+01 -0.10125265009E+02 -0.27169810264E+02  0.29780096377E+02  0.51100000000E-03 0. -1.
        -11    1    3    3    0    0  0.55664503075E+00 -0.39020143006E+01 -0.27710716191E+00  0.39512476426E+01  0.51100000000E-03 0.  1.
         12    1    3    3    0    0  0.68064185281E+00 -0.12448791779E+02 -0.64910197280E+01  0.14055924986E+02  0.00000000000E+00 0. -1.
</event>
<event>
 7    1  0.2655656E-009  0.4778727E+02  0.7816164E-02  0.1312668E+00
        -11   -1    0    0    0    0  0.00000000000E+00  0.00000000000E+00  0.45593999997E+02  0.45594000000E+02  0.51100000000E-03 0. -1.
         11   -1    0    0    0    0 -0.00000000000E+00 -0.00000000000E+00 -0.45593999997E+02  0.45594000000E+02  0.51100000000E-03 0.  1.
    9900012    2    1    2    0    0  0.35067253114E+02 -0.23731308181E+02  0.95255369829E+01  0.47787273235E+02  0.20000009987E+02 0.  0.
        -12    1    1    2    0    0 -0.35067253114E+02  0.23731308181E+02 -0.95255369829E+01  0.43400726765E+02  0.00000000000E+00 0.  1.
         11    1    3    3    0    0  0.10465414326E+02 -0.17465174820E+02  0.17814748628E+01  0.20438465732E+02  0.51100000000E-03 0. -1.
        -11    1    3    3    0    0  0.18109147944E+02 -0.40727485427E+01  0.85730525498E+01  0.20445678033E+02  0.51100000000E-03 0.  1.
        -12    1    3    3    0    0  0.64926908428E+01 -0.21933848181E+01 -0.82899042966E+00  0.69031294695E+01  0.00000000000E+00 0.  1.
</event>
<event>
 7    1  0.2655656E-009  0.4778727E+02  0.7816164E-02  0.1312668E+00
        -11   -1    0    0    0    0  0.00000000000E+00  0.00000000000E+00  0.45593999997E+02  0.45594000000E+02  0.51100000000E-03 0.  1.
         11   -1    0    0    0    0 -0.00000000000E+00 -0.00000000000E+00 -0.45593999997E+02  0.45594000000E+02  0.51100000000E-03 0. -1.
    9900012    2    1    2    0    0 -0.70392836123E+01  0.34603020757E+02 -0.25232973943E+02  0.47787268056E+02  0.19999986374E+02 0.  0.
        -12    1    1    2    0    0  0.70392836123E+01 -0.34603020757E+02  0.25232973943E+02  0.43400731944E+02  0.00000000000E+00 0.  1.
         11    1    3    3    0    0 -0.99251565572E+01  0.22401653738E+02 -0.10058962349E+02  0.26486327542E+02  0.51100000000E-03 0. -1.
        -11    1    3    3    0    0  0.35746529483E+01  0.12869626986E+02 -0.11899320898E+02  0.17888523711E+02  0.51100000000E-03 0.  1.
        -12    1    3    3    0    0 -0.68878000339E+00 -0.66825996730E+00 -0.32746906966E+01  0.34124168027E+01  0.00000000000E+00 0.  1.
</event>
<event>
 7    1  0.2655656E-009  0.4778729E+02  0.7816164E-02  0.1312668E+00
        -11   -1    0    0    0    0  0.00000000000E+00  0.00000000000E+00  0.45593999997E+02  0.45594000000E+02  0.51100000000E-03 0.  1.
         11   -1    0    0    0    0 -0.00000000000E+00 -0.00000000000E+00 -0.45593999997E+02  0.45594000000E+02  0.51100000000E-03 0. -1.
    9900012    2    1    2    0    0 -0.24160366036E+02 -0.29696598664E+02 -0.20445310309E+02  0.47787286033E+02  0.20000068341E+02 0.  0.
        -12    1    1    2    0    0  0.24160366036E+02  0.29696598664E+02  0.20445310309E+02  0.43400713967E+02  0.00000000000E+00 0.  1.
         11    1    3    3    0    0 -0.48834453125E+01 -0.48820439659E+01 -0.68252472710E+01  0.97090881125E+01  0.51100000000E-03 0. -1.
        -11    1    3    3    0    0 -0.15503880266E+02 -0.26686058530E+02 -0.13918018674E+02  0.33855978309E+02  0.51100000000E-03 0.  1.
        -12    1    3    3    0    0 -0.37730404574E+01  0.18715038328E+01  0.29795563611E+00  0.42222196118E+01  0.00000000000E+00 0.  1.
</event>
<event>
 7    1  0.2655656E-009  0.4778729E+02  0.7816164E-02  0.1312668E+00
        -11   -1    0    0    0    0  0.00000000000E+00  0.00000000000E+00  0.45593999997E+02  0.45594000000E+02  0.51100000000E-03 0.  1.
         11   -1    0    0    0    0 -0.00000000000E+00 -0.00000000000E+00 -0.45593999997E+02  0.45594000000E+02  0.51100000000E-03 0. -1.
    9900012    2    1    2    0    0 -0.36903534392E+02 -0.20195055145E+02  0.10672891450E+02  0.47787289005E+02  0.20000081889E+02 0.  0.
        -12    1    1    2    0    0  0.36903534392E+02  0.20195055145E+02 -0.10672891450E+02  0.43400710995E+02  0.00000000000E+00 0.  1.
         11    1    3    3    0    0 -0.28811398749E+02 -0.20427665191E+02  0.84016298344E+01  0.36303905949E+02  0.51100000000E-03 0. -1.
        -11    1    3    3    0    0 -0.90891134122E+00  0.32930828756E+01  0.10939975136E+01  0.35871082326E+01  0.51100000000E-03 0.  1.
         12    1    3    3    0    0 -0.71832243022E+01 -0.30604728305E+01  0.11772641021E+01  0.78962748235E+01  0.00000000000E+00 0. -1.
</event>
<event>
 7    1  0.2655656E-009  0.4778727E+02  0.7816164E-02  0.1312668E+00
        -11   -1    0    0    0    0  0.00000000000E+00  0.00000000000E+00  0.45593999997E+02  0.45594000000E+02  0.51100000000E-03 0.  1.
         11   -1    0    0    0    0 -0.00000000000E+00 -0.00000000000E+00 -0.45593999997E+02  0.45594000000E+02  0.51100000000E-03 0. -1.
    9900012    2    1    2    0    0 -0.17966552616E+02  0.35816972269E+02 -0.16672469471E+02  0.47787265516E+02  0.19999974796E+02 0.  0.
        -12    1    1    2    0    0  0.17966552616E+02 -0.35816972269E+02  0.16672469471E+02  0.43400734484E+02  0.00000000000E+00 0.  1.
         11    1    3    3    0    0 -0.14027956551E+02  0.99021131622E+01 -0.10217452952E+02  0.19980784648E+02  0.51100000000E-03 0. -1.
        -11    1    3    3    0    0  0.10106621123E+01  0.12804444313E+02 -0.47286226903E+01  0.13687041495E+02  0.51100000000E-03 0.  1.
         12    1    3    3    0    0 -0.49492581774E+01  0.13110414794E+02 -0.17263938294E+01  0.14119439374E+02  0.00000000000E+00 0. -1.
</event>
<event>
 7    1  0.2655656E-009  0.4778727E+02  0.7816164E-02  0.1312668E+00
        -11   -1    0    0    0    0  0.00000000000E+00  0.00000000000E+00  0.45593999997E+02  0.45594000000E+02  0.51100000000E-03 0. -1.
         11   -1    0    0    0    0 -0.00000000000E+00 -0.00000000000E+00 -0.45593999997E+02  0.45594000000E+02  0.51100000000E-03 0.  1.
    9900012    2    1    2    0    0 -0.35514075229E+02  0.15724779470E+02  0.19367629236E+02  0.47787270848E+02  0.19999999102E+02 0.  0.
        -12    1    1    2    0    0  0.35514075229E+02 -0.15724779470E+02 -0.19367629236E+02  0.43400729152E+02  0.00000000000E+00 0.  1.
         11    1    3    3    0    0 -0.51565318186E+01  0.34174243034E+01  0.60315835887E+01  0.86399427148E+01  0.51100000000E-03 0. -1.
        -11    1    3    3    0    0 -0.13124766242E+02  0.61058413022E+00  0.12754935636E+02  0.18311763575E+02  0.51100000000E-03 0.  1.
        -12    1    3    3    0    0 -0.17232777168E+02  0.11696771036E+02  0.58111001168E+00  0.20835564558E+02  0.00000000000E+00 0.  1.
</event>
<event>
 7    1  0.2655656E-009  0.4778727E+02  0.7816164E-02  0.1312668E+00
        -11   -1    0    0    0    0  0.00000000000E+00  0.00000000000E+00  0.45593999997E+02  0.45594000000E+02  0.51100000000E-03 0.  1.
         11   -1    0    0    0    0 -0.00000000000E+00 -0.00000000000E+00 -0.45593999997E+02  0.45594000000E+02  0.51100000000E-03 0. -1.
    9900012    2    1    2    0    0 -0.22839397859E+02  0.17563008669E+02 -0.32458066186E+02  0.47787269262E+02  0.19999991873E+02 0.  0.
        -12    1    1    2    0    0  0.22839397859E+02 -0.17563008669E+02  0.32458066186E+02  0.43400730738E+02  0.00000000000E+00 0.  1.
         11    1    3    3    0    0 -0.17700815336E+02  0.16912726480E+02 -0.27571642533E+02  0.36872139249E+02  0.51100000000E-03 0. -1.
        -11    1    3    3    0    0 -0.65483582398E+01 -0.60975925739E+00 -0.10797594956E+01  0.66647342647E+01  0.51100000000E-03 0.  1.
        -12    1    3    3    0    0  0.14097757161E+01  0.12600414468E+01 -0.38066641565E+01  0.42503957484E+01  0.00000000000E+00 0.  1.
</event>
<event>
 7    1  0.2655656E-009  0.4778727E+02  0.7816164E-02  0.1312668E+00
        -11   -1    0    0    0    0  0.00000000000E+00  0.00000000000E+00  0.45593999997E+02  0.45594000000E+02  0.51100000000E-03 0. -1.
         11   -1    0    0    0    0 -0.00000000000E+00 -0.00000000000E+00 -0.45593999997E+02  0.45594000000E+02  0.51100000000E-03 0.  1.
    9900012    2    1    2    0    0 -0.37718090884E+02  0.14605169913E+02 -0.15737149912E+02  0.47787271256E+02  0.20000000967E+02 0.  0.
        -12    1    1    2    0    0  0.37718090884E+02 -0.14605169913E+02  0.15737149912E+02  0.43400728744E+02  0.00000000000E+00 0.  1.
         11    1    3    3    0    0 -0.24275862619E+02  0.12167141072E+02 -0.43944751155E+01  0.27507603304E+02  0.51100000000E-03 0. -1.
        -11    1    3    3    0    0 -0.12458136258E+02  0.28917078216E+01 -0.13040618162E+02  0.18265400500E+02  0.51100000000E-03 0.  1.
        -12    1    3    3    0    0 -0.98409200757E+00 -0.45367898116E+00  0.16979433647E+01  0.20142674517E+01  0.00000000000E+00 0.  1.
</event>
<event>
 7    1  0.2655656E-009  0.4778727E+02  0.7816164E-02  0.1312668E+00
        -11   -1    0    0    0    0  0.00000000000E+00  0.00000000000E+00  0.45593999997E+02  0.45594000000E+02  0.51100000000E-03 0.  1.
         11   -1    0    0    0    0 -0.00000000000E+00 -0.00000000000E+00 -0.45593999997E+02  0.45594000000E+02  0.51100000000E-03 0. -1.
    9900012    2    1    2    0    0 -0.39555838247E+02 -0.17770906403E+02  0.17758917649E+01  0.47787271372E+02  0.20000001495E+02 0.  0.
        -12    1    1    2    0    0  0.39555838247E+02  0.17770906403E+02 -0.17758917649E+01  0.43400728628E+02  0.00000000000E+00 0.  1.
         11    1    3    3    0    0 -0.24131551776E+02 -0.10756955300E+02 -0.70407295501E+01  0.27342562998E+02  0.51100000000E-03 0. -1.
        -11    1    3    3    0    0 -0.57949511068E+01 -0.20265215208E+01  0.72302953586E+01  0.94850102287E+01  0.51100000000E-03 0.  1.
        -12    1    3    3    0    0 -0.96293353645E+01 -0.49874295827E+01  0.15863259563E+01  0.10959698146E+02  0.00000000000E+00 0.  1.
</event>
<event>
 7    1  0.2655656E-009  0.4778727E+02  0.7816164E-02  0.1312668E+00
        -11   -1    0    0    0    0  0.00000000000E+00  0.00000000000E+00  0.45593999997E+02  0.45594000000E+02  0.51100000000E-03 0.  1.
         11   -1    0    0    0    0 -0.00000000000E+00 -0.00000000000E+00 -0.45593999997E+02  0.45594000000E+02  0.51100000000E-03 0. -1.
    9900012    2    1    2    0    0 -0.30204097722E+02 -0.22991211219E+01 -0.31081348082E+02  0.47787266415E+02  0.19999978892E+02 0.  0.
        -12    1    1    2    0    0  0.30204097722E+02  0.22991211219E+01  0.31081348082E+02  0.43400733585E+02  0.00000000000E+00 0.  1.
         11    1    3    3    0    0 -0.24969078934E+01  0.35264572577E+01 -0.18805955165E+01  0.47124398750E+01  0.51100000000E-03 0. -1.
        -11    1    3    3    0    0 -0.18650307516E+02 -0.96083776561E+01 -0.14911071355E+02  0.25738977074E+02  0.51100000000E-03 0.  1.
        -12    1    3    3    0    0 -0.90568823125E+01  0.37827992765E+01 -0.14289681211E+02  0.17335849466E+02  0.00000000000E+00 0.  1.
</event>
<event>
 7    1  0.2655656E-009  0.4778727E+02  0.7816164E-02  0.1312668E+00
        -11   -1    0    0    0    0  0.00000000000E+00  0.00000000000E+00  0.45593999997E+02  0.45594000000E+02  0.51100000000E-03 0.  1.
         11   -1    0    0    0    0 -0.00000000000E+00 -0.00000000000E+00 -0.45593999997E+02  0.45594000000E+02  0.51100000000E-03 0. -1.
    9900012    2    1    2    0    0 -0.51086623044E+01 -0.23839463268E+02 -0.35905498751E+02  0.47787270974E+02  0.19999999679E+02 0.  0.
        -12    1    1    2    0    0  0.51086623044E+01  0.23839463268E+02  0.35905498751E+02  0.43400729026E+02  0.00000000000E+00 0.  1.
         11    1    3    3    0    0 -0.66519080727E-01 -0.10523065022E+02 -0.20601250155E+02  0.23133327267E+02  0.51100000000E-03 0. -1.
        -11    1    3    3    0    0 -0.46608471637E+00 -0.72240461833E+00 -0.10322520201E+02  0.10358258877E+02  0.51100000000E-03 0.  1.
         12    1    3    3    0    0 -0.45760585073E+01 -0.12593993628E+02 -0.49817283942E+01  0.14295684830E+02  0.00000000000E+00 0. -1.
</event>
<event>
 7    1  0.2655656E-009  0.4778727E+02  0.7816164E-02  0.1312668E+00
        -11   -1    0    0    0    0  0.00000000000E+00  0.00000000000E+00  0.45593999997E+02  0.45594000000E+02  0.51100000000E-03 0.  1.
         11   -1    0    0    0    0 -0.00000000000E+00 -0.00000000000E+00 -0.45593999997E+02  0.45594000000E+02  0.51100000000E-03 0. -1.
    9900012    2    1    2    0    0 -0.41911032714E+02 -0.10740998747E+02 -0.34234238018E+01  0.47787267889E+02  0.19999985614E+02 0.  0.
        -12    1    1    2    0    0  0.41911032714E+02  0.10740998747E+02  0.34234238018E+01  0.43400732111E+02  0.00000000000E+00 0.  1.
         11    1    3    3    0    0 -0.27672418403E+02 -0.67228802328E+01 -0.39732106919E+01  0.28753195689E+02  0.51100000000E-03 0. -1.
        -11    1    3    3    0    0 -0.32993153152E+01  0.86514759518E+00  0.51704004601E+01  0.61941103550E+01  0.51100000000E-03 0.  1.
        -12    1    3    3    0    0 -0.10939298996E+02 -0.48832661099E+01 -0.46206135700E+01  0.12839961845E+02  0.00000000000E+00 0.  1.
</event>
<event>
 7    1  0.2655656E-009  0.4778727E+02  0.7816164E-02  0.1312668E+00
        -11   -1    0    0    0    0  0.00000000000E+00  0.00000000000E+00  0.45593999997E+02  0.45594000000E+02  0.51100000000E-03 0.  1.
         11   -1    0    0    0    0 -0.00000000000E+00 -0.00000000000E+00 -0.45593999997E+02  0.45594000000E+02  0.51100000000E-03 0. -1.
    9900012    2    1    2    0    0  0.15821191428E+01 -0.21669699853E+02 -0.37570520230E+02  0.47787274395E+02  0.20000015278E+02 0.  0.
        -12    1    1    2    0    0 -0.15821191428E+01  0.21669699853E+02  0.37570520230E+02  0.43400725605E+02  0.00000000000E+00 0.  1.
         11    1    3    3    0    0  0.38481268214E+00 -0.10173170386E+02 -0.30410424349E+02  0.32069228021E+02  0.51100000000E-03 0. -1.
        -11    1    3    3    0    0 -0.18651155214E-01 -0.11432054768E+02 -0.36466775596E+01  0.11999603392E+02  0.51100000000E-03 0.  1.
        -12    1    3    3    0    0  0.12159576158E+01 -0.64474698210E-01 -0.35134183209E+01  0.37184429817E+01  0.00000000000E+00 0.  1.
</event>
<event>
 7    1  0.2655656E-009  0.4778727E+02  0.7816164E-02  0.1312668E+00
        -11   -1    0    0    0    0  0.00000000000E+00  0.00000000000E+00  0.45593999997E+02  0.45594000000E+02  0.51100000000E-03 0.  1.
         11   -1    0    0    0    0 -0.00000000000E+00 -0.00000000000E+00 -0.45593999997E+02  0.45594000000E+02  0.51100000000E-03 0. -1.
    9900012    2    1    2    0    0  0.53966569671E+01  0.40837927251E+02 -0.13666127121E+02  0.47787271446E+02  0.20000001829E+02 0.  0.
        -12    1    1    2    0    0 -0.53966569671E+01 -0.40837927251E+02  0.13666127121E+02  0.43400728554E+02  0.00000000000E+00 0.  1.
         11    1    3    3    0    0  0.86200674008E+01  0.22344882799E+02 -0.12206968439E+02  0.26881395574E+02  0.51100000000E-03 0. -1.
        -11    1    3    3    0    0 -0.32416102666E+01  0.11117024544E+01 -0.76150701287E+00  0.35105288290E+01  0.51100000000E-03 0.  1.
        -12    1    3    3    0    0  0.18199832922E-01  0.17381341998E+02 -0.69765166940E+00  0.17395347042E+02  0.00000000000E+00 0.  1.
</event>
<event>
 7    1  0.2655656E-009  0.4778727E+02  0.7816164E-02  0.1312668E+00
        -11   -1    0    0    0    0  0.00000000000E+00  0.00000000000E+00  0.45593999997E+02  0.45594000000E+02  0.51100000000E-03 0.  1.
         11   -1    0    0    0    0 -0.00000000000E+00 -0.00000000000E+00 -0.45593999997E+02  0.45594000000E+02  0.51100000000E-03 0. -1.
    9900012    2    1    2    0    0 -0.43940359096E+01  0.28951408702E+02 -0.32033290320E+02  0.47787270672E+02  0.19999998303E+02 0.  0.
        -12    1    1    2    0    0  0.43940359096E+01 -0.28951408702E+02  0.32033290320E+02  0.43400729328E+02  0.00000000000E+00 0.  1.
         11    1    3    3    0    0 -0.58921623528E+01  0.13374217169E+02 -0.22343021926E+02  0.26698275058E+02  0.51100000000E-03 0. -1.
        -11    1    3    3    0    0  0.24265808237E+01 -0.22671772909E+00  0.16191035746E+00  0.24425213710E+01  0.51100000000E-03 0.  1.
         12    1    3    3    0    0 -0.92845438055E+00  0.15803909263E+02 -0.98521787522E+01  0.18646474243E+02  0.00000000000E+00 0. -1.
</event>
<event>
 7    1  0.2655656E-009  0.4778728E+02  0.7816164E-02  0.1312668E+00
        -11   -1    0    0    0    0  0.00000000000E+00  0.00000000000E+00  0.45593999997E+02  0.45594000000E+02  0.51100000000E-03 0.  1.
         11   -1    0    0    0    0 -0.00000000000E+00 -0.00000000000E+00 -0.45593999997E+02  0.45594000000E+02  0.51100000000E-03 0. -1.
    9900012    2    1    2    0    0 -0.20324026541E+02  0.38623582322E+01 -0.38152835420E+02  0.47787277466E+02  0.20000029277E+02 0.  0.
        -12    1    1    2    0    0  0.20324026541E+02 -0.38623582322E+01  0.38152835420E+02  0.43400722534E+02  0.00000000000E+00 0.  1.
         11    1    3    3    0    0 -0.12282060810E+02 -0.13377008627E+01 -0.10145238106E+02  0.15986379134E+02  0.51100000000E-03 0. -1.
        -11    1    3    3    0    0 -0.83328289683E+00  0.12129456168E+01 -0.20809005601E+02  0.20860975812E+02  0.51100000000E-03 0.  1.
        -12    1    3    3    0    0 -0.72086828342E+01  0.39871134781E+01 -0.71985917131E+01  0.10939922520E+02  0.00000000000E+00 0.  1.
</event>
<event>
 7    1  0.2655656E-009  0.4778728E+02  0.7816164E-02  0.1312668E+00
        -11   -1    0    0    0    0  0.00000000000E+00  0.00000000000E+00  0.45593999997E+02  0.45594000000E+02  0.51100000000E-03 0.  1.
         11   -1    0    0    0    0 -0.00000000000E+00 -0.00000000000E+00 -0.45593999997E+02  0.45594000000E+02  0.51100000000E-03 0. -1.
    9900012    2    1    2    0    0 -0.62481559530E+00  0.24519988285E+02 -0.35805061030E+02  0.47787278630E+02  0.20000034587E+02 0.  0.
        -12    1    1    2    0    0  0.62481559530E+00 -0.24519988285E+02  0.35805061030E+02  0.43400721370E+02  0.00000000000E+00 0.  1.
         11    1    3    3    0    0 -0.67865690538E+00  0.92418687885E+01 -0.62033465339E+01  0.11151422437E+02  0.51100000000E-03 0. -1.
        -11    1    3    3    0    0 -0.56645660462E+01  0.38059590913E+01 -0.37649604268E+01  0.77940721303E+01  0.51100000000E-03 0.  1.
        -12    1    3    3    0    0  0.57184073562E+01  0.11472160405E+02 -0.25836754070E+02  0.28841784063E+02  0.00000000000E+00 0.  1.
</event>
<event>
 7    1  0.2655656E-009  0.4778725E+02  0.7816164E-02  0.1312668E+00
        -11   -1    0    0    0    0  0.00000000000E+00  0.00000000000E+00  0.45593999997E+02  0.45594000000E+02  0.51100000000E-03 0. -1.
         11   -1    0    0    0    0 -0.00000000000E+00 -0.00000000000E+00 -0.45593999997E+02  0.45594000000E+02  0.51100000000E-03 0.  1.
    9900012    2    1    2    0    0  0.41553158043E+02  0.12357547050E+02  0.20617797210E+01  0.47787252910E+02  0.19999917316E+02 0.  0.
        -12    1    1    2    0    0 -0.41553158043E+02 -0.12357547050E+02 -0.20617797210E+01  0.43400747090E+02  0.00000000000E+00 0.  1.
         11    1    3    3    0    0  0.12211187240E+02  0.11006888507E+02  0.28815127307E+01  0.16690350634E+02  0.51100000000E-03 0. -1.
        -11    1    3    3    0    0  0.20308066744E+02 -0.25173173648E+01  0.27374313136E+01  0.20645774194E+02  0.51100000000E-03 0.  1.
         12    1    3    3    0    0  0.90339040581E+01  0.38679759074E+01 -0.35571643232E+01  0.10451128081E+02  0.00000000000E+00 0. -1.
</event>
<event>
 7    1  0.2655656E-009  0.4778727E+02  0.7816164E-02  0.1312668E+00
        -11   -1    0    0    0    0  0.00000000000E+00  0.00000000000E+00  0.45593999997E+02  0.45594000000E+02  0.51100000000E-03 0. -1.
         11   -1    0    0    0    0 -0.00000000000E+00 -0.00000000000E+00 -0.45593999997E+02  0.45594000000E+02  0.51100000000E-03 0.  1.
    9900012    2    1    2    0    0  0.21142987226E+02 -0.34205015651E+02  0.16328330047E+02  0.47787269976E+02  0.19999995127E+02 0.  0.
        -12    1    1    2    0    0 -0.21142987226E+02  0.34205015651E+02 -0.16328330047E+02  0.43400730024E+02  0.00000000000E+00 0.  1.
         11    1    3    3    0    0  0.77940313035E+01 -0.22906218053E+02  0.14411973406E+02  0.28162860777E+02  0.51100000000E-03 0. -1.
        -11    1    3    3    0    0  0.14158088399E+01 -0.24186259596E+01 -0.28574555552E+01  0.40024141108E+01  0.51100000000E-03 0.  1.
         12    1    3    3    0    0  0.11933147083E+02 -0.88801716385E+01  0.47738121955E+01  0.15621995087E+02  0.00000000000E+00 0. -1.
</event>
<event>
 7    1  0.2655656E-009  0.4778727E+02  0.7816164E-02  0.1312668E+00
        -11   -1    0    0    0    0  0.00000000000E+00  0.00000000000E+00  0.45593999997E+02  0.45594000000E+02  0.51100000000E-03 0.  1.
         11   -1    0    0    0    0 -0.00000000000E+00 -0.00000000000E+00 -0.45593999997E+02  0.45594000000E+02  0.51100000000E-03 0. -1.
    9900012    2    1    2    0    0 -0.38028380865E+02 -0.14461816336E+02 -0.15110306585E+02  0.47787271342E+02  0.20000001356E+02 0.  0.
        -12    1    1    2    0    0  0.38028380865E+02  0.14461816336E+02  0.15110306585E+02  0.43400728658E+02  0.00000000000E+00 0.  1.
         11    1    3    3    0    0 -0.25365706649E+02 -0.12891512513E+02 -0.10359287173E+02  0.30280769470E+02  0.51100000000E-03 0. -1.
        -11    1    3    3    0    0 -0.10022961701E+01 -0.19784409935E+01 -0.53828920159E+01  0.58218856991E+01  0.51100000000E-03 0.  1.
         12    1    3    3    0    0 -0.11660378046E+02  0.40813716996E+00  0.63187260425E+00  0.11684616173E+02  0.00000000000E+00 0. -1.
</event>
<event>
 7    1  0.2655656E-009  0.4778727E+02  0.7816164E-02  0.1312668E+00
        -11   -1    0    0    0    0  0.00000000000E+00  0.00000000000E+00  0.45593999997E+02  0.45594000000E+02  0.51100000000E-03 0.  1.
         11   -1    0    0    0    0 -0.00000000000E+00 -0.00000000000E+00 -0.45593999997E+02  0.45594000000E+02  0.51100000000E-03 0. -1.
    9900012    2    1    2    0    0 -0.15044917926E+02  0.22315975005E+02 -0.34048066165E+02  0.47787272986E+02  0.20000008851E+02 0.  0.
        -12    1    1    2    0    0  0.15044917926E+02 -0.22315975005E+02  0.34048066165E+02  0.43400727014E+02  0.00000000000E+00 0.  1.
         11    1    3    3    0    0 -0.86950760797E+01  0.98213266862E+01 -0.72743722265E+01  0.14999309899E+02  0.51100000000E-03 0. -1.
        -11    1    3    3    0    0  0.37639200263E+01  0.52003933529E+01 -0.81404161548E+01  0.10367138488E+02  0.51100000000E-03 0.  1.
        -12    1    3    3    0    0 -0.10113761872E+02  0.72942549658E+01 -0.18633277784E+02  0.22420824598E+02  0.00000000000E+00 0.  1.
</event>
<event>
 7    1  0.2655656E-009  0.4778728E+02  0.7816164E-02  0.1312668E+00
        -11   -1    0    0    0    0  0.00000000000E+00  0.00000000000E+00  0.45593999997E+02  0.45594000000E+02  0.51100000000E-03 0.  1.
         11   -1    0    0    0    0 -0.00000000000E+00 -0.00000000000E+00 -0.45593999997E+02  0.45594000000E+02  0.51100000000E-03 0. -1.
    9900012    2    1    2    0    0 -0.86881754935E+00  0.13681677197E+02 -0.41178631437E+02  0.47787276252E+02  0.20000023743E+02 0.  0.
        -12    1    1    2    0    0  0.86881754935E+00 -0.13681677197E+02  0.41178631437E+02  0.43400723748E+02  0.00000000000E+00 0.  1.
         11    1    3    3    0    0  0.55411480946E+01  0.24322044857E+01 -0.61281501762E+01  0.86124424939E+01  0.51100000000E-03 0. -1.
        -11    1    3    3    0    0 -0.63980169969E+01  0.13659355423E+02 -0.29959968956E+02  0.33542694468E+02  0.51100000000E-03 0.  1.
         12    1    3    3    0    0 -0.11948647105E-01 -0.24098827123E+01 -0.50905123044E+01  0.56321392897E+01  0.00000000000E+00 0. -1.
</event>
<event>
 7    1  0.2655656E-009  0.4778727E+02  0.7816164E-02  0.1312668E+00
        -11   -1    0    0    0    0  0.00000000000E+00  0.00000000000E+00  0.45593999997E+02  0.45594000000E+02  0.51100000000E-03 0.  1.
         11   -1    0    0    0    0 -0.00000000000E+00 -0.00000000000E+00 -0.45593999997E+02  0.45594000000E+02  0.51100000000E-03 0. -1.
    9900012    2    1    2    0    0 -0.29899517204E+02 -0.86032531888E+01 -0.30259314544E+02  0.47787271767E+02  0.20000003296E+02 0.  0.
        -12    1    1    2    0    0  0.29899517204E+02  0.86032531888E+01  0.30259314544E+02  0.43400728233E+02  0.00000000000E+00 0.  1.
         11    1    3    3    0    0 -0.93311280169E+01 -0.13655139268E+01 -0.12892885838E+02  0.15973762357E+02  0.51100000000E-03 0. -1.
        -11    1    3    3    0    0 -0.50640167315E+01 -0.74302993390E+01 -0.65346775404E+00  0.90155773021E+01  0.51100000000E-03 0.  1.
        -12    1    3    3    0    0 -0.15504372456E+02  0.19256007697E+00 -0.16712960952E+02  0.22797932108E+02  0.00000000000E+00 0.  1.
</event>
<event>
 7    1  0.2655656E-009  0.4778727E+02  0.7816164E-02  0.1312668E+00
        -11   -1    0    0    0    0  0.00000000000E+00  0.00000000000E+00  0.45593999997E+02  0.45594000000E+02  0.51100000000E-03 0.  1.
         11   -1    0    0    0    0 -0.00000000000E+00 -0.00000000000E+00 -0.45593999997E+02  0.45594000000E+02  0.51100000000E-03 0. -1.
    9900012    2    1    2    0    0  0.53378310901E+01  0.95170667177E+01 -0.42006623545E+02  0.47787269346E+02  0.19999992254E+02 0.  0.
        -12    1    1    2    0    0 -0.53378310901E+01 -0.95170667177E+01  0.42006623545E+02  0.43400730654E+02  0.00000000000E+00 0.  1.
         11    1    3    3    0    0 -0.32080846120E+01  0.13745573860E+01 -0.23191589697E+02  0.23452740731E+02  0.51100000000E-03 0. -1.
        -11    1    3    3    0    0  0.10693197167E+02  0.69436332441E+01 -0.17127021091E+02  0.21351659420E+02  0.51100000000E-03 0.  1.
        -12    1    3    3    0    0 -0.21472814644E+01  0.11988760876E+01 -0.16880127576E+01  0.29828691944E+01  0.00000000000E+00 0.  1.
</event>
<event>
 7    1  0.2655656E-009  0.4778727E+02  0.7816164E-02  0.1312668E+00
        -11   -1    0    0    0    0  0.00000000000E+00  0.00000000000E+00  0.45593999997E+02  0.45594000000E+02  0.51100000000E-03 0.  1.
         11   -1    0    0    0    0 -0.00000000000E+00 -0.00000000000E+00 -0.45593999997E+02  0.45594000000E+02  0.51100000000E-03 0. -1.
    9900012    2    1    2    0    0  0.25456325490E+01  0.22117530933E+02 -0.37255308760E+02  0.47787269010E+02  0.19999990724E+02 0.  0.
        -12    1    1    2    0    0 -0.25456325490E+01 -0.22117530933E+02  0.37255308760E+02  0.43400730990E+02  0.00000000000E+00 0.  1.
         11    1    3    3    0    0  0.22186265833E+01 -0.27309717894E+01 -0.97829215518E+01  0.10396444834E+02  0.51100000000E-03 0. -1.
        -11    1    3    3    0    0  0.11713205572E+01  0.12921187221E+02 -0.10841209561E+02  0.16907421331E+02  0.51100000000E-03 0.  1.
         12    1    3    3    0    0 -0.84431459160E+00  0.11927315502E+02 -0.16631177647E+02  0.20483402846E+02  0.00000000000E+00 0. -1.
</event>
<event>
 7    1  0.2655656E-009  0.4778727E+02  0.7816164E-02  0.1312668E+00
        -11   -1    0    0    0    0  0.00000000000E+00  0.00000000000E+00  0.45593999997E+02  0.45594000000E+02  0.51100000000E-03 0. -1.
         11   -1    0    0    0    0 -0.00000000000E+00 -0.00000000000E+00 -0.45593999997E+02  0.45594000000E+02  0.51100000000E-03 0.  1.
    9900012    2    1    2    0    0 -0.15398285028E+02 -0.40510178928E+02  0.23326771283E+01  0.47787272343E+02  0.20000005922E+02 0.  0.
        -12    1    1    2    0    0  0.15398285028E+02  0.40510178928E+02 -0.23326771283E+01  0.43400727657E+02  0.00000000000E+00 0.  1.
         11    1    3    3    0    0 -0.29834936517E+01 -0.12880335316E+02  0.65249060232E+01  0.14743767195E+02  0.51100000000E-03 0. -1.
        -11    1    3    3    0    0 -0.89856174417E+01 -0.19905778247E+02 -0.86479727028E+01  0.23489758632E+02  0.51100000000E-03 0.  1.
        -12    1    3    3    0    0 -0.34291739342E+01 -0.77240653648E+01  0.44557438079E+01  0.95537465171E+01  0.00000000000E+00 0.  1.
</event>
<event>
 7    1  0.2655656E-009  0.4778731E+02  0.7816164E-02  0.1312668E+00
        -11   -1    0    0    0    0  0.00000000000E+00  0.00000000000E+00  0.45593999997E+02  0.45594000000E+02  0.51100000000E-03 0.  1.
         11   -1    0    0    0    0 -0.00000000000E+00 -0.00000000000E+00 -0.45593999997E+02  0.45594000000E+02  0.51100000000E-03 0. -1.
    9900012    2    1    2    0    0  0.11390852547E+02 -0.40829046462E+02 -0.93197220148E+01  0.47787311351E+02  0.20000183775E+02 0.  0.
        -12    1    1    2    0    0 -0.11390852547E+02  0.40829046462E+02  0.93197220148E+01  0.43400688649E+02  0.00000000000E+00 0.  1.
         11    1    3    3    0    0  0.73306070211E+01 -0.26080836865E+02 -0.94356946566E+01  0.28687631216E+02  0.51100000000E-03 0. -1.
        -11    1    3    3    0    0 -0.18630783664E+01 -0.10866752719E+02  0.30419418808E+01  0.11437254317E+02  0.51100000000E-03 0.  1.
        -12    1    3    3    0    0  0.59233238923E+01 -0.38814568783E+01 -0.29259692390E+01  0.76624258182E+01  0.00000000000E+00 0.  1.
</event>
<event>
 7    1  0.2655656E-009  0.4778727E+02  0.7816164E-02  0.1312668E+00
        -11   -1    0    0    0    0  0.00000000000E+00  0.00000000000E+00  0.45593999997E+02  0.45594000000E+02  0.51100000000E-03 0.  1.
         11   -1    0    0    0    0 -0.00000000000E+00 -0.00000000000E+00 -0.45593999997E+02  0.45594000000E+02  0.51100000000E-03 0. -1.
    9900012    2    1    2    0    0  0.20277509224E+02 -0.35628862349E+02 -0.14248871244E+02  0.47787267928E+02  0.19999985792E+02 0.  0.
        -12    1    1    2    0    0 -0.20277509224E+02  0.35628862349E+02  0.14248871244E+02  0.43400732072E+02  0.00000000000E+00 0.  1.
         11    1    3    3    0    0  0.11892019883E+02 -0.12629839791E+02 -0.86534417959E+01  0.19385949686E+02  0.51100000000E-03 0. -1.
        -11    1    3    3    0    0  0.34523382742E+01 -0.21606921476E+02 -0.16691326799E+01  0.21944559676E+02  0.51100000000E-03 0.  1.
        -12    1    3    3    0    0  0.49331510662E+01 -0.13921010828E+01 -0.39262967684E+01  0.64567585661E+01  0.00000000000E+00 0.  1.
</event>
<event>
 7    1  0.2655656E-009  0.4778728E+02  0.7816164E-02  0.1312668E+00
        -11   -1    0    0    0    0  0.00000000000E+00  0.00000000000E+00  0.45593999997E+02  0.45594000000E+02  0.51100000000E-03 0. -1.
         11   -1    0    0    0    0 -0.00000000000E+00 -0.00000000000E+00 -0.45593999997E+02  0.45594000000E+02  0.51100000000E-03 0.  1.
    9900012    2    1    2    0    0  0.42673289839E+02  0.74295390047E+01  0.27230791100E+01  0.47787275636E+02  0.20000020935E+02 0.  0.
        -12    1    1    2    0    0 -0.42673289839E+02 -0.74295390047E+01 -0.27230791100E+01  0.43400724364E+02  0.00000000000E+00 0.  1.
         11    1    3    3    0    0  0.40798999132E+01  0.47854458712E+01 -0.22628260982E+01  0.66832969184E+01  0.51100000000E-03 0. -1.
        -11    1    3    3    0    0  0.28383111812E+02  0.96406908845E-01  0.90979807450E+01  0.29805764280E+02  0.51100000000E-03 0.  1.
        -12    1    3    3    0    0  0.10210278113E+02  0.25476862247E+01 -0.41120755368E+01  0.11298214437E+02  0.00000000000E+00 0.  1.
</event>
<event>
 7    1  0.2655656E-009  0.4778727E+02  0.7816164E-02  0.1312668E+00
        -11   -1    0    0    0    0  0.00000000000E+00  0.00000000000E+00  0.45593999997E+02  0.45594000000E+02  0.51100000000E-03 0.  1.
         11   -1    0    0    0    0 -0.00000000000E+00 -0.00000000000E+00 -0.45593999997E+02  0.45594000000E+02  0.51100000000E-03 0. -1.
    9900012    2    1    2    0    0  0.19407792992E+02  0.89621639791E+00 -0.38809246446E+02  0.47787271408E+02  0.20000001656E+02 0.  0.
        -12    1    1    2    0    0 -0.19407792992E+02 -0.89621639791E+00  0.38809246446E+02  0.43400728592E+02  0.00000000000E+00 0.  1.
         11    1    3    3    0    0  0.14454440090E+02 -0.39962804603E+01 -0.21114480001E+02  0.25898308088E+02  0.51100000000E-03 0. -1.
        -11    1    3    3    0    0  0.13450214983E+01  0.49907804817E+01 -0.17529320497E+02  0.18275504097E+02  0.51100000000E-03 0.  1.
         12    1    3    3    0    0  0.36083314042E+01 -0.98283623465E-01 -0.16544594732E+00  0.36134592228E+01  0.00000000000E+00 0. -1.
</event>
<event>
 7    1  0.2655656E-009  0.4778727E+02  0.7816164E-02  0.1312668E+00
        -11   -1    0    0    0    0  0.00000000000E+00  0.00000000000E+00  0.45593999997E+02  0.45594000000E+02  0.51100000000E-03 0. -1.
         11   -1    0    0    0    0 -0.00000000000E+00 -0.00000000000E+00 -0.45593999997E+02  0.45594000000E+02  0.51100000000E-03 0.  1.
    9900012    2    1    2    0    0 -0.16567842266E+02 -0.38374118810E+02  0.11685766822E+02  0.47787268002E+02  0.19999986127E+02 0.  0.
        -12    1    1    2    0    0  0.16567842266E+02  0.38374118810E+02 -0.11685766822E+02  0.43400731998E+02  0.00000000000E+00 0.  1.
         11    1    3    3    0    0 -0.15777225658E+01 -0.28088809688E+01  0.32634973450E+01  0.45857862983E+01  0.51100000000E-03 0. -1.
        -11    1    3    3    0    0 -0.50116496628E+01 -0.18956976686E+02  0.12697008018E+02  0.23360171453E+02  0.51100000000E-03 0.  1.
        -12    1    3    3    0    0 -0.99784700369E+01 -0.16608261155E+02 -0.42747385415E+01  0.19841310251E+02  0.00000000000E+00 0.  1.
</event>
<event>
 7    1  0.2655656E-009  0.4778727E+02  0.7816164E-02  0.1312668E+00
        -11   -1    0    0    0    0  0.00000000000E+00  0.00000000000E+00  0.45593999997E+02  0.45594000000E+02  0.51100000000E-03 0. -1.
         11   -1    0    0    0    0 -0.00000000000E+00 -0.00000000000E+00 -0.45593999997E+02  0.45594000000E+02  0.51100000000E-03 0.  1.
    9900012    2    1    2    0    0  0.22100480006E+02 -0.15097403529E+02  0.34165193329E+02  0.47787271377E+02  0.20000001518E+02 0.  0.
        -12    1    1    2    0    0 -0.22100480006E+02  0.15097403529E+02 -0.34165193329E+02  0.43400728623E+02  0.00000000000E+00 0.  1.
         11    1    3    3    0    0  0.46173204177E+01 -0.11716854030E+02  0.16637439473E+02  0.20866449355E+02  0.51100000000E-03 0. -1.
        -11    1    3    3    0    0  0.13147621864E+02 -0.43567903285E+01  0.70545720260E+01  0.15543763038E+02  0.51100000000E-03 0.  1.
         12    1    3    3    0    0  0.43355377240E+01  0.97624082952E+00  0.10473181830E+02  0.11377058985E+02  0.00000000000E+00 0. -1.
</event>
<event>
 7    1  0.2655656E-009  0.4778728E+02  0.7816164E-02  0.1312668E+00
        -11   -1    0    0    0    0  0.00000000000E+00  0.00000000000E+00  0.45593999997E+02  0.45594000000E+02  0.51100000000E-03 0.  1.
         11   -1    0    0    0    0 -0.00000000000E+00 -0.00000000000E+00 -0.45593999997E+02  0.45594000000E+02  0.51100000000E-03 0. -1.
    9900012    2    1    2    0    0  0.30185846284E+02  0.29177544117E+02  0.11004908565E+02  0.47787281007E+02  0.20000045424E+02 0.  0.
        -12    1    1    2    0    0 -0.30185846284E+02 -0.29177544117E+02 -0.11004908565E+02  0.43400718993E+02  0.00000000000E+00 0.  1.
         11    1    3    3    0    0  0.25054924675E+02  0.16137153629E+02  0.11209738485E+02  0.31840465055E+02  0.51100000000E-03 0. -1.
        -11    1    3    3    0    0  0.38475696136E+01  0.10605446503E+02  0.30474448474E+01  0.11686154535E+02  0.51100000000E-03 0.  1.
         12    1    3    3    0    0  0.12833519956E+01  0.24349439848E+01 -0.32522747674E+01  0.42606614177E+01  0.00000000000E+00 0. -1.
</event>
<event>
 7    1  0.2655656E-009  0.4778727E+02  0.7816164E-02  0.1312668E+00
        -11   -1    0    0    0    0  0.00000000000E+00  0.00000000000E+00  0.45593999997E+02  0.45594000000E+02  0.51100000000E-03 0.  1.
         11   -1    0    0    0    0 -0.00000000000E+00 -0.00000000000E+00 -0.45593999997E+02  0.45594000000E+02  0.51100000000E-03 0. -1.
    9900012    2    1    2    0    0 -0.12591989361E+02  0.10597081713E+02 -0.40159272336E+02  0.47787268538E+02  0.19999988572E+02 0.  0.
        -12    1    1    2    0    0  0.12591989361E+02 -0.10597081713E+02  0.40159272336E+02  0.43400731462E+02  0.00000000000E+00 0.  1.
         11    1    3    3    0    0 -0.11481333227E+02  0.12840021772E+02 -0.16223800879E+02  0.23662182634E+02  0.51100000000E-03 0. -1.
        -11    1    3    3    0    0 -0.86053651083E+00 -0.20918616105E+01 -0.23447237080E+02  0.23556089129E+02  0.51100000000E-03 0.  1.
         12    1    3    3    0    0 -0.25011962367E+00 -0.15107844863E+00 -0.48823437660E+00  0.56899677528E+00  0.00000000000E+00 0. -1.
</event>
<event>
 7    1  0.2655656E-009  0.4778727E+02  0.7816164E-02  0.1312668E+00
        -11   -1    0    0    0    0  0.00000000000E+00  0.00000000000E+00  0.45593999997E+02  0.45594000000E+02  0.51100000000E-03 0.  1.
         11   -1    0    0    0    0 -0.00000000000E+00 -0.00000000000E+00 -0.45593999997E+02  0.45594000000E+02  0.51100000000E-03 0. -1.
    9900012    2    1    2    0    0 -0.22018485418E+02  0.34171227297E+02 -0.15203191021E+02  0.47787268527E+02  0.19999988524E+02 0.  0.
        -12    1    1    2    0    0  0.22018485418E+02 -0.34171227297E+02  0.15203191021E+02  0.43400731473E+02  0.00000000000E+00 0.  1.
         11    1    3    3    0    0  0.84206705754E+00  0.20921794986E+01 -0.43269936295E+01  0.48794637118E+01  0.51100000000E-03 0. -1.
        -11    1    3    3    0    0 -0.14192937807E+02  0.14099427167E+02  0.34734670243E+00  0.20008847544E+02  0.51100000000E-03 0.  1.
        -12    1    3    3    0    0 -0.86676146690E+01  0.17979620632E+02 -0.11223544094E+02  0.22898957272E+02  0.00000000000E+00 0.  1.
</event>
<event>
 7    1  0.2655656E-009  0.4778727E+02  0.7816164E-02  0.1312668E+00
        -11   -1    0    0    0    0  0.00000000000E+00  0.00000000000E+00  0.45593999997E+02  0.45594000000E+02  0.51100000000E-03 0. -1.
         11   -1    0    0    0    0 -0.00000000000E+00 -0.00000000000E+00 -0.45593999997E+02  0.45594000000E+02  0.51100000000E-03 0.  1.
    9900012    2    1    2    0    0 -0.15558251771E+02  0.40359635833E+02  0.35586642134E+01  0.47787268511E+02  0.19999988451E+02 0.  0.
        -12    1    1    2    0    0  0.15558251771E+02 -0.40359635833E+02 -0.35586642134E+01  0.43400731489E+02  0.00000000000E+00 0.  1.
         11    1    3    3    0    0 -0.24649382099E+01  0.10383596775E+02 -0.34065378818E+00  0.10677595592E+02  0.51100000000E-03 0. -1.
        -11    1    3    3    0    0 -0.30772017220E+01  0.81792552662E+01 -0.65734387379E+01  0.10935240475E+02  0.51100000000E-03 0.  1.
        -12    1    3    3    0    0 -0.10016111839E+02  0.21796783793E+02  0.10472756739E+02  0.26174432445E+02  0.00000000000E+00 0.  1.
</event>
<event>
 7    1  0.2655656E-009  0.4778727E+02  0.7816164E-02  0.1312668E+00
        -11   -1    0    0    0    0  0.00000000000E+00  0.00000000000E+00  0.45593999997E+02  0.45594000000E+02  0.51100000000E-03 0.  1.
         11   -1    0    0    0    0 -0.00000000000E+00 -0.00000000000E+00 -0.45593999997E+02  0.45594000000E+02  0.51100000000E-03 0. -1.
    9900012    2    1    2    0    0  0.40010667035E+00  0.79072395477E+01 -0.42672458094E+02  0.47787271868E+02  0.20000003755E+02 0.  0.
        -12    1    1    2    0    0 -0.40010667035E+00 -0.79072395477E+01  0.42672458094E+02  0.43400728132E+02  0.00000000000E+00 0.  1.
         11    1    3    3    0    0 -0.50201750268E+01  0.21846314768E+01 -0.15493936844E+02  0.16432798033E+02  0.51100000000E-03 0. -1.
        -11    1    3    3    0    0  0.22971026450E+01 -0.19526293478E+01 -0.78489512705E-01  0.30158917084E+01  0.51100000000E-03 0.  1.
        -12    1    3    3    0    0  0.31231790521E+01  0.76752374187E+01 -0.27100031737E+02  0.28338582127E+02  0.00000000000E+00 0.  1.
</event>
<event>
 7    1  0.2655656E-009  0.4778727E+02  0.7816164E-02  0.1312668E+00
        -11   -1    0    0    0    0  0.00000000000E+00  0.00000000000E+00  0.45593999997E+02  0.45594000000E+02  0.51100000000E-03 0. -1.
         11   -1    0    0    0    0 -0.00000000000E+00 -0.00000000000E+00 -0.45593999997E+02  0.45594000000E+02  0.51100000000E-03 0.  1.
    9900012    2    1    2    0    0  0.35036474491E+02  0.12513006192E+02  0.22349351397E+02  0.47787269861E+02  0.19999994605E+02 0.  0.
        -12    1    1    2    0    0 -0.35036474491E+02 -0.12513006192E+02 -0.22349351397E+02  0.43400730139E+02  0.00000000000E+00 0.  1.
         11    1    3    3    0    0  0.14395757897E+02  0.39829865296E+00  0.16098087001E+02  0.21599650289E+02  0.51100000000E-03 0. -1.
        -11    1    3    3    0    0  0.75693137603E+01  0.65451094675E+01 -0.13106885255E+01  0.10092119372E+02  0.51100000000E-03 0.  1.
         12    1    3    3    0    0  0.13071402833E+02  0.55695980713E+01  0.75619529218E+01  0.16095500200E+02  0.00000000000E+00 0. -1.
</event>
<event>
 7    1  0.2655656E-009  0.4778727E+02  0.7816164E-02  0.1312668E+00
        -11   -1    0    0    0    0  0.00000000000E+00  0.00000000000E+00  0.45593999997E+02  0.45594000000E+02  0.51100000000E-03 0.  1.
         11   -1    0    0    0    0 -0.00000000000E+00 -0.00000000000E+00 -0.45593999997E+02  0.45594000000E+02  0.51100000000E-03 0. -1.
    9900012    2    1    2    0    0 -0.45942128123E+00 -0.41989682532E+02  0.10967163394E+02  0.47787272127E+02  0.20000004935E+02 0.  0.
        -12    1    1    2    0    0  0.45942128123E+00  0.41989682532E+02 -0.10967163394E+02  0.43400727873E+02  0.00000000000E+00 0.  1.
         11    1    3    3    0    0 -0.87354788474E+01 -0.25054695244E+02  0.11458840581E+02  0.28902445782E+02  0.51100000000E-03 0. -1.
        -11    1    3    3    0    0  0.67696525254E+01 -0.14690518085E+02 -0.41109364882E+00  0.16180497989E+02  0.51100000000E-03 0.  1.
         12    1    3    3    0    0  0.15064050408E+01 -0.22444692032E+01 -0.80583538786E-01  0.27043283561E+01  0.00000000000E+00 0. -1.
</event>
<event>
 7    1  0.2655656E-009  0.4778727E+02  0.7816164E-02  0.1312668E+00
        -11   -1    0    0    0    0  0.00000000000E+00  0.00000000000E+00  0.45593999997E+02  0.45594000000E+02  0.51100000000E-03 0. -1.
         11   -1    0    0    0    0 -0.00000000000E+00 -0.00000000000E+00 -0.45593999997E+02  0.45594000000E+02  0.51100000000E-03 0.  1.
    9900012    2    1    2    0    0  0.25672564144E+02  0.34955517240E+02  0.16292402517E+01  0.47787272367E+02  0.20000006031E+02 0.  0.
        -12    1    1    2    0    0 -0.25672564144E+02 -0.34955517240E+02 -0.16292402517E+01  0.43400727633E+02  0.00000000000E+00 0.  1.
         11    1    3    3    0    0  0.11274810494E+02  0.15454152917E+02  0.93571657652E+01  0.21295744774E+02  0.51100000000E-03 0. -1.
        -11    1    3    3    0    0  0.57344316327E+01  0.13860944422E+02 -0.47074255516E+01  0.15721620209E+02  0.51100000000E-03 0.  1.
         12    1    3    3    0    0  0.86633220175E+01  0.56404199012E+01 -0.30204999619E+01  0.10769907384E+02  0.00000000000E+00 0. -1.
</event>
<event>
 7    1  0.2655656E-009  0.4778730E+02  0.7816164E-02  0.1312668E+00
        -11   -1    0    0    0    0  0.00000000000E+00  0.00000000000E+00  0.45593999997E+02  0.45594000000E+02  0.51100000000E-03 0. -1.
         11   -1    0    0    0    0 -0.00000000000E+00 -0.00000000000E+00 -0.45593999997E+02  0.45594000000E+02  0.51100000000E-03 0.  1.
    9900012    2    1    2    0    0 -0.17060659126E+02  0.20752470286E+02  0.34086504955E+02  0.47787298014E+02  0.20000122966E+02 0.  0.
        -12    1    1    2    0    0  0.17060659126E+02 -0.20752470286E+02 -0.34086504955E+02  0.43400701986E+02  0.00000000000E+00 0.  1.
         11    1    3    3    0    0 -0.15911207579E+01  0.12996294046E+02  0.13360134177E+02  0.18706376177E+02  0.51100000000E-03 0. -1.
        -11    1    3    3    0    0 -0.22304059296E+01  0.66653334797E+01  0.59266475371E+01  0.91938312088E+01  0.51100000000E-03 0.  1.
         12    1    3    3    0    0 -0.13239132438E+02  0.10908427609E+01  0.14799723241E+02  0.19887090628E+02  0.00000000000E+00 0. -1.
</event>
<event>
 7    1  0.2655656E-009  0.4778727E+02  0.7816164E-02  0.1312668E+00
        -11   -1    0    0    0    0  0.00000000000E+00  0.00000000000E+00  0.45593999997E+02  0.45594000000E+02  0.51100000000E-03 0. -1.
         11   -1    0    0    0    0 -0.00000000000E+00 -0.00000000000E+00 -0.45593999997E+02  0.45594000000E+02  0.51100000000E-03 0.  1.
    9900012    2    1    2    0    0  0.30177016059E+01 -0.96926334308E+00  0.43284838340E+02  0.47787271613E+02  0.20000002593E+02 0.  0.
        -12    1    1    2    0    0 -0.30177016059E+01  0.96926334308E+00 -0.43284838340E+02  0.43400728387E+02  0.00000000000E+00 0.  1.
         11    1    3    3    0    0  0.24211880358E+01  0.72128630680E+01  0.26634033766E+02  0.27699445844E+02  0.51100000000E-03 0. -1.
        -11    1    3    3    0    0  0.14375934116E+01 -0.65580452389E+01  0.52004116439E+01  0.84922855404E+01  0.51100000000E-03 0.  1.
         12    1    3    3    0    0 -0.84107984153E+00 -0.16240811722E+01  0.11450392930E+02  0.11595540229E+02  0.00000000000E+00 0. -1.
</event>
<event>
 7    1  0.2655656E-009  0.4778727E+02  0.7816164E-02  0.1312668E+00
        -11   -1    0    0    0    0  0.00000000000E+00  0.00000000000E+00  0.45593999997E+02  0.45594000000E+02  0.51100000000E-03 0.  1.
         11   -1    0    0    0    0 -0.00000000000E+00 -0.00000000000E+00 -0.45593999997E+02  0.45594000000E+02  0.51100000000E-03 0. -1.
    9900012    2    1    2    0    0  0.23609929137E+02 -0.11142584177E+02 -0.34670405850E+02  0.47787274455E+02  0.20000015552E+02 0.  0.
        -12    1    1    2    0    0 -0.23609929137E+02  0.11142584177E+02  0.34670405850E+02  0.43400725545E+02  0.00000000000E+00 0.  1.
         11    1    3    3    0    0  0.22442741705E+02 -0.11725350071E+02 -0.35723923754E+02  0.43787660569E+02  0.51100000000E-03 0. -1.
        -11    1    3    3    0    0  0.24636600853E+01  0.33456660305E+00  0.99597593840E+00  0.26783435476E+01  0.51100000000E-03 0.  1.
         12    1    3    3    0    0 -0.12964726535E+01  0.24819929085E+00  0.57541965320E-01  0.13212703383E+01  0.00000000000E+00 0. -1.
</event>
<event>
 7    1  0.2655656E-009  0.4778727E+02  0.7816164E-02  0.1312668E+00
        -11   -1    0    0    0    0  0.00000000000E+00  0.00000000000E+00  0.45593999997E+02  0.45594000000E+02  0.51100000000E-03 0.  1.
         11   -1    0    0    0    0 -0.00000000000E+00 -0.00000000000E+00 -0.45593999997E+02  0.45594000000E+02  0.51100000000E-03 0. -1.
    9900012    2    1    2    0    0 -0.19145287928E+02 -0.37842420151E+02 -0.92212974433E+01  0.47787272595E+02  0.20000007071E+02 0.  0.
        -12    1    1    2    0    0  0.19145287928E+02  0.37842420151E+02  0.92212974433E+01  0.43400727405E+02  0.00000000000E+00 0.  1.
         11    1    3    3    0    0 -0.10818615610E+02 -0.32392715830E+02 -0.99119503796E+01  0.35560894859E+02  0.51100000000E-03 0. -1.
        -11    1    3    3    0    0 -0.49880910537E+01  0.69078487167E+00 -0.74657537189E+00  0.50907377801E+01  0.51100000000E-03 0.  1.
         12    1    3    3    0    0 -0.33385812647E+01 -0.61404891922E+01  0.14372283081E+01  0.71356399566E+01  0.00000000000E+00 0. -1.
</event>
<event>
 7    1  0.2655656E-009  0.4778727E+02  0.7816164E-02  0.1312668E+00
        -11   -1    0    0    0    0  0.00000000000E+00  0.00000000000E+00  0.45593999997E+02  0.45594000000E+02  0.51100000000E-03 0.  1.
         11   -1    0    0    0    0 -0.00000000000E+00 -0.00000000000E+00 -0.45593999997E+02  0.45594000000E+02  0.51100000000E-03 0. -1.
    9900012    2    1    2    0    0 -0.10852708724E+02 -0.12907368964E+02 -0.39990518734E+02  0.47787273637E+02  0.20000011820E+02 0.  0.
        -12    1    1    2    0    0  0.10852708724E+02  0.12907368964E+02  0.39990518734E+02  0.43400726363E+02  0.00000000000E+00 0.  1.
         11    1    3    3    0    0 -0.58974852839E+01 -0.10326339115E+01 -0.12434682258E+02  0.13801014042E+02  0.51100000000E-03 0. -1.
        -11    1    3    3    0    0  0.44795413551E+01 -0.84260860782E+01 -0.16399274796E+02  0.18973703683E+02  0.51100000000E-03 0.  1.
        -12    1    3    3    0    0 -0.94347647949E+01 -0.34486489743E+01 -0.11156561681E+02  0.15012555912E+02  0.00000000000E+00 0.  1.
</event>
<event>
 7    1  0.2655656E-009  0.4778727E+02  0.7816164E-02  0.1312668E+00
        -11   -1    0    0    0    0  0.00000000000E+00  0.00000000000E+00  0.45593999997E+02  0.45594000000E+02  0.51100000000E-03 0.  1.
         11   -1    0    0    0    0 -0.00000000000E+00 -0.00000000000E+00 -0.45593999997E+02  0.45594000000E+02  0.51100000000E-03 0. -1.
    9900012    2    1    2    0    0 -0.37458133589E+02 -0.21358102551E+02 -0.49338715957E+01  0.47787269528E+02  0.19999993087E+02 0.  0.
        -12    1    1    2    0    0  0.37458133589E+02  0.21358102551E+02  0.49338715957E+01  0.43400730472E+02  0.00000000000E+00 0.  1.
         11    1    3    3    0    0 -0.31050924152E+01 -0.10230511329E+02 -0.39533030205E+01  0.11398840555E+02  0.51100000000E-03 0. -1.
        -11    1    3    3    0    0 -0.28323617128E+02 -0.96457381284E+01  0.79201618378E+00  0.29931502487E+02  0.51100000000E-03 0.  1.
         12    1    3    3    0    0 -0.60294240460E+01 -0.14818530934E+01 -0.17725847590E+01  0.64569264860E+01  0.00000000000E+00 0. -1.
</event>
<event>
 7    1  0.2655656E-009  0.4778727E+02  0.7816164E-02  0.1312668E+00
        -11   -1    0    0    0    0  0.00000000000E+00  0.00000000000E+00  0.45593999997E+02  0.45594000000E+02  0.51100000000E-03 0.  1.
         11   -1    0    0    0    0 -0.00000000000E+00 -0.00000000000E+00 -0.45593999997E+02  0.45594000000E+02  0.51100000000E-03 0. -1.
    9900012    2    1    2    0    0  0.32546006420E+02 -0.25160864571E+02 -0.13831540370E+02  0.47787272484E+02  0.20000006565E+02 0.  0.
        -12    1    1    2    0    0 -0.32546006420E+02  0.25160864571E+02  0.13831540370E+02  0.43400727516E+02  0.00000000000E+00 0.  1.
         11    1    3    3    0    0  0.57300646968E+01 -0.10291932997E+02 -0.18930768851E+01  0.11930685924E+02  0.51100000000E-03 0. -1.
        -11    1    3    3    0    0  0.26820023599E+01  0.23957056353E+01  0.59441202245E+00  0.36449784722E+01  0.51100000000E-03 0.  1.
        -12    1    3    3    0    0  0.24133939364E+02 -0.17264637209E+02 -0.12532875508E+02  0.32211608089E+02  0.00000000000E+00 0.  1.
</event>
<event>
 7    1  0.2655656E-009  0.4778727E+02  0.7816164E-02  0.1312668E+00
        -11   -1    0    0    0    0  0.00000000000E+00  0.00000000000E+00  0.45593999997E+02  0.45594000000E+02  0.51100000000E-03 0.  1.
         11   -1    0    0    0    0 -0.00000000000E+00 -0.00000000000E+00 -0.45593999997E+02  0.45594000000E+02  0.51100000000E-03 0. -1.
    9900012    2    1    2    0    0  0.40897861785E+02  0.12082867244E+02  0.80617784533E+01  0.47787273609E+02  0.20000011693E+02 0.  0.
        -12    1    1    2    0    0 -0.40897861785E+02 -0.12082867244E+02 -0.80617784533E+01  0.43400726391E+02  0.00000000000E+00 0.  1.
         11    1    3    3    0    0  0.16384687288E+02 -0.14699863179E+01 -0.30074677748E+00  0.16453245460E+02  0.51100000000E-03 0. -1.
        -11    1    3    3    0    0  0.16130973970E+02  0.12682878630E+02  0.98746960929E+01  0.22772205750E+02  0.51100000000E-03 0.  1.
        -12    1    3    3    0    0  0.83822005277E+01  0.86997493266E+00 -0.15121708622E+01  0.85618223987E+01  0.00000000000E+00 0.  1.
</event>
<event>
 7    1  0.2655656E-009  0.4778728E+02  0.7816164E-02  0.1312668E+00
        -11   -1    0    0    0    0  0.00000000000E+00  0.00000000000E+00  0.45593999997E+02  0.45594000000E+02  0.51100000000E-03 0.  1.
         11   -1    0    0    0    0 -0.00000000000E+00 -0.00000000000E+00 -0.45593999997E+02  0.45594000000E+02  0.51100000000E-03 0. -1.
    9900012    2    1    2    0    0 -0.17654226865E+02 -0.38208358782E+02 -0.10586426676E+02  0.47787276080E+02  0.20000022957E+02 0.  0.
        -12    1    1    2    0    0  0.17654226865E+02  0.38208358782E+02  0.10586426676E+02  0.43400723920E+02  0.00000000000E+00 0.  1.
         11    1    3    3    0    0 -0.13932733495E+02 -0.31374408837E+02 -0.96456654558E+01  0.35658287324E+02  0.51100000000E-03 0. -1.
        -11    1    3    3    0    0 -0.48645565251E+01 -0.64642400667E+01 -0.38661969160E+01  0.89664813991E+01  0.51100000000E-03 0.  1.
         12    1    3    3    0    0  0.11430631550E+01 -0.36970987826E+00  0.29254356957E+01  0.31625073565E+01  0.00000000000E+00 0. -1.
</event>
<event>
 7    1  0.2655656E-009  0.4778728E+02  0.7816164E-02  0.1312668E+00
        -11   -1    0    0    0    0  0.00000000000E+00  0.00000000000E+00  0.45593999997E+02  0.45594000000E+02  0.51100000000E-03 0.  1.
         11   -1    0    0    0    0 -0.00000000000E+00 -0.00000000000E+00 -0.45593999997E+02  0.45594000000E+02  0.51100000000E-03 0. -1.
    9900012    2    1    2    0    0 -0.41596647049E+01 -0.29483744740E+02 -0.31575757097E+02  0.47787280529E+02  0.20000043244E+02 0.  0.
        -12    1    1    2    0    0  0.41596647049E+01  0.29483744740E+02  0.31575757097E+02  0.43400719471E+02  0.00000000000E+00 0.  1.
         11    1    3    3    0    0 -0.67019022755E+01 -0.21487783198E+02 -0.28579256992E+02  0.36378760993E+02  0.51100000000E-03 0. -1.
        -11    1    3    3    0    0 -0.11843266832E+01 -0.66608836396E+01 -0.62536564859E+00  0.67941948021E+01  0.51100000000E-03 0.  1.
         12    1    3    3    0    0  0.37265642538E+01 -0.13350779017E+01 -0.23711344568E+01  0.46143247343E+01  0.00000000000E+00 0. -1.
</event>
<event>
 7    1  0.2655656E-009  0.4778727E+02  0.7816164E-02  0.1312668E+00
        -11   -1    0    0    0    0  0.00000000000E+00  0.00000000000E+00  0.45593999997E+02  0.45594000000E+02  0.51100000000E-03 0. -1.
         11   -1    0    0    0    0 -0.00000000000E+00 -0.00000000000E+00 -0.45593999997E+02  0.45594000000E+02  0.51100000000E-03 0.  1.
    9900012    2    1    2    0    0 -0.35552941709E+02 -0.58083478668E+01  0.24204843813E+02  0.47787273818E+02  0.20000012646E+02 0.  0.
        -12    1    1    2    0    0  0.35552941709E+02  0.58083478668E+01 -0.24204843813E+02  0.43400726182E+02  0.00000000000E+00 0.  1.
         11    1    3    3    0    0 -0.26525821726E+01 -0.25415521482E+01  0.47754304317E+00  0.37045549157E+01  0.51100000000E-03 0. -1.
        -11    1    3    3    0    0 -0.17500948889E+02 -0.79209120465E+01  0.19664458502E+02  0.27490270790E+02  0.51100000000E-03 0.  1.
        -12    1    3    3    0    0 -0.15399410647E+02  0.46541163279E+01  0.40628422683E+01  0.16592448113E+02  0.00000000000E+00 0.  1.
</event>
<event>
 7    1  0.2655656E-009  0.4778726E+02  0.7816164E-02  0.1312668E+00
        -11   -1    0    0    0    0  0.00000000000E+00  0.00000000000E+00  0.45593999997E+02  0.45594000000E+02  0.51100000000E-03 0. -1.
         11   -1    0    0    0    0 -0.00000000000E+00 -0.00000000000E+00 -0.45593999997E+02  0.45594000000E+02  0.51100000000E-03 0.  1.
    9900012    2    1    2    0    0 -0.33882263853E+02  0.35265768985E+01  0.26892001967E+02  0.47787259013E+02  0.19999945144E+02 0.  0.
        -12    1    1    2    0    0  0.33882263853E+02 -0.35265768985E+01 -0.26892001967E+02  0.43400740987E+02  0.00000000000E+00 0.  1.
         11    1    3    3    0    0 -0.28528356010E+02 -0.62525672991E+00  0.19032644656E+02  0.34300140021E+02  0.51100000000E-03 0. -1.
        -11    1    3    3    0    0  0.18481804609E+01 -0.19022294997E+00  0.36207513417E+01  0.40696186955E+01  0.51100000000E-03 0.  1.
         12    1    3    3    0    0 -0.72020883040E+01  0.43420565784E+01  0.42386059690E+01  0.94175002962E+01  0.00000000000E+00 0. -1.
</event>
<event>
 7    1  0.2655656E-009  0.4778727E+02  0.7816164E-02  0.1312668E+00
        -11   -1    0    0    0    0  0.00000000000E+00  0.00000000000E+00  0.45593999997E+02  0.45594000000E+02  0.51100000000E-03 0. -1.
         11   -1    0    0    0    0 -0.00000000000E+00 -0.00000000000E+00 -0.45593999997E+02  0.45594000000E+02  0.51100000000E-03 0.  1.
    9900012    2    1    2    0    0 -0.29170288365E+01  0.20099380694E+02  0.38355306011E+02  0.47787266588E+02  0.19999979680E+02 0.  0.
        -12    1    1    2    0    0  0.29170288365E+01 -0.20099380694E+02 -0.38355306011E+02  0.43400733412E+02  0.00000000000E+00 0.  1.
         11    1    3    3    0    0  0.32273199322E+01  0.61938978388E+01  0.22162407920E+02  0.23236873487E+02  0.51100000000E-03 0. -1.
        -11    1    3    3    0    0 -0.20789540934E+01 -0.98446852889E+00  0.49388538374E+01  0.54482571429E+01  0.51100000000E-03 0.  1.
         12    1    3    3    0    0 -0.40653946753E+01  0.14889951384E+02  0.11254044254E+02  0.19102135958E+02  0.00000000000E+00 0. -1.
</event>
<event>
 7    1  0.2655656E-009  0.4778727E+02  0.7816164E-02  0.1312668E+00
        -11   -1    0    0    0    0  0.00000000000E+00  0.00000000000E+00  0.45593999997E+02  0.45594000000E+02  0.51100000000E-03 0.  1.
         11   -1    0    0    0    0 -0.00000000000E+00 -0.00000000000E+00 -0.45593999997E+02  0.45594000000E+02  0.51100000000E-03 0. -1.
    9900012    2    1    2    0    0  0.42645410809E+01  0.33389424693E+02 -0.27396776895E+02  0.47787269865E+02  0.19999994624E+02 0.  0.
        -12    1    1    2    0    0 -0.42645410809E+01 -0.33389424693E+02  0.27396776895E+02  0.43400730135E+02  0.00000000000E+00 0.  1.
         11    1    3    3    0    0  0.66668419093E+01  0.26166427716E+02 -0.23769908555E+02  0.35974119495E+02  0.51100000000E-03 0. -1.
        -11    1    3    3    0    0 -0.98214382799E+00  0.55271397391E+01  0.18465886737E+01  0.59096336761E+01  0.51100000000E-03 0.  1.
        -12    1    3    3    0    0 -0.14201570005E+01  0.16958572384E+01 -0.54734570139E+01  0.59035166945E+01  0.00000000000E+00 0.  1.
</event>
<event>
 7    1  0.2655656E-009  0.4778727E+02  0.7816164E-02  0.1312668E+00
        -11   -1    0    0    0    0  0.00000000000E+00  0.00000000000E+00  0.45593999997E+02  0.45594000000E+02  0.51100000000E-03 0.  1.
         11   -1    0    0    0    0 -0.00000000000E+00 -0.00000000000E+00 -0.45593999997E+02  0.45594000000E+02  0.51100000000E-03 0. -1.
    9900012    2    1    2    0    0  0.33147678056E+02  0.25546573162E+02 -0.11499011765E+02  0.47787271522E+02  0.20000002178E+02 0.  0.
        -12    1    1    2    0    0 -0.33147678056E+02 -0.25546573162E+02  0.11499011765E+02  0.43400728478E+02  0.00000000000E+00 0.  1.
         11    1    3    3    0    0  0.28792338094E+02  0.13493549257E+02 -0.11990853547E+02  0.33983160146E+02  0.51100000000E-03 0. -1.
        -11    1    3    3    0    0  0.45813018099E+01  0.11590054730E+02  0.16165246880E+01  0.12567054040E+02  0.51100000000E-03 0.  1.
        -12    1    3    3    0    0 -0.22596184795E+00  0.46296917543E+00 -0.11246829062E+01  0.12370573364E+01  0.00000000000E+00 0.  1.
</event>
<event>
 7    1  0.2655656E-009  0.4778727E+02  0.7816164E-02  0.1312668E+00
        -11   -1    0    0    0    0  0.00000000000E+00  0.00000000000E+00  0.45593999997E+02  0.45594000000E+02  0.51100000000E-03 0.  1.
         11   -1    0    0    0    0 -0.00000000000E+00 -0.00000000000E+00 -0.45593999997E+02  0.45594000000E+02  0.51100000000E-03 0. -1.
    9900012    2    1    2    0    0 -0.11897061740E+02 -0.11420320186E+02 -0.40145474857E+02  0.47787274860E+02  0.20000017398E+02 0.  0.
        -12    1    1    2    0    0  0.11897061740E+02  0.11420320186E+02  0.40145474857E+02  0.43400725140E+02  0.00000000000E+00 0.  1.
         11    1    3    3    0    0  0.32650142210E+00 -0.10552005265E+02 -0.20040155441E+02  0.22650811214E+02  0.51100000000E-03 0. -1.
        -11    1    3    3    0    0 -0.24543905052E+00 -0.96024259117E+00  0.64103687098E+00  0.11803536303E+01  0.51100000000E-03 0.  1.
         12    1    3    3    0    0 -0.11978124112E+02  0.91927670894E-01 -0.20746356287E+02  0.23956110016E+02  0.00000000000E+00 0. -1.
</event>
<event>
 7    1  0.2655656E-009  0.4778727E+02  0.7816164E-02  0.1312668E+00
        -11   -1    0    0    0    0  0.00000000000E+00  0.00000000000E+00  0.45593999997E+02  0.45594000000E+02  0.51100000000E-03 0.  1.
         11   -1    0    0    0    0 -0.00000000000E+00 -0.00000000000E+00 -0.45593999997E+02  0.45594000000E+02  0.51100000000E-03 0. -1.
    9900012    2    1    2    0    0 -0.69091638147E+01  0.33416214474E+02 -0.26818710011E+02  0.47787272575E+02  0.20000006979E+02 0.  0.
        -12    1    1    2    0    0  0.69091638147E+01 -0.33416214474E+02  0.26818710011E+02  0.43400727425E+02  0.00000000000E+00 0.  1.
         11    1    3    3    0    0  0.70854369758E+01  0.12181913988E+02 -0.91003554141E+01  0.16775545132E+02  0.51100000000E-03 0. -1.
        -11    1    3    3    0    0 -0.68873563405E+01  0.10836271599E+02 -0.83786421855E+01  0.15331735213E+02  0.51100000000E-03 0.  1.
         12    1    3    3    0    0 -0.71072444500E+01  0.10398028887E+02 -0.93397124111E+01  0.15679992230E+02  0.00000000000E+00 0. -1.
</event>
<event>
 7    1  0.2655656E-009  0.4778727E+02  0.7816164E-02  0.1312668E+00
        -11   -1    0    0    0    0  0.00000000000E+00  0.00000000000E+00  0.45593999997E+02  0.45594000000E+02  0.51100000000E-03 0.  1.
         11   -1    0    0    0    0 -0.00000000000E+00 -0.00000000000E+00 -0.45593999997E+02  0.45594000000E+02  0.51100000000E-03 0. -1.
    9900012    2    1    2    0    0  0.15424183715E+02 -0.34752271445E+02 -0.20928391649E+02  0.47787269697E+02  0.19999993855E+02 0.  0.
        -12    1    1    2    0    0 -0.15424183715E+02  0.34752271445E+02  0.20928391649E+02  0.43400730303E+02  0.00000000000E+00 0.  1.
         11    1    3    3    0    0  0.71072056432E+01 -0.95091793161E+01 -0.11797560901E+02  0.16736765123E+02  0.51100000000E-03 0. -1.
        -11    1    3    3    0    0  0.77867854319E+01 -0.58114791201E+01 -0.58363189330E+01  0.11334457899E+02  0.51100000000E-03 0.  1.
        -12    1    3    3    0    0  0.53019264013E+00 -0.19431613009E+02 -0.32945118152E+01  0.19716046674E+02  0.00000000000E+00 0.  1.
</event>
<event>
 7    1  0.2655656E-009  0.4778727E+02  0.7816164E-02  0.1312668E+00
        -11   -1    0    0    0    0  0.00000000000E+00  0.00000000000E+00  0.45593999997E+02  0.45594000000E+02  0.51100000000E-03 0.  1.
         11   -1    0    0    0    0 -0.00000000000E+00 -0.00000000000E+00 -0.45593999997E+02  0.45594000000E+02  0.51100000000E-03 0. -1.
    9900012    2    1    2    0    0 -0.97716794293E+01  0.91435735754E+01 -0.41285985042E+02  0.47787271694E+02  0.20000002961E+02 0.  0.
        -12    1    1    2    0    0  0.97716794293E+01 -0.91435735754E+01  0.41285985042E+02  0.43400728306E+02  0.00000000000E+00 0.  1.
         11    1    3    3    0    0 -0.61347401632E+01  0.32552039522E+01 -0.28341493157E+02  0.29179986707E+02  0.51100000000E-03 0. -1.
        -11    1    3    3    0    0  0.24263547723E+01 -0.34473334070E+00  0.58940154974E+00  0.25206017149E+01  0.51100000000E-03 0.  1.
        -12    1    3    3    0    0 -0.60632940384E+01  0.62331029639E+01 -0.13533893435E+02  0.16086683271E+02  0.00000000000E+00 0.  1.
</event>
<event>
 7    1  0.2655656E-009  0.4778727E+02  0.7816164E-02  0.1312668E+00
        -11   -1    0    0    0    0  0.00000000000E+00  0.00000000000E+00  0.45593999997E+02  0.45594000000E+02  0.51100000000E-03 0.  1.
         11   -1    0    0    0    0 -0.00000000000E+00 -0.00000000000E+00 -0.45593999997E+02  0.45594000000E+02  0.51100000000E-03 0. -1.
    9900012    2    1    2    0    0 -0.19303335255E+02  0.12339829082E+02 -0.36861003698E+02  0.47787265820E+02  0.19999976181E+02 0.  0.
        -12    1    1    2    0    0  0.19303335255E+02 -0.12339829082E+02  0.36861003698E+02  0.43400734180E+02  0.00000000000E+00 0.  1.
         11    1    3    3    0    0 -0.15304304972E+02  0.55221915190E+01 -0.22662019665E+02  0.27897732621E+02  0.51100000000E-03 0. -1.
        -11    1    3    3    0    0  0.38705499511E+01  0.79968176438E+00 -0.49702767955E+01  0.63501416940E+01  0.51100000000E-03 0.  1.
        -12    1    3    3    0    0 -0.78695802333E+01  0.60179557990E+01 -0.92287072375E+01  0.13539391505E+02  0.00000000000E+00 0.  1.
</event>
<event>
 7    1  0.2655656E-009  0.4778727E+02  0.7816164E-02  0.1312668E+00
        -11   -1    0    0    0    0  0.00000000000E+00  0.00000000000E+00  0.45593999997E+02  0.45594000000E+02  0.51100000000E-03 0. -1.
         11   -1    0    0    0    0 -0.00000000000E+00 -0.00000000000E+00 -0.45593999997E+02  0.45594000000E+02  0.51100000000E-03 0.  1.
    9900012    2    1    2    0    0 -0.33757028479E+02  0.25757700385E+02 -0.89792775707E+01  0.47787268134E+02  0.19999986728E+02 0.  0.
        -12    1    1    2    0    0  0.33757028479E+02 -0.25757700385E+02  0.89792775707E+01  0.43400731866E+02  0.00000000000E+00 0.  1.
         11    1    3    3    0    0 -0.99929319616E-01  0.35090537701E+01 -0.52757568818E+01  0.63369594576E+01  0.51100000000E-03 0. -1.
        -11    1    3    3    0    0 -0.22825361888E+02  0.19682200859E+02 -0.22344638239E+01  0.30222160823E+02  0.51100000000E-03 0.  1.
        -12    1    3    3    0    0 -0.10831737271E+02  0.25664457557E+01 -0.14690568650E+01  0.11228147853E+02  0.00000000000E+00 0.  1.
</event>
<event>
 7    1  0.2655656E-009  0.4778727E+02  0.7816164E-02  0.1312668E+00
        -11   -1    0    0    0    0  0.00000000000E+00  0.00000000000E+00  0.45593999997E+02  0.45594000000E+02  0.51100000000E-03 0. -1.
         11   -1    0    0    0    0 -0.00000000000E+00 -0.00000000000E+00 -0.45593999997E+02  0.45594000000E+02  0.51100000000E-03 0.  1.
    9900012    2    1    2    0    0  0.17544395987E+02  0.37858143634E+02  0.11940610414E+02  0.47787273658E+02  0.20000011916E+02 0.  0.
        -12    1    1    2    0    0 -0.17544395987E+02 -0.37858143634E+02 -0.11940610414E+02  0.43400726342E+02  0.00000000000E+00 0.  1.
         11    1    3    3    0    0  0.68192246499E+00  0.13442459140E+02  0.75092597808E+01  0.15412777449E+02  0.51100000000E-03 0. -1.
        -11    1    3    3    0    0  0.13980373761E+02  0.15608122405E+02 -0.20676563621E+01  0.21055629617E+02  0.51100000000E-03 0.  1.
        -12    1    3    3    0    0  0.28820997609E+01  0.88075620894E+01  0.64990069952E+01  0.11318866591E+02  0.00000000000E+00 0.  1.
</event>
<event>
 7    1  0.2655656E-009  0.4778727E+02  0.7816164E-02  0.1312668E+00
        -11   -1    0    0    0    0  0.00000000000E+00  0.00000000000E+00  0.45593999997E+02  0.45594000000E+02  0.51100000000E-03 0. -1.
         11   -1    0    0    0    0 -0.00000000000E+00 -0.00000000000E+00 -0.45593999997E+02  0.45594000000E+02  0.51100000000E-03 0.  1.
    9900012    2    1    2    0    0  0.15308313825E+02 -0.34949763026E+02  0.20683155216E+02  0.47787270543E+02  0.19999997713E+02 0.  0.
        -12    1    1    2    0    0 -0.15308313825E+02  0.34949763026E+02 -0.20683155216E+02  0.43400729457E+02  0.00000000000E+00 0.  1.
         11    1    3    3    0    0  0.10072899747E+02 -0.96323237364E+01  0.33257216169E+01  0.14328481930E+02  0.51100000000E-03 0.  1.
        -11    1    3    3    0    0  0.57432726501E+01 -0.26598035625E+02  0.16750422319E+02  0.31953361763E+02  0.51100000000E-03 0. -1.
        -12    1    3    3    0    0 -0.50785857254E+00  0.12805963358E+01  0.60701128009E+00  0.15054268495E+01  0.00000000000E+00 0.  1.
</event>
<event>
 7    1  0.2655656E-009  0.4778727E+02  0.7816164E-02  0.1312668E+00
        -11   -1    0    0    0    0  0.00000000000E+00  0.00000000000E+00  0.45593999997E+02  0.45594000000E+02  0.51100000000E-03 0.  1.
         11   -1    0    0    0    0 -0.00000000000E+00 -0.00000000000E+00 -0.45593999997E+02  0.45594000000E+02  0.51100000000E-03 0. -1.
    9900012    2    1    2    0    0  0.26571940883E+02  0.26824787213E+02 -0.21400608847E+02  0.47787270625E+02  0.19999998087E+02 0.  0.
        -12    1    1    2    0    0 -0.26571940883E+02 -0.26824787213E+02  0.21400608847E+02  0.43400729375E+02  0.00000000000E+00 0.  1.
         11    1    3    3    0    0  0.15233812751E+02  0.14341501058E+02 -0.18867024745E+02  0.28172900570E+02  0.51100000000E-03 0. -1.
        -11    1    3    3    0    0  0.20094866035E+00 -0.12072834835E+01  0.10419455941E+01  0.16073470863E+01  0.51100000000E-03 0.  1.
         12    1    3    3    0    0  0.11137179471E+02  0.13690569638E+02 -0.35755296960E+01  0.18007022969E+02  0.00000000000E+00 0. -1.
</event>
<event>
 7    1  0.2655656E-009  0.4778727E+02  0.7816164E-02  0.1312668E+00
        -11   -1    0    0    0    0  0.00000000000E+00  0.00000000000E+00  0.45593999997E+02  0.45594000000E+02  0.51100000000E-03 0. -1.
         11   -1    0    0    0    0 -0.00000000000E+00 -0.00000000000E+00 -0.45593999997E+02  0.45594000000E+02  0.51100000000E-03 0.  1.
    9900012    2    1    2    0    0  0.97390682287E+01  0.10590049898E+02  0.40946606384E+02  0.47787272112E+02  0.20000004868E+02 0.  0.
        -12    1    1    2    0    0 -0.97390682287E+01 -0.10590049898E+02 -0.40946606384E+02  0.43400727888E+02  0.00000000000E+00 0.  1.
         11    1    3    3    0    0 -0.25319568157E+00 -0.23273658807E+00 -0.17549412810E+01  0.17883214290E+01  0.51100000000E-03 0.  1.
        -11    1    3    3    0    0  0.91591902680E+01  0.57504889760E+01  0.35771978179E+02  0.37371022369E+02  0.51100000000E-03 0. -1.
         12    1    3    3    0    0  0.83307364221E+00  0.50722975101E+01  0.69295694866E+01  0.86279283141E+01  0.00000000000E+00 0. -1.
</event>
<event>
 7    1  0.2655656E-009  0.4778727E+02  0.7816164E-02  0.1312668E+00
        -11   -1    0    0    0    0  0.00000000000E+00  0.00000000000E+00  0.45593999997E+02  0.45594000000E+02  0.51100000000E-03 0.  1.
         11   -1    0    0    0    0 -0.00000000000E+00 -0.00000000000E+00 -0.45593999997E+02  0.45594000000E+02  0.51100000000E-03 0. -1.
    9900012    2    1    2    0    0  0.59554406169E+01  0.22041688769E+02 -0.36909618193E+02  0.47787271528E+02  0.20000002206E+02 0.  0.
        -12    1    1    2    0    0 -0.59554406169E+01 -0.22041688769E+02  0.36909618193E+02  0.43400728472E+02  0.00000000000E+00 0.  1.
         11    1    3    3    0    0 -0.39453284078E+01  0.11730202702E+02 -0.18186091173E+02  0.21997663151E+02  0.51100000000E-03 0. -1.
        -11    1    3    3    0    0 -0.11488499314E+01 -0.12775781731E+01 -0.19885966980E+01  0.26280371462E+01  0.51100000000E-03 0.  1.
         12    1    3    3    0    0  0.11049618956E+02  0.11589064240E+02 -0.16734930322E+02  0.23161571231E+02  0.00000000000E+00 0. -1.
</event>
<event>
 7    1  0.2655656E-009  0.4778727E+02  0.7816164E-02  0.1312668E+00
        -11   -1    0    0    0    0  0.00000000000E+00  0.00000000000E+00  0.45593999997E+02  0.45594000000E+02  0.51100000000E-03 0. -1.
         11   -1    0    0    0    0 -0.00000000000E+00 -0.00000000000E+00 -0.45593999997E+02  0.45594000000E+02  0.51100000000E-03 0.  1.
    9900012    2    1    2    0    0 -0.39447301100E+02 -0.30743064382E+01  0.17834858126E+02  0.47787273180E+02  0.20000009735E+02 0.  0.
        -12    1    1    2    0    0  0.39447301100E+02  0.30743064382E+01 -0.17834858126E+02  0.43400726820E+02  0.00000000000E+00 0.  1.
         11    1    3    3    0    0 -0.21231925819E+02 -0.53277159880E+01  0.16597649027E+02  0.27471097268E+02  0.51100000000E-03 0. -1.
        -11    1    3    3    0    0 -0.18923435228E+02  0.25705528967E+01  0.20325612507E+01  0.19205089131E+02  0.51100000000E-03 0.  1.
        -12    1    3    3    0    0  0.70805994686E+00 -0.31714334691E+00 -0.79535215096E+00  0.11110867810E+01  0.00000000000E+00 0.  1.
</event>
<event>
 7    1  0.2655656E-009  0.4778727E+02  0.7816164E-02  0.1312668E+00
        -11   -1    0    0    0    0  0.00000000000E+00  0.00000000000E+00  0.45593999997E+02  0.45594000000E+02  0.51100000000E-03 0.  1.
         11   -1    0    0    0    0 -0.00000000000E+00 -0.00000000000E+00 -0.45593999997E+02  0.45594000000E+02  0.51100000000E-03 0. -1.
    9900012    2    1    2    0    0  0.22940212530E+02  0.21457069291E+02 -0.29949355685E+02  0.47787273284E+02  0.20000010212E+02 0.  0.
        -12    1    1    2    0    0 -0.22940212530E+02 -0.21457069291E+02  0.29949355685E+02  0.43400726716E+02  0.00000000000E+00 0.  1.
         11    1    3    3    0    0  0.11931071758E+02  0.18323113903E+02 -0.24362326024E+02  0.32735453349E+02  0.51100000000E-03 0. -1.
        -11    1    3    3    0    0  0.69278110111E+00 -0.19523882258E+01  0.36087324710E+00  0.21028540605E+01  0.51100000000E-03 0.  1.
         12    1    3    3    0    0  0.10316359671E+02  0.50863436139E+01 -0.59479029088E+01  0.12948965875E+02  0.00000000000E+00 0. -1.
</event>
<event>
 7    1  0.2655656E-009  0.4778727E+02  0.7816164E-02  0.1312668E+00
        -11   -1    0    0    0    0  0.00000000000E+00  0.00000000000E+00  0.45593999997E+02  0.45594000000E+02  0.51100000000E-03 0. -1.
         11   -1    0    0    0    0 -0.00000000000E+00 -0.00000000000E+00 -0.45593999997E+02  0.45594000000E+02  0.51100000000E-03 0.  1.
    9900012    2    1    2    0    0  0.32134263568E+01  0.45207635360E+00  0.43279245635E+02  0.47787267463E+02  0.19999983673E+02 0.  0.
        -12    1    1    2    0    0 -0.32134263568E+01 -0.45207635360E+00 -0.43279245635E+02  0.43400732537E+02  0.00000000000E+00 0.  1.
         11    1    3    3    0    0  0.70470522906E+01  0.68738734872E+01  0.26172503364E+02  0.27962671820E+02  0.51100000000E-03 0. -1.
        -11    1    3    3    0    0 -0.87255385277E-01 -0.21657201853E+01  0.42922028478E+00  0.22095673190E+01  0.51100000000E-03 0.  1.
         12    1    3    3    0    0 -0.37463705485E+01 -0.42560769483E+01  0.16677521986E+02  0.17615028325E+02  0.00000000000E+00 0. -1.
</event>
<event>
 7    1  0.2655656E-009  0.4778727E+02  0.7816164E-02  0.1312668E+00
        -11   -1    0    0    0    0  0.00000000000E+00  0.00000000000E+00  0.45593999997E+02  0.45594000000E+02  0.51100000000E-03 0.  1.
         11   -1    0    0    0    0 -0.00000000000E+00 -0.00000000000E+00 -0.45593999997E+02  0.45594000000E+02  0.51100000000E-03 0. -1.
    9900012    2    1    2    0    0  0.13611753975E+02  0.20263160529E+02 -0.35885200534E+02  0.47787272606E+02  0.20000007122E+02 0.  0.
        -12    1    1    2    0    0 -0.13611753975E+02 -0.20263160529E+02  0.35885200534E+02  0.43400727394E+02  0.00000000000E+00 0.  1.
         11    1    3    3    0    0  0.10103497966E+02  0.36486691390E+01 -0.11892097188E+02  0.16025462035E+02  0.51100000000E-03 0. -1.
        -11    1    3    3    0    0 -0.35566540630E+01  0.12251643274E+01 -0.57476007949E+01  0.68691870633E+01  0.51100000000E-03 0.  1.
        -12    1    3    3    0    0  0.70649100718E+01  0.15389327063E+02 -0.18245502551E+02  0.24892623508E+02  0.00000000000E+00 0.  1.
</event>
<event>
 7    1  0.2655656E-009  0.4778727E+02  0.7816164E-02  0.1312668E+00
        -11   -1    0    0    0    0  0.00000000000E+00  0.00000000000E+00  0.45593999997E+02  0.45594000000E+02  0.51100000000E-03 0.  1.
         11   -1    0    0    0    0 -0.00000000000E+00 -0.00000000000E+00 -0.45593999997E+02  0.45594000000E+02  0.51100000000E-03 0. -1.
    9900012    2    1    2    0    0 -0.33131803355E+02  0.14040304114E+02 -0.24264725097E+02  0.47787269393E+02  0.19999992470E+02 0.  0.
        -12    1    1    2    0    0  0.33131803355E+02 -0.14040304114E+02  0.24264725097E+02  0.43400730607E+02  0.00000000000E+00 0.  1.
         11    1    3    3    0    0 -0.15940314700E+02  0.13771223670E+01 -0.15155035799E+02  0.22037813164E+02  0.51100000000E-03 0. -1.
        -11    1    3    3    0    0 -0.31017678174E+01  0.16857363205E+01  0.26066760697E+01  0.43883289449E+01  0.51100000000E-03 0.  1.
        -12    1    3    3    0    0 -0.14089720838E+02  0.10977445426E+02 -0.11716365368E+02  0.21361127284E+02  0.00000000000E+00 0.  1.
</event>
<event>
 7    1  0.2655656E-009  0.4778725E+02  0.7816164E-02  0.1312668E+00
        -11   -1    0    0    0    0  0.00000000000E+00  0.00000000000E+00  0.45593999997E+02  0.45594000000E+02  0.51100000000E-03 0. -1.
         11   -1    0    0    0    0 -0.00000000000E+00 -0.00000000000E+00 -0.45593999997E+02  0.45594000000E+02  0.51100000000E-03 0.  1.
    9900012    2    1    2    0    0 -0.18561433912E+01 -0.22360058639E+02  0.37151139645E+02  0.47787254988E+02  0.19999926792E+02 0.  0.
        -12    1    1    2    0    0  0.18561433912E+01  0.22360058639E+02 -0.37151139645E+02  0.43400745012E+02  0.00000000000E+00 0.  1.
         11    1    3    3    0    0  0.24570297182E+01 -0.51823380087E+01  0.16383742263E+02  0.17358589605E+02  0.51100000000E-03 0. -1.
        -11    1    3    3    0    0 -0.39919556239E+01 -0.18002137435E+02  0.12881379606E+02  0.22493167912E+02  0.51100000000E-03 0.  1.
        -12    1    3    3    0    0 -0.32121748550E+00  0.82441680403E+00  0.78860177766E+01  0.79354974710E+01  0.00000000000E+00 0.  1.
</event>
<event>
 7    1  0.2655656E-009  0.4778727E+02  0.7816164E-02  0.1312668E+00
        -11   -1    0    0    0    0  0.00000000000E+00  0.00000000000E+00  0.45593999997E+02  0.45594000000E+02  0.51100000000E-03 0.  1.
         11   -1    0    0    0    0 -0.00000000000E+00 -0.00000000000E+00 -0.45593999997E+02  0.45594000000E+02  0.51100000000E-03 0. -1.
    9900012    2    1    2    0    0  0.52065235466E+01  0.68737781705E+01 -0.42535475795E+02  0.47787269420E+02  0.19999992595E+02 0.  0.
        -12    1    1    2    0    0 -0.52065235466E+01 -0.68737781705E+01  0.42535475795E+02  0.43400730580E+02  0.00000000000E+00 0.  1.
         11    1    3    3    0    0  0.46835063287E+01  0.52664515051E+01 -0.42483026290E+02  0.43063653654E+02  0.51100000000E-03 0. -1.
        -11    1    3    3    0    0 -0.41453305186E+00 -0.10618567148E+01  0.11774072898E+01  0.16388000248E+01  0.51100000000E-03 0.  1.
         12    1    3    3    0    0  0.93755026977E+00  0.26691833802E+01 -0.12298567941E+01  0.30848157416E+01  0.00000000000E+00 0. -1.
</event>
<event>
 7    1  0.2655656E-009  0.4778726E+02  0.7816164E-02  0.1312668E+00
        -11   -1    0    0    0    0  0.00000000000E+00  0.00000000000E+00  0.45593999997E+02  0.45594000000E+02  0.51100000000E-03 0.  1.
         11   -1    0    0    0    0 -0.00000000000E+00 -0.00000000000E+00 -0.45593999997E+02  0.45594000000E+02  0.51100000000E-03 0. -1.
    9900012    2    1    2    0    0  0.37563886827E+02 -0.13039006914E+01 -0.21699725879E+02  0.47787264363E+02  0.19999969538E+02 0.  0.
        -12    1    1    2    0    0 -0.37563886827E+02  0.13039006914E+01  0.21699725879E+02  0.43400735637E+02  0.00000000000E+00 0.  1.
         11    1    3    3    0    0  0.18917292256E+02 -0.83562153681E+01 -0.59661371320E+01  0.21524058031E+02  0.51100000000E-03 0. -1.
        -11    1    3    3    0    0  0.18002829259E+02  0.52158166272E+01 -0.12635037605E+02  0.22604220401E+02  0.51100000000E-03 0.  1.
        -12    1    3    3    0    0  0.64376531192E+00  0.18364980495E+01 -0.30985511418E+01  0.36589859307E+01  0.00000000000E+00 0.  1.
</event>
<event>
 7    1  0.2655656E-009  0.4778727E+02  0.7816164E-02  0.1312668E+00
        -11   -1    0    0    0    0  0.00000000000E+00  0.00000000000E+00  0.45593999997E+02  0.45594000000E+02  0.51100000000E-03 0.  1.
         11   -1    0    0    0    0 -0.00000000000E+00 -0.00000000000E+00 -0.45593999997E+02  0.45594000000E+02  0.51100000000E-03 0. -1.
    9900012    2    1    2    0    0 -0.72181493216E+01 -0.41733174415E+02 -0.94796517267E+01  0.47787270476E+02  0.19999997407E+02 0.  0.
        -12    1    1    2    0    0  0.72181493216E+01  0.41733174415E+02  0.94796517267E+01  0.43400729524E+02  0.00000000000E+00 0.  1.
         11    1    3    3    0    0 -0.10076021618E+02 -0.88838363383E+01 -0.29474139743E+01  0.13752672800E+02  0.51100000000E-03 0. -1.
        -11    1    3    3    0    0  0.35315149275E+01 -0.11675252488E+02 -0.18295438158E+01  0.12334113231E+02  0.51100000000E-03 0.  1.
         12    1    3    3    0    0 -0.67364263070E+00 -0.21174085588E+02 -0.47026939366E+01  0.21700484445E+02  0.00000000000E+00 0. -1.
</event>
<event>
 7    1  0.2655656E-009  0.4778728E+02  0.7816164E-02  0.1312668E+00
        -11   -1    0    0    0    0  0.00000000000E+00  0.00000000000E+00  0.45593999997E+02  0.45594000000E+02  0.51100000000E-03 0. -1.
         11   -1    0    0    0    0 -0.00000000000E+00 -0.00000000000E+00 -0.45593999997E+02  0.45594000000E+02  0.51100000000E-03 0.  1.
    9900012    2    1    2    0    0 -0.40901918231E+02  0.87663582735E+01 -0.11567488686E+02  0.47787277116E+02  0.20000027684E+02 0.  0.
        -12    1    1    2    0    0  0.40901918231E+02 -0.87663582735E+01  0.11567488686E+02  0.43400722884E+02  0.00000000000E+00 0.  1.
         11    1    3    3    0    0 -0.66982466582E+01 -0.16476465470E+01 -0.13559204217E+01  0.70299194795E+01  0.51100000000E-03 0. -1.
        -11    1    3    3    0    0 -0.20447175598E+02  0.56160178375E+01 -0.14359695612E+02  0.25609129322E+02  0.51100000000E-03 0.  1.
        -12    1    3    3    0    0 -0.13756495974E+02  0.47979869829E+01  0.41481273482E+01  0.15148228315E+02  0.00000000000E+00 0.  1.
</event>
<event>
 7    1  0.2655656E-009  0.4778727E+02  0.7816164E-02  0.1312668E+00
        -11   -1    0    0    0    0  0.00000000000E+00  0.00000000000E+00  0.45593999997E+02  0.45594000000E+02  0.51100000000E-03 0.  1.
         11   -1    0    0    0    0 -0.00000000000E+00 -0.00000000000E+00 -0.45593999997E+02  0.45594000000E+02  0.51100000000E-03 0. -1.
    9900012    2    1    2    0    0  0.26715295450E+02  0.13889895442E+02 -0.31256790700E+02  0.47787272227E+02  0.20000005393E+02 0.  0.
        -12    1    1    2    0    0 -0.26715295450E+02 -0.13889895442E+02  0.31256790700E+02  0.43400727773E+02  0.00000000000E+00 0.  1.
         11    1    3    3    0    0  0.74630489973E+01  0.12720004112E+02 -0.10293575447E+02  0.17984807497E+02  0.51100000000E-03 0. -1.
        -11    1    3    3    0    0 -0.67020338736E+00 -0.90646178118E+00 -0.80912748009E+00  0.13876357884E+01  0.51100000000E-03 0.  1.
         12    1    3    3    0    0  0.19922449840E+02  0.20763531112E+01 -0.20154087772E+02  0.28414828942E+02  0.00000000000E+00 0. -1.
</event>
<event>
 7    1  0.2655656E-009  0.4778726E+02  0.7816164E-02  0.1312668E+00
        -11   -1    0    0    0    0  0.00000000000E+00  0.00000000000E+00  0.45593999997E+02  0.45594000000E+02  0.51100000000E-03 0.  1.
         11   -1    0    0    0    0 -0.00000000000E+00 -0.00000000000E+00 -0.45593999997E+02  0.45594000000E+02  0.51100000000E-03 0. -1.
    9900012    2    1    2    0    0 -0.15123998874E+02 -0.25598563240E+02 -0.31616486175E+02  0.47787262910E+02  0.19999962912E+02 0.  0.
        -12    1    1    2    0    0  0.15123998874E+02  0.25598563240E+02  0.31616486175E+02  0.43400737090E+02  0.00000000000E+00 0.  1.
         11    1    3    3    0    0 -0.16316354942E+02 -0.24269674954E+02 -0.21092222496E+02  0.36057210250E+02  0.51100000000E-03 0. -1.
        -11    1    3    3    0    0  0.31431400594E+00 -0.27097945902E+01 -0.92846919394E+01  0.96771527159E+01  0.51100000000E-03 0.  1.
         12    1    3    3    0    0  0.87804206192E+00  0.13809063038E+01 -0.12395717399E+01  0.20528999442E+01  0.00000000000E+00 0. -1.
</event>
<event>
 7    1  0.2655656E-009  0.4778727E+02  0.7816164E-02  0.1312668E+00
        -11   -1    0    0    0    0  0.00000000000E+00  0.00000000000E+00  0.45593999997E+02  0.45594000000E+02  0.51100000000E-03 0.  1.
         11   -1    0    0    0    0 -0.00000000000E+00 -0.00000000000E+00 -0.45593999997E+02  0.45594000000E+02  0.51100000000E-03 0. -1.
    9900012    2    1    2    0    0  0.30086383767E+01  0.31371231791E+02 -0.29839855323E+02  0.47787273570E+02  0.20000011515E+02 0.  0.
        -12    1    1    2    0    0 -0.30086383767E+01 -0.31371231791E+02  0.29839855323E+02  0.43400726430E+02  0.00000000000E+00 0.  1.
         11    1    3    3    0    0 -0.63082296931E+01  0.19810666132E+02 -0.11939974914E+02  0.23975388540E+02  0.51100000000E-03 0. -1.
        -11    1    3    3    0    0  0.29558915974E+01  0.43542759815E+01 -0.10268974091E+02  0.11539013979E+02  0.51100000000E-03 0.  1.
         12    1    3    3    0    0  0.63609764724E+01  0.72062896780E+01 -0.76309063179E+01  0.12272871051E+02  0.00000000000E+00 0. -1.
</event>
<event>
 7    1  0.2655656E-009  0.4778726E+02  0.7816164E-02  0.1312668E+00
        -11   -1    0    0    0    0  0.00000000000E+00  0.00000000000E+00  0.45593999997E+02  0.45594000000E+02  0.51100000000E-03 0.  1.
         11   -1    0    0    0    0 -0.00000000000E+00 -0.00000000000E+00 -0.45593999997E+02  0.45594000000E+02  0.51100000000E-03 0. -1.
    9900012    2    1    2    0    0  0.48109948001E+01 -0.17335243279E+02 -0.39496427785E+02  0.47787261085E+02  0.19999954593E+02 0.  0.
        -12    1    1    2    0    0 -0.48109948001E+01  0.17335243279E+02  0.39496427785E+02  0.43400738915E+02  0.00000000000E+00 0.  1.
         11    1    3    3    0    0  0.14366632270E+01 -0.26032016599E+01 -0.19046835467E+01  0.35310734605E+01  0.51100000000E-03 0.  1.
        -11    1    3    3    0    0  0.87320287881E+01 -0.15632968143E+02 -0.29520438036E+02  0.34526718376E+02  0.51100000000E-03 0. -1.
        -12    1    3    3    0    0 -0.53576972150E+01  0.90092652357E+00 -0.80713062028E+01  0.97294692491E+01  0.00000000000E+00 0.  1.
</event>
<event>
 7    1  0.2655656E-009  0.4778727E+02  0.7816164E-02  0.1312668E+00
        -11   -1    0    0    0    0  0.00000000000E+00  0.00000000000E+00  0.45593999997E+02  0.45594000000E+02  0.51100000000E-03 0.  1.
         11   -1    0    0    0    0 -0.00000000000E+00 -0.00000000000E+00 -0.45593999997E+02  0.45594000000E+02  0.51100000000E-03 0. -1.
    9900012    2    1    2    0    0 -0.38409723629E+01  0.10488302110E+02 -0.41938832137E+02  0.47787272001E+02  0.20000004360E+02 0.  0.
        -12    1    1    2    0    0  0.38409723629E+01 -0.10488302110E+02  0.41938832137E+02  0.43400727999E+02  0.00000000000E+00 0.  1.
         11    1    3    3    0    0 -0.67471167334E+01  0.60749854671E+01 -0.15611906178E+02  0.18059918256E+02  0.51100000000E-03 0. -1.
        -11    1    3    3    0    0  0.69057256372E+01  0.39458193480E+00 -0.20329942304E+02  0.21474433539E+02  0.51100000000E-03 0.  1.
        -12    1    3    3    0    0 -0.39995812667E+01  0.40187347077E+01 -0.59969836553E+01  0.82529202057E+01  0.00000000000E+00 0.  1.
</event>
<event>
 7    1  0.2655656E-009  0.4778727E+02  0.7816164E-02  0.1312668E+00
        -11   -1    0    0    0    0  0.00000000000E+00  0.00000000000E+00  0.45593999997E+02  0.45594000000E+02  0.51100000000E-03 0.  1.
         11   -1    0    0    0    0 -0.00000000000E+00 -0.00000000000E+00 -0.45593999997E+02  0.45594000000E+02  0.51100000000E-03 0. -1.
    9900012    2    1    2    0    0  0.14201204170E+02 -0.15965197829E+01 -0.40980487615E+02  0.47787269126E+02  0.19999991252E+02 0.  0.
        -12    1    1    2    0    0 -0.14201204170E+02  0.15965197829E+01  0.40980487615E+02  0.43400730874E+02  0.00000000000E+00 0.  1.
         11    1    3    3    0    0  0.15087250526E+01 -0.23407637710E+01  0.10529673424E+01  0.29772750630E+01  0.51100000000E-03 0.  1.
        -11    1    3    3    0    0  0.26597902259E+01 -0.17775736801E+01 -0.28516408955E+01  0.42855697745E+01  0.51100000000E-03 0. -1.
         12    1    3    3    0    0  0.10032688892E+02  0.25218176682E+01 -0.39181814061E+02  0.40524424288E+02  0.00000000000E+00 0. -1.
</event>
<event>
 7    1  0.2655656E-009  0.4778727E+02  0.7816164E-02  0.1312668E+00
        -11   -1    0    0    0    0  0.00000000000E+00  0.00000000000E+00  0.45593999997E+02  0.45594000000E+02  0.51100000000E-03 0.  1.
         11   -1    0    0    0    0 -0.00000000000E+00 -0.00000000000E+00 -0.45593999997E+02  0.45594000000E+02  0.51100000000E-03 0. -1.
    9900012    2    1    2    0    0 -0.34500381161E+02  0.34355294433E+01 -0.26106402990E+02  0.47787269132E+02  0.19999991280E+02 0.  0.
        -12    1    1    2    0    0  0.34500381161E+02 -0.34355294433E+01  0.26106402990E+02  0.43400730868E+02  0.00000000000E+00 0.  1.
         11    1    3    3    0    0 -0.17788551763E+02  0.25195646384E+00 -0.10865303126E+02  0.20845883722E+02  0.51100000000E-03 0. -1.
        -11    1    3    3    0    0 -0.58715200184E+01 -0.22146163102E+01 -0.13260608259E+02  0.14670480714E+02  0.51100000000E-03 0.  1.
        -12    1    3    3    0    0 -0.10840309380E+02  0.53981892897E+01 -0.19804916052E+01  0.12270904696E+02  0.00000000000E+00 0.  1.
</event>
<event>
 7    1  0.2655656E-009  0.4778727E+02  0.7816164E-02  0.1312668E+00
        -11   -1    0    0    0    0  0.00000000000E+00  0.00000000000E+00  0.45593999997E+02  0.45594000000E+02  0.51100000000E-03 0.  1.
         11   -1    0    0    0    0 -0.00000000000E+00 -0.00000000000E+00 -0.45593999997E+02  0.45594000000E+02  0.51100000000E-03 0. -1.
    9900012    2    1    2    0    0  0.33548059208E+02  0.18342327696E+02 -0.20535585901E+02  0.47787267861E+02  0.19999985485E+02 0.  0.
        -12    1    1    2    0    0 -0.33548059208E+02 -0.18342327696E+02  0.20535585901E+02  0.43400732139E+02  0.00000000000E+00 0.  1.
         11    1    3    3    0    0  0.14002199410E+02  0.95200505559E+01 -0.16184621861E+02  0.23422957455E+02  0.51100000000E-03 0. -1.
        -11    1    3    3    0    0  0.20149807311E+02  0.96307794592E+01 -0.53278121571E+01  0.22959795955E+02  0.51100000000E-03 0.  1.
        -12    1    3    3    0    0 -0.60394751309E+00 -0.80850231926E+00  0.97684811699E+00  0.14045144508E+01  0.00000000000E+00 0.  1.
</event>
<event>
 7    1  0.2655656E-009  0.4778727E+02  0.7816164E-02  0.1312668E+00
        -11   -1    0    0    0    0  0.00000000000E+00  0.00000000000E+00  0.45593999997E+02  0.45594000000E+02  0.51100000000E-03 0. -1.
         11   -1    0    0    0    0 -0.00000000000E+00 -0.00000000000E+00 -0.45593999997E+02  0.45594000000E+02  0.51100000000E-03 0.  1.
    9900012    2    1    2    0    0  0.33169523683E+02 -0.27379080330E+02  0.58131037794E+01  0.47787268248E+02  0.19999987250E+02 0.  0.
        -12    1    1    2    0    0 -0.33169523683E+02  0.27379080330E+02 -0.58131037794E+01  0.43400731752E+02  0.00000000000E+00 0.  1.
         11    1    3    3    0    0  0.66896147412E+01 -0.10687284439E+02 -0.47172065198E+01  0.13461836118E+02  0.51100000000E-03 0. -1.
        -11    1    3    3    0    0  0.20595734850E+02 -0.10590707197E+02  0.11384801842E+02  0.25806221850E+02  0.51100000000E-03 0.  1.
        -12    1    3    3    0    0  0.58841740914E+01 -0.61010886944E+01 -0.85449154242E+00  0.85192102798E+01  0.00000000000E+00 0.  1.
</event>
<event>
 7    1  0.2655656E-009  0.4778727E+02  0.7816164E-02  0.1312668E+00
        -11   -1    0    0    0    0  0.00000000000E+00  0.00000000000E+00  0.45593999997E+02  0.45594000000E+02  0.51100000000E-03 0. -1.
         11   -1    0    0    0    0 -0.00000000000E+00 -0.00000000000E+00 -0.45593999997E+02  0.45594000000E+02  0.51100000000E-03 0.  1.
    9900012    2    1    2    0    0 -0.27450987087E+02 -0.21777211418E+02  0.25608973604E+02  0.47787272376E+02  0.20000006072E+02 0.  0.
        -12    1    1    2    0    0  0.27450987087E+02  0.21777211418E+02 -0.25608973604E+02  0.43400727624E+02  0.00000000000E+00 0.  1.
         11    1    3    3    0    0 -0.20428582196E+02 -0.92749560048E+01  0.96099936029E+01  0.24407043179E+02  0.51100000000E-03 0. -1.
        -11    1    3    3    0    0 -0.28427771493E+01 -0.55767399937E+01  0.99975231128E+00  0.63388418361E+01  0.51100000000E-03 0.  1.
         12    1    3    3    0    0 -0.41796277418E+01 -0.69255154191E+01  0.14999227690E+02  0.17041387361E+02  0.00000000000E+00 0. -1.
</event>
<event>
 7    1  0.2655656E-009  0.4778727E+02  0.7816164E-02  0.1312668E+00
        -11   -1    0    0    0    0  0.00000000000E+00  0.00000000000E+00  0.45593999997E+02  0.45594000000E+02  0.51100000000E-03 0. -1.
         11   -1    0    0    0    0 -0.00000000000E+00 -0.00000000000E+00 -0.45593999997E+02  0.45594000000E+02  0.51100000000E-03 0.  1.
    9900012    2    1    2    0    0 -0.11026419205E+02  0.41958832436E+02  0.12237930293E+01  0.47787271789E+02  0.20000003395E+02 0.  0.
        -12    1    1    2    0    0  0.11026419205E+02 -0.41958832436E+02 -0.12237930293E+01  0.43400728211E+02  0.00000000000E+00 0.  1.
         11    1    3    3    0    0 -0.93114012544E+01  0.11595981131E+02  0.49824389211E+01  0.15684185334E+02  0.51100000000E-03 0. -1.
        -11    1    3    3    0    0  0.58735229315E+00  0.25056949682E+02 -0.62091506558E+01  0.25821488381E+02  0.51100000000E-03 0.  1.
        -12    1    3    3    0    0 -0.23023702437E+01  0.53059016226E+01  0.24505047640E+01  0.62815980743E+01  0.00000000000E+00 0.  1.
</event>
<event>
 7    1  0.2655656E-009  0.4778726E+02  0.7816164E-02  0.1312668E+00
        -11   -1    0    0    0    0  0.00000000000E+00  0.00000000000E+00  0.45593999997E+02  0.45594000000E+02  0.51100000000E-03 0. -1.
         11   -1    0    0    0    0 -0.00000000000E+00 -0.00000000000E+00 -0.45593999997E+02  0.45594000000E+02  0.51100000000E-03 0.  1.
    9900012    2    1    2    0    0  0.19791089807E+02 -0.36653151635E+02  0.12185376031E+02  0.47787260956E+02  0.19999954004E+02 0.  0.
        -12    1    1    2    0    0 -0.19791089807E+02  0.36653151635E+02 -0.12185376031E+02  0.43400739044E+02  0.00000000000E+00 0.  1.
         11    1    3    3    0    0  0.15359785992E+02 -0.28364393922E+02  0.15884207976E+02  0.35955109951E+02  0.51100000000E-03 0. -1.
        -11    1    3    3    0    0  0.32299515640E+00 -0.42365124128E+01 -0.42820022681E+01  0.60322389691E+01  0.51100000000E-03 0.  1.
         12    1    3    3    0    0  0.41083086581E+01 -0.40522453002E+01  0.58317032310E+00  0.57999120364E+01  0.00000000000E+00 0. -1.
</event>
<event>
 7    1  0.2655656E-009  0.4778728E+02  0.7816164E-02  0.1312668E+00
        -11   -1    0    0    0    0  0.00000000000E+00  0.00000000000E+00  0.45593999997E+02  0.45594000000E+02  0.51100000000E-03 0.  1.
         11   -1    0    0    0    0 -0.00000000000E+00 -0.00000000000E+00 -0.45593999997E+02  0.45594000000E+02  0.51100000000E-03 0. -1.
    9900012    2    1    2    0    0 -0.21307967555E+02 -0.31899179843E+02 -0.20298644673E+02  0.47787284205E+02  0.20000060004E+02 0.  0.
        -12    1    1    2    0    0  0.21307967555E+02  0.31899179843E+02  0.20298644673E+02  0.43400715795E+02  0.00000000000E+00 0.  1.
         11    1    3    3    0    0 -0.10701587979E+01 -0.54216964872E+01 -0.53034003365E+01  0.76593790898E+01  0.51100000000E-03 0. -1.
        -11    1    3    3    0    0 -0.14138706912E+02 -0.11394543166E+02 -0.15464962868E+02  0.23851702746E+02  0.51100000000E-03 0.  1.
        -12    1    3    3    0    0 -0.60991018450E+01 -0.15082940190E+02  0.46971853114E+00  0.16276202370E+02  0.00000000000E+00 0.  1.
</event>
<event>
 7    1  0.2655656E-009  0.4778727E+02  0.7816164E-02  0.1312668E+00
        -11   -1    0    0    0    0  0.00000000000E+00  0.00000000000E+00  0.45593999997E+02  0.45594000000E+02  0.51100000000E-03 0.  1.
         11   -1    0    0    0    0 -0.00000000000E+00 -0.00000000000E+00 -0.45593999997E+02  0.45594000000E+02  0.51100000000E-03 0. -1.
    9900012    2    1    2    0    0  0.89383824763E+01  0.11850976707E+02 -0.40783366627E+02  0.47787270471E+02  0.19999997388E+02 0.  0.
        -12    1    1    2    0    0 -0.89383824763E+01 -0.11850976707E+02  0.40783366627E+02  0.43400729529E+02  0.00000000000E+00 0.  1.
         11    1    3    3    0    0  0.10383077046E+02  0.46420659024E+01 -0.13588760639E+02  0.17720369091E+02  0.51100000000E-03 0. -1.
        -11    1    3    3    0    0 -0.58697625947E+01  0.38566531327E+01 -0.18060737434E+02  0.19378289998E+02  0.51100000000E-03 0.  1.
        -12    1    3    3    0    0  0.44250680252E+01  0.33522576715E+01 -0.91338685540E+01  0.10688611382E+02  0.00000000000E+00 0.  1.
</event>
<event>
 7    1  0.2655656E-009  0.4778727E+02  0.7816164E-02  0.1312668E+00
        -11   -1    0    0    0    0  0.00000000000E+00  0.00000000000E+00  0.45593999997E+02  0.45594000000E+02  0.51100000000E-03 0. -1.
         11   -1    0    0    0    0 -0.00000000000E+00 -0.00000000000E+00 -0.45593999997E+02  0.45594000000E+02  0.51100000000E-03 0.  1.
    9900012    2    1    2    0    0 -0.10579082034E+02 -0.41870502746E+02  0.43090232506E+01  0.47787266616E+02  0.19999979809E+02 0.  0.
        -12    1    1    2    0    0  0.10579082034E+02  0.41870502746E+02 -0.43090232506E+01  0.43400733384E+02  0.00000000000E+00 0.  1.
         11    1    3    3    0    0 -0.44508993013E+01 -0.17138148070E+02 -0.62078000254E+01  0.18763352720E+02  0.51100000000E-03 0. -1.
        -11    1    3    3    0    0 -0.34152871515E+01 -0.23261416693E+02  0.10899232102E+02  0.25914300175E+02  0.51100000000E-03 0.  1.
        -12    1    3    3    0    0 -0.27128955815E+01 -0.14709379825E+01 -0.38240882566E+00  0.31096137211E+01  0.00000000000E+00 0.  1.
</event>
<event>
 7    1  0.2655656E-009  0.4778727E+02  0.7816164E-02  0.1312668E+00
        -11   -1    0    0    0    0  0.00000000000E+00  0.00000000000E+00  0.45593999997E+02  0.45594000000E+02  0.51100000000E-03 0.  1.
         11   -1    0    0    0    0 -0.00000000000E+00 -0.00000000000E+00 -0.45593999997E+02  0.45594000000E+02  0.51100000000E-03 0. -1.
    9900012    2    1    2    0    0 -0.20075200698E+02 -0.34387438381E+02 -0.17265973120E+02  0.47787269255E+02  0.19999991839E+02 0.  0.
        -12    1    1    2    0    0  0.20075200698E+02  0.34387438381E+02  0.17265973120E+02  0.43400730745E+02  0.00000000000E+00 0.  1.
         11    1    3    3    0    0 -0.14031959023E+02 -0.18159034702E+02 -0.17846100688E+02  0.29071114966E+02  0.51100000000E-03 0. -1.
        -11    1    3    3    0    0  0.86051229743E+00 -0.25897288280E+01 -0.17662794432E+01  0.32506799518E+01  0.51100000000E-03 0.  1.
         12    1    3    3    0    0 -0.69037539722E+01 -0.13638674851E+02  0.23464070115E+01  0.15465474337E+02  0.00000000000E+00 0. -1.
</event>
<event>
 7    1  0.2655656E-009  0.4778727E+02  0.7816164E-02  0.1312668E+00
        -11   -1    0    0    0    0  0.00000000000E+00  0.00000000000E+00  0.45593999997E+02  0.45594000000E+02  0.51100000000E-03 0.  1.
         11   -1    0    0    0    0 -0.00000000000E+00 -0.00000000000E+00 -0.45593999997E+02  0.45594000000E+02  0.51100000000E-03 0. -1.
    9900012    2    1    2    0    0  0.16278833680E+02 -0.39433139348E+02 -0.79781154623E+01  0.47787271537E+02  0.20000002245E+02 0.  0.
        -12    1    1    2    0    0 -0.16278833680E+02  0.39433139348E+02  0.79781154623E+01  0.43400728463E+02  0.00000000000E+00 0.  1.
         11    1    3    3    0    0  0.52129501009E+01 -0.84174394546E+01 -0.71470752412E+01  0.12211012263E+02  0.51100000000E-03 0.  1.
        -11    1    3    3    0    0  0.51122221898E+01 -0.28432871379E+02  0.74291077971E+00  0.28898354750E+02  0.51100000000E-03 0. -1.
        -12    1    3    3    0    0  0.59536613897E+01 -0.25828285139E+01 -0.15739510009E+01  0.66779045238E+01  0.00000000000E+00 0.  1.
</event>
<event>
 7    1  0.2655656E-009  0.4778728E+02  0.7816164E-02  0.1312668E+00
        -11   -1    0    0    0    0  0.00000000000E+00  0.00000000000E+00  0.45593999997E+02  0.45594000000E+02  0.51100000000E-03 0.  1.
         11   -1    0    0    0    0 -0.00000000000E+00 -0.00000000000E+00 -0.45593999997E+02  0.45594000000E+02  0.51100000000E-03 0. -1.
    9900012    2    1    2    0    0 -0.25145269541E+02 -0.22139698179E+02 -0.27589343306E+02  0.47787277888E+02  0.20000031203E+02 0.  0.
        -12    1    1    2    0    0  0.25145269541E+02  0.22139698179E+02  0.27589343306E+02  0.43400722112E+02  0.00000000000E+00 0.  1.
         11    1    3    3    0    0 -0.23131061647E+02 -0.12535221062E+02 -0.15629268223E+02  0.30601500052E+02  0.51100000000E-03 0. -1.
        -11    1    3    3    0    0  0.14476414542E+01 -0.43284859621E+01 -0.92566767626E+01  0.10320732602E+02  0.51100000000E-03 0.  1.
         12    1    3    3    0    0 -0.34618493483E+01 -0.52759911554E+01 -0.27033983211E+01  0.68650452340E+01  0.00000000000E+00 0. -1.
</event>
<event>
 7    1  0.2655656E-009  0.4778728E+02  0.7816164E-02  0.1312668E+00
        -11   -1    0    0    0    0  0.00000000000E+00  0.00000000000E+00  0.45593999997E+02  0.45594000000E+02  0.51100000000E-03 0.  1.
         11   -1    0    0    0    0 -0.00000000000E+00 -0.00000000000E+00 -0.45593999997E+02  0.45594000000E+02  0.51100000000E-03 0. -1.
    9900012    2    1    2    0    0 -0.22671452712E+02 -0.36993826080E+02  0.10416048515E+01  0.47787275619E+02  0.20000020856E+02 0.  0.
        -12    1    1    2    0    0  0.22671452712E+02  0.36993826080E+02 -0.10416048515E+01  0.43400724381E+02  0.00000000000E+00 0.  1.
         11    1    3    3    0    0 -0.52020832618E+01 -0.47351962282E+01  0.29106993194E+01  0.76128788491E+01  0.51100000000E-03 0. -1.
        -11    1    3    3    0    0 -0.14288150195E+02 -0.95300896434E+01 -0.11437944785E+01  0.17212847256E+02  0.51100000000E-03 0.  1.
        -12    1    3    3    0    0 -0.31812192556E+01 -0.22728540209E+02 -0.72529998940E+00  0.22961549513E+02  0.00000000000E+00 0.  1.
</event>
<event>
 7    1  0.2655656E-009  0.4778727E+02  0.7816164E-02  0.1312668E+00
        -11   -1    0    0    0    0  0.00000000000E+00  0.00000000000E+00  0.45593999997E+02  0.45594000000E+02  0.51100000000E-03 0.  1.
         11   -1    0    0    0    0 -0.00000000000E+00 -0.00000000000E+00 -0.45593999997E+02  0.45594000000E+02  0.51100000000E-03 0. -1.
    9900012    2    1    2    0    0  0.26141742706E+02  0.22549011759E+02 -0.26301607051E+02  0.47787272166E+02  0.20000005115E+02 0.  0.
        -12    1    1    2    0    0 -0.26141742706E+02 -0.22549011759E+02  0.26301607051E+02  0.43400727834E+02  0.00000000000E+00 0.  1.
         11    1    3    3    0    0  0.18548915087E+02  0.12440321031E+02 -0.18584809967E+02  0.29055446994E+02  0.51100000000E-03 0. -1.
        -11    1    3    3    0    0 -0.21646491055E+01 -0.24501418391E+00 -0.30715746329E+01  0.37656750639E+01  0.51100000000E-03 0.  1.
         12    1    3    3    0    0  0.97574767249E+01  0.10353704912E+02 -0.46452224512E+01  0.14966150108E+02  0.00000000000E+00 0. -1.
</event>
<event>
 7    1  0.2655656E-009  0.4778727E+02  0.7816164E-02  0.1312668E+00
        -11   -1    0    0    0    0  0.00000000000E+00  0.00000000000E+00  0.45593999997E+02  0.45594000000E+02  0.51100000000E-03 0. -1.
         11   -1    0    0    0    0 -0.00000000000E+00 -0.00000000000E+00 -0.45593999997E+02  0.45594000000E+02  0.51100000000E-03 0.  1.
    9900012    2    1    2    0    0  0.21299231335E+02 -0.82983542127E+01  0.36893129388E+02  0.47787274958E+02  0.20000017846E+02 0.  0.
        -12    1    1    2    0    0 -0.21299231335E+02  0.82983542127E+01 -0.36893129388E+02  0.43400725042E+02  0.00000000000E+00 0.  1.
         11    1    3    3    0    0  0.10834051967E+02 -0.91447897753E+01  0.24252282796E+02  0.28092295797E+02  0.51100000000E-03 0. -1.
        -11    1    3    3    0    0  0.10805679674E+01  0.11322192353E+01 -0.18531798564E+01  0.24256593681E+01  0.51100000000E-03 0.  1.
        -12    1    3    3    0    0  0.93846114009E+01 -0.28578367270E+00  0.14494026448E+02  0.17269319793E+02  0.00000000000E+00 0.  1.
</event>
<event>
 7    1  0.2655656E-009  0.4778728E+02  0.7816164E-02  0.1312668E+00
        -11   -1    0    0    0    0  0.00000000000E+00  0.00000000000E+00  0.45593999997E+02  0.45594000000E+02  0.51100000000E-03 0.  1.
         11   -1    0    0    0    0 -0.00000000000E+00 -0.00000000000E+00 -0.45593999997E+02  0.45594000000E+02  0.51100000000E-03 0. -1.
    9900012    2    1    2    0    0 -0.27999921862E+02  0.89030299664E+01 -0.31943122280E+02  0.47787278487E+02  0.20000033934E+02 0.  0.
        -12    1    1    2    0    0  0.27999921862E+02 -0.89030299664E+01  0.31943122280E+02  0.43400721513E+02  0.00000000000E+00 0.  1.
         11    1    3    3    0    0 -0.12244748416E+02  0.67556939590E+01 -0.75214169378E+01  0.15879073576E+02  0.51100000000E-03 0. -1.
        -11    1    3    3    0    0 -0.99913105628E+01 -0.48690238676E+01 -0.10520033778E+02  0.15303750885E+02  0.51100000000E-03 0.  1.
        -12    1    3    3    0    0 -0.57638628839E+01  0.70163598750E+01 -0.13901671564E+02  0.16604454026E+02  0.00000000000E+00 0.  1.
</event>
<event>
 7    1  0.2655656E-009  0.4778726E+02  0.7816164E-02  0.1312668E+00
        -11   -1    0    0    0    0  0.00000000000E+00  0.00000000000E+00  0.45593999997E+02  0.45594000000E+02  0.51100000000E-03 0.  1.
         11   -1    0    0    0    0 -0.00000000000E+00 -0.00000000000E+00 -0.45593999997E+02  0.45594000000E+02  0.51100000000E-03 0. -1.
    9900012    2    1    2    0    0  0.39065837044E+02  0.11775557489E+02 -0.14792581178E+02  0.47787264568E+02  0.19999970473E+02 0.  0.
        -12    1    1    2    0    0 -0.39065837044E+02 -0.11775557489E+02  0.14792581178E+02  0.43400735432E+02  0.00000000000E+00 0.  1.
         11    1    3    3    0    0  0.22533695626E+02  0.72944312553E+01 -0.11538543142E+02  0.26346046079E+02  0.51100000000E-03 0. -1.
        -11    1    3    3    0    0  0.55152033300E+01 -0.22310467716E+00  0.45422656199E+01  0.71483858801E+01  0.51100000000E-03 0.  1.
        -12    1    3    3    0    0  0.11016938088E+02  0.47042309113E+01 -0.77963036565E+01  0.14292832609E+02  0.00000000000E+00 0.  1.
</event>
<event>
 7    1  0.2655656E-009  0.4778727E+02  0.7816164E-02  0.1312668E+00
        -11   -1    0    0    0    0  0.00000000000E+00  0.00000000000E+00  0.45593999997E+02  0.45594000000E+02  0.51100000000E-03 0.  1.
         11   -1    0    0    0    0 -0.00000000000E+00 -0.00000000000E+00 -0.45593999997E+02  0.45594000000E+02  0.51100000000E-03 0. -1.
    9900012    2    1    2    0    0 -0.39087678605E+02  0.18380931125E+02  0.42329746691E+01  0.47787270486E+02  0.19999997455E+02 0.  0.
        -12    1    1    2    0    0  0.39087678605E+02 -0.18380931125E+02 -0.42329746691E+01  0.43400729514E+02  0.00000000000E+00 0.  1.
         11    1    3    3    0    0 -0.16740655779E+02  0.12603057177E+02 -0.56624322766E+01  0.21705984098E+02  0.51100000000E-03 0. -1.
        -11    1    3    3    0    0  0.72837024565E-02 -0.15126222618E+00 -0.64702388778E+00  0.66450995920E+00  0.51100000000E-03 0.  1.
         12    1    3    3    0    0 -0.22354306529E+02  0.59291361743E+01  0.10542430833E+02  0.25416776429E+02  0.00000000000E+00 0. -1.
</event>
<event>
 7    1  0.2655656E-009  0.4778729E+02  0.7816164E-02  0.1312668E+00
        -11   -1    0    0    0    0  0.00000000000E+00  0.00000000000E+00  0.45593999997E+02  0.45594000000E+02  0.51100000000E-03 0.  1.
         11   -1    0    0    0    0 -0.00000000000E+00 -0.00000000000E+00 -0.45593999997E+02  0.45594000000E+02  0.51100000000E-03 0. -1.
    9900012    2    1    2    0    0 -0.26947846973E+02  0.30883782903E+02 -0.14269807597E+02  0.47787286737E+02  0.20000071550E+02 0.  0.
        -12    1    1    2    0    0  0.26947846973E+02 -0.30883782903E+02  0.14269807597E+02  0.43400713263E+02  0.00000000000E+00 0.  1.
         11    1    3    3    0    0 -0.38691758435E+01 -0.15842293018E+01 -0.19822971396E+01  0.46270732001E+01  0.51100000000E-03 0.  1.
        -11    1    3    3    0    0 -0.22251832094E+02  0.29434371747E+02 -0.78549521440E+01  0.37725674879E+02  0.51100000000E-03 0. -1.
        -12    1    3    3    0    0 -0.82683903494E+00  0.30336404580E+01 -0.44325583137E+01  0.54345386577E+01  0.00000000000E+00 0.  1.
</event>
<event>
 7    1  0.2655656E-009  0.4778726E+02  0.7816164E-02  0.1312668E+00
        -11   -1    0    0    0    0  0.00000000000E+00  0.00000000000E+00  0.45593999997E+02  0.45594000000E+02  0.51100000000E-03 0.  1.
         11   -1    0    0    0    0 -0.00000000000E+00 -0.00000000000E+00 -0.45593999997E+02  0.45594000000E+02  0.51100000000E-03 0. -1.
    9900012    2    1    2    0    0  0.31639192885E+02 -0.29620799746E+02 -0.22789541594E+01  0.47787263415E+02  0.19999965216E+02 0.  0.
        -12    1    1    2    0    0 -0.31639192885E+02  0.29620799746E+02  0.22789541594E+01  0.43400736585E+02  0.00000000000E+00 0.  1.
         11    1    3    3    0    0  0.11539892644E+02 -0.22597826861E+02 -0.27126503223E+01  0.25518412433E+02  0.51100000000E-03 0. -1.
        -11    1    3    3    0    0  0.16371698983E+01  0.17801302068E+00 -0.16642799450E+01  0.23413333611E+01  0.51100000000E-03 0.  1.
         12    1    3    3    0    0  0.18462130342E+02 -0.72009859062E+01  0.20979761079E+01  0.19927517621E+02  0.00000000000E+00 0. -1.
</event>
<event>
 7    1  0.2655656E-009  0.4778727E+02  0.7816164E-02  0.1312668E+00
        -11   -1    0    0    0    0  0.00000000000E+00  0.00000000000E+00  0.45593999997E+02  0.45594000000E+02  0.51100000000E-03 0.  1.
         11   -1    0    0    0    0 -0.00000000000E+00 -0.00000000000E+00 -0.45593999997E+02  0.45594000000E+02  0.51100000000E-03 0. -1.
    9900012    2    1    2    0    0 -0.12893317830E+02  0.27339309966E+02 -0.31143979619E+02  0.47787274423E+02  0.20000015406E+02 0.  0.
        -12    1    1    2    0    0  0.12893317830E+02 -0.27339309966E+02  0.31143979619E+02  0.43400725577E+02  0.00000000000E+00 0.  1.
         11    1    3    3    0    0 -0.13243447465E+02  0.10474444099E+02 -0.99961847020E+01  0.19622094404E+02  0.51100000000E-03 0. -1.
        -11    1    3    3    0    0  0.63022932688E+00 -0.72221085153E+00 -0.66562704374E+00  0.11669777809E+01  0.51100000000E-03 0.  1.
         12    1    3    3    0    0 -0.28009969224E+00  0.17587076718E+02 -0.20482167873E+02  0.26998202238E+02  0.00000000000E+00 0. -1.
</event>
<event>
 7    1  0.2655656E-009  0.4778728E+02  0.7816164E-02  0.1312668E+00
        -11   -1    0    0    0    0  0.00000000000E+00  0.00000000000E+00  0.45593999997E+02  0.45594000000E+02  0.51100000000E-03 0. -1.
         11   -1    0    0    0    0 -0.00000000000E+00 -0.00000000000E+00 -0.45593999997E+02  0.45594000000E+02  0.51100000000E-03 0.  1.
    9900012    2    1    2    0    0  0.18639396907E+02 -0.36947878815E+02  0.13078609592E+02  0.47787275411E+02  0.20000019911E+02 0.  0.
        -12    1    1    2    0    0 -0.18639396907E+02  0.36947878815E+02 -0.13078609592E+02  0.43400724589E+02  0.00000000000E+00 0.  1.
         11    1    3    3    0    0  0.17087398879E+02 -0.24605300081E+02  0.11943175369E+02  0.32249642334E+02  0.51100000000E-03 0. -1.
        -11    1    3    3    0    0  0.91051817131E-01 -0.61561187880E+01 -0.40201661129E+01  0.73530826734E+01  0.51100000000E-03 0.  1.
         12    1    3    3    0    0  0.14609462112E+01 -0.61864599458E+01  0.51556003365E+01  0.81845504044E+01  0.00000000000E+00 0. -1.
</event>
<event>
 7    1  0.2655656E-009  0.4778732E+02  0.7816164E-02  0.1312668E+00
        -11   -1    0    0    0    0  0.00000000000E+00  0.00000000000E+00  0.45593999997E+02  0.45594000000E+02  0.51100000000E-03 0. -1.
         11   -1    0    0    0    0 -0.00000000000E+00 -0.00000000000E+00 -0.45593999997E+02  0.45594000000E+02  0.51100000000E-03 0.  1.
    9900012    2    1    2    0    0  0.13737998621E+02 -0.32905890205E+02  0.24740430776E+02  0.47787318769E+02  0.20000217595E+02 0.  0.
        -12    1    1    2    0    0 -0.13737998621E+02  0.32905890205E+02 -0.24740430776E+02  0.43400681231E+02  0.00000000000E+00 0.  1.
         11    1    3    3    0    0  0.40676223001E+01  0.13671918691E+01  0.36097078536E+01  0.56075623788E+01  0.51100000000E-03 0. -1.
        -11    1    3    3    0    0  0.10216953356E+02 -0.34069458391E+02  0.19756830703E+02  0.40687178455E+02  0.51100000000E-03 0.  1.
        -12    1    3    3    0    0 -0.54657703561E+00 -0.20362368271E+00  0.13738922201E+01  0.14925779351E+01  0.00000000000E+00 0.  1.
</event>
<event>
 7    1  0.2655656E-009  0.4778726E+02  0.7816164E-02  0.1312668E+00
        -11   -1    0    0    0    0  0.00000000000E+00  0.00000000000E+00  0.45593999997E+02  0.45594000000E+02  0.51100000000E-03 0.  1.
         11   -1    0    0    0    0 -0.00000000000E+00 -0.00000000000E+00 -0.45593999997E+02  0.45594000000E+02  0.51100000000E-03 0. -1.
    9900012    2    1    2    0    0  0.38619806665E+02  0.93627100601E+01 -0.17449199280E+02  0.47787258508E+02  0.19999942841E+02 0.  0.
        -12    1    1    2    0    0 -0.38619806665E+02 -0.93627100601E+01  0.17449199280E+02  0.43400741492E+02  0.00000000000E+00 0.  1.
         11    1    3    3    0    0  0.76650116888E+01  0.36554206693E+01 -0.84562454654E+01  0.11984264353E+02  0.51100000000E-03 0. -1.
        -11    1    3    3    0    0  0.28277055929E+02  0.81705225385E+01 -0.41187523304E+01  0.29720589691E+02  0.51100000000E-03 0.  1.
        -12    1    3    3    0    0  0.26777390478E+01 -0.24632331477E+01 -0.48742014844E+01  0.60824044635E+01  0.00000000000E+00 0.  1.
</event>
<event>
 7    1  0.2655656E-009  0.4778727E+02  0.7816164E-02  0.1312668E+00
        -11   -1    0    0    0    0  0.00000000000E+00  0.00000000000E+00  0.45593999997E+02  0.45594000000E+02  0.51100000000E-03 0.  1.
         11   -1    0    0    0    0 -0.00000000000E+00 -0.00000000000E+00 -0.45593999997E+02  0.45594000000E+02  0.51100000000E-03 0. -1.
    9900012    2    1    2    0    0  0.35893096000E+02 -0.24398085137E+02  0.20545978261E+00  0.47787272903E+02  0.20000008473E+02 0.  0.
        -12    1    1    2    0    0 -0.35893096000E+02  0.24398085137E+02 -0.20545978261E+00  0.43400727097E+02  0.00000000000E+00 0.  1.
         11    1    3    3    0    0  0.18312012353E+02 -0.19863001195E+02 -0.61941549385E+01  0.27717073593E+02  0.51100000000E-03 0. -1.
        -11    1    3    3    0    0  0.13320561313E+02 -0.47862821811E+01  0.69470937180E+01  0.15767306752E+02  0.51100000000E-03 0.  1.
         12    1    3    3    0    0  0.42605223341E+01  0.25119823881E+00 -0.54747899689E+00  0.43028925581E+01  0.00000000000E+00 0. -1.
</event>
<event>
 7    1  0.2655656E-009  0.4778727E+02  0.7816164E-02  0.1312668E+00
        -11   -1    0    0    0    0  0.00000000000E+00  0.00000000000E+00  0.45593999997E+02  0.45594000000E+02  0.51100000000E-03 0. -1.
         11   -1    0    0    0    0 -0.00000000000E+00 -0.00000000000E+00 -0.45593999997E+02  0.45594000000E+02  0.51100000000E-03 0.  1.
    9900012    2    1    2    0    0 -0.43074575810E+02  0.40894403997E+01 -0.33882943889E+01  0.47787272554E+02  0.20000006881E+02 0.  0.
        -12    1    1    2    0    0  0.43074575810E+02 -0.40894403997E+01  0.33882943889E+01  0.43400727446E+02  0.00000000000E+00 0.  1.
         11    1    3    3    0    0 -0.85065745863E+01  0.72584778154E+00  0.23200311057E+01  0.88471018298E+01  0.51100000000E-03 0. -1.
        -11    1    3    3    0    0 -0.16341560268E+02 -0.20438396678E+01  0.48827869198E+01  0.17177470155E+02  0.51100000000E-03 0.  1.
        -12    1    3    3    0    0 -0.18226440956E+02  0.54074322859E+01 -0.10591112414E+02  0.21762700568E+02  0.00000000000E+00 0.  1.
</event>
<event>
 7    1  0.2655656E-009  0.4778727E+02  0.7816164E-02  0.1312668E+00
        -11   -1    0    0    0    0  0.00000000000E+00  0.00000000000E+00  0.45593999997E+02  0.45594000000E+02  0.51100000000E-03 0.  1.
         11   -1    0    0    0    0 -0.00000000000E+00 -0.00000000000E+00 -0.45593999997E+02  0.45594000000E+02  0.51100000000E-03 0. -1.
    9900012    2    1    2    0    0  0.71724341389E+00  0.42756898888E+02 -0.74132650872E+01  0.47787270283E+02  0.19999996530E+02 0.  0.
        -12    1    1    2    0    0 -0.71724341389E+00 -0.42756898888E+02  0.74132650872E+01  0.43400729717E+02  0.00000000000E+00 0.  1.
         11    1    3    3    0    0 -0.81164967959E+01  0.18178560743E+02  0.83096045971E+00  0.19925563643E+02  0.51100000000E-03 0. -1.
        -11    1    3    3    0    0  0.69575039483E+01  0.11882787556E+02 -0.38705216808E+01  0.14303441531E+02  0.51100000000E-03 0.  1.
         12    1    3    3    0    0  0.18762362615E+01  0.12695550589E+02 -0.43737038662E+01  0.13558265110E+02  0.00000000000E+00 0. -1.
</event>
<event>
 7    1  0.2655656E-009  0.4778727E+02  0.7816164E-02  0.1312668E+00
        -11   -1    0    0    0    0  0.00000000000E+00  0.00000000000E+00  0.45593999997E+02  0.45594000000E+02  0.51100000000E-03 0.  1.
         11   -1    0    0    0    0 -0.00000000000E+00 -0.00000000000E+00 -0.45593999997E+02  0.45594000000E+02  0.51100000000E-03 0. -1.
    9900012    2    1    2    0    0  0.44355476620E+01  0.41503479047E+02  0.11891629031E+02  0.47787266169E+02  0.19999977770E+02 0.  0.
        -12    1    1    2    0    0 -0.44355476620E+01 -0.41503479047E+02 -0.11891629031E+02  0.43400733831E+02  0.00000000000E+00 0.  1.
         11    1    3    3    0    0  0.11706138692E+02  0.25705450332E+02  0.66161953320E+01  0.29009962096E+02  0.51100000000E-03 0. -1.
        -11    1    3    3    0    0 -0.59489144707E+01  0.14982292134E+02  0.36481362531E+01  0.16527781440E+02  0.51100000000E-03 0.  1.
         12    1    3    3    0    0 -0.13216765594E+01  0.81573658117E+00  0.16272974459E+01  0.22495226327E+01  0.00000000000E+00 0. -1.
</event>
<event>
 7    1  0.2655656E-009  0.4778723E+02  0.7816164E-02  0.1312668E+00
        -11   -1    0    0    0    0  0.00000000000E+00  0.00000000000E+00  0.45593999997E+02  0.45594000000E+02  0.51100000000E-03 0. -1.
         11   -1    0    0    0    0 -0.00000000000E+00 -0.00000000000E+00 -0.45593999997E+02  0.45594000000E+02  0.51100000000E-03 0.  1.
    9900012    2    1    2    0    0 -0.26298831519E+02  0.34174804734E+02  0.49072276840E+01  0.47787231557E+02  0.19999819961E+02 0.  0.
        -12    1    1    2    0    0  0.26298831519E+02 -0.34174804734E+02 -0.49072276840E+01  0.43400768443E+02  0.00000000000E+00 0.  1.
         11    1    3    3    0    0 -0.25152005130E+01  0.12111209567E+02  0.35392014667E+01  0.12865985313E+02  0.51100000000E-03 0. -1.
        -11    1    3    3    0    0 -0.21083658381E+02  0.21617018113E+02 -0.23692840153E+01  0.30289100842E+02  0.51100000000E-03 0.  1.
        -12    1    3    3    0    0 -0.26999726256E+01  0.44657705337E+00  0.37373102326E+01  0.46321454012E+01  0.00000000000E+00 0.  1.
</event>
<event>
 7    1  0.2655656E-009  0.4778727E+02  0.7816164E-02  0.1312668E+00
        -11   -1    0    0    0    0  0.00000000000E+00  0.00000000000E+00  0.45593999997E+02  0.45594000000E+02  0.51100000000E-03 0. -1.
         11   -1    0    0    0    0 -0.00000000000E+00 -0.00000000000E+00 -0.45593999997E+02  0.45594000000E+02  0.51100000000E-03 0.  1.
    9900012    2    1    2    0    0 -0.26642151701E+02  0.34040347392E+02 -0.38825366567E+01  0.47787267418E+02  0.19999983463E+02 0.  0.
        -12    1    1    2    0    0  0.26642151701E+02 -0.34040347392E+02  0.38825366567E+01  0.43400732582E+02  0.00000000000E+00 0.  1.
         11    1    3    3    0    0 -0.75367448786E+01  0.14678168009E+02  0.46710150233E+01  0.17148455355E+02  0.51100000000E-03 0. -1.
        -11    1    3    3    0    0 -0.16884867808E+02  0.13672635115E+02 -0.10630579594E+02  0.24187784823E+02  0.51100000000E-03 0.  1.
        -12    1    3    3    0    0 -0.22205390145E+01  0.56895442678E+01  0.20770279136E+01  0.64510272395E+01  0.00000000000E+00 0.  1.
</event>
<event>
 7    1  0.2655656E-009  0.4778727E+02  0.7816164E-02  0.1312668E+00
        -11   -1    0    0    0    0  0.00000000000E+00  0.00000000000E+00  0.45593999997E+02  0.45594000000E+02  0.51100000000E-03 0. -1.
         11   -1    0    0    0    0 -0.00000000000E+00 -0.00000000000E+00 -0.45593999997E+02  0.45594000000E+02  0.51100000000E-03 0.  1.
    9900012    2    1    2    0    0  0.20896791925E+01 -0.33470505937E+02  0.27549631406E+02  0.47787265934E+02  0.19999976701E+02 0.  0.
        -12    1    1    2    0    0 -0.20896791925E+01  0.33470505937E+02 -0.27549631406E+02  0.43400734066E+02  0.00000000000E+00 0.  1.
         11    1    3    3    0    0  0.14254184171E+01 -0.18975494592E+01  0.11788302872E+02  0.12024832493E+02  0.51100000000E-03 0. -1.
        -11    1    3    3    0    0 -0.65618286645E+00 -0.15614655253E+02  0.47695934587E+01  0.16340044573E+02  0.51100000000E-03 0.  1.
        -12    1    3    3    0    0  0.13204436419E+01 -0.15958301225E+02  0.10991735075E+02  0.19422388868E+02  0.00000000000E+00 0.  1.
</event>
<event>
 7    1  0.2655656E-009  0.4778728E+02  0.7816164E-02  0.1312668E+00
        -11   -1    0    0    0    0  0.00000000000E+00  0.00000000000E+00  0.45593999997E+02  0.45594000000E+02  0.51100000000E-03 0.  1.
         11   -1    0    0    0    0 -0.00000000000E+00 -0.00000000000E+00 -0.45593999997E+02  0.45594000000E+02  0.51100000000E-03 0. -1.
    9900012    2    1    2    0    0  0.42964374597E+02  0.40688068195E+01  0.45967467240E+01  0.47787277035E+02  0.20000027312E+02 0.  0.
        -12    1    1    2    0    0 -0.42964374597E+02 -0.40688068195E+01 -0.45967467240E+01  0.43400722965E+02  0.00000000000E+00 0.  1.
         11    1    3    3    0    0  0.32992206533E+02  0.16603152833E+01  0.11765532735E+02  0.35066652243E+02  0.51100000000E-03 0. -1.
        -11    1    3    3    0    0  0.35456938886E+01  0.19950405522E+01 -0.27912968937E+01  0.49339102714E+01  0.51100000000E-03 0.  1.
         12    1    3    3    0    0  0.64264741757E+01  0.41345098404E+00 -0.43774891169E+01  0.77867145200E+01  0.00000000000E+00 0. -1.
</event>
<event>
 7    1  0.2655656E-009  0.4778728E+02  0.7816164E-02  0.1312668E+00
        -11   -1    0    0    0    0  0.00000000000E+00  0.00000000000E+00  0.45593999997E+02  0.45594000000E+02  0.51100000000E-03 0. -1.
         11   -1    0    0    0    0 -0.00000000000E+00 -0.00000000000E+00 -0.45593999997E+02  0.45594000000E+02  0.51100000000E-03 0.  1.
    9900012    2    1    2    0    0 -0.41027571954E+02  0.13767647426E+02 -0.32883083049E+01  0.47787277107E+02  0.20000027644E+02 0.  0.
        -12    1    1    2    0    0  0.41027571954E+02 -0.13767647426E+02  0.32883083049E+01  0.43400722893E+02  0.00000000000E+00 0.  1.
         11    1    3    3    0    0 -0.18655483750E+02 -0.60209432612E+00  0.38486647435E+01  0.19057854342E+02  0.51100000000E-03 0. -1.
        -11    1    3    3    0    0 -0.52530561044E+01  0.78935225822E+01 -0.32054634404E+01  0.10008860740E+02  0.51100000000E-03 0.  1.
        -12    1    3    3    0    0 -0.17119032099E+02  0.64762191698E+01 -0.39315096080E+01  0.18720562025E+02  0.00000000000E+00 0.  1.
</event>
<event>
 7    1  0.2655656E-009  0.4778727E+02  0.7816164E-02  0.1312668E+00
        -11   -1    0    0    0    0  0.00000000000E+00  0.00000000000E+00  0.45593999997E+02  0.45594000000E+02  0.51100000000E-03 0.  1.
         11   -1    0    0    0    0 -0.00000000000E+00 -0.00000000000E+00 -0.45593999997E+02  0.45594000000E+02  0.51100000000E-03 0. -1.
    9900012    2    1    2    0    0  0.18087676202E+02  0.13892000891E+02 -0.36925219508E+02  0.47787267808E+02  0.19999985243E+02 0.  0.
        -12    1    1    2    0    0 -0.18087676202E+02 -0.13892000891E+02  0.36925219508E+02  0.43400732192E+02  0.00000000000E+00 0.  1.
         11    1    3    3    0    0  0.18519473760E+01  0.91955779218E+01 -0.21590077817E+02  0.23539749846E+02  0.51100000000E-03 0. -1.
        -11    1    3    3    0    0  0.88178058515E+00  0.32182392066E+01 -0.31718983061E+01  0.46038613920E+01  0.51100000000E-03 0.  1.
         12    1    3    3    0    0  0.15353948241E+02  0.14781837621E+01 -0.12163243384E+02  0.19643656570E+02  0.00000000000E+00 0. -1.
</event>
<event>
 7    1  0.2655656E-009  0.4778727E+02  0.7816164E-02  0.1312668E+00
        -11   -1    0    0    0    0  0.00000000000E+00  0.00000000000E+00  0.45593999997E+02  0.45594000000E+02  0.51100000000E-03 0. -1.
         11   -1    0    0    0    0 -0.00000000000E+00 -0.00000000000E+00 -0.45593999997E+02  0.45594000000E+02  0.51100000000E-03 0.  1.
    9900012    2    1    2    0    0  0.82143574045E+01 -0.37069921339E+02 -0.21023046991E+02  0.47787271429E+02  0.20000001755E+02 0.  0.
        -12    1    1    2    0    0 -0.82143574045E+01  0.37069921339E+02  0.21023046991E+02  0.43400728571E+02  0.00000000000E+00 0.  1.
         11    1    3    3    0    0  0.28932068315E+01 -0.10123467269E+02 -0.53004142699E+01  0.11787689638E+02  0.51100000000E-03 0. -1.
        -11    1    3    3    0    0  0.82439182915E+01 -0.27798096034E+02 -0.15662503627E+02  0.32954671172E+02  0.51100000000E-03 0.  1.
        -12    1    3    3    0    0 -0.29227677185E+01  0.85164196393E+00 -0.60129094173E-01  0.30449106192E+01  0.00000000000E+00 0.  1.
</event>
<event>
 7    1  0.2655656E-009  0.4778727E+02  0.7816164E-02  0.1312668E+00
        -11   -1    0    0    0    0  0.00000000000E+00  0.00000000000E+00  0.45593999997E+02  0.45594000000E+02  0.51100000000E-03 0. -1.
         11   -1    0    0    0    0 -0.00000000000E+00 -0.00000000000E+00 -0.45593999997E+02  0.45594000000E+02  0.51100000000E-03 0.  1.
    9900012    2    1    2    0    0 -0.25662894533E+02  0.27596086495E+02  0.21528939693E+02  0.47787269707E+02  0.19999993902E+02 0.  0.
        -12    1    1    2    0    0  0.25662894533E+02 -0.27596086495E+02 -0.21528939693E+02  0.43400730293E+02  0.00000000000E+00 0.  1.
         11    1    3    3    0    0 -0.10723491325E+02  0.23842978338E+02  0.16244298103E+02  0.30779182955E+02  0.51100000000E-03 0. -1.
        -11    1    3    3    0    0 -0.14025443130E+02  0.36796161390E+01  0.61471236217E+01  0.15749278047E+02  0.51100000000E-03 0.  1.
         12    1    3    3    0    0 -0.91396007769E+00  0.73492018285E-01 -0.86248203217E+00  0.12588087052E+01  0.00000000000E+00 0. -1.
</event>
<event>
 7    1  0.2655656E-009  0.4778727E+02  0.7816164E-02  0.1312668E+00
        -11   -1    0    0    0    0  0.00000000000E+00  0.00000000000E+00  0.45593999997E+02  0.45594000000E+02  0.51100000000E-03 0.  1.
         11   -1    0    0    0    0 -0.00000000000E+00 -0.00000000000E+00 -0.45593999997E+02  0.45594000000E+02  0.51100000000E-03 0. -1.
    9900012    2    1    2    0    0 -0.20152582803E+02  0.30984393330E+02 -0.22747841126E+02  0.47787268444E+02  0.19999988145E+02 0.  0.
        -12    1    1    2    0    0  0.20152582803E+02 -0.30984393330E+02  0.22747841126E+02  0.43400731556E+02  0.00000000000E+00 0.  1.
         11    1    3    3    0    0 -0.96744811389E+01  0.19283612524E+02 -0.17854935281E+02  0.28004499842E+02  0.51100000000E-03 0. -1.
        -11    1    3    3    0    0 -0.10716879895E+02  0.52631060161E+01 -0.43272748443E+00  0.11947345017E+02  0.51100000000E-03 0.  1.
        -12    1    3    3    0    0  0.23877823061E+00  0.64376747901E+01 -0.44601783605E+01  0.78354235849E+01  0.00000000000E+00 0.  1.
</event>
<event>
 7    1  0.2655656E-009  0.4778727E+02  0.7816164E-02  0.1312668E+00
        -11   -1    0    0    0    0  0.00000000000E+00  0.00000000000E+00  0.45593999997E+02  0.45594000000E+02  0.51100000000E-03 0.  1.
         11   -1    0    0    0    0 -0.00000000000E+00 -0.00000000000E+00 -0.45593999997E+02  0.45594000000E+02  0.51100000000E-03 0. -1.
    9900012    2    1    2    0    0  0.19454730463E+02  0.19995928768E+02 -0.33246046796E+02  0.47787270372E+02  0.19999996935E+02 0.  0.
        -12    1    1    2    0    0 -0.19454730463E+02 -0.19995928768E+02  0.33246046796E+02  0.43400729628E+02  0.00000000000E+00 0.  1.
         11    1    3    3    0    0  0.11040910633E+02  0.21008903536E+02 -0.25825447128E+02  0.35074626940E+02  0.51100000000E-03 0. -1.
        -11    1    3    3    0    0  0.19150727631E+00 -0.17427531601E+01 -0.26534182992E+01  0.31803289996E+01  0.51100000000E-03 0.  1.
         12    1    3    3    0    0  0.82223125536E+01  0.72977839197E+00 -0.47671813689E+01  0.95323144322E+01  0.00000000000E+00 0. -1.
</event>
<event>
 7    1  0.2655656E-009  0.4778727E+02  0.7816164E-02  0.1312668E+00
        -11   -1    0    0    0    0  0.00000000000E+00  0.00000000000E+00  0.45593999997E+02  0.45594000000E+02  0.51100000000E-03 0. -1.
         11   -1    0    0    0    0 -0.00000000000E+00 -0.00000000000E+00 -0.45593999997E+02  0.45594000000E+02  0.51100000000E-03 0.  1.
    9900012    2    1    2    0    0 -0.26825126127E+02  0.32929269909E+02 -0.89274376488E+01  0.47787270151E+02  0.19999995925E+02 0.  0.
        -12    1    1    2    0    0  0.26825126127E+02 -0.32929269909E+02  0.89274376488E+01  0.43400729849E+02  0.00000000000E+00 0.  1.
         11    1    3    3    0    0 -0.14314231017E+02  0.13611958010E+02  0.10248034988E+01  0.19779606491E+02  0.51100000000E-03 0.  1.
        -11    1    3    3    0    0 -0.11833798327E+02  0.14746913078E+02 -0.22708680665E+01  0.19043819738E+02  0.51100000000E-03 0. -1.
        -12    1    3    3    0    0 -0.67709678307E+00  0.45703988202E+01 -0.76813730811E+01  0.89638439210E+01  0.00000000000E+00 0.  1.
</event>
<event>
 7    1  0.2655656E-009  0.4778727E+02  0.7816164E-02  0.1312668E+00
        -11   -1    0    0    0    0  0.00000000000E+00  0.00000000000E+00  0.45593999997E+02  0.45594000000E+02  0.51100000000E-03 0.  1.
         11   -1    0    0    0    0 -0.00000000000E+00 -0.00000000000E+00 -0.45593999997E+02  0.45594000000E+02  0.51100000000E-03 0. -1.
    9900012    2    1    2    0    0  0.18218618688E+02  0.21060937175E+02 -0.33288767114E+02  0.47787272385E+02  0.20000006111E+02 0.  0.
        -12    1    1    2    0    0 -0.18218618688E+02 -0.21060937175E+02  0.33288767114E+02  0.43400727615E+02  0.00000000000E+00 0.  1.
         11    1    3    3    0    0  0.17847614528E+01  0.13513474353E+02 -0.12081059572E+02  0.18214043021E+02  0.51100000000E-03 0. -1.
        -11    1    3    3    0    0  0.97373971235E+00 -0.20886949378E+01 -0.15797795653E+01  0.27940149081E+01  0.51100000000E-03 0.  1.
         12    1    3    3    0    0  0.15460117523E+02  0.96361577594E+01 -0.19627927977E+02  0.26779214455E+02  0.00000000000E+00 0. -1.
</event>
<event>
 7    1  0.2655656E-009  0.4778727E+02  0.7816164E-02  0.1312668E+00
        -11   -1    0    0    0    0  0.00000000000E+00  0.00000000000E+00  0.45593999997E+02  0.45594000000E+02  0.51100000000E-03 0. -1.
         11   -1    0    0    0    0 -0.00000000000E+00 -0.00000000000E+00 -0.45593999997E+02  0.45594000000E+02  0.51100000000E-03 0.  1.
    9900012    2    1    2    0    0 -0.13656832148E+01 -0.37806059858E+02  0.21271108820E+02  0.47787270478E+02  0.19999997415E+02 0.  0.
        -12    1    1    2    0    0  0.13656832148E+01  0.37806059858E+02 -0.21271108820E+02  0.43400729522E+02  0.00000000000E+00 0.  1.
         11    1    3    3    0    0  0.24880690595E+01 -0.10156168366E+02  0.10177500267E+02  0.14591770128E+02  0.51100000000E-03 0. -1.
        -11    1    3    3    0    0 -0.76508741824E+01 -0.20790006794E+02  0.12178777355E+02  0.25280088535E+02  0.51100000000E-03 0.  1.
        -12    1    3    3    0    0  0.37971219081E+01 -0.68598846984E+01 -0.10851688017E+01  0.79154118142E+01  0.00000000000E+00 0.  1.
</event>
<event>
 7    1  0.2655656E-009  0.4778728E+02  0.7816164E-02  0.1312668E+00
        -11   -1    0    0    0    0  0.00000000000E+00  0.00000000000E+00  0.45593999997E+02  0.45594000000E+02  0.51100000000E-03 0. -1.
         11   -1    0    0    0    0 -0.00000000000E+00 -0.00000000000E+00 -0.45593999997E+02  0.45594000000E+02  0.51100000000E-03 0.  1.
    9900012    2    1    2    0    0  0.37348282790E+02 -0.18903572540E+02  0.11462236096E+02  0.47787284125E+02  0.20000059638E+02 0.  0.
        -12    1    1    2    0    0 -0.37348282790E+02  0.18903572540E+02 -0.11462236096E+02  0.43400715875E+02  0.00000000000E+00 0.  1.
         11    1    3    3    0    0  0.57151974823E+01  0.30058185862E+01 -0.44016269822E+00  0.64724161715E+01  0.51100000000E-03 0. -1.
        -11    1    3    3    0    0  0.14899694419E+02 -0.65686362463E+01  0.84735319273E+01  0.18356160260E+02  0.51100000000E-03 0.  1.
         12    1    3    3    0    0  0.16733390889E+02 -0.15340754880E+02  0.34288668671E+01  0.22958707693E+02  0.00000000000E+00 0. -1.
</event>
<event>
 7    1  0.2655656E-009  0.4778727E+02  0.7816164E-02  0.1312668E+00
        -11   -1    0    0    0    0  0.00000000000E+00  0.00000000000E+00  0.45593999997E+02  0.45594000000E+02  0.51100000000E-03 0.  1.
         11   -1    0    0    0    0 -0.00000000000E+00 -0.00000000000E+00 -0.45593999997E+02  0.45594000000E+02  0.51100000000E-03 0. -1.
    9900012    2    1    2    0    0  0.10650465922E+02  0.39773867897E+02 -0.13719705635E+02  0.47787270576E+02  0.19999997864E+02 0.  0.
        -12    1    1    2    0    0 -0.10650465922E+02 -0.39773867897E+02  0.13719705635E+02  0.43400729424E+02  0.00000000000E+00 0.  1.
         11    1    3    3    0    0  0.11340471206E+02  0.26772711742E+02 -0.11619785054E+02  0.31311400259E+02  0.51100000000E-03 0. -1.
        -11    1    3    3    0    0  0.43018603468E+01  0.37080205358E+01 -0.16629468519E+01  0.59178383917E+01  0.51100000000E-03 0.  1.
         12    1    3    3    0    0 -0.49918656303E+01  0.92931356189E+01 -0.43697372895E+00  0.10558031926E+02  0.00000000000E+00 0. -1.
</event>
<event>
 7    1  0.2655656E-009  0.4778727E+02  0.7816164E-02  0.1312668E+00
        -11   -1    0    0    0    0  0.00000000000E+00  0.00000000000E+00  0.45593999997E+02  0.45594000000E+02  0.51100000000E-03 0. -1.
         11   -1    0    0    0    0 -0.00000000000E+00 -0.00000000000E+00 -0.45593999997E+02  0.45594000000E+02  0.51100000000E-03 0.  1.
    9900012    2    1    2    0    0  0.28889096265E+02  0.31627536100E+02 -0.69815702294E+01  0.47787271370E+02  0.20000001485E+02 0.  0.
        -12    1    1    2    0    0 -0.28889096265E+02 -0.31627536100E+02  0.69815702294E+01  0.43400728630E+02  0.00000000000E+00 0.  1.
         11    1    3    3    0    0  0.63144893313E+01  0.41284732056E+01 -0.40860945200E+01  0.85798155698E+01  0.51100000000E-03 0.  1.
        -11    1    3    3    0    0 -0.13244958568E+01  0.40933421570E+01 -0.38053116901E+01  0.57437040844E+01  0.51100000000E-03 0. -1.
        -12    1    3    3    0    0  0.23899102790E+02  0.23405720737E+02  0.90983598071E+00  0.33463751716E+02  0.00000000000E+00 0.  1.
</event>
<event>
 7    1  0.2655656E-009  0.4778727E+02  0.7816164E-02  0.1312668E+00
        -11   -1    0    0    0    0  0.00000000000E+00  0.00000000000E+00  0.45593999997E+02  0.45594000000E+02  0.51100000000E-03 0.  1.
         11   -1    0    0    0    0 -0.00000000000E+00 -0.00000000000E+00 -0.45593999997E+02  0.45594000000E+02  0.51100000000E-03 0. -1.
    9900012    2    1    2    0    0  0.15072173506E+02  0.39293304689E+02 -0.10606081008E+02  0.47787272334E+02  0.20000005881E+02 0.  0.
        -12    1    1    2    0    0 -0.15072173506E+02 -0.39293304689E+02  0.10606081008E+02  0.43400727666E+02  0.00000000000E+00 0.  1.
         11    1    3    3    0    0 -0.14887376883E+01  0.13461779425E+02 -0.85944197535E+01  0.16040570325E+02  0.51100000000E-03 0. -1.
        -11    1    3    3    0    0  0.16508292549E+02  0.26302174411E+02 -0.23829464590E+01  0.31144927929E+02  0.51100000000E-03 0.  1.
        -12    1    3    3    0    0  0.52618645820E-01 -0.47064914683E+00  0.37128520394E+00  0.60177408051E+00  0.00000000000E+00 0.  1.
</event>
<event>
 7    1  0.2655656E-009  0.4778727E+02  0.7816164E-02  0.1312668E+00
        -11   -1    0    0    0    0  0.00000000000E+00  0.00000000000E+00  0.45593999997E+02  0.45594000000E+02  0.51100000000E-03 0.  1.
         11   -1    0    0    0    0 -0.00000000000E+00 -0.00000000000E+00 -0.45593999997E+02  0.45594000000E+02  0.51100000000E-03 0. -1.
    9900012    2    1    2    0    0 -0.33993802044E+01  0.38577605606E+02 -0.19591728287E+02  0.47787271235E+02  0.20000000868E+02 0.  0.
        -12    1    1    2    0    0  0.33993802044E+01 -0.38577605606E+02  0.19591728287E+02  0.43400728765E+02  0.00000000000E+00 0.  1.
         11    1    3    3    0    0 -0.39662300462E+01  0.26633507122E+02 -0.69060518427E+01  0.27798709228E+02  0.51100000000E-03 0. -1.
        -11    1    3    3    0    0  0.98702316333E-01 -0.66512917023E-01 -0.64435146513E+01  0.64446138316E+01  0.51100000000E-03 0.  1.
         12    1    3    3    0    0  0.46814752543E+00  0.12010611401E+02 -0.62421617935E+01  0.13543948175E+02  0.00000000000E+00 0. -1.
</event>
<event>
 7    1  0.2655656E-009  0.4778727E+02  0.7816164E-02  0.1312668E+00
        -11   -1    0    0    0    0  0.00000000000E+00  0.00000000000E+00  0.45593999997E+02  0.45594000000E+02  0.51100000000E-03 0.  1.
         11   -1    0    0    0    0 -0.00000000000E+00 -0.00000000000E+00 -0.45593999997E+02  0.45594000000E+02  0.51100000000E-03 0. -1.
    9900012    2    1    2    0    0  0.51787472465E+01 -0.16437236255E+02 -0.39832413747E+02  0.47787270241E+02  0.19999996335E+02 0.  0.
        -12    1    1    2    0    0 -0.51787472465E+01  0.16437236255E+02  0.39832413747E+02  0.43400729759E+02  0.00000000000E+00 0.  1.
         11    1    3    3    0    0 -0.44088781263E+01 -0.16017609949E+01 -0.32031174875E+01  0.56801238118E+01  0.51100000000E-03 0.  1.
        -11    1    3    3    0    0  0.38168092854E+01 -0.81218754919E+00 -0.21845795440E+01  0.44721437567E+01  0.51100000000E-03 0. -1.
         12    1    3    3    0    0  0.57708160874E+01 -0.14023287711E+02 -0.34444716715E+02  0.37635002672E+02  0.00000000000E+00 0. -1.
</event>
<event>
 7    1  0.2655656E-009  0.4778726E+02  0.7816164E-02  0.1312668E+00
        -11   -1    0    0    0    0  0.00000000000E+00  0.00000000000E+00  0.45593999997E+02  0.45594000000E+02  0.51100000000E-03 0.  1.
         11   -1    0    0    0    0 -0.00000000000E+00 -0.00000000000E+00 -0.45593999997E+02  0.45594000000E+02  0.51100000000E-03 0. -1.
    9900012    2    1    2    0    0  0.29554599202E+02  0.31083786789E+01 -0.31630486243E+02  0.47787262541E+02  0.19999961229E+02 0.  0.
        -12    1    1    2    0    0 -0.29554599202E+02 -0.31083786789E+01  0.31630486243E+02  0.43400737459E+02  0.00000000000E+00 0.  1.
         11    1    3    3    0    0  0.10138184067E+02  0.27416799855E+01 -0.18250277557E+02  0.21056405592E+02  0.51100000000E-03 0. -1.
        -11    1    3    3    0    0  0.20125089937E+02  0.33520875009E+00 -0.85830068373E+01  0.21881490271E+02  0.51100000000E-03 0.  1.
        -12    1    3    3    0    0 -0.70867480076E+00  0.31489943357E-01 -0.47972018491E+01  0.48493666773E+01  0.00000000000E+00 0.  1.
</event>
<event>
 7    1  0.2655656E-009  0.4778727E+02  0.7816164E-02  0.1312668E+00
        -11   -1    0    0    0    0  0.00000000000E+00  0.00000000000E+00  0.45593999997E+02  0.45594000000E+02  0.51100000000E-03 0. -1.
         11   -1    0    0    0    0 -0.00000000000E+00 -0.00000000000E+00 -0.45593999997E+02  0.45594000000E+02  0.51100000000E-03 0.  1.
    9900012    2    1    2    0    0 -0.20501806120E+02 -0.19385049090E+02  0.32977551948E+02  0.47787272876E+02  0.20000008351E+02 0.  0.
        -12    1    1    2    0    0  0.20501806120E+02  0.19385049090E+02 -0.32977551948E+02  0.43400727124E+02  0.00000000000E+00 0.  1.
         11    1    3    3    0    0 -0.53593969211E+01 -0.67712528275E+01 -0.32201299659E+00  0.86415677306E+01  0.51100000000E-03 0. -1.
        -11    1    3    3    0    0 -0.10242068570E+02 -0.96362166941E+01  0.28021876540E+02  0.31352547040E+02  0.51100000000E-03 0.  1.
         12    1    3    3    0    0 -0.49003406289E+01 -0.29775795684E+01  0.52776884044E+01  0.77931581057E+01  0.00000000000E+00 0. -1.
</event>
<event>
 7    1  0.2655656E-009  0.4778727E+02  0.7816164E-02  0.1312668E+00
        -11   -1    0    0    0    0  0.00000000000E+00  0.00000000000E+00  0.45593999997E+02  0.45594000000E+02  0.51100000000E-03 0.  1.
         11   -1    0    0    0    0 -0.00000000000E+00 -0.00000000000E+00 -0.45593999997E+02  0.45594000000E+02  0.51100000000E-03 0. -1.
    9900012    2    1    2    0    0  0.82893923673E+01 -0.19717027933E+02 -0.37764375654E+02  0.47787270917E+02  0.19999999421E+02 0.  0.
        -12    1    1    2    0    0 -0.82893923673E+01  0.19717027933E+02  0.37764375654E+02  0.43400729083E+02  0.00000000000E+00 0.  1.
         11    1    3    3    0    0  0.10021098231E+02 -0.49307287622E+01 -0.25432375261E+02  0.27776612601E+02  0.51100000000E-03 0. -1.
        -11    1    3    3    0    0 -0.31132660375E+01 -0.11689849936E+02 -0.11054184180E+02  0.16387190275E+02  0.51100000000E-03 0.  1.
        -12    1    3    3    0    0  0.13815601740E+01 -0.30964492351E+01 -0.12778162129E+01  0.36234680424E+01  0.00000000000E+00 0.  1.
</event>
<event>
 7    1  0.2655656E-009  0.4778728E+02  0.7816164E-02  0.1312668E+00
        -11   -1    0    0    0    0  0.00000000000E+00  0.00000000000E+00  0.45593999997E+02  0.45594000000E+02  0.51100000000E-03 0.  1.
         11   -1    0    0    0    0 -0.00000000000E+00 -0.00000000000E+00 -0.45593999997E+02  0.45594000000E+02  0.51100000000E-03 0. -1.
    9900012    2    1    2    0    0 -0.10191140162E+01 -0.38824646911E+02  0.19370878578E+02  0.47787277218E+02  0.20000028147E+02 0.  0.
        -12    1    1    2    0    0  0.10191140162E+01  0.38824646911E+02 -0.19370878578E+02  0.43400722782E+02  0.00000000000E+00 0.  1.
         11    1    3    3    0    0  0.26503426740E+01 -0.23832390712E+02  0.18100548263E+02  0.30043918037E+02  0.51100000000E-03 0. -1.
        -11    1    3    3    0    0  0.18842896802E+01 -0.82308738728E+01 -0.14776267768E+01  0.85721183765E+01  0.51100000000E-03 0.  1.
         12    1    3    3    0    0 -0.55537463703E+01 -0.67613823259E+01  0.27479570917E+01  0.91712408037E+01  0.00000000000E+00 0. -1.
</event>
<event>
 7    1  0.2655656E-009  0.4778727E+02  0.7816164E-02  0.1312668E+00
        -11   -1    0    0    0    0  0.00000000000E+00  0.00000000000E+00  0.45593999997E+02  0.45594000000E+02  0.51100000000E-03 0.  1.
         11   -1    0    0    0    0 -0.00000000000E+00 -0.00000000000E+00 -0.45593999997E+02  0.45594000000E+02  0.51100000000E-03 0. -1.
    9900012    2    1    2    0    0  0.24511561560E+02 -0.31034644238E+02  0.17878963863E+02  0.47787272565E+02  0.20000006931E+02 0.  0.
        -12    1    1    2    0    0 -0.24511561560E+02  0.31034644238E+02 -0.17878963863E+02  0.43400727435E+02  0.00000000000E+00 0.  1.
         11    1    3    3    0    0  0.16675859949E+02 -0.21293730322E+02  0.16909989148E+02  0.31897570272E+02  0.51100000000E-03 0. -1.
        -11    1    3    3    0    0  0.24947575602E+01 -0.67427090093E+01  0.48191209236E+01  0.86551641698E+01  0.51100000000E-03 0.  1.
         12    1    3    3    0    0  0.53409440510E+01 -0.29982049073E+01 -0.38501462082E+01  0.72345381226E+01  0.00000000000E+00 0. -1.
</event>
<event>
 7    1  0.2655656E-009  0.4778727E+02  0.7816164E-02  0.1312668E+00
        -11   -1    0    0    0    0  0.00000000000E+00  0.00000000000E+00  0.45593999997E+02  0.45594000000E+02  0.51100000000E-03 0.  1.
         11   -1    0    0    0    0 -0.00000000000E+00 -0.00000000000E+00 -0.45593999997E+02  0.45594000000E+02  0.51100000000E-03 0. -1.
    9900012    2    1    2    0    0 -0.18694004779E+02  0.31528318835E+02 -0.23240540691E+02  0.47787269190E+02  0.19999991545E+02 0.  0.
        -12    1    1    2    0    0  0.18694004779E+02 -0.31528318835E+02  0.23240540691E+02  0.43400730810E+02  0.00000000000E+00 0.  1.
         11    1    3    3    0    0 -0.84359646934E+01  0.14902974373E+02 -0.11077993212E+02  0.20395736793E+02  0.51100000000E-03 0. -1.
        -11    1    3    3    0    0  0.20643669787E+01  0.56826930383E+01  0.12133562424E+01  0.61665910212E+01  0.51100000000E-03 0.  1.
        -12    1    3    3    0    0 -0.12322407065E+02  0.10942651423E+02 -0.13375903721E+02  0.21224941375E+02  0.00000000000E+00 0.  1.
</event>
<event>
 7    1  0.2655656E-009  0.4778727E+02  0.7816164E-02  0.1312668E+00
        -11   -1    0    0    0    0  0.00000000000E+00  0.00000000000E+00  0.45593999997E+02  0.45594000000E+02  0.51100000000E-03 0.  1.
         11   -1    0    0    0    0 -0.00000000000E+00 -0.00000000000E+00 -0.45593999997E+02  0.45594000000E+02  0.51100000000E-03 0. -1.
    9900012    2    1    2    0    0 -0.53114117476E+01  0.37913505331E+02 -0.20444521098E+02  0.47787269313E+02  0.19999992103E+02 0.  0.
        -12    1    1    2    0    0  0.53114117476E+01 -0.37913505331E+02  0.20444521098E+02  0.43400730687E+02  0.00000000000E+00 0.  1.
         11    1    3    3    0    0 -0.10680440289E+02  0.18012905860E+02 -0.11306163582E+02  0.23798443594E+02  0.51100000000E-03 0. -1.
        -11    1    3    3    0    0  0.68574354508E+01  0.13573465905E+02 -0.85904120412E+01  0.17465926169E+02  0.51100000000E-03 0.  1.
         12    1    3    3    0    0 -0.14884069091E+01  0.63271335662E+01 -0.54794547553E+00  0.65228995497E+01  0.00000000000E+00 0. -1.
</event>
<event>
 7    1  0.2655656E-009  0.4778727E+02  0.7816164E-02  0.1312668E+00
        -11   -1    0    0    0    0  0.00000000000E+00  0.00000000000E+00  0.45593999997E+02  0.45594000000E+02  0.51100000000E-03 0.  1.
         11   -1    0    0    0    0 -0.00000000000E+00 -0.00000000000E+00 -0.45593999997E+02  0.45594000000E+02  0.51100000000E-03 0. -1.
    9900012    2    1    2    0    0 -0.29729783721E+02 -0.27026041862E+02 -0.16412070962E+02  0.47787273600E+02  0.20000011650E+02 0.  0.
        -12    1    1    2    0    0  0.29729783721E+02  0.27026041862E+02  0.16412070962E+02  0.43400726400E+02  0.00000000000E+00 0.  1.
         11    1    3    3    0    0 -0.21634090137E+02 -0.23675756297E+02 -0.67099155510E+01  0.32765809303E+02  0.51100000000E-03 0. -1.
        -11    1    3    3    0    0 -0.67259987275E+01  0.90939291890E+00 -0.44229858801E+01  0.81011640349E+01  0.51100000000E-03 0.  1.
        -12    1    3    3    0    0 -0.13696948570E+01 -0.42596784832E+01 -0.52791695309E+01  0.69203002621E+01  0.00000000000E+00 0.  1.
</event>
<event>
 7    1  0.2655656E-009  0.4778727E+02  0.7816164E-02  0.1312668E+00
        -11   -1    0    0    0    0  0.00000000000E+00  0.00000000000E+00  0.45593999997E+02  0.45594000000E+02  0.51100000000E-03 0. -1.
         11   -1    0    0    0    0 -0.00000000000E+00 -0.00000000000E+00 -0.45593999997E+02  0.45594000000E+02  0.51100000000E-03 0.  1.
    9900012    2    1    2    0    0 -0.29555374547E+02  0.28677743684E+02 -0.13699994206E+02  0.47787274331E+02  0.20000014983E+02 0.  0.
        -12    1    1    2    0    0  0.29555374547E+02 -0.28677743684E+02  0.13699994206E+02  0.43400725669E+02  0.00000000000E+00 0.  1.
         11    1    3    3    0    0 -0.15933888422E+02  0.90648900054E+01  0.16044221403E+01  0.18402043411E+02  0.51100000000E-03 0. -1.
        -11    1    3    3    0    0 -0.68621678781E+01  0.77327706933E+01 -0.10903795268E+02  0.15025905700E+02  0.51100000000E-03 0.  1.
         12    1    3    3    0    0 -0.67593182469E+01  0.11880082985E+02 -0.44006210775E+01  0.14359325220E+02  0.00000000000E+00 0. -1.
</event>
<event>
 7    1  0.2655656E-009  0.4778727E+02  0.7816164E-02  0.1312668E+00
        -11   -1    0    0    0    0  0.00000000000E+00  0.00000000000E+00  0.45593999997E+02  0.45594000000E+02  0.51100000000E-03 0. -1.
         11   -1    0    0    0    0 -0.00000000000E+00 -0.00000000000E+00 -0.45593999997E+02  0.45594000000E+02  0.51100000000E-03 0.  1.
    9900012    2    1    2    0    0  0.28858530000E+02 -0.32194908863E+02 -0.37810189228E+01  0.47787274032E+02  0.20000013623E+02 0.  0.
        -12    1    1    2    0    0 -0.28858530000E+02  0.32194908863E+02  0.37810189228E+01  0.43400725968E+02  0.00000000000E+00 0.  1.
         11    1    3    3    0    0  0.14424035340E+02 -0.15060261786E+02 -0.65734941045E+01  0.21864928666E+02  0.51100000000E-03 0. -1.
        -11    1    3    3    0    0  0.81630592174E+01 -0.16597144993E+02  0.51521689381E+01  0.19200145904E+02  0.51100000000E-03 0.  1.
        -12    1    3    3    0    0  0.62714354419E+01 -0.53750208401E+00 -0.23596937564E+01  0.67221994627E+01  0.00000000000E+00 0.  1.
</event>
<event>
 7    1  0.2655656E-009  0.4778727E+02  0.7816164E-02  0.1312668E+00
        -11   -1    0    0    0    0  0.00000000000E+00  0.00000000000E+00  0.45593999997E+02  0.45594000000E+02  0.51100000000E-03 0.  1.
         11   -1    0    0    0    0 -0.00000000000E+00 -0.00000000000E+00 -0.45593999997E+02  0.45594000000E+02  0.51100000000E-03 0. -1.
    9900012    2    1    2    0    0 -0.21422298604E+01  0.11400299230E+02 -0.41821852621E+02  0.47787270421E+02  0.19999997160E+02 0.  0.
        -12    1    1    2    0    0  0.21422298604E+01 -0.11400299230E+02  0.41821852621E+02  0.43400729579E+02  0.00000000000E+00 0.  1.
         11    1    3    3    0    0 -0.55308053058E+01  0.75094981824E+01 -0.34146856872E+02  0.35397601681E+02  0.51100000000E-03 0. -1.
        -11    1    3    3    0    0  0.16665964091E+01  0.59789896182E+01 -0.27903834810E+01  0.68052994554E+01  0.51100000000E-03 0.  1.
         12    1    3    3    0    0  0.17219790363E+01 -0.20881885701E+01 -0.48846122681E+01  0.55843692854E+01  0.00000000000E+00 0. -1.
</event>
<event>
 7    1  0.2663238E-009  0.4778727E+02  0.7816164E-02  0.1312668E+00
        -11   -1    0    0    0    0  0.00000000000E+00  0.00000000000E+00  0.45593999997E+02  0.45594000000E+02  0.51100000000E-03 0. -1.
         11   -1    0    0    0    0 -0.00000000000E+00 -0.00000000000E+00 -0.45593999997E+02  0.45594000000E+02  0.51100000000E-03 0.  1.
    9900012    2    1    2    0    0 -0.21189684195E+02 -0.30891478775E+02  0.21916590582E+02  0.47787272818E+02  0.20000008088E+02 0.  0.
        -12    1    1    2    0    0  0.21189684195E+02  0.30891478775E+02 -0.21916590582E+02  0.43400727182E+02  0.00000000000E+00 0.  1.
         11    1    3    3    0    0 -0.16676919908E+02 -0.13279174329E+02  0.78601907031E+01  0.22720887452E+02  0.51100000000E-03 0. -1.
        -11    1    3    3    0    0 -0.26404824785E+01 -0.93901460101E+00 -0.50865272585E+00  0.28482668408E+01  0.51100000000E-03 0.  1.
         12    1    3    3    0    0 -0.18722818082E+01 -0.16673289845E+02  0.14565052605E+02  0.22218118525E+02  0.00000000000E+00 0. -1.
</event>
<event>
 7    1  0.2655656E-009  0.4778727E+02  0.7816164E-02  0.1312668E+00
        -11   -1    0    0    0    0  0.00000000000E+00  0.00000000000E+00  0.45593999997E+02  0.45594000000E+02  0.51100000000E-03 0. -1.
         11   -1    0    0    0    0 -0.00000000000E+00 -0.00000000000E+00 -0.45593999997E+02  0.45594000000E+02  0.51100000000E-03 0.  1.
    9900012    2    1    2    0    0  0.22193398548E+02 -0.74869897609E+01  0.36537941183E+02  0.47787273039E+02  0.20000009096E+02 0.  0.
        -12    1    1    2    0    0 -0.22193398548E+02  0.74869897609E+01 -0.36537941183E+02  0.43400726961E+02  0.00000000000E+00 0.  1.
         11    1    3    3    0    0  0.26270775480E+01  0.40325813805E+01  0.87550246224E+01  0.99906809294E+01  0.51100000000E-03 0. -1.
        -11    1    3    3    0    0  0.17367209807E+02 -0.51098261351E+01  0.15791767596E+02  0.24023118526E+02  0.51100000000E-03 0.  1.
        -12    1    3    3    0    0  0.21991111929E+01 -0.64097450062E+01  0.11991148965E+02  0.13773473584E+02  0.00000000000E+00 0.  1.
</event>
<event>
 7    1  0.2655656E-009  0.4778727E+02  0.7816164E-02  0.1312668E+00
        -11   -1    0    0    0    0  0.00000000000E+00  0.00000000000E+00  0.45593999997E+02  0.45594000000E+02  0.51100000000E-03 0.  1.
         11   -1    0    0    0    0 -0.00000000000E+00 -0.00000000000E+00 -0.45593999997E+02  0.45594000000E+02  0.51100000000E-03 0. -1.
    9900012    2    1    2    0    0  0.16542875639E+02 -0.35206315997E+02 -0.19247643432E+02  0.47787271917E+02  0.20000003979E+02 0.  0.
        -12    1    1    2    0    0 -0.16542875639E+02  0.35206315997E+02  0.19247643432E+02  0.43400728083E+02  0.00000000000E+00 0.  1.
         11    1    3    3    0    0  0.16252799970E+02 -0.17948099229E+02 -0.12715824942E+02  0.27349222603E+02  0.51100000000E-03 0. -1.
        -11    1    3    3    0    0 -0.37202905010E+01 -0.55198960291E+01 -0.40373405961E+01  0.77852381424E+01  0.51100000000E-03 0.  1.
         12    1    3    3    0    0  0.40103661698E+01 -0.11738320739E+02 -0.24944778936E+01  0.12652811172E+02  0.00000000000E+00 0. -1.
</event>
<event>
 7    1  0.2655656E-009  0.4778727E+02  0.7816164E-02  0.1312668E+00
        -11   -1    0    0    0    0  0.00000000000E+00  0.00000000000E+00  0.45593999997E+02  0.45594000000E+02  0.51100000000E-03 0.  1.
         11   -1    0    0    0    0 -0.00000000000E+00 -0.00000000000E+00 -0.45593999997E+02  0.45594000000E+02  0.51100000000E-03 0. -1.
    9900012    2    1    2    0    0  0.25595732128E+02  0.22637860865E+02 -0.26758349131E+02  0.47787268487E+02  0.19999988338E+02 0.  0.
        -12    1    1    2    0    0 -0.25595732128E+02 -0.22637860865E+02  0.26758349131E+02  0.43400731513E+02  0.00000000000E+00 0.  1.
         11    1    3    3    0    0  0.13424593127E+02  0.49368232290E+01 -0.37364220356E+01  0.14783530502E+02  0.51100000000E-03 0. -1.
        -11    1    3    3    0    0  0.15008095538E+01  0.77807488696E+01 -0.35461766058E+01  0.86814659517E+01  0.51100000000E-03 0.  1.
         12    1    3    3    0    0  0.10670329447E+02  0.99202887662E+01 -0.19475750490E+02  0.24322272033E+02  0.00000000000E+00 0. -1.
</event>
<event>
 7    1  0.2655656E-009  0.4778727E+02  0.7816164E-02  0.1312668E+00
        -11   -1    0    0    0    0  0.00000000000E+00  0.00000000000E+00  0.45593999997E+02  0.45594000000E+02  0.51100000000E-03 0. -1.
         11   -1    0    0    0    0 -0.00000000000E+00 -0.00000000000E+00 -0.45593999997E+02  0.45594000000E+02  0.51100000000E-03 0.  1.
    9900012    2    1    2    0    0  0.38253768765E+02  0.50404199057E+01  0.19871255675E+02  0.47787268905E+02  0.19999990244E+02 0.  0.
        -12    1    1    2    0    0 -0.38253768765E+02 -0.50404199057E+01 -0.19871255675E+02  0.43400731095E+02  0.00000000000E+00 0.  1.
         11    1    3    3    0    0  0.23659415381E+02  0.85997151475E+01  0.18043636906E+02  0.30972501833E+02  0.51100000000E-03 0. -1.
        -11    1    3    3    0    0  0.28877441120E+01 -0.23020541038E+01 -0.22855364732E+01  0.43430630187E+01  0.51100000000E-03 0.  1.
         12    1    3    3    0    0  0.11706609272E+02 -0.12572411380E+01  0.41131552419E+01  0.12471704053E+02  0.00000000000E+00 0. -1.
</event>
<event>
 7    1  0.2655656E-009  0.4778727E+02  0.7816164E-02  0.1312668E+00
        -11   -1    0    0    0    0  0.00000000000E+00  0.00000000000E+00  0.45593999997E+02  0.45594000000E+02  0.51100000000E-03 0. -1.
         11   -1    0    0    0    0 -0.00000000000E+00 -0.00000000000E+00 -0.45593999997E+02  0.45594000000E+02  0.51100000000E-03 0.  1.
    9900012    2    1    2    0    0 -0.13393608126E+02  0.12028022002E+02  0.39491283640E+02  0.47787268031E+02  0.19999986260E+02 0.  0.
        -12    1    1    2    0    0  0.13393608126E+02 -0.12028022002E+02 -0.39491283640E+02  0.43400731969E+02  0.00000000000E+00 0.  1.
         11    1    3    3    0    0 -0.13507421442E+01 -0.46011181476E+01  0.81018343717E+01  0.94145904317E+01  0.51100000000E-03 0.  1.
        -11    1    3    3    0    0 -0.44856417490E+01  0.10571860517E+02  0.22333958403E+02  0.25113560379E+02  0.51100000000E-03 0. -1.
        -12    1    3    3    0    0 -0.75572242326E+01  0.60572796327E+01  0.90554908654E+01  0.13259117220E+02  0.00000000000E+00 0.  1.
</event>
<event>
 7    1  0.2655656E-009  0.4778726E+02  0.7816164E-02  0.1312668E+00
        -11   -1    0    0    0    0  0.00000000000E+00  0.00000000000E+00  0.45593999997E+02  0.45594000000E+02  0.51100000000E-03 0.  1.
         11   -1    0    0    0    0 -0.00000000000E+00 -0.00000000000E+00 -0.45593999997E+02  0.45594000000E+02  0.51100000000E-03 0. -1.
    9900012    2    1    2    0    0 -0.35438959359E+02  0.90441048846E+01 -0.23364679883E+02  0.47787263374E+02  0.19999965026E+02 0.  0.
        -12    1    1    2    0    0  0.35438959359E+02 -0.90441048846E+01  0.23364679883E+02  0.43400736626E+02  0.00000000000E+00 0.  1.
         11    1    3    3    0    0 -0.18665526303E+02  0.13578031193E+02 -0.16323612958E+02  0.28270570273E+02  0.51100000000E-03 0. -1.
        -11    1    3    3    0    0 -0.49801120834E+01 -0.38297515076E+01 -0.14568197059E+01  0.64490958195E+01  0.51100000000E-03 0.  1.
         12    1    3    3    0    0 -0.11793320973E+02 -0.70417480060E+00 -0.55842472192E+01  0.13067597282E+02  0.00000000000E+00 0. -1.
</event>
<event>
 7    1  0.2655656E-009  0.4778726E+02  0.7816164E-02  0.1312668E+00
        -11   -1    0    0    0    0  0.00000000000E+00  0.00000000000E+00  0.45593999997E+02  0.45594000000E+02  0.51100000000E-03 0.  1.
         11   -1    0    0    0    0 -0.00000000000E+00 -0.00000000000E+00 -0.45593999997E+02  0.45594000000E+02  0.51100000000E-03 0. -1.
    9900012    2    1    2    0    0  0.38890919866E+01  0.42505094555E+02  0.78623256156E+01  0.47787259641E+02  0.19999948007E+02 0.  0.
        -12    1    1    2    0    0 -0.38890919866E+01 -0.42505094555E+02 -0.78623256156E+01  0.43400740359E+02  0.00000000000E+00 0.  1.
         11    1    3    3    0    0  0.74101711493E+01  0.31075216741E+02  0.75318366214E+00  0.31955391061E+02  0.51100000000E-03 0. -1.
        -11    1    3    3    0    0 -0.27791768469E+00  0.96947193532E+01  0.73149165885E+01  0.12147955652E+02  0.51100000000E-03 0.  1.
         12    1    3    3    0    0 -0.32431614781E+01  0.17351584608E+01 -0.20577463494E+00  0.36839129275E+01  0.00000000000E+00 0. -1.
</event>
<event>
 7    1  0.2655656E-009  0.4778728E+02  0.7816164E-02  0.1312668E+00
        -11   -1    0    0    0    0  0.00000000000E+00  0.00000000000E+00  0.45593999997E+02  0.45594000000E+02  0.51100000000E-03 0.  1.
         11   -1    0    0    0    0 -0.00000000000E+00 -0.00000000000E+00 -0.45593999997E+02  0.45594000000E+02  0.51100000000E-03 0. -1.
    9900012    2    1    2    0    0 -0.24586032949E+01 -0.32943882230E+02 -0.28147438386E+02  0.47787281179E+02  0.20000046207E+02 0.  0.
        -12    1    1    2    0    0  0.24586032949E+01  0.32943882230E+02  0.28147438386E+02  0.43400718821E+02  0.00000000000E+00 0.  1.
         11    1    3    3    0    0  0.46482223286E+01 -0.19211985575E+01 -0.89454675942E+01  0.10262473652E+02  0.51100000000E-03 0. -1.
        -11    1    3    3    0    0 -0.22010356089E+01 -0.33948126054E+01 -0.36181915616E+01  0.54277638872E+01  0.51100000000E-03 0.  1.
         12    1    3    3    0    0 -0.49057900147E+01 -0.27627871067E+02 -0.15583779230E+02  0.32097043640E+02  0.00000000000E+00 0. -1.
</event>
<event>
 7    1  0.2655656E-009  0.4778727E+02  0.7816164E-02  0.1312668E+00
        -11   -1    0    0    0    0  0.00000000000E+00  0.00000000000E+00  0.45593999997E+02  0.45594000000E+02  0.51100000000E-03 0. -1.
         11   -1    0    0    0    0 -0.00000000000E+00 -0.00000000000E+00 -0.45593999997E+02  0.45594000000E+02  0.51100000000E-03 0.  1.
    9900012    2    1    2    0    0  0.38125694866E+02 -0.19025073810E+01  0.20650303689E+02  0.47787272059E+02  0.20000004628E+02 0.  0.
        -12    1    1    2    0    0 -0.38125694866E+02  0.19025073810E+01 -0.20650303689E+02  0.43400727941E+02  0.00000000000E+00 0.  1.
         11    1    3    3    0    0  0.23548949963E+02 -0.58903181248E+01  0.45613208303E+01  0.24699282175E+02  0.51100000000E-03 0. -1.
        -11    1    3    3    0    0  0.24581357436E+01  0.36599847807E+01  0.37188973297E+01  0.57678520733E+01  0.51100000000E-03 0.  1.
         12    1    3    3    0    0  0.12118609159E+02  0.32782596298E+00  0.12370085529E+02  0.17320137812E+02  0.00000000000E+00 0. -1.
</event>
<event>
 7    1  0.2655656E-009  0.4778728E+02  0.7816164E-02  0.1312668E+00
        -11   -1    0    0    0    0  0.00000000000E+00  0.00000000000E+00  0.45593999997E+02  0.45594000000E+02  0.51100000000E-03 0.  1.
         11   -1    0    0    0    0 -0.00000000000E+00 -0.00000000000E+00 -0.45593999997E+02  0.45594000000E+02  0.51100000000E-03 0. -1.
    9900012    2    1    2    0    0 -0.29004865940E+02 -0.29814742504E+02  0.12386341490E+02  0.47787279104E+02  0.20000036748E+02 0.  0.
        -12    1    1    2    0    0  0.29004865940E+02  0.29814742504E+02 -0.12386341490E+02  0.43400720896E+02  0.00000000000E+00 0.  1.
         11    1    3    3    0    0 -0.63147026270E+01 -0.34712033302E+01  0.17333207126E+01  0.74114184055E+01  0.51100000000E-03 0. -1.
        -11    1    3    3    0    0 -0.17938624102E+02 -0.26101690532E+02  0.13929119422E+02  0.34599318655E+02  0.51100000000E-03 0.  1.
        -12    1    3    3    0    0 -0.47515392115E+01 -0.24184864200E+00 -0.32760986455E+01  0.57765420434E+01  0.00000000000E+00 0.  1.
</event>
<event>
 7    1  0.2655656E-009  0.4778727E+02  0.7816164E-02  0.1312668E+00
        -11   -1    0    0    0    0  0.00000000000E+00  0.00000000000E+00  0.45593999997E+02  0.45594000000E+02  0.51100000000E-03 0. -1.
         11   -1    0    0    0    0 -0.00000000000E+00 -0.00000000000E+00 -0.45593999997E+02  0.45594000000E+02  0.51100000000E-03 0.  1.
    9900012    2    1    2    0    0 -0.35071256355E+02  0.15105869541E+02  0.20626265465E+02  0.47787272542E+02  0.20000006826E+02 0.  0.
        -12    1    1    2    0    0  0.35071256355E+02 -0.15105869541E+02 -0.20626265465E+02  0.43400727458E+02  0.00000000000E+00 0.  1.
         11    1    3    3    0    0 -0.10138964061E+02  0.13442888709E+02  0.54786387164E+01  0.17706646535E+02  0.51100000000E-03 0. -1.
        -11    1    3    3    0    0 -0.90322327655E+01 -0.23548611175E+01  0.35148744918E+01  0.99740133630E+01  0.51100000000E-03 0.  1.
         12    1    3    3    0    0 -0.15900059528E+02  0.40178419492E+01  0.11632752256E+02  0.20106612643E+02  0.00000000000E+00 0. -1.
</event>
<event>
 7    1  0.2655656E-009  0.4778727E+02  0.7816164E-02  0.1312668E+00
        -11   -1    0    0    0    0  0.00000000000E+00  0.00000000000E+00  0.45593999997E+02  0.45594000000E+02  0.51100000000E-03 0.  1.
         11   -1    0    0    0    0 -0.00000000000E+00 -0.00000000000E+00 -0.45593999997E+02  0.45594000000E+02  0.51100000000E-03 0. -1.
    9900012    2    1    2    0    0 -0.29172616846E+02  0.10746026124E+02 -0.30283732828E+02  0.47787272758E+02  0.20000007814E+02 0.  0.
        -12    1    1    2    0    0  0.29172616846E+02 -0.10746026124E+02  0.30283732828E+02  0.43400727242E+02  0.00000000000E+00 0.  1.
         11    1    3    3    0    0  0.11961556087E+01  0.42078974958E+01 -0.55035524899E+01  0.70303826244E+01  0.51100000000E-03 0. -1.
        -11    1    3    3    0    0  0.48685470472E+00  0.80510428409E+00 -0.10614746291E+01  0.14184319022E+01  0.51100000000E-03 0.  1.
         12    1    3    3    0    0 -0.30855627160E+02  0.57330243440E+01 -0.23718705709E+02  0.39338458232E+02  0.00000000000E+00 0. -1.
</event>
<event>
 7    1  0.2655656E-009  0.4778727E+02  0.7816164E-02  0.1312668E+00
        -11   -1    0    0    0    0  0.00000000000E+00  0.00000000000E+00  0.45593999997E+02  0.45594000000E+02  0.51100000000E-03 0.  1.
         11   -1    0    0    0    0 -0.00000000000E+00 -0.00000000000E+00 -0.45593999997E+02  0.45594000000E+02  0.51100000000E-03 0. -1.
    9900012    2    1    2    0    0 -0.73555014978E+01  0.38529686562E+02 -0.18573717692E+02  0.47787272613E+02  0.20000007152E+02 0.  0.
        -12    1    1    2    0    0  0.73555014978E+01 -0.38529686562E+02  0.18573717692E+02  0.43400727387E+02  0.00000000000E+00 0.  1.
         11    1    3    3    0    0  0.19511293569E+01  0.92934639839E+01 -0.10710872333E+02  0.14314264389E+02  0.51100000000E-03 0. -1.
        -11    1    3    3    0    0 -0.76341633027E+01  0.84382321012E+01 -0.65486019352E+00  0.11397940711E+02  0.51100000000E-03 0.  1.
        -12    1    3    3    0    0 -0.16724675520E+01  0.20797990477E+02 -0.72079851647E+01  0.22075067513E+02  0.00000000000E+00 0.  1.
</event>
<event>
 7    1  0.2655656E-009  0.4778727E+02  0.7816164E-02  0.1312668E+00
        -11   -1    0    0    0    0  0.00000000000E+00  0.00000000000E+00  0.45593999997E+02  0.45594000000E+02  0.51100000000E-03 0.  1.
         11   -1    0    0    0    0 -0.00000000000E+00 -0.00000000000E+00 -0.45593999997E+02  0.45594000000E+02  0.51100000000E-03 0. -1.
    9900012    2    1    2    0    0  0.29219128183E+02 -0.32081585700E+02  0.79857193838E+00  0.47787270629E+02  0.19999998104E+02 0.  0.
        -12    1    1    2    0    0 -0.29219128183E+02  0.32081585700E+02 -0.79857193838E+00  0.43400729371E+02  0.00000000000E+00 0.  1.
         11    1    3    3    0    0  0.73101727855E+00  0.14790668030E+00 -0.20806312384E+01  0.22102690467E+01  0.51100000000E-03 0. -1.
        -11    1    3    3    0    0  0.30042492333E+02 -0.30394758756E+02  0.40016972573E+01  0.42923260438E+02  0.51100000000E-03 0.  1.
        -12    1    3    3    0    0 -0.15543814286E+01 -0.18347336243E+01 -0.11224940805E+01  0.26537411438E+01  0.00000000000E+00 0.  1.
</event>
<event>
 7    1  0.2655656E-009  0.4778725E+02  0.7816164E-02  0.1312668E+00
        -11   -1    0    0    0    0  0.00000000000E+00  0.00000000000E+00  0.45593999997E+02  0.45594000000E+02  0.51100000000E-03 0.  1.
         11   -1    0    0    0    0 -0.00000000000E+00 -0.00000000000E+00 -0.45593999997E+02  0.45594000000E+02  0.51100000000E-03 0. -1.
    9900012    2    1    2    0    0  0.11780612328E+01  0.42138432618E+02  0.10324217542E+02  0.47787253467E+02  0.19999919855E+02 0.  0.
        -12    1    1    2    0    0 -0.11780612328E+01 -0.42138432618E+02 -0.10324217542E+02  0.43400746533E+02  0.00000000000E+00 0.  1.
         11    1    3    3    0    0 -0.24317081192E+01  0.56948608027E+01  0.79914053666E+00  0.62436583665E+01  0.51100000000E-03 0. -1.
        -11    1    3    3    0    0  0.17608177672E+01  0.27243262741E+02 -0.11573706261E+01  0.27324629018E+02  0.51100000000E-03 0.  1.
        -12    1    3    3    0    0  0.18489515848E+01  0.92003090751E+01  0.10682447631E+02  0.14218966082E+02  0.00000000000E+00 0.  1.
</event>
<event>
 7    1  0.2655656E-009  0.4778727E+02  0.7816164E-02  0.1312668E+00
        -11   -1    0    0    0    0  0.00000000000E+00  0.00000000000E+00  0.45593999997E+02  0.45594000000E+02  0.51100000000E-03 0.  1.
         11   -1    0    0    0    0 -0.00000000000E+00 -0.00000000000E+00 -0.45593999997E+02  0.45594000000E+02  0.51100000000E-03 0. -1.
    9900012    2    1    2    0    0 -0.58100873838E+01  0.19694004138E+02 -0.38236271397E+02  0.47787269997E+02  0.19999995226E+02 0.  0.
        -12    1    1    2    0    0  0.58100873838E+01 -0.19694004138E+02  0.38236271397E+02  0.43400730003E+02  0.00000000000E+00 0.  1.
         11    1    3    3    0    0 -0.62010532803E+01  0.11669050534E+02 -0.23873961038E+02  0.27287099847E+02  0.51100000000E-03 0. -1.
        -11    1    3    3    0    0  0.46562235252E+00  0.48772795057E+01  0.84373655450E+00  0.49715743167E+01  0.51100000000E-03 0.  1.
        -12    1    3    3    0    0 -0.74656455965E-01  0.31476740980E+01 -0.15206046914E+02  0.15528595834E+02  0.00000000000E+00 0.  1.
</event>
<event>
 7    1  0.2655656E-009  0.4778727E+02  0.7816164E-02  0.1312668E+00
        -11   -1    0    0    0    0  0.00000000000E+00  0.00000000000E+00  0.45593999997E+02  0.45594000000E+02  0.51100000000E-03 0.  1.
         11   -1    0    0    0    0 -0.00000000000E+00 -0.00000000000E+00 -0.45593999997E+02  0.45594000000E+02  0.51100000000E-03 0. -1.
    9900012    2    1    2    0    0  0.24169015598E+02 -0.17821752896E+02 -0.31334762802E+02  0.47787267850E+02  0.19999985437E+02 0.  0.
        -12    1    1    2    0    0 -0.24169015598E+02  0.17821752896E+02  0.31334762802E+02  0.43400732150E+02  0.00000000000E+00 0.  1.
         11    1    3    3    0    0  0.91877172013E+01 -0.18880689408E+00 -0.82511699504E+01  0.12350368465E+02  0.51100000000E-03 0.  1.
        -11    1    3    3    0    0  0.65618278785E+01 -0.99034695306E+01 -0.28795702903E+01  0.12224083572E+02  0.51100000000E-03 0. -1.
        -12    1    3    3    0    0  0.84194705184E+01 -0.77294764718E+01 -0.20204022561E+02  0.23212815813E+02  0.00000000000E+00 0.  1.
</event>
<event>
 7    1  0.2655656E-009  0.4778727E+02  0.7816164E-02  0.1312668E+00
        -11   -1    0    0    0    0  0.00000000000E+00  0.00000000000E+00  0.45593999997E+02  0.45594000000E+02  0.51100000000E-03 0.  1.
         11   -1    0    0    0    0 -0.00000000000E+00 -0.00000000000E+00 -0.45593999997E+02  0.45594000000E+02  0.51100000000E-03 0. -1.
    9900012    2    1    2    0    0  0.17852572003E+02  0.24844563368E+01 -0.39480836462E+02  0.47787270764E+02  0.19999998723E+02 0.  0.
        -12    1    1    2    0    0 -0.17852572003E+02 -0.24844563368E+01  0.39480836462E+02  0.43400729236E+02  0.00000000000E+00 0.  1.
         11    1    3    3    0    0  0.11342580494E+02 -0.42516383602E+01 -0.10613941060E+02  0.16105474414E+02  0.51100000000E-03 0. -1.
        -11    1    3    3    0    0  0.66258714553E+01  0.77663952160E+01 -0.28894201892E+02  0.30644640159E+02  0.51100000000E-03 0.  1.
         12    1    3    3    0    0 -0.11587994663E+00 -0.10303005190E+01  0.27306490142E-01  0.10371561917E+01  0.00000000000E+00 0. -1.
</event>
<event>
 7    1  0.2655656E-009  0.4778728E+02  0.7816164E-02  0.1312668E+00
        -11   -1    0    0    0    0  0.00000000000E+00  0.00000000000E+00  0.45593999997E+02  0.45594000000E+02  0.51100000000E-03 0. -1.
         11   -1    0    0    0    0 -0.00000000000E+00 -0.00000000000E+00 -0.45593999997E+02  0.45594000000E+02  0.51100000000E-03 0.  1.
    9900012    2    1    2    0    0  0.24083641491E+02 -0.66124754501E+01 -0.35494729610E+02  0.47787280546E+02  0.20000043320E+02 0.  0.
        -12    1    1    2    0    0 -0.24083641491E+02  0.66124754501E+01  0.35494729610E+02  0.43400719454E+02  0.00000000000E+00 0.  1.
         11    1    3    3    0    0  0.31839223014E+01  0.36051841216E+01 -0.67977191680E+00  0.48576541552E+01  0.51100000000E-03 0. -1.
        -11    1    3    3    0    0  0.10124580280E+02 -0.24395014479E+01 -0.22579929989E+02  0.24865870822E+02  0.51100000000E-03 0.  1.
         12    1    3    3    0    0  0.10775138909E+02 -0.77781581237E+01 -0.12235027704E+02  0.18063755569E+02  0.00000000000E+00 0. -1.
</event>
<event>
 7    1  0.2655656E-009  0.4778727E+02  0.7816164E-02  0.1312668E+00
        -11   -1    0    0    0    0  0.00000000000E+00  0.00000000000E+00  0.45593999997E+02  0.45594000000E+02  0.51100000000E-03 0. -1.
         11   -1    0    0    0    0 -0.00000000000E+00 -0.00000000000E+00 -0.45593999997E+02  0.45594000000E+02  0.51100000000E-03 0.  1.
    9900012    2    1    2    0    0 -0.36416152267E+02  0.13178478781E+02  0.19591193313E+02  0.47787270694E+02  0.19999998402E+02 0.  0.
        -12    1    1    2    0    0  0.36416152267E+02 -0.13178478781E+02 -0.19591193313E+02  0.43400729306E+02  0.00000000000E+00 0.  1.
         11    1    3    3    0    0 -0.12348742578E+02  0.53490497732E+01  0.11431348979E+02  0.17657279419E+02  0.51100000000E-03 0. -1.
        -11    1    3    3    0    0 -0.39187045605E+01 -0.27509112421E+01 -0.20233505229E+01  0.51978558747E+01  0.51100000000E-03 0.  1.
        -12    1    3    3    0    0 -0.20148705128E+02  0.10580340250E+02  0.10183194857E+02  0.24932135400E+02  0.00000000000E+00 0.  1.
</event>
<event>
 7    1  0.2655656E-009  0.4778727E+02  0.7816164E-02  0.1312668E+00
        -11   -1    0    0    0    0  0.00000000000E+00  0.00000000000E+00  0.45593999997E+02  0.45594000000E+02  0.51100000000E-03 0.  1.
         11   -1    0    0    0    0 -0.00000000000E+00 -0.00000000000E+00 -0.45593999997E+02  0.45594000000E+02  0.51100000000E-03 0. -1.
    9900012    2    1    2    0    0 -0.34424849976E+02  0.69262006019E-01 -0.26430056169E+02  0.47787274635E+02  0.20000016371E+02 0.  0.
        -12    1    1    2    0    0  0.34424849976E+02 -0.69262006019E-01  0.26430056169E+02  0.43400725365E+02  0.00000000000E+00 0.  1.
         11    1    3    3    0    0 -0.93290791138E+01  0.18214124009E+01  0.10112786511E+00  0.95057607456E+01  0.51100000000E-03 0. -1.
        -11    1    3    3    0    0 -0.21514403663E+02  0.68598622414E+00 -0.26239856491E+02  0.33939213470E+02  0.51100000000E-03 0.  1.
         12    1    3    3    0    0 -0.35813671999E+01 -0.24381366191E+01 -0.29132754326E+00  0.43423004193E+01  0.00000000000E+00 0. -1.
</event>
<event>
 7    1  0.2655656E-009  0.4778728E+02  0.7816164E-02  0.1312668E+00
        -11   -1    0    0    0    0  0.00000000000E+00  0.00000000000E+00  0.45593999997E+02  0.45594000000E+02  0.51100000000E-03 0. -1.
         11   -1    0    0    0    0 -0.00000000000E+00 -0.00000000000E+00 -0.45593999997E+02  0.45594000000E+02  0.51100000000E-03 0.  1.
    9900012    2    1    2    0    0  0.36841753957E+01 -0.40596013862E+02 -0.14900114166E+02  0.47787275444E+02  0.20000020060E+02 0.  0.
        -12    1    1    2    0    0 -0.36841753957E+01  0.40596013862E+02  0.14900114166E+02  0.43400724556E+02  0.00000000000E+00 0.  1.
         11    1    3    3    0    0  0.59819978810E+01 -0.33745585000E+02 -0.16219411837E+02  0.37915934991E+02  0.51100000000E-03 0. -1.
        -11    1    3    3    0    0  0.87711255429E+00 -0.17005588825E+01  0.30305629859E+01  0.35840674127E+01  0.51100000000E-03 0.  1.
         12    1    3    3    0    0 -0.31749350396E+01 -0.51498699795E+01 -0.17112653149E+01  0.62872730408E+01  0.00000000000E+00 0. -1.
</event>
<event>
 7    1  0.2655656E-009  0.4778727E+02  0.7816164E-02  0.1312668E+00
        -11   -1    0    0    0    0  0.00000000000E+00  0.00000000000E+00  0.45593999997E+02  0.45594000000E+02  0.51100000000E-03 0.  1.
         11   -1    0    0    0    0 -0.00000000000E+00 -0.00000000000E+00 -0.45593999997E+02  0.45594000000E+02  0.51100000000E-03 0. -1.
    9900012    2    1    2    0    0 -0.28696981551E+02 -0.30221276962E+02 -0.12115326019E+02  0.47787268947E+02  0.19999990438E+02 0.  0.
        -12    1    1    2    0    0  0.28696981551E+02  0.30221276962E+02  0.12115326019E+02  0.43400731053E+02  0.00000000000E+00 0.  1.
         11    1    3    3    0    0 -0.20254352110E+01 -0.12455004753E+02 -0.91610473530E+01  0.15593406301E+02  0.51100000000E-03 0. -1.
        -11    1    3    3    0    0 -0.14847754672E+02 -0.98026371650E+01 -0.20526625454E+01  0.17909800054E+02  0.51100000000E-03 0.  1.
         12    1    3    3    0    0 -0.11823791667E+02 -0.79636350441E+01 -0.90161612093E+00  0.14284062592E+02  0.00000000000E+00 0. -1.
</event>
<event>
 7    1  0.2655656E-009  0.4778727E+02  0.7816164E-02  0.1312668E+00
        -11   -1    0    0    0    0  0.00000000000E+00  0.00000000000E+00  0.45593999997E+02  0.45594000000E+02  0.51100000000E-03 0.  1.
         11   -1    0    0    0    0 -0.00000000000E+00 -0.00000000000E+00 -0.45593999997E+02  0.45594000000E+02  0.51100000000E-03 0. -1.
    9900012    2    1    2    0    0 -0.14809038778E+02  0.29814944845E+02 -0.27845730120E+02  0.47787271302E+02  0.20000001173E+02 0.  0.
        -12    1    1    2    0    0  0.14809038778E+02 -0.29814944845E+02  0.27845730120E+02  0.43400728698E+02  0.00000000000E+00 0.  1.
         11    1    3    3    0    0 -0.46659357684E+01  0.11912862715E+02  0.19715235765E+00  0.12795550944E+02  0.51100000000E-03 0. -1.
        -11    1    3    3    0    0 -0.12441027021E+01  0.73044515790E+00 -0.10461485320E+01  0.17820686502E+01  0.51100000000E-03 0.  1.
         12    1    3    3    0    0 -0.88990003073E+01  0.17171636972E+02 -0.26996733946E+02  0.33209651707E+02  0.00000000000E+00 0. -1.
</event>
<event>
 7    1  0.2655656E-009  0.4778727E+02  0.7816164E-02  0.1312668E+00
        -11   -1    0    0    0    0  0.00000000000E+00  0.00000000000E+00  0.45593999997E+02  0.45594000000E+02  0.51100000000E-03 0.  1.
         11   -1    0    0    0    0 -0.00000000000E+00 -0.00000000000E+00 -0.45593999997E+02  0.45594000000E+02  0.51100000000E-03 0. -1.
    9900012    2    1    2    0    0  0.54417987819E+01  0.11719561876E+02 -0.41432618153E+02  0.47787272453E+02  0.20000006423E+02 0.  0.
        -12    1    1    2    0    0 -0.54417987819E+01 -0.11719561876E+02  0.41432618153E+02  0.43400727547E+02  0.00000000000E+00 0.  1.
         11    1    3    3    0    0  0.37056395885E-01  0.12009419357E+02 -0.13259635570E+02  0.17889814481E+02  0.51100000000E-03 0. -1.
        -11    1    3    3    0    0  0.62412971046E+01  0.58242773346E+00 -0.27979981490E+02  0.28673548369E+02  0.51100000000E-03 0.  1.
        -12    1    3    3    0    0 -0.83655471851E+00 -0.87228521490E+00 -0.19300109321E+00  0.12239096025E+01  0.00000000000E+00 0.  1.
</event>
<event>
 7    1  0.2655656E-009  0.4778727E+02  0.7816164E-02  0.1312668E+00
        -11   -1    0    0    0    0  0.00000000000E+00  0.00000000000E+00  0.45593999997E+02  0.45594000000E+02  0.51100000000E-03 0.  1.
         11   -1    0    0    0    0 -0.00000000000E+00 -0.00000000000E+00 -0.45593999997E+02  0.45594000000E+02  0.51100000000E-03 0. -1.
    9900012    2    1    2    0    0 -0.18017217892E+02 -0.18270107907E+02 -0.35002942632E+02  0.47787274471E+02  0.20000015624E+02 0.  0.
        -12    1    1    2    0    0  0.18017217892E+02  0.18270107907E+02  0.35002942632E+02  0.43400725529E+02  0.00000000000E+00 0.  1.
         11    1    3    3    0    0 -0.14362040214E+02 -0.22312847712E+02 -0.29865995617E+02  0.39951333727E+02  0.51100000000E-03 0. -1.
        -11    1    3    3    0    0 -0.38449338320E+01  0.31043320505E+01 -0.40659719881E+01  0.63994157641E+01  0.51100000000E-03 0.  1.
         12    1    3    3    0    0  0.18975615352E+00  0.93840775398E+00 -0.10709750272E+01  0.14365249804E+01  0.00000000000E+00 0. -1.
</event>
<event>
 7    1  0.2655656E-009  0.4778727E+02  0.7816164E-02  0.1312668E+00
        -11   -1    0    0    0    0  0.00000000000E+00  0.00000000000E+00  0.45593999997E+02  0.45594000000E+02  0.51100000000E-03 0. -1.
         11   -1    0    0    0    0 -0.00000000000E+00 -0.00000000000E+00 -0.45593999997E+02  0.45594000000E+02  0.51100000000E-03 0.  1.
    9900012    2    1    2    0    0  0.70725801251E+01  0.42300828006E+02 -0.66514669050E+01  0.47787268997E+02  0.19999990666E+02 0.  0.
        -12    1    1    2    0    0 -0.70725801251E+01 -0.42300828006E+02  0.66514669050E+01  0.43400731003E+02  0.00000000000E+00 0.  1.
         11    1    3    3    0    0  0.95470017642E+01  0.13547987652E+02 -0.78753465766E+01  0.18349776459E+02  0.51100000000E-03 0. -1.
        -11    1    3    3    0    0 -0.15504494063E+01  0.11663177844E+02  0.32420685311E+01  0.12204286927E+02  0.51100000000E-03 0.  1.
         12    1    3    3    0    0 -0.92397223290E+00  0.17089662509E+02 -0.20181888595E+01  0.17233205611E+02  0.00000000000E+00 0. -1.
</event>
<event>
 7    1  0.2655656E-009  0.4778728E+02  0.7816164E-02  0.1312668E+00
        -11   -1    0    0    0    0  0.00000000000E+00  0.00000000000E+00  0.45593999997E+02  0.45594000000E+02  0.51100000000E-03 0.  1.
         11   -1    0    0    0    0 -0.00000000000E+00 -0.00000000000E+00 -0.45593999997E+02  0.45594000000E+02  0.51100000000E-03 0. -1.
    9900012    2    1    2    0    0 -0.19497881067E+02 -0.23852853539E+02 -0.30569539759E+02  0.47787277089E+02  0.20000027561E+02 0.  0.
        -12    1    1    2    0    0  0.19497881067E+02  0.23852853539E+02  0.30569539759E+02  0.43400722911E+02  0.00000000000E+00 0.  1.
         11    1    3    3    0    0 -0.24674954218E+01 -0.28072770133E+01 -0.13476726243E+00  0.37399866794E+01  0.51100000000E-03 0. -1.
        -11    1    3    3    0    0  0.10185816327E+01 -0.30882881875E+00 -0.93263495594E+01  0.93868887363E+01  0.51100000000E-03 0.  1.
        -12    1    3    3    0    0 -0.18048967278E+02 -0.20736747707E+02 -0.21108422938E+02  0.34660401674E+02  0.00000000000E+00 0.  1.
</event>
<event>
 7    1  0.2655656E-009  0.4778727E+02  0.7816164E-02  0.1312668E+00
        -11   -1    0    0    0    0  0.00000000000E+00  0.00000000000E+00  0.45593999997E+02  0.45594000000E+02  0.51100000000E-03 0.  1.
         11   -1    0    0    0    0 -0.00000000000E+00 -0.00000000000E+00 -0.45593999997E+02  0.45594000000E+02  0.51100000000E-03 0. -1.
    9900012    2    1    2    0    0 -0.30517619292E+02  0.23338709104E+02 -0.20189176006E+02  0.47787271230E+02  0.20000000847E+02 0.  0.
        -12    1    1    2    0    0  0.30517619292E+02 -0.23338709104E+02  0.20189176006E+02  0.43400728770E+02  0.00000000000E+00 0.  1.
         11    1    3    3    0    0 -0.96902924505E+01 -0.17908640548E+01 -0.27095367631E+01  0.10220105262E+02  0.51100000000E-03 0. -1.
        -11    1    3    3    0    0 -0.11715068714E+01 -0.15884695314E+00 -0.99367563924E+00  0.15443614348E+01  0.51100000000E-03 0.  1.
         12    1    3    3    0    0 -0.19655819971E+02  0.25288420112E+02 -0.16485963604E+02  0.36022804533E+02  0.00000000000E+00 0. -1.
</event>
<event>
 7    1  0.2655656E-009  0.4778727E+02  0.7816164E-02  0.1312668E+00
        -11   -1    0    0    0    0  0.00000000000E+00  0.00000000000E+00  0.45593999997E+02  0.45594000000E+02  0.51100000000E-03 0. -1.
         11   -1    0    0    0    0 -0.00000000000E+00 -0.00000000000E+00 -0.45593999997E+02  0.45594000000E+02  0.51100000000E-03 0.  1.
    9900012    2    1    2    0    0 -0.14080560090E+02 -0.12612955862E+01  0.41033771594E+02  0.47787269012E+02  0.19999990735E+02 0.  0.
        -12    1    1    2    0    0  0.14080560090E+02  0.12612955862E+01 -0.41033771594E+02  0.43400730988E+02  0.00000000000E+00 0.  1.
         11    1    3    3    0    0 -0.18235702989E+01 -0.55046759812E+01  0.27556838896E+02  0.28160366413E+02  0.51100000000E-03 0. -1.
        -11    1    3    3    0    0 -0.24732595277E+01  0.27474349617E+01  0.12635382104E+01  0.39066533799E+01  0.51100000000E-03 0.  1.
         12    1    3    3    0    0 -0.97837302638E+01  0.14959454332E+01  0.12213394488E+02  0.15720249220E+02  0.00000000000E+00 0. -1.
</event>
<event>
 7    1  0.2655656E-009  0.4778727E+02  0.7816164E-02  0.1312668E+00
        -11   -1    0    0    0    0  0.00000000000E+00  0.00000000000E+00  0.45593999997E+02  0.45594000000E+02  0.51100000000E-03 0. -1.
         11   -1    0    0    0    0 -0.00000000000E+00 -0.00000000000E+00 -0.45593999997E+02  0.45594000000E+02  0.51100000000E-03 0.  1.
    9900012    2    1    2    0    0  0.20406803062E+02 -0.61272692433E+01  0.37810605601E+02  0.47787274942E+02  0.20000017772E+02 0.  0.
        -12    1    1    2    0    0 -0.20406803062E+02  0.61272692433E+01 -0.37810605601E+02  0.43400725058E+02  0.00000000000E+00 0.  1.
         11    1    3    3    0    0  0.22921784864E+01 -0.75315009398E+01  0.13014533481E+02  0.15210380357E+02  0.51100000000E-03 0. -1.
        -11    1    3    3    0    0  0.10916954973E+00 -0.26469719339E+01  0.36438159008E+01  0.45050830170E+01  0.51100000000E-03 0.  1.
         12    1    3    3    0    0  0.18005455026E+02  0.40512036303E+01  0.21152256220E+02  0.28071811569E+02  0.00000000000E+00 0. -1.
</event>
<event>
 7    1  0.2655656E-009  0.4778727E+02  0.7816164E-02  0.1312668E+00
        -11   -1    0    0    0    0  0.00000000000E+00  0.00000000000E+00  0.45593999997E+02  0.45594000000E+02  0.51100000000E-03 0.  1.
         11   -1    0    0    0    0 -0.00000000000E+00 -0.00000000000E+00 -0.45593999997E+02  0.45594000000E+02  0.51100000000E-03 0. -1.
    9900012    2    1    2    0    0 -0.13312073304E+01  0.34927137166E+02 -0.25728313457E+02  0.47787272622E+02  0.20000007193E+02 0.  0.
        -12    1    1    2    0    0  0.13312073304E+01 -0.34927137166E+02  0.25728313457E+02  0.43400727378E+02  0.00000000000E+00 0.  1.
         11    1    3    3    0    0 -0.18031473555E+01  0.29646843541E+02 -0.15848870257E+02  0.33665610955E+02  0.51100000000E-03 0. -1.
        -11    1    3    3    0    0 -0.24481877808E+01  0.63990583893E+01 -0.77176676992E+01  0.10320075904E+02  0.51100000000E-03 0.  1.
         12    1    3    3    0    0  0.29201278059E+01 -0.11187647636E+01 -0.21617755007E+01  0.38015857632E+01  0.00000000000E+00 0. -1.
</event>
<event>
 7    1  0.2655656E-009  0.4778727E+02  0.7816164E-02  0.1312668E+00
        -11   -1    0    0    0    0  0.00000000000E+00  0.00000000000E+00  0.45593999997E+02  0.45594000000E+02  0.51100000000E-03 0.  1.
         11   -1    0    0    0    0 -0.00000000000E+00 -0.00000000000E+00 -0.45593999997E+02  0.45594000000E+02  0.51100000000E-03 0. -1.
    9900012    2    1    2    0    0  0.55664903389E+01  0.37107225592E+02  0.21810347162E+02  0.47787271329E+02  0.20000001296E+02 0.  0.
        -12    1    1    2    0    0 -0.55664903389E+01 -0.37107225592E+02 -0.21810347162E+02  0.43400728671E+02  0.00000000000E+00 0.  1.
         11    1    3    3    0    0  0.30419264737E+01  0.76446396472E+01  0.24029485450E+01  0.85713472674E+01  0.51100000000E-03 0. -1.
        -11    1    3    3    0    0 -0.25063070186E+01  0.13263931983E+02  0.77086303574E-01  0.13498866956E+02  0.51100000000E-03 0.  1.
        -12    1    3    3    0    0  0.50308708838E+01  0.16198653962E+02  0.19330312314E+02  0.25717057106E+02  0.00000000000E+00 0.  1.
</event>
<event>
 7    1  0.2655656E-009  0.4778727E+02  0.7816164E-02  0.1312668E+00
        -11   -1    0    0    0    0  0.00000000000E+00  0.00000000000E+00  0.45593999997E+02  0.45594000000E+02  0.51100000000E-03 0. -1.
         11   -1    0    0    0    0 -0.00000000000E+00 -0.00000000000E+00 -0.45593999997E+02  0.45594000000E+02  0.51100000000E-03 0.  1.
    9900012    2    1    2    0    0  0.12884314834E+02  0.29014642704E+02  0.29593382663E+02  0.47787270082E+02  0.19999995612E+02 0.  0.
        -12    1    1    2    0    0 -0.12884314834E+02 -0.29014642704E+02 -0.29593382663E+02  0.43400729918E+02  0.00000000000E+00 0.  1.
         11    1    3    3    0    0  0.14952259648E+02  0.28961557574E+02  0.21297214187E+02  0.38934730230E+02  0.51100000000E-03 0. -1.
        -11    1    3    3    0    0 -0.14519346897E+00 -0.14725003384E+00  0.51887798333E+01  0.51928990107E+01  0.51100000000E-03 0.  1.
         12    1    3    3    0    0 -0.19227513451E+01  0.20033516394E+00  0.31073886425E+01  0.36596408415E+01  0.00000000000E+00 0. -1.
</event>
<event>
 7    1  0.2655656E-009  0.4778727E+02  0.7816164E-02  0.1312668E+00
        -11   -1    0    0    0    0  0.00000000000E+00  0.00000000000E+00  0.45593999997E+02  0.45594000000E+02  0.51100000000E-03 0.  1.
         11   -1    0    0    0    0 -0.00000000000E+00 -0.00000000000E+00 -0.45593999997E+02  0.45594000000E+02  0.51100000000E-03 0. -1.
    9900012    2    1    2    0    0  0.26186882930E+02 -0.11629348642E+02 -0.32597983957E+02  0.47787272524E+02  0.20000006744E+02 0.  0.
        -12    1    1    2    0    0 -0.26186882930E+02  0.11629348642E+02  0.32597983957E+02  0.43400727476E+02  0.00000000000E+00 0.  1.
         11    1    3    3    0    0  0.16548793178E+02 -0.43569601144E+01 -0.11629738912E+02  0.20690492611E+02  0.51100000000E-03 0. -1.
        -11    1    3    3    0    0  0.94484084350E+01 -0.86126519565E+01 -0.21965671928E+02  0.25415368170E+02  0.51100000000E-03 0.  1.
        -12    1    3    3    0    0  0.18968131745E+00  0.13402634290E+01  0.99742688326E+00  0.16814117428E+01  0.00000000000E+00 0.  1.
</event>
<event>
 7    1  0.2655656E-009  0.4778727E+02  0.7816164E-02  0.1312668E+00
        -11   -1    0    0    0    0  0.00000000000E+00  0.00000000000E+00  0.45593999997E+02  0.45594000000E+02  0.51100000000E-03 0.  1.
         11   -1    0    0    0    0 -0.00000000000E+00 -0.00000000000E+00 -0.45593999997E+02  0.45594000000E+02  0.51100000000E-03 0. -1.
    9900012    2    1    2    0    0  0.10307119879E+02  0.40640965129E+02  0.11211534367E+02  0.47787271092E+02  0.20000000218E+02 0.  0.
        -12    1    1    2    0    0 -0.10307119879E+02 -0.40640965129E+02 -0.11211534367E+02  0.43400728908E+02  0.00000000000E+00 0.  1.
         11    1    3    3    0    0  0.69154721066E+01  0.26917829626E+02  0.85302775826E+01  0.29071617467E+02  0.51100000000E-03 0. -1.
        -11    1    3    3    0    0  0.17712142221E+01  0.72833869801E+01 -0.46525344657E+01  0.88221881038E+01  0.51100000000E-03 0.  1.
         12    1    3    3    0    0  0.16204335507E+01  0.64397485232E+01  0.73337912498E+01  0.98934655218E+01  0.00000000000E+00 0. -1.
</event>
<event>
 7    1  0.2655656E-009  0.4778727E+02  0.7816164E-02  0.1312668E+00
        -11   -1    0    0    0    0  0.00000000000E+00  0.00000000000E+00  0.45593999997E+02  0.45594000000E+02  0.51100000000E-03 0.  1.
         11   -1    0    0    0    0 -0.00000000000E+00 -0.00000000000E+00 -0.45593999997E+02  0.45594000000E+02  0.51100000000E-03 0. -1.
    9900012    2    1    2    0    0 -0.39877192584E+02 -0.16085834379E+02 -0.58888651382E+01  0.47787270874E+02  0.19999999223E+02 0.  0.
        -12    1    1    2    0    0  0.39877192584E+02  0.16085834379E+02  0.58888651382E+01  0.43400729126E+02  0.00000000000E+00 0.  1.
         11    1    3    3    0    0 -0.51309804881E+01 -0.42138521869E+01 -0.31727992399E+01  0.73586796574E+01  0.51100000000E-03 0. -1.
        -11    1    3    3    0    0 -0.23818442972E+02 -0.14972065160E+02  0.18321531204E+01  0.28192866936E+02  0.51100000000E-03 0.  1.
        -12    1    3    3    0    0 -0.10927769124E+02  0.31000829672E+01 -0.45482190187E+01  0.12235724280E+02  0.00000000000E+00 0.  1.
</event>
<event>
 7    1  0.2655656E-009  0.4778727E+02  0.7816164E-02  0.1312668E+00
        -11   -1    0    0    0    0  0.00000000000E+00  0.00000000000E+00  0.45593999997E+02  0.45594000000E+02  0.51100000000E-03 0.  1.
         11   -1    0    0    0    0 -0.00000000000E+00 -0.00000000000E+00 -0.45593999997E+02  0.45594000000E+02  0.51100000000E-03 0. -1.
    9900012    2    1    2    0    0 -0.10792790006E+02  0.42033576125E+02 -0.56330254661E+00  0.47787272498E+02  0.20000006627E+02 0.  0.
        -12    1    1    2    0    0  0.10792790006E+02 -0.42033576125E+02  0.56330254661E+00  0.43400727502E+02  0.00000000000E+00 0.  1.
         11    1    3    3    0    0 -0.72853589402E+01  0.25526257829E+02 -0.13730761877E+01  0.26581038959E+02  0.51100000000E-03 0. -1.
        -11    1    3    3    0    0  0.34708061447E+01  0.26625838259E+01  0.33314079994E+01  0.54985568510E+01  0.51100000000E-03 0.  1.
        -12    1    3    3    0    0 -0.69782372108E+01  0.13844734469E+02 -0.25216343583E+01  0.15707676688E+02  0.00000000000E+00 0.  1.
</event>
<event>
 7    1  0.2655656E-009  0.4778727E+02  0.7816164E-02  0.1312668E+00
        -11   -1    0    0    0    0  0.00000000000E+00  0.00000000000E+00  0.45593999997E+02  0.45594000000E+02  0.51100000000E-03 0. -1.
         11   -1    0    0    0    0 -0.00000000000E+00 -0.00000000000E+00 -0.45593999997E+02  0.45594000000E+02  0.51100000000E-03 0.  1.
    9900012    2    1    2    0    0 -0.36154856818E+02 -0.19748725273E+02 -0.13654212396E+02  0.47787270310E+02  0.19999996652E+02 0.  0.
        -12    1    1    2    0    0  0.36154856818E+02  0.19748725273E+02  0.13654212396E+02  0.43400729690E+02  0.00000000000E+00 0.  1.
         11    1    3    3    0    0 -0.10174822320E+02 -0.64727457124E+00 -0.16119128803E+01  0.10322026788E+02  0.51100000000E-03 0. -1.
        -11    1    3    3    0    0 -0.54481871337E+01 -0.11127101038E+02 -0.56948907307E-01  0.12389445669E+02  0.51100000000E-03 0.  1.
        -12    1    3    3    0    0 -0.20531847364E+02 -0.79743496637E+01 -0.11985350609E+02  0.25075797853E+02  0.00000000000E+00 0.  1.
</event>
<event>
 7    1  0.2655656E-009  0.4778727E+02  0.7816164E-02  0.1312668E+00
        -11   -1    0    0    0    0  0.00000000000E+00  0.00000000000E+00  0.45593999997E+02  0.45594000000E+02  0.51100000000E-03 0. -1.
         11   -1    0    0    0    0 -0.00000000000E+00 -0.00000000000E+00 -0.45593999997E+02  0.45594000000E+02  0.51100000000E-03 0.  1.
    9900012    2    1    2    0    0 -0.48364258862E+01 -0.16160559157E+02  0.39988357126E+02  0.47787269670E+02  0.19999993732E+02 0.  0.
        -12    1    1    2    0    0  0.48364258862E+01  0.16160559157E+02 -0.39988357126E+02  0.43400730330E+02  0.00000000000E+00 0.  1.
         11    1    3    3    0    0 -0.58242129379E+01 -0.61585750747E+01  0.17985072876E+02  0.19882463376E+02  0.51100000000E-03 0. -1.
        -11    1    3    3    0    0  0.11614168435E+01  0.52294926338E+00  0.15455976239E+02  0.15508370862E+02  0.51100000000E-03 0.  1.
        -12    1    3    3    0    0 -0.17362979180E+00 -0.10524933345E+02  0.65473080105E+01  0.12396435432E+02  0.00000000000E+00 0.  1.
</event>
<event>
 7    1  0.2655656E-009  0.4778727E+02  0.7816164E-02  0.1312668E+00
        -11   -1    0    0    0    0  0.00000000000E+00  0.00000000000E+00  0.45593999997E+02  0.45594000000E+02  0.51100000000E-03 0.  1.
         11   -1    0    0    0    0 -0.00000000000E+00 -0.00000000000E+00 -0.45593999997E+02  0.45594000000E+02  0.51100000000E-03 0. -1.
    9900012    2    1    2    0    0  0.18665923111E+02  0.17998444499E+02 -0.34803195818E+02  0.47787272712E+02  0.20000007605E+02 0.  0.
        -12    1    1    2    0    0 -0.18665923111E+02 -0.17998444499E+02  0.34803195818E+02  0.43400727288E+02  0.00000000000E+00 0.  1.
         11    1    3    3    0    0  0.33541192404E+01  0.13505842761E+02 -0.68232693297E+01  0.15498867996E+02  0.51100000000E-03 0. -1.
        -11    1    3    3    0    0  0.84886088338E+01  0.24646429514E+01 -0.17703091812E+02  0.19787127250E+02  0.51100000000E-03 0.  1.
         12    1    3    3    0    0  0.68231950365E+01  0.20279587870E+01 -0.10276834675E+02  0.12501277466E+02  0.00000000000E+00 0. -1.
</event>
<event>
 7    1  0.2655656E-009  0.4778731E+02  0.7816164E-02  0.1312668E+00
        -11   -1    0    0    0    0  0.00000000000E+00  0.00000000000E+00  0.45593999997E+02  0.45594000000E+02  0.51100000000E-03 0.  1.
         11   -1    0    0    0    0 -0.00000000000E+00 -0.00000000000E+00 -0.45593999997E+02  0.45594000000E+02  0.51100000000E-03 0. -1.
    9900012    2    1    2    0    0  0.81975042570E+01  0.98246331138E+01 -0.41471647162E+02  0.47787308644E+02  0.20000171429E+02 0.  0.
        -12    1    1    2    0    0 -0.81975042570E+01 -0.98246331138E+01  0.41471647162E+02  0.43400691356E+02  0.00000000000E+00 0.  1.
         11    1    3    3    0    0  0.22639997111E+01  0.10772956369E+02 -0.28956461874E+02  0.30978362902E+02  0.51100000000E-03 0. -1.
        -11    1    3    3    0    0  0.16622280427E+01  0.41460221900E+01 -0.39213869462E+01  0.59438857584E+01  0.51100000000E-03 0.  1.
         12    1    3    3    0    0  0.42712765032E+01 -0.50943454451E+01 -0.85937983424E+01  0.10865059983E+02  0.00000000000E+00 0. -1.
</event>
<event>
 7    1  0.2655656E-009  0.4778727E+02  0.7816164E-02  0.1312668E+00
        -11   -1    0    0    0    0  0.00000000000E+00  0.00000000000E+00  0.45593999997E+02  0.45594000000E+02  0.51100000000E-03 0.  1.
         11   -1    0    0    0    0 -0.00000000000E+00 -0.00000000000E+00 -0.45593999997E+02  0.45594000000E+02  0.51100000000E-03 0. -1.
    9900012    2    1    2    0    0  0.19279771004E+02 -0.24246043948E+02 -0.30398078723E+02  0.47787269509E+02  0.19999992999E+02 0.  0.
        -12    1    1    2    0    0 -0.19279771004E+02  0.24246043948E+02  0.30398078723E+02  0.43400730491E+02  0.00000000000E+00 0.  1.
         11    1    3    3    0    0  0.81880495877E+01  0.10744625874E+01 -0.61425977391E+01  0.10292236547E+02  0.51100000000E-03 0. -1.
        -11    1    3    3    0    0 -0.10361291605E+01 -0.15261331289E+01 -0.20951641243E+01  0.27914797032E+01  0.51100000000E-03 0.  1.
         12    1    3    3    0    0  0.12127850577E+02 -0.23794373407E+02 -0.22160316860E+02  0.34703553258E+02  0.00000000000E+00 0. -1.
</event>
<event>
 7    1  0.2655656E-009  0.4778727E+02  0.7816164E-02  0.1312668E+00
        -11   -1    0    0    0    0  0.00000000000E+00  0.00000000000E+00  0.45593999997E+02  0.45594000000E+02  0.51100000000E-03 0. -1.
         11   -1    0    0    0    0 -0.00000000000E+00 -0.00000000000E+00 -0.45593999997E+02  0.45594000000E+02  0.51100000000E-03 0.  1.
    9900012    2    1    2    0    0  0.33512168751E+02 -0.13932275019E+02  0.23800197506E+02  0.47787272553E+02  0.20000006877E+02 0.  0.
        -12    1    1    2    0    0 -0.33512168751E+02  0.13932275019E+02 -0.23800197506E+02  0.43400727447E+02  0.00000000000E+00 0.  1.
         11    1    3    3    0    0  0.10733516558E+02 -0.34166511228E+01 -0.99849331726E+00  0.11308354069E+02  0.51100000000E-03 0. -1.
        -11    1    3    3    0    0 -0.46068936528E+00 -0.12981473713E+00 -0.42760094751E+00  0.64181725490E+00  0.51100000000E-03 0.  1.
         12    1    3    3    0    0  0.23239341559E+02 -0.10385809159E+02  0.25226291771E+02  0.35837101229E+02  0.00000000000E+00 0. -1.
</event>
<event>
 7    1  0.2655656E-009  0.4778727E+02  0.7816164E-02  0.1312668E+00
        -11   -1    0    0    0    0  0.00000000000E+00  0.00000000000E+00  0.45593999997E+02  0.45594000000E+02  0.51100000000E-03 0. -1.
         11   -1    0    0    0    0 -0.00000000000E+00 -0.00000000000E+00 -0.45593999997E+02  0.45594000000E+02  0.51100000000E-03 0.  1.
    9900012    2    1    2    0    0  0.32024791914E+02 -0.10419919447E+02  0.27376291966E+02  0.47787269819E+02  0.19999994412E+02 0.  0.
        -12    1    1    2    0    0 -0.32024791914E+02  0.10419919447E+02 -0.27376291966E+02  0.43400730181E+02  0.00000000000E+00 0.  1.
         11    1    3    3    0    0  0.24361191508E+02 -0.47651478842E+01  0.81950679389E+01  0.26140646985E+02  0.51100000000E-03 0. -1.
        -11    1    3    3    0    0  0.20399103379E+01 -0.22280260875E+00  0.57525284320E+01  0.61075738892E+01  0.51100000000E-03 0.  1.
         12    1    3    3    0    0  0.56236900687E+01 -0.54319689537E+01  0.13428695596E+02  0.15539048944E+02  0.00000000000E+00 0. -1.
</event>
<event>
 7    1  0.2655656E-009  0.4778727E+02  0.7816164E-02  0.1312668E+00
        -11   -1    0    0    0    0  0.00000000000E+00  0.00000000000E+00  0.45593999997E+02  0.45594000000E+02  0.51100000000E-03 0.  1.
         11   -1    0    0    0    0 -0.00000000000E+00 -0.00000000000E+00 -0.45593999997E+02  0.45594000000E+02  0.51100000000E-03 0. -1.
    9900012    2    1    2    0    0 -0.18747406526E+02  0.37475696018E+02 -0.11301775282E+02  0.47787272264E+02  0.20000005561E+02 0.  0.
        -12    1    1    2    0    0  0.18747406526E+02 -0.37475696018E+02  0.11301775282E+02  0.43400727736E+02  0.00000000000E+00 0.  1.
         11    1    3    3    0    0 -0.32696863973E+01  0.49826621096E+01 -0.24198753015E+01  0.64322288183E+01  0.51100000000E-03 0. -1.
        -11    1    3    3    0    0 -0.11393004757E+02  0.33681071571E+02 -0.56261947540E+01  0.35998183389E+02  0.51100000000E-03 0.  1.
        -12    1    3    3    0    0 -0.40847153713E+01 -0.11880376629E+01 -0.32557052261E+01  0.53568600572E+01  0.00000000000E+00 0.  1.
</event>
<event>
 7    1  0.2655656E-009  0.4778727E+02  0.7816164E-02  0.1312668E+00
        -11   -1    0    0    0    0  0.00000000000E+00  0.00000000000E+00  0.45593999997E+02  0.45594000000E+02  0.51100000000E-03 0. -1.
         11   -1    0    0    0    0 -0.00000000000E+00 -0.00000000000E+00 -0.45593999997E+02  0.45594000000E+02  0.51100000000E-03 0.  1.
    9900012    2    1    2    0    0  0.16248762619E+02 -0.39940947480E+02  0.49317237621E+01  0.47787268768E+02  0.19999989619E+02 0.  0.
        -12    1    1    2    0    0 -0.16248762619E+02  0.39940947480E+02 -0.49317237621E+01  0.43400731232E+02  0.00000000000E+00 0.  1.
         11    1    3    3    0    0  0.85796901535E+01 -0.15025711721E+02  0.45098663006E+01  0.17880771520E+02  0.51100000000E-03 0. -1.
        -11    1    3    3    0    0  0.12467737258E+01 -0.23090048681E+02 -0.71018781125E+00  0.23134587954E+02  0.51100000000E-03 0.  1.
        -12    1    3    3    0    0  0.64222987401E+01 -0.18251870777E+01  0.11320452727E+01  0.67719092932E+01  0.00000000000E+00 0.  1.
</event>
<event>
 7    1  0.2655656E-009  0.4778728E+02  0.7816164E-02  0.1312668E+00
        -11   -1    0    0    0    0  0.00000000000E+00  0.00000000000E+00  0.45593999997E+02  0.45594000000E+02  0.51100000000E-03 0.  1.
         11   -1    0    0    0    0 -0.00000000000E+00 -0.00000000000E+00 -0.45593999997E+02  0.45594000000E+02  0.51100000000E-03 0. -1.
    9900012    2    1    2    0    0 -0.12817775916E+01 -0.11071267437E+02 -0.41945280895E+02  0.47787279893E+02  0.20000040344E+02 0.  0.
        -12    1    1    2    0    0  0.12817775916E+01  0.11071267437E+02  0.41945280895E+02  0.43400720107E+02  0.00000000000E+00 0.  1.
         11    1    3    3    0    0  0.92278123268E+00 -0.63859280813E+01 -0.12838725379E+02  0.14368871643E+02  0.51100000000E-03 0. -1.
        -11    1    3    3    0    0 -0.57855270574E+01 -0.50907794794E+01 -0.53293706589E+01  0.93696611956E+01  0.51100000000E-03 0.  1.
        -12    1    3    3    0    0  0.35809682331E+01  0.40544012383E+00 -0.23777184857E+02  0.24048747055E+02  0.00000000000E+00 0.  1.
</event>
<event>
 7    1  0.2655656E-009  0.4778727E+02  0.7816164E-02  0.1312668E+00
        -11   -1    0    0    0    0  0.00000000000E+00  0.00000000000E+00  0.45593999997E+02  0.45594000000E+02  0.51100000000E-03 0. -1.
         11   -1    0    0    0    0 -0.00000000000E+00 -0.00000000000E+00 -0.45593999997E+02  0.45594000000E+02  0.51100000000E-03 0.  1.
    9900012    2    1    2    0    0 -0.34921872354E+02 -0.13663982952E+02  0.21849066191E+02  0.47787270833E+02  0.19999999034E+02 0.  0.
        -12    1    1    2    0    0  0.34921872354E+02  0.13663982952E+02 -0.21849066191E+02  0.43400729167E+02  0.00000000000E+00 0.  1.
         11    1    3    3    0    0 -0.69528775161E+01 -0.56905196277E+01  0.53301382782E+01  0.10446764749E+02  0.51100000000E-03 0. -1.
        -11    1    3    3    0    0 -0.18656789337E+02 -0.53388319608E+01  0.14868277181E+01  0.19462517103E+02  0.51100000000E-03 0.  1.
        -12    1    3    3    0    0 -0.93122055008E+01 -0.26346313640E+01  0.15032100195E+02  0.17877988980E+02  0.00000000000E+00 0.  1.
</event>
<event>
 7    1  0.2655656E-009  0.4778727E+02  0.7816164E-02  0.1312668E+00
        -11   -1    0    0    0    0  0.00000000000E+00  0.00000000000E+00  0.45593999997E+02  0.45594000000E+02  0.51100000000E-03 0.  1.
         11   -1    0    0    0    0 -0.00000000000E+00 -0.00000000000E+00 -0.45593999997E+02  0.45594000000E+02  0.51100000000E-03 0. -1.
    9900012    2    1    2    0    0  0.38584363310E+02 -0.66517206622E+01  0.18724983944E+02  0.47787268399E+02  0.19999987936E+02 0.  0.
        -12    1    1    2    0    0 -0.38584363310E+02  0.66517206622E+01 -0.18724983944E+02  0.43400731601E+02  0.00000000000E+00 0.  1.
         11    1    3    3    0    0  0.43517034713E+01  0.44677411355E+01  0.57007681280E+01  0.84496622103E+01  0.51100000000E-03 0. -1.
        -11    1    3    3    0    0  0.16789734187E+02 -0.64081969541E+01  0.17858121985E+01  0.18059603754E+02  0.51100000000E-03 0.  1.
         12    1    3    3    0    0  0.17442925652E+02 -0.47112648437E+01  0.11238403618E+02  0.21278002434E+02  0.00000000000E+00 0. -1.
</event>
<event>
 7    1  0.2655656E-009  0.4778726E+02  0.7816164E-02  0.1312668E+00
        -11   -1    0    0    0    0  0.00000000000E+00  0.00000000000E+00  0.45593999997E+02  0.45594000000E+02  0.51100000000E-03 0.  1.
         11   -1    0    0    0    0 -0.00000000000E+00 -0.00000000000E+00 -0.45593999997E+02  0.45594000000E+02  0.51100000000E-03 0. -1.
    9900012    2    1    2    0    0  0.10882601245E+02 -0.10944335651E+02 -0.40563707209E+02  0.47787264577E+02  0.19999970512E+02 0.  0.
        -12    1    1    2    0    0 -0.10882601245E+02  0.10944335651E+02  0.40563707209E+02  0.43400735423E+02  0.00000000000E+00 0.  1.
         11    1    3    3    0    0  0.68171289369E+01 -0.43662003146E+01 -0.34266705745E+02  0.35209999645E+02  0.51100000000E-03 0. -1.
        -11    1    3    3    0    0 -0.16087155273E+00 -0.45885149611E+01  0.17606812253E+00  0.45947088537E+01  0.51100000000E-03 0.  1.
         12    1    3    3    0    0  0.42263438606E+01 -0.19896203756E+01 -0.64730695873E+01  0.79825560787E+01  0.00000000000E+00 0. -1.
</event>
<event>
 7    1  0.2655656E-009  0.4778727E+02  0.7816164E-02  0.1312668E+00
        -11   -1    0    0    0    0  0.00000000000E+00  0.00000000000E+00  0.45593999997E+02  0.45594000000E+02  0.51100000000E-03 0.  1.
         11   -1    0    0    0    0 -0.00000000000E+00 -0.00000000000E+00 -0.45593999997E+02  0.45594000000E+02  0.51100000000E-03 0. -1.
    9900012    2    1    2    0    0 -0.15706874448E+01 -0.22007420977E+02 -0.37374182986E+02  0.47787272000E+02  0.20000004355E+02 0.  0.
        -12    1    1    2    0    0  0.15706874448E+01  0.22007420977E+02  0.37374182986E+02  0.43400728000E+02  0.00000000000E+00 0.  1.
         11    1    3    3    0    0 -0.27226384462E+01 -0.17430539430E+02 -0.17275754279E+02  0.24691864067E+02  0.51100000000E-03 0. -1.
        -11    1    3    3    0    0  0.34258011303E+01  0.93384963518E+00 -0.14461088321E+02  0.14890643512E+02  0.51100000000E-03 0.  1.
        -12    1    3    3    0    0 -0.22738501289E+01 -0.55107311820E+01 -0.56373403859E+01  0.82047644205E+01  0.00000000000E+00 0.  1.
</event>
<event>
 7    1  0.2655656E-009  0.4778728E+02  0.7816164E-02  0.1312668E+00
        -11   -1    0    0    0    0  0.00000000000E+00  0.00000000000E+00  0.45593999997E+02  0.45594000000E+02  0.51100000000E-03 0.  1.
         11   -1    0    0    0    0 -0.00000000000E+00 -0.00000000000E+00 -0.45593999997E+02  0.45594000000E+02  0.51100000000E-03 0. -1.
    9900012    2    1    2    0    0 -0.73625586251E+01 -0.55999253489E+01 -0.42403494731E+02  0.47787276517E+02  0.20000024952E+02 0.  0.
        -12    1    1    2    0    0  0.73625586251E+01  0.55999253489E+01  0.42403494731E+02  0.43400723483E+02  0.00000000000E+00 0.  1.
         11    1    3    3    0    0 -0.71957790354E+01  0.21914043900E+01 -0.32362985560E+02  0.33225657612E+02  0.51100000000E-03 0. -1.
        -11    1    3    3    0    0 -0.59441518433E+00 -0.57019570548E+01 -0.17393942007E+01  0.59909211406E+01  0.51100000000E-03 0.  1.
         12    1    3    3    0    0  0.42763559462E+00 -0.20893726841E+01 -0.83011149702E+01  0.85706977641E+01  0.00000000000E+00 0. -1.
</event>
<event>
 7    1  0.2655656E-009  0.4778729E+02  0.7816164E-02  0.1312668E+00
        -11   -1    0    0    0    0  0.00000000000E+00  0.00000000000E+00  0.45593999997E+02  0.45594000000E+02  0.51100000000E-03 0. -1.
         11   -1    0    0    0    0 -0.00000000000E+00 -0.00000000000E+00 -0.45593999997E+02  0.45594000000E+02  0.51100000000E-03 0.  1.
    9900012    2    1    2    0    0  0.36957011639E+02 -0.14956455604E+02 -0.17149489486E+02  0.47787294209E+02  0.20000105618E+02 0.  0.
        -12    1    1    2    0    0 -0.36957011639E+02  0.14956455604E+02  0.17149489486E+02  0.43400705791E+02  0.00000000000E+00 0.  1.
         11    1    3    3    0    0  0.18849259508E+02 -0.17214890465E+01 -0.33115939893E+01  0.19215222184E+02  0.51100000000E-03 0. -1.
        -11    1    3    3    0    0  0.29147552352E+01 -0.63503450734E+01 -0.86171432744E+01  0.11094045209E+02  0.51100000000E-03 0.  1.
        -12    1    3    3    0    0  0.15192996895E+02 -0.68846214838E+01 -0.52207522221E+01  0.17478026816E+02  0.00000000000E+00 0.  1.
</event>
<event>
 7    1  0.2655656E-009  0.4778727E+02  0.7816164E-02  0.1312668E+00
        -11   -1    0    0    0    0  0.00000000000E+00  0.00000000000E+00  0.45593999997E+02  0.45594000000E+02  0.51100000000E-03 0.  1.
         11   -1    0    0    0    0 -0.00000000000E+00 -0.00000000000E+00 -0.45593999997E+02  0.45594000000E+02  0.51100000000E-03 0. -1.
    9900012    2    1    2    0    0 -0.28256316897E+02  0.10731171387E+02 -0.31145555576E+02  0.47787272862E+02  0.20000008289E+02 0.  0.
        -12    1    1    2    0    0  0.28256316897E+02 -0.10731171387E+02  0.31145555576E+02  0.43400727138E+02  0.00000000000E+00 0.  1.
         11    1    3    3    0    0 -0.92684603456E+01  0.68458568822E+01 -0.67076249335E+01  0.13332754634E+02  0.51100000000E-03 0. -1.
        -11    1    3    3    0    0 -0.79936953668E+01  0.90012754451E+01 -0.13908856706E+02  0.18395065109E+02  0.51100000000E-03 0.  1.
        -12    1    3    3    0    0 -0.10994161185E+02 -0.51159609405E+01 -0.10529073937E+02  0.16059453119E+02  0.00000000000E+00 0.  1.
</event>
<event>
 7    1  0.2655656E-009  0.4778727E+02  0.7816164E-02  0.1312668E+00
        -11   -1    0    0    0    0  0.00000000000E+00  0.00000000000E+00  0.45593999997E+02  0.45594000000E+02  0.51100000000E-03 0.  1.
         11   -1    0    0    0    0 -0.00000000000E+00 -0.00000000000E+00 -0.45593999997E+02  0.45594000000E+02  0.51100000000E-03 0. -1.
    9900012    2    1    2    0    0 -0.17207427572E+02 -0.38527704114E+02 -0.10155966385E+02  0.47787271882E+02  0.20000003820E+02 0.  0.
        -12    1    1    2    0    0  0.17207427572E+02  0.38527704114E+02  0.10155966385E+02  0.43400728118E+02  0.00000000000E+00 0.  1.
         11    1    3    3    0    0 -0.12264145927E+02 -0.27266217451E+02 -0.10451436907E+02  0.31671571213E+02  0.51100000000E-03 0. -1.
        -11    1    3    3    0    0 -0.73172635785E+01 -0.66742108770E+01  0.29153699735E+01  0.10324089280E+02  0.51100000000E-03 0.  1.
        -12    1    3    3    0    0  0.23739819334E+01 -0.45872757858E+01 -0.26198994519E+01  0.57916113900E+01  0.00000000000E+00 0.  1.
</event>
<event>
 7    1  0.3025387E-009  0.4778727E+02  0.7816164E-02  0.1312668E+00
        -11   -1    0    0    0    0  0.00000000000E+00  0.00000000000E+00  0.45593999997E+02  0.45594000000E+02  0.51100000000E-03 0.  1.
         11   -1    0    0    0    0 -0.00000000000E+00 -0.00000000000E+00 -0.45593999997E+02  0.45594000000E+02  0.51100000000E-03 0. -1.
    9900012    2    1    2    0    0  0.15082556631E+02 -0.38733731289E+02  0.12483515515E+02  0.47787267129E+02  0.19999982148E+02 0.  0.
        -12    1    1    2    0    0 -0.15082556631E+02  0.38733731289E+02 -0.12483515515E+02  0.43400732871E+02  0.00000000000E+00 0.  1.
         11    1    3    3    0    0  0.38271348479E+01 -0.25834788214E+02  0.94106077241E+01  0.27760453548E+02  0.51100000000E-03 0. -1.
        -11    1    3    3    0    0  0.55849253158E+01 -0.91997679442E+00  0.36940206961E+01  0.67589597757E+01  0.51100000000E-03 0.  1.
         12    1    3    3    0    0  0.56704964676E+01 -0.11978966281E+02 -0.62111290523E+00  0.13267853805E+02  0.00000000000E+00 0. -1.
</event>
<event>
 7    1  0.2655656E-009  0.4778727E+02  0.7816164E-02  0.1312668E+00
        -11   -1    0    0    0    0  0.00000000000E+00  0.00000000000E+00  0.45593999997E+02  0.45594000000E+02  0.51100000000E-03 0.  1.
         11   -1    0    0    0    0 -0.00000000000E+00 -0.00000000000E+00 -0.45593999997E+02  0.45594000000E+02  0.51100000000E-03 0. -1.
    9900012    2    1    2    0    0 -0.27130585356E+02 -0.19221988320E+02 -0.27893901950E+02  0.47787271173E+02  0.20000000585E+02 0.  0.
        -12    1    1    2    0    0  0.27130585356E+02  0.19221988320E+02  0.27893901950E+02  0.43400728827E+02  0.00000000000E+00 0.  1.
         11    1    3    3    0    0 -0.23141885364E+02 -0.18573670527E+02 -0.29380320566E+02  0.41758009194E+02  0.51100000000E-03 0. -1.
        -11    1    3    3    0    0 -0.99855380608E+00  0.17394667464E+01  0.33709774515E+00  0.20338361331E+01  0.51100000000E-03 0.  1.
         12    1    3    3    0    0 -0.29901461861E+01 -0.23877845399E+01  0.11493208708E+01  0.39954258455E+01  0.00000000000E+00 0. -1.
</event>
<event>
 7    1  0.2655656E-009  0.4778727E+02  0.7816164E-02  0.1312668E+00
        -11   -1    0    0    0    0  0.00000000000E+00  0.00000000000E+00  0.45593999997E+02  0.45594000000E+02  0.51100000000E-03 0.  1.
         11   -1    0    0    0    0 -0.00000000000E+00 -0.00000000000E+00 -0.45593999997E+02  0.45594000000E+02  0.51100000000E-03 0. -1.
    9900012    2    1    2    0    0 -0.29967802097E+02  0.12836390475E+02 -0.28649279251E+02  0.47787270922E+02  0.19999999441E+02 0.  0.
        -12    1    1    2    0    0  0.29967802097E+02 -0.12836390475E+02  0.28649279251E+02  0.43400729078E+02  0.00000000000E+00 0.  1.
         11    1    3    3    0    0 -0.17059264713E+02  0.13005288201E+02 -0.22271251661E+02  0.30921912693E+02  0.51100000000E-03 0. -1.
        -11    1    3    3    0    0  0.83757955043E-01 -0.23493241260E+01 -0.16353162209E+01  0.28636687391E+01  0.51100000000E-03 0.  1.
         12    1    3    3    0    0 -0.12992295338E+02  0.21804263994E+01 -0.47427113687E+01  0.14001689490E+02  0.00000000000E+00 0. -1.
</event>
<event>
 7    1  0.2655656E-009  0.4778729E+02  0.7816164E-02  0.1312668E+00
        -11   -1    0    0    0    0  0.00000000000E+00  0.00000000000E+00  0.45593999997E+02  0.45594000000E+02  0.51100000000E-03 0. -1.
         11   -1    0    0    0    0 -0.00000000000E+00 -0.00000000000E+00 -0.45593999997E+02  0.45594000000E+02  0.51100000000E-03 0.  1.
    9900012    2    1    2    0    0  0.54704406385E+01 -0.22375586288E+02  0.36783541096E+02  0.47787291733E+02  0.20000094327E+02 0.  0.
        -12    1    1    2    0    0 -0.54704406385E+01  0.22375586288E+02 -0.36783541096E+02  0.43400708267E+02  0.00000000000E+00 0.  1.
         11    1    3    3    0    0 -0.13369858396E+01 -0.26668373938E+00  0.11983167775E+02  0.12060471033E+02  0.51100000000E-03 0.  1.
        -11    1    3    3    0    0  0.72365341531E+01 -0.18161184505E+02  0.13524083844E+02  0.23771766726E+02  0.51100000000E-03 0. -1.
         12    1    3    3    0    0 -0.42910767505E+00 -0.39477180435E+01  0.11276289478E+02  0.11955053974E+02  0.00000000000E+00 0. -1.
</event>
<event>
 7    1  0.2655656E-009  0.4778727E+02  0.7816164E-02  0.1312668E+00
        -11   -1    0    0    0    0  0.00000000000E+00  0.00000000000E+00  0.45593999997E+02  0.45594000000E+02  0.51100000000E-03 0.  1.
         11   -1    0    0    0    0 -0.00000000000E+00 -0.00000000000E+00 -0.45593999997E+02  0.45594000000E+02  0.51100000000E-03 0. -1.
    9900012    2    1    2    0    0 -0.36545038628E+02 -0.13324154159E+02 -0.19249679101E+02  0.47787273303E+02  0.20000010297E+02 0.  0.
        -12    1    1    2    0    0  0.36545038628E+02  0.13324154159E+02  0.19249679101E+02  0.43400726697E+02  0.00000000000E+00 0.  1.
         11    1    3    3    0    0 -0.26293986879E+02 -0.32689916279E+01 -0.10887272112E+02  0.28645990061E+02  0.51100000000E-03 0. -1.
        -11    1    3    3    0    0 -0.90110894305E+01 -0.11600014879E+02 -0.55522497813E+01  0.15703106565E+02  0.51100000000E-03 0.  1.
         12    1    3    3    0    0 -0.12399623183E+01  0.15448523478E+01 -0.28101572080E+01  0.34381766768E+01  0.00000000000E+00 0. -1.
</event>
<event>
 7    1  0.2655656E-009  0.4778727E+02  0.7816164E-02  0.1312668E+00
        -11   -1    0    0    0    0  0.00000000000E+00  0.00000000000E+00  0.45593999997E+02  0.45594000000E+02  0.51100000000E-03 0.  1.
         11   -1    0    0    0    0 -0.00000000000E+00 -0.00000000000E+00 -0.45593999997E+02  0.45594000000E+02  0.51100000000E-03 0. -1.
    9900012    2    1    2    0    0 -0.27592079483E+02 -0.27183599221E+02 -0.19579389499E+02  0.47787269476E+02  0.19999992851E+02 0.  0.
        -12    1    1    2    0    0  0.27592079483E+02  0.27183599221E+02  0.19579389499E+02  0.43400730524E+02  0.00000000000E+00 0.  1.
         11    1    3    3    0    0 -0.75500322081E+01 -0.15060298321E+01 -0.27519522518E+01  0.81758396300E+01  0.51100000000E-03 0. -1.
        -11    1    3    3    0    0 -0.22260541097E+02 -0.25080308699E+02 -0.16119003610E+02  0.37207201615E+02  0.51100000000E-03 0.  1.
        -12    1    3    3    0    0  0.22184938222E+01 -0.59726069040E+00 -0.70843363663E+00  0.24042282314E+01  0.00000000000E+00 0.  1.
</event>
<event>
 7    1  0.2655656E-009  0.4778727E+02  0.7816164E-02  0.1312668E+00
        -11   -1    0    0    0    0  0.00000000000E+00  0.00000000000E+00  0.45593999997E+02  0.45594000000E+02  0.51100000000E-03 0.  1.
         11   -1    0    0    0    0 -0.00000000000E+00 -0.00000000000E+00 -0.45593999997E+02  0.45594000000E+02  0.51100000000E-03 0. -1.
    9900012    2    1    2    0    0  0.33854755421E+02 -0.58901742200E+01 -0.26510084361E+02  0.47787272013E+02  0.20000004418E+02 0.  0.
        -12    1    1    2    0    0 -0.33854755421E+02  0.58901742200E+01  0.26510084361E+02  0.43400727987E+02  0.00000000000E+00 0.  1.
         11    1    3    3    0    0 -0.17366298453E+01 -0.14142723055E+01 -0.92182780179E+00  0.24219447002E+01  0.51100000000E-03 0. -1.
        -11    1    3    3    0    0 -0.69108463324E+00  0.15144294157E+00 -0.12346907053E+01  0.14230229561E+01  0.51100000000E-03 0.  1.
         12    1    3    3    0    0  0.36282469899E+02 -0.46273448560E+01 -0.24353565854E+02  0.43942304357E+02  0.00000000000E+00 0. -1.
</event>
<event>
 7    1  0.2655656E-009  0.4778727E+02  0.7816164E-02  0.1312668E+00
        -11   -1    0    0    0    0  0.00000000000E+00  0.00000000000E+00  0.45593999997E+02  0.45594000000E+02  0.51100000000E-03 0. -1.
         11   -1    0    0    0    0 -0.00000000000E+00 -0.00000000000E+00 -0.45593999997E+02  0.45594000000E+02  0.51100000000E-03 0.  1.
    9900012    2    1    2    0    0  0.37310103584E+02  0.22012024601E+02  0.26553050831E+01  0.47787266117E+02  0.19999977536E+02 0.  0.
        -12    1    1    2    0    0 -0.37310103584E+02 -0.22012024601E+02 -0.26553050831E+01  0.43400733883E+02  0.00000000000E+00 0.  1.
         11    1    3    3    0    0  0.19115580250E+02  0.28606745244E+01 -0.18600644953E+01  0.19417742073E+02  0.51100000000E-03 0. -1.
        -11    1    3    3    0    0  0.19253449386E+02  0.17671805198E+02  0.46524229796E+01  0.26544925166E+02  0.51100000000E-03 0.  1.
        -12    1    3    3    0    0 -0.10589260525E+01  0.14795448786E+01 -0.13705340127E+00  0.18245988785E+01  0.00000000000E+00 0.  1.
</event>
<event>
 7    1  0.2655656E-009  0.4778727E+02  0.7816164E-02  0.1312668E+00
        -11   -1    0    0    0    0  0.00000000000E+00  0.00000000000E+00  0.45593999997E+02  0.45594000000E+02  0.51100000000E-03 0. -1.
         11   -1    0    0    0    0 -0.00000000000E+00 -0.00000000000E+00 -0.45593999997E+02  0.45594000000E+02  0.51100000000E-03 0.  1.
    9900012    2    1    2    0    0 -0.84392518897E+01 -0.17736467235E+02  0.38701676785E+02  0.47787273872E+02  0.20000012891E+02 0.  0.
        -12    1    1    2    0    0  0.84392518897E+01  0.17736467235E+02 -0.38701676785E+02  0.43400726128E+02  0.00000000000E+00 0.  1.
         11    1    3    3    0    0  0.37949501878E+01 -0.41944022672E+01  0.42651284690E+01  0.70842062664E+01  0.51100000000E-03 0.  1.
        -11    1    3    3    0    0 -0.65836863240E+01 -0.82281499475E+00  0.17893999042E+02  0.19084474111E+02  0.51100000000E-03 0. -1.
         12    1    3    3    0    0 -0.56505157535E+01 -0.12719249973E+02  0.16542549275E+02  0.21618593494E+02  0.00000000000E+00 0. -1.
</event>
<event>
 7    1  0.2655656E-009  0.4778727E+02  0.7816164E-02  0.1312668E+00
        -11   -1    0    0    0    0  0.00000000000E+00  0.00000000000E+00  0.45593999997E+02  0.45594000000E+02  0.51100000000E-03 0. -1.
         11   -1    0    0    0    0 -0.00000000000E+00 -0.00000000000E+00 -0.45593999997E+02  0.45594000000E+02  0.51100000000E-03 0.  1.
    9900012    2    1    2    0    0  0.22676440305E+02 -0.29018559112E+02  0.22963570267E+02  0.47787271006E+02  0.19999999823E+02 0.  0.
        -12    1    1    2    0    0 -0.22676440305E+02  0.29018559112E+02 -0.22963570267E+02  0.43400728994E+02  0.00000000000E+00 0.  1.
         11    1    3    3    0    0  0.99453203125E+01 -0.63368385470E+01  0.77048238825E+01  0.14086491054E+02  0.51100000000E-03 0. -1.
        -11    1    3    3    0    0  0.14159976962E+02 -0.23270837887E+02  0.16384975456E+02  0.31788429727E+02  0.51100000000E-03 0.  1.
        -12    1    3    3    0    0 -0.14288569698E+01  0.58911732229E+00 -0.11262290717E+01  0.19123502247E+01  0.00000000000E+00 0.  1.
</event>
<event>
 7    1  0.2655656E-009  0.4778724E+02  0.7816164E-02  0.1312668E+00
        -11   -1    0    0    0    0  0.00000000000E+00  0.00000000000E+00  0.45593999997E+02  0.45594000000E+02  0.51100000000E-03 0.  1.
         11   -1    0    0    0    0 -0.00000000000E+00 -0.00000000000E+00 -0.45593999997E+02  0.45594000000E+02  0.51100000000E-03 0. -1.
    9900012    2    1    2    0    0  0.22476045437E+01  0.11787464759E+02 -0.41708872435E+02  0.47787238584E+02  0.19999852000E+02 0.  0.
        -12    1    1    2    0    0 -0.22476045437E+01 -0.11787464759E+02  0.41708872435E+02  0.43400761416E+02  0.00000000000E+00 0.  1.
         11    1    3    3    0    0 -0.24391352955E+01  0.57048243224E+00 -0.96762956155E+01  0.99952752986E+01  0.51100000000E-03 0. -1.
        -11    1    3    3    0    0 -0.22391451884E+01 -0.60268804964E+00 -0.18116502881E+02  0.18264300725E+02  0.51100000000E-03 0.  1.
        -12    1    3    3    0    0  0.69258850276E+01  0.11819670376E+02 -0.13916073939E+02  0.19527662561E+02  0.00000000000E+00 0.  1.
</event>
<event>
 7    1  0.2655656E-009  0.4778728E+02  0.7816164E-02  0.1312668E+00
        -11   -1    0    0    0    0  0.00000000000E+00  0.00000000000E+00  0.45593999997E+02  0.45594000000E+02  0.51100000000E-03 0.  1.
         11   -1    0    0    0    0 -0.00000000000E+00 -0.00000000000E+00 -0.45593999997E+02  0.45594000000E+02  0.51100000000E-03 0. -1.
    9900012    2    1    2    0    0  0.33667389270E+02  0.24982347881E+01 -0.27274311226E+02  0.47787281917E+02  0.20000049570E+02 0.  0.
        -12    1    1    2    0    0 -0.33667389270E+02 -0.24982347881E+01  0.27274311226E+02  0.43400718083E+02  0.00000000000E+00 0.  1.
         11    1    3    3    0    0 -0.70989618244E+00  0.23282784193E+01 -0.10230072316E+01  0.26403365400E+01  0.51100000000E-03 0. -1.
        -11    1    3    3    0    0  0.23865272502E+02 -0.30128380736E+01 -0.11251917379E+02  0.26556243518E+02  0.51100000000E-03 0.  1.
        -12    1    3    3    0    0  0.10512012950E+02  0.31827944425E+01 -0.14999386616E+02  0.18590701858E+02  0.00000000000E+00 0.  1.
</event>
<event>
 7    1  0.2655656E-009  0.4778727E+02  0.7816164E-02  0.1312668E+00
        -11   -1    0    0    0    0  0.00000000000E+00  0.00000000000E+00  0.45593999997E+02  0.45594000000E+02  0.51100000000E-03 0.  1.
         11   -1    0    0    0    0 -0.00000000000E+00 -0.00000000000E+00 -0.45593999997E+02  0.45594000000E+02  0.51100000000E-03 0. -1.
    9900012    2    1    2    0    0 -0.26807909899E+01  0.23441635452E+02 -0.36426998206E+02  0.47787272917E+02  0.20000008540E+02 0.  0.
        -12    1    1    2    0    0  0.26807909899E+01 -0.23441635452E+02  0.36426998206E+02  0.43400727083E+02  0.00000000000E+00 0.  1.
         11    1    3    3    0    0  0.66162852882E+01  0.17425631341E+02 -0.26667984894E+02  0.32536276327E+02  0.51100000000E-03 0. -1.
        -11    1    3    3    0    0 -0.70024582462E+01  0.44478002897E+01 -0.48487665606E+01  0.96087401009E+01  0.51100000000E-03 0.  1.
         12    1    3    3    0    0 -0.22946180318E+01  0.15682038213E+01 -0.49102467511E+01  0.56422564896E+01  0.00000000000E+00 0. -1.
</event>
<event>
 7    1  0.2655656E-009  0.4778727E+02  0.7816164E-02  0.1312668E+00
        -11   -1    0    0    0    0  0.00000000000E+00  0.00000000000E+00  0.45593999997E+02  0.45594000000E+02  0.51100000000E-03 0.  1.
         11   -1    0    0    0    0 -0.00000000000E+00 -0.00000000000E+00 -0.45593999997E+02  0.45594000000E+02  0.51100000000E-03 0. -1.
    9900012    2    1    2    0    0 -0.97922529633E+01  0.38605160191E-01 -0.42281595915E+02  0.47787273490E+02  0.20000011152E+02 0.  0.
        -12    1    1    2    0    0  0.97922529633E+01 -0.38605160191E-01  0.42281595915E+02  0.43400726510E+02  0.00000000000E+00 0.  1.
         11    1    3    3    0    0 -0.25653587831E+01 -0.17516708205E+01 -0.17388380767E+01  0.35599121432E+01  0.51100000000E-03 0. -1.
        -11    1    3    3    0    0 -0.73393359617E+01 -0.18766395192E+01 -0.64836043039E+01  0.99711961807E+01  0.51100000000E-03 0.  1.
        -12    1    3    3    0    0  0.11244178156E+00  0.36669154999E+01 -0.34059153534E+02  0.34256165166E+02  0.00000000000E+00 0.  1.
</event>
<event>
 7    1  0.2655656E-009  0.4778727E+02  0.7816164E-02  0.1312668E+00
        -11   -1    0    0    0    0  0.00000000000E+00  0.00000000000E+00  0.45593999997E+02  0.45594000000E+02  0.51100000000E-03 0.  1.
         11   -1    0    0    0    0 -0.00000000000E+00 -0.00000000000E+00 -0.45593999997E+02  0.45594000000E+02  0.51100000000E-03 0. -1.
    9900012    2    1    2    0    0  0.46159938041E+01 -0.22899081748E+02 -0.36577968767E+02  0.47787272554E+02  0.20000006884E+02 0.  0.
        -12    1    1    2    0    0 -0.46159938041E+01  0.22899081748E+02  0.36577968767E+02  0.43400727446E+02  0.00000000000E+00 0.  1.
         11    1    3    3    0    0  0.96249016550E+00 -0.15424318181E+02 -0.15094747602E+02  0.21602948505E+02  0.51100000000E-03 0. -1.
        -11    1    3    3    0    0  0.17826828772E+01  0.23545061160E+01 -0.57982195749E+00  0.30096263978E+01  0.51100000000E-03 0.  1.
         12    1    3    3    0    0  0.18708207613E+01 -0.98292696832E+01 -0.20903399207E+02  0.23174697652E+02  0.00000000000E+00 0. -1.
</event>
<event>
 7    1  0.2655656E-009  0.4778727E+02  0.7816164E-02  0.1312668E+00
        -11   -1    0    0    0    0  0.00000000000E+00  0.00000000000E+00  0.45593999997E+02  0.45594000000E+02  0.51100000000E-03 0.  1.
         11   -1    0    0    0    0 -0.00000000000E+00 -0.00000000000E+00 -0.45593999997E+02  0.45594000000E+02  0.51100000000E-03 0. -1.
    9900012    2    1    2    0    0 -0.40139691154E+02 -0.58996995224E+00 -0.16494862007E+02  0.47787270247E+02  0.19999996363E+02 0.  0.
        -12    1    1    2    0    0  0.40139691154E+02  0.58996995224E+00  0.16494862007E+02  0.43400729753E+02  0.00000000000E+00 0.  1.
         11    1    3    3    0    0 -0.15935432970E+02  0.44466096070E+01 -0.11320331458E+02  0.20046452691E+02  0.51100000000E-03 0. -1.
        -11    1    3    3    0    0 -0.25175969958E+02 -0.35900986759E+01 -0.43018313569E+01  0.25791937211E+02  0.51100000000E-03 0.  1.
         12    1    3    3    0    0  0.97171177326E+00 -0.14464808833E+01 -0.87269919257E+00  0.19488803444E+01  0.00000000000E+00 0. -1.
</event>
<event>
 7    1  0.2655656E-009  0.4778727E+02  0.7816164E-02  0.1312668E+00
        -11   -1    0    0    0    0  0.00000000000E+00  0.00000000000E+00  0.45593999997E+02  0.45594000000E+02  0.51100000000E-03 0. -1.
         11   -1    0    0    0    0 -0.00000000000E+00 -0.00000000000E+00 -0.45593999997E+02  0.45594000000E+02  0.51100000000E-03 0.  1.
    9900012    2    1    2    0    0  0.35516437949E+02  0.34260703833E+01  0.24707645513E+02  0.47787273397E+02  0.20000010727E+02 0.  0.
        -12    1    1    2    0    0 -0.35516437949E+02 -0.34260703833E+01 -0.24707645513E+02  0.43400726603E+02  0.00000000000E+00 0.  1.
         11    1    3    3    0    0  0.23401010055E+01  0.18789972128E+01  0.59074712930E+01  0.66260788239E+01  0.51100000000E-03 0. -1.
        -11    1    3    3    0    0  0.28052468416E+02 -0.21510797404E+00  0.81520789129E+01  0.29213757829E+02  0.51100000000E-03 0.  1.
        -12    1    3    3    0    0  0.51238685277E+01  0.17621811446E+01  0.10648095307E+02  0.11947436744E+02  0.00000000000E+00 0.  1.
</event>
<event>
 7    1  0.2655656E-009  0.4778727E+02  0.7816164E-02  0.1312668E+00
        -11   -1    0    0    0    0  0.00000000000E+00  0.00000000000E+00  0.45593999997E+02  0.45594000000E+02  0.51100000000E-03 0.  1.
         11   -1    0    0    0    0 -0.00000000000E+00 -0.00000000000E+00 -0.45593999997E+02  0.45594000000E+02  0.51100000000E-03 0. -1.
    9900012    2    1    2    0    0  0.42630885123E+02 -0.50658260957E+01 -0.63693370092E+01  0.47787269426E+02  0.19999992621E+02 0.  0.
        -12    1    1    2    0    0 -0.42630885123E+02  0.50658260957E+01  0.63693370092E+01  0.43400730574E+02  0.00000000000E+00 0.  1.
         11    1    3    3    0    0  0.11425841152E+02  0.19472037437E+01 -0.39294687219E+01  0.12238552739E+02  0.51100000000E-03 0. -1.
        -11    1    3    3    0    0  0.30384876187E+02 -0.56071376291E+01 -0.61439169757E+01  0.31502831767E+02  0.51100000000E-03 0.  1.
        -12    1    3    3    0    0  0.82016778461E+00 -0.14058922104E+01  0.37040486884E+01  0.40458849202E+01  0.00000000000E+00 0.  1.
</event>
<event>
 7    1  0.2655656E-009  0.4778725E+02  0.7816164E-02  0.1312668E+00
        -11   -1    0    0    0    0  0.00000000000E+00  0.00000000000E+00  0.45593999997E+02  0.45594000000E+02  0.51100000000E-03 0.  1.
         11   -1    0    0    0    0 -0.00000000000E+00 -0.00000000000E+00 -0.45593999997E+02  0.45594000000E+02  0.51100000000E-03 0. -1.
    9900012    2    1    2    0    0 -0.34834444235E+02 -0.77839035100E+01  0.24690020144E+02  0.47787253996E+02  0.19999922267E+02 0.  0.
        -12    1    1    2    0    0  0.34834444235E+02  0.77839035100E+01 -0.24690020144E+02  0.43400746004E+02  0.00000000000E+00 0.  1.
         11    1    3    3    0    0 -0.75422886705E+01 -0.69786883526E+01  0.72844619356E+01  0.12595697498E+02  0.51100000000E-03 0. -1.
        -11    1    3    3    0    0 -0.22212180713E+02  0.50733488508E+01  0.12267192357E+02  0.25876704758E+02  0.51100000000E-03 0.  1.
        -12    1    3    3    0    0 -0.50799748518E+01 -0.58785640081E+01  0.51383658517E+01  0.93148517390E+01  0.00000000000E+00 0.  1.
</event>
<event>
 7    1  0.2655656E-009  0.4778727E+02  0.7816164E-02  0.1312668E+00
        -11   -1    0    0    0    0  0.00000000000E+00  0.00000000000E+00  0.45593999997E+02  0.45594000000E+02  0.51100000000E-03 0.  1.
         11   -1    0    0    0    0 -0.00000000000E+00 -0.00000000000E+00 -0.45593999997E+02  0.45594000000E+02  0.51100000000E-03 0. -1.
    9900012    2    1    2    0    0 -0.35785512648E+02  0.61701739776E+01 -0.23768661988E+02  0.47787271261E+02  0.20000000988E+02 0.  0.
        -12    1    1    2    0    0  0.35785512648E+02 -0.61701739776E+01  0.23768661988E+02  0.43400728739E+02  0.00000000000E+00 0.  1.
         11    1    3    3    0    0 -0.64014454442E+01  0.80909755010E+00 -0.29692909638E+01  0.71028044961E+01  0.51100000000E-03 0. -1.
        -11    1    3    3    0    0 -0.21489773609E+02  0.11801339262E+02 -0.16891852253E+02  0.29772750141E+02  0.51100000000E-03 0.  1.
        -12    1    3    3    0    0 -0.78942935941E+01 -0.64402628350E+01 -0.39075187716E+01  0.10911716624E+02  0.00000000000E+00 0.  1.
</event>
<event>
 7    1  0.2655656E-009  0.4778727E+02  0.7816164E-02  0.1312668E+00
        -11   -1    0    0    0    0  0.00000000000E+00  0.00000000000E+00  0.45593999997E+02  0.45594000000E+02  0.51100000000E-03 0.  1.
         11   -1    0    0    0    0 -0.00000000000E+00 -0.00000000000E+00 -0.45593999997E+02  0.45594000000E+02  0.51100000000E-03 0. -1.
    9900012    2    1    2    0    0 -0.34475499892E+02  0.22075007245E+02 -0.14413794875E+02  0.47787268204E+02  0.19999987051E+02 0.  0.
        -12    1    1    2    0    0  0.34475499892E+02 -0.22075007245E+02  0.14413794875E+02  0.43400731796E+02  0.00000000000E+00 0.  1.
         11    1    3    3    0    0 -0.74747305666E+00  0.40430264954E+01 -0.15080893112E+01  0.43793964019E+01  0.51100000000E-03 0. -1.
        -11    1    3    3    0    0 -0.55304224859E+01  0.38564558348E+01 -0.95211762066E+01  0.11666645666E+02  0.51100000000E-03 0.  1.
        -12    1    3    3    0    0 -0.28197604350E+02  0.14175524915E+02 -0.33845293572E+01  0.31741226136E+02  0.00000000000E+00 0.  1.
</event>
<event>
 7    1  0.2655656E-009  0.4778727E+02  0.7816164E-02  0.1312668E+00
        -11   -1    0    0    0    0  0.00000000000E+00  0.00000000000E+00  0.45593999997E+02  0.45594000000E+02  0.51100000000E-03 0. -1.
         11   -1    0    0    0    0 -0.00000000000E+00 -0.00000000000E+00 -0.45593999997E+02  0.45594000000E+02  0.51100000000E-03 0.  1.
    9900012    2    1    2    0    0 -0.34955447519E+02  0.13831562045E+02  0.21689351996E+02  0.47787269477E+02  0.19999992855E+02 0.  0.
        -12    1    1    2    0    0  0.34955447519E+02 -0.13831562045E+02 -0.21689351996E+02  0.43400730523E+02  0.00000000000E+00 0.  1.
         11    1    3    3    0    0 -0.81914282886E+01  0.35924895304E+01  0.65891797423E+01  0.11109580027E+02  0.51100000000E-03 0. -1.
        -11    1    3    3    0    0 -0.13141491654E+02 -0.33025705071E+01  0.27050346861E+01  0.13817488475E+02  0.51100000000E-03 0.  1.
        -12    1    3    3    0    0 -0.13622527577E+02  0.13541643022E+02  0.12395137568E+02  0.22860200975E+02  0.00000000000E+00 0.  1.
</event>
<event>
 7    1  0.2655656E-009  0.4778727E+02  0.7816164E-02  0.1312668E+00
        -11   -1    0    0    0    0  0.00000000000E+00  0.00000000000E+00  0.45593999997E+02  0.45594000000E+02  0.51100000000E-03 0. -1.
         11   -1    0    0    0    0 -0.00000000000E+00 -0.00000000000E+00 -0.45593999997E+02  0.45594000000E+02  0.51100000000E-03 0.  1.
    9900012    2    1    2    0    0  0.27653095067E+02 -0.14507418577E+02  0.30140747910E+02  0.47787267920E+02  0.19999985752E+02 0.  0.
        -12    1    1    2    0    0 -0.27653095067E+02  0.14507418577E+02 -0.30140747910E+02  0.43400732080E+02  0.00000000000E+00 0.  1.
         11    1    3    3    0    0  0.24889670974E+01  0.73796730425E+00 -0.24698104098E+01  0.35832271314E+01  0.51100000000E-03 0.  1.
        -11    1    3    3    0    0  0.16833464071E+02 -0.10581335327E+02  0.25306842496E+02  0.32183325610E+02  0.51100000000E-03 0. -1.
        -12    1    3    3    0    0  0.83306638983E+01 -0.46640505538E+01  0.73037158234E+01  0.12020715178E+02  0.00000000000E+00 0.  1.
</event>
<event>
 7    1  0.2655656E-009  0.4778727E+02  0.7816164E-02  0.1312668E+00
        -11   -1    0    0    0    0  0.00000000000E+00  0.00000000000E+00  0.45593999997E+02  0.45594000000E+02  0.51100000000E-03 0.  1.
         11   -1    0    0    0    0 -0.00000000000E+00 -0.00000000000E+00 -0.45593999997E+02  0.45594000000E+02  0.51100000000E-03 0. -1.
    9900012    2    1    2    0    0  0.22462403551E+02  0.92341324096E+01 -0.35969355835E+02  0.47787270353E+02  0.19999996849E+02 0.  0.
        -12    1    1    2    0    0 -0.22462403551E+02 -0.92341324096E+01  0.35969355835E+02  0.43400729647E+02  0.00000000000E+00 0.  1.
         11    1    3    3    0    0  0.94640848798E+01  0.77895602552E+01 -0.13468032493E+02  0.18210822361E+02  0.51100000000E-03 0. -1.
        -11    1    3    3    0    0  0.53425955673E+01 -0.63028850177E+01 -0.87583190798E+01  0.12040674412E+02  0.51100000000E-03 0.  1.
        -12    1    3    3    0    0  0.76557231041E+01  0.77474571721E+01 -0.13743004263E+02  0.17535773580E+02  0.00000000000E+00 0.  1.
</event>
<event>
 7    1  0.2655656E-009  0.4778727E+02  0.7816164E-02  0.1312668E+00
        -11   -1    0    0    0    0  0.00000000000E+00  0.00000000000E+00  0.45593999997E+02  0.45594000000E+02  0.51100000000E-03 0.  1.
         11   -1    0    0    0    0 -0.00000000000E+00 -0.00000000000E+00 -0.45593999997E+02  0.45594000000E+02  0.51100000000E-03 0. -1.
    9900012    2    1    2    0    0  0.31001130367E+02 -0.14287237794E+02 -0.26803512522E+02  0.47787268078E+02  0.19999986477E+02 0.  0.
        -12    1    1    2    0    0 -0.31001130367E+02  0.14287237794E+02  0.26803512522E+02  0.43400731922E+02  0.00000000000E+00 0.  1.
         11    1    3    3    0    0  0.13090724999E+02 -0.25723317886E+00 -0.15279471083E+02  0.20122014977E+02  0.51100000000E-03 0. -1.
        -11    1    3    3    0    0  0.16512631706E+02 -0.10276547714E+02 -0.51201040832E+01  0.20111934389E+02  0.51100000000E-03 0.  1.
         12    1    3    3    0    0  0.13977736626E+01 -0.37534569002E+01 -0.64039373556E+01  0.75533187122E+01  0.00000000000E+00 0. -1.
</event>
<event>
 7    1  0.2655656E-009  0.4778727E+02  0.7816164E-02  0.1312668E+00
        -11   -1    0    0    0    0  0.00000000000E+00  0.00000000000E+00  0.45593999997E+02  0.45594000000E+02  0.51100000000E-03 0.  1.
         11   -1    0    0    0    0 -0.00000000000E+00 -0.00000000000E+00 -0.45593999997E+02  0.45594000000E+02  0.51100000000E-03 0. -1.
    9900012    2    1    2    0    0 -0.96654155482E+00  0.11280497466E+02 -0.41897963995E+02  0.47787271751E+02  0.20000003220E+02 0.  0.
        -12    1    1    2    0    0  0.96654155482E+00 -0.11280497466E+02  0.41897963995E+02  0.43400728249E+02  0.00000000000E+00 0.  1.
         11    1    3    3    0    0 -0.86863481848E+01  0.31100613835E+01 -0.17856768392E+02  0.20099485174E+02  0.51100000000E-03 0. -1.
        -11    1    3    3    0    0  0.63471074201E+01  0.46357362461E+01 -0.80404431999E+01  0.11243867229E+02  0.51100000000E-03 0.  1.
         12    1    3    3    0    0  0.13726992098E+01  0.35346998365E+01 -0.16000752403E+02  0.16443919348E+02  0.00000000000E+00 0. -1.
</event>
<event>
 7    1  0.2655656E-009  0.4778727E+02  0.7816164E-02  0.1312668E+00
        -11   -1    0    0    0    0  0.00000000000E+00  0.00000000000E+00  0.45593999997E+02  0.45594000000E+02  0.51100000000E-03 0.  1.
         11   -1    0    0    0    0 -0.00000000000E+00 -0.00000000000E+00 -0.45593999997E+02  0.45594000000E+02  0.51100000000E-03 0. -1.
    9900012    2    1    2    0    0 -0.30077551573E+02  0.22743711747E+02 -0.21486922486E+02  0.47787269930E+02  0.19999994921E+02 0.  0.
        -12    1    1    2    0    0  0.30077551573E+02 -0.22743711747E+02  0.21486922486E+02  0.43400730070E+02  0.00000000000E+00 0.  1.
         11    1    3    3    0    0 -0.17767498775E+02  0.53186186357E+01 -0.88178221257E+01  0.20535961244E+02  0.51100000000E-03 0. -1.
        -11    1    3    3    0    0  0.14531013324E+01  0.61944578986E+01 -0.32352675804E+01  0.71379106689E+01  0.51100000000E-03 0.  1.
         12    1    3    3    0    0 -0.13763154130E+02  0.11230635213E+02 -0.94338327794E+01  0.20113398018E+02  0.00000000000E+00 0. -1.
</event>
<event>
 7    1  0.2655656E-009  0.4778727E+02  0.7816164E-02  0.1312668E+00
        -11   -1    0    0    0    0  0.00000000000E+00  0.00000000000E+00  0.45593999997E+02  0.45594000000E+02  0.51100000000E-03 0. -1.
         11   -1    0    0    0    0 -0.00000000000E+00 -0.00000000000E+00 -0.45593999997E+02  0.45594000000E+02  0.51100000000E-03 0.  1.
    9900012    2    1    2    0    0  0.31507439235E+02  0.16812062340E+02  0.24662907704E+02  0.47787272084E+02  0.20000004740E+02 0.  0.
        -12    1    1    2    0    0 -0.31507439235E+02 -0.16812062340E+02 -0.24662907704E+02  0.43400727916E+02  0.00000000000E+00 0.  1.
         11    1    3    3    0    0  0.28813582928E+02  0.17253752606E+02  0.20682788417E+02  0.39442265111E+02  0.51100000000E-03 0. -1.
        -11    1    3    3    0    0  0.16827513361E+01  0.31417038045E+01  0.14735943957E+01  0.38566093345E+01  0.51100000000E-03 0.  1.
         12    1    3    3    0    0  0.10111049701E+01 -0.35833940708E+01  0.25065248911E+01  0.44883976380E+01  0.00000000000E+00 0. -1.
</event>
<event>
 7    1  0.2655656E-009  0.4778727E+02  0.7816164E-02  0.1312668E+00
        -11   -1    0    0    0    0  0.00000000000E+00  0.00000000000E+00  0.45593999997E+02  0.45594000000E+02  0.51100000000E-03 0. -1.
         11   -1    0    0    0    0 -0.00000000000E+00 -0.00000000000E+00 -0.45593999997E+02  0.45594000000E+02  0.51100000000E-03 0.  1.
    9900012    2    1    2    0    0 -0.41499174731E+01 -0.42954560110E+02  0.46159728263E+01  0.47787271269E+02  0.20000001022E+02 0.  0.
        -12    1    1    2    0    0  0.41499174731E+01  0.42954560110E+02 -0.46159728263E+01  0.43400728731E+02  0.00000000000E+00 0.  1.
         11    1    3    3    0    0 -0.28918288403E+01 -0.27469697820E+02 -0.52078164391E+01  0.28108154061E+02  0.51100000000E-03 0. -1.
        -11    1    3    3    0    0 -0.11774774893E+01 -0.16244504924E+02  0.94196463275E+01  0.18814891194E+02  0.51100000000E-03 0.  1.
        -12    1    3    3    0    0 -0.80611143399E-01  0.75964263403E+00  0.40414293787E+00  0.86422601333E+00  0.00000000000E+00 0.  1.
</event>
<event>
 7    1  0.2655656E-009  0.4778727E+02  0.7816164E-02  0.1312668E+00
        -11   -1    0    0    0    0  0.00000000000E+00  0.00000000000E+00  0.45593999997E+02  0.45594000000E+02  0.51100000000E-03 0.  1.
         11   -1    0    0    0    0 -0.00000000000E+00 -0.00000000000E+00 -0.45593999997E+02  0.45594000000E+02  0.51100000000E-03 0. -1.
    9900012    2    1    2    0    0  0.28591990503E+02  0.32643984518E+02 -0.70112910915E+00  0.47787271571E+02  0.20000002402E+02 0.  0.
        -12    1    1    2    0    0 -0.28591990503E+02 -0.32643984518E+02  0.70112910915E+00  0.43400728429E+02  0.00000000000E+00 0.  1.
         11    1    3    3    0    0  0.20276000071E+02  0.29129675964E+02 -0.40359382628E+01  0.35720344323E+02  0.51100000000E-03 0. -1.
        -11    1    3    3    0    0  0.34641135396E+01 -0.21377994763E+01  0.51939382315E+00  0.41036617089E+01  0.51100000000E-03 0.  1.
         12    1    3    3    0    0  0.48518768926E+01  0.56521080305E+01  0.28154153305E+01  0.79632655395E+01  0.00000000000E+00 0. -1.
</event>
<event>
 7    1  0.2898393E-009  0.4778727E+02  0.7816164E-02  0.1312668E+00
        -11   -1    0    0    0    0  0.00000000000E+00  0.00000000000E+00  0.45593999997E+02  0.45594000000E+02  0.51100000000E-03 0. -1.
         11   -1    0    0    0    0 -0.00000000000E+00 -0.00000000000E+00 -0.45593999997E+02  0.45594000000E+02  0.51100000000E-03 0.  1.
    9900012    2    1    2    0    0 -0.42121087153E+02  0.15109268609E+01 -0.10351539938E+02  0.47787271181E+02  0.20000000622E+02 0.  0.
        -12    1    1    2    0    0  0.42121087153E+02 -0.15109268609E+01  0.10351539938E+02  0.43400728819E+02  0.00000000000E+00 0.  1.
         11    1    3    3    0    0 -0.28329222925E+02 -0.28981833716E+00 -0.13808121372E+01  0.28364335152E+02  0.51100000000E-03 0. -1.
        -11    1    3    3    0    0 -0.18784846419E+01 -0.34405425806E+01 -0.36691540258E+01  0.53692391757E+01  0.51100000000E-03 0.  1.
         12    1    3    3    0    0 -0.11913379586E+02  0.52412877787E+01 -0.53015737749E+01  0.14053696853E+02  0.00000000000E+00 0. -1.
</event>
<event>
 7    1  0.2655656E-009  0.4778727E+02  0.7816164E-02  0.1312668E+00
        -11   -1    0    0    0    0  0.00000000000E+00  0.00000000000E+00  0.45593999997E+02  0.45594000000E+02  0.51100000000E-03 0.  1.
         11   -1    0    0    0    0 -0.00000000000E+00 -0.00000000000E+00 -0.45593999997E+02  0.45594000000E+02  0.51100000000E-03 0. -1.
    9900012    2    1    2    0    0 -0.27605696454E+02 -0.23811782693E+02 -0.23548842187E+02  0.47787269130E+02  0.19999991270E+02 0.  0.
        -12    1    1    2    0    0  0.27605696454E+02  0.23811782693E+02  0.23548842187E+02  0.43400730870E+02  0.00000000000E+00 0.  1.
         11    1    3    3    0    0 -0.13075406456E+02 -0.16747782538E+01 -0.34357892709E+01  0.13622620319E+02  0.51100000000E-03 0. -1.
        -11    1    3    3    0    0  0.44477695716E-01 -0.46262289605E+01 -0.50703160695E+01  0.68638238589E+01  0.51100000000E-03 0.  1.
         12    1    3    3    0    0 -0.14574767694E+02 -0.17510775479E+02 -0.15042736846E+02  0.27300824952E+02  0.00000000000E+00 0. -1.
</event>
<event>
 7    1  0.2655656E-009  0.4778727E+02  0.7816164E-02  0.1312668E+00
        -11   -1    0    0    0    0  0.00000000000E+00  0.00000000000E+00  0.45593999997E+02  0.45594000000E+02  0.51100000000E-03 0.  1.
         11   -1    0    0    0    0 -0.00000000000E+00 -0.00000000000E+00 -0.45593999997E+02  0.45594000000E+02  0.51100000000E-03 0. -1.
    9900012    2    1    2    0    0  0.14840664561E+02 -0.35671004786E+02 -0.19772645946E+02  0.47787269191E+02  0.19999991549E+02 0.  0.
        -12    1    1    2    0    0 -0.14840664561E+02  0.35671004786E+02  0.19772645946E+02  0.43400730809E+02  0.00000000000E+00 0.  1.
         11    1    3    3    0    0 -0.11191738413E+01  0.12720183531E+01 -0.39173888060E+01  0.42680810789E+01  0.51100000000E-03 0. -1.
        -11    1    3    3    0    0  0.90047254608E+01 -0.17248503314E+02 -0.55792202268E+01  0.20241631500E+02  0.51100000000E-03 0.  1.
         12    1    3    3    0    0  0.69551129417E+01 -0.19694519825E+02 -0.10276036913E+02  0.23277556612E+02  0.00000000000E+00 0. -1.
</event>
<event>
 7    1  0.2655656E-009  0.4778727E+02  0.7816164E-02  0.1312668E+00
        -11   -1    0    0    0    0  0.00000000000E+00  0.00000000000E+00  0.45593999997E+02  0.45594000000E+02  0.51100000000E-03 0.  1.
         11   -1    0    0    0    0 -0.00000000000E+00 -0.00000000000E+00 -0.45593999997E+02  0.45594000000E+02  0.51100000000E-03 0. -1.
    9900012    2    1    2    0    0  0.28639201393E+02  0.18545397475E+02 -0.26823276506E+02  0.47787265139E+02  0.19999973075E+02 0.  0.
        -12    1    1    2    0    0 -0.28639201393E+02 -0.18545397475E+02  0.26823276506E+02  0.43400734861E+02  0.00000000000E+00 0.  1.
         11    1    3    3    0    0  0.13337830477E+02  0.64572269754E+01 -0.21919088115E+02  0.26458267633E+02  0.51100000000E-03 0. -1.
        -11    1    3    3    0    0  0.15909131612E+02  0.11250927416E+02 -0.53437142884E+01  0.20204928088E+02  0.51100000000E-03 0.  1.
         12    1    3    3    0    0 -0.60776069602E+00  0.83724308316E+00  0.43952589756E+00  0.11240694189E+01  0.00000000000E+00 0. -1.
</event>
<event>
 7    1  0.2655656E-009  0.4778727E+02  0.7816164E-02  0.1312668E+00
        -11   -1    0    0    0    0  0.00000000000E+00  0.00000000000E+00  0.45593999997E+02  0.45594000000E+02  0.51100000000E-03 0.  1.
         11   -1    0    0    0    0 -0.00000000000E+00 -0.00000000000E+00 -0.45593999997E+02  0.45594000000E+02  0.51100000000E-03 0. -1.
    9900012    2    1    2    0    0  0.18602392946E+02 -0.69159181876E+00 -0.39205817635E+02  0.47787268912E+02  0.19999990276E+02 0.  0.
        -12    1    1    2    0    0 -0.18602392946E+02  0.69159181876E+00  0.39205817635E+02  0.43400731088E+02  0.00000000000E+00 0.  1.
         11    1    3    3    0    0  0.12397434545E+02  0.47318264037E+00 -0.15965947236E+02  0.20219588435E+02  0.51100000000E-03 0. -1.
        -11    1    3    3    0    0 -0.38869049752E+01 -0.24952914985E+01 -0.64537866899E+01  0.79363639564E+01  0.51100000000E-03 0.  1.
        -12    1    3    3    0    0  0.10091863376E+02  0.13305170393E+01 -0.16786083710E+02  0.19631316520E+02  0.00000000000E+00 0.  1.
</event>
<event>
 7    1  0.2655656E-009  0.4778727E+02  0.7816164E-02  0.1312668E+00
        -11   -1    0    0    0    0  0.00000000000E+00  0.00000000000E+00  0.45593999997E+02  0.45594000000E+02  0.51100000000E-03 0.  1.
         11   -1    0    0    0    0 -0.00000000000E+00 -0.00000000000E+00 -0.45593999997E+02  0.45594000000E+02  0.51100000000E-03 0. -1.
    9900012    2    1    2    0    0  0.11447168808E+02 -0.13233709777E+02 -0.39717180152E+02  0.47787272502E+02  0.20000006644E+02 0.  0.
        -12    1    1    2    0    0 -0.11447168808E+02  0.13233709777E+02  0.39717180152E+02  0.43400727498E+02  0.00000000000E+00 0.  1.
         11    1    3    3    0    0  0.93048173701E+01 -0.68454461648E+01 -0.83552319664E+01  0.14256565539E+02  0.51100000000E-03 0. -1.
        -11    1    3    3    0    0 -0.36364292456E+01 -0.41659528501E+01 -0.17399841867E+02  0.18257417070E+02  0.51100000000E-03 0.  1.
         12    1    3    3    0    0  0.57787806833E+01 -0.22223107619E+01 -0.13962106318E+02  0.15273289893E+02  0.00000000000E+00 0. -1.
</event>
<event>
 7    1  0.2655656E-009  0.4778727E+02  0.7816164E-02  0.1312668E+00
        -11   -1    0    0    0    0  0.00000000000E+00  0.00000000000E+00  0.45593999997E+02  0.45594000000E+02  0.51100000000E-03 0. -1.
         11   -1    0    0    0    0 -0.00000000000E+00 -0.00000000000E+00 -0.45593999997E+02  0.45594000000E+02  0.51100000000E-03 0.  1.
    9900012    2    1    2    0    0  0.25455994595E+02  0.18341387696E+02  0.29986816083E+02  0.47787270718E+02  0.19999998511E+02 0.  0.
        -12    1    1    2    0    0 -0.25455994595E+02 -0.18341387696E+02 -0.29986816083E+02  0.43400729282E+02  0.00000000000E+00 0.  1.
         11    1    3    3    0    0  0.42997012845E+01  0.44805052408E+01  0.71964514356E+01  0.95053286043E+01  0.51100000000E-03 0. -1.
        -11    1    3    3    0    0  0.20949067546E+02  0.14873723131E+02  0.13668865809E+02  0.29102043976E+02  0.51100000000E-03 0.  1.
        -12    1    3    3    0    0  0.20722576446E+00 -0.10128406758E+01  0.91214988390E+01  0.91798981378E+01  0.00000000000E+00 0.  1.
</event>
<event>
 7    1  0.2655656E-009  0.4778727E+02  0.7816164E-02  0.1312668E+00
        -11   -1    0    0    0    0  0.00000000000E+00  0.00000000000E+00  0.45593999997E+02  0.45594000000E+02  0.51100000000E-03 0. -1.
         11   -1    0    0    0    0 -0.00000000000E+00 -0.00000000000E+00 -0.45593999997E+02  0.45594000000E+02  0.51100000000E-03 0.  1.
    9900012    2    1    2    0    0 -0.27233912482E+02  0.33712733661E+02  0.23214242318E+01  0.47787269472E+02  0.19999992829E+02 0.  0.
        -12    1    1    2    0    0  0.27233912482E+02 -0.33712733661E+02 -0.23214242318E+01  0.43400730528E+02  0.00000000000E+00 0.  1.
         11    1    3    3    0    0 -0.77542630896E+01  0.35812941737E+01 -0.13913461398E+01  0.86539071155E+01  0.51100000000E-03 0. -1.
        -11    1    3    3    0    0 -0.18032879742E+02  0.30197625483E+02  0.25838063222E-01  0.35172176567E+02  0.51100000000E-03 0.  1.
        -12    1    3    3    0    0 -0.14467696503E+01 -0.66185996530E-01  0.36869323084E+01  0.39611857888E+01  0.00000000000E+00 0.  1.
</event>
<event>
 7    1  0.2655656E-009  0.4778728E+02  0.7816164E-02  0.1312668E+00
        -11   -1    0    0    0    0  0.00000000000E+00  0.00000000000E+00  0.45593999997E+02  0.45594000000E+02  0.51100000000E-03 0. -1.
         11   -1    0    0    0    0 -0.00000000000E+00 -0.00000000000E+00 -0.45593999997E+02  0.45594000000E+02  0.51100000000E-03 0.  1.
    9900012    2    1    2    0    0  0.64019351109E+01 -0.39205095929E+02  0.17481354495E+02  0.47787284857E+02  0.20000062976E+02 0.  0.
        -12    1    1    2    0    0 -0.64019351109E+01  0.39205095929E+02 -0.17481354495E+02  0.43400715143E+02  0.00000000000E+00 0.  1.
         11    1    3    3    0    0  0.35350102530E+01  0.10012848668E+01  0.79396024469E+00  0.37588884001E+01  0.51100000000E-03 0. -1.
        -11    1    3    3    0    0  0.40456030842E+01 -0.38216377132E+02  0.15798754894E+02  0.41550680402E+02  0.51100000000E-03 0.  1.
         12    1    3    3    0    0 -0.11786782263E+01 -0.19900036637E+01  0.88863935636E+00  0.24777160549E+01  0.00000000000E+00 0. -1.
</event>
<event>
 7    1  0.2655656E-009  0.4778727E+02  0.7816164E-02  0.1312668E+00
        -11   -1    0    0    0    0  0.00000000000E+00  0.00000000000E+00  0.45593999997E+02  0.45594000000E+02  0.51100000000E-03 0. -1.
         11   -1    0    0    0    0 -0.00000000000E+00 -0.00000000000E+00 -0.45593999997E+02  0.45594000000E+02  0.51100000000E-03 0.  1.
    9900012    2    1    2    0    0 -0.92037490489E+01 -0.35531083783E+02  0.23161523187E+02  0.47787273420E+02  0.20000010831E+02 0.  0.
        -12    1    1    2    0    0  0.92037490489E+01  0.35531083783E+02 -0.23161523187E+02  0.43400726580E+02  0.00000000000E+00 0.  1.
         11    1    3    3    0    0 -0.13671972739E+02 -0.33207664071E+02  0.16914465709E+02  0.39695981435E+02  0.51100000000E-03 0. -1.
        -11    1    3    3    0    0  0.37429090024E+01 -0.18042595425E+01  0.44698673525E+01  0.61028218642E+01  0.51100000000E-03 0.  1.
         12    1    3    3    0    0  0.72531468782E+00 -0.51916016945E+00  0.17771901254E+01  0.19884701204E+01  0.00000000000E+00 0. -1.
</event>
<event>
 7    1  0.2655656E-009  0.4778727E+02  0.7816164E-02  0.1312668E+00
        -11   -1    0    0    0    0  0.00000000000E+00  0.00000000000E+00  0.45593999997E+02  0.45594000000E+02  0.51100000000E-03 0. -1.
         11   -1    0    0    0    0 -0.00000000000E+00 -0.00000000000E+00 -0.45593999997E+02  0.45594000000E+02  0.51100000000E-03 0.  1.
    9900012    2    1    2    0    0 -0.29157558413E+02  0.30832558512E+02  0.91001823216E+01  0.47787271949E+02  0.20000004126E+02 0.  0.
        -12    1    1    2    0    0  0.29157558413E+02 -0.30832558512E+02 -0.91001823216E+01  0.43400728051E+02  0.00000000000E+00 0.  1.
         11    1    3    3    0    0 -0.49960917258E+01  0.12011035296E+02 -0.11870722555E+01  0.13062734867E+02  0.51100000000E-03 0. -1.
        -11    1    3    3    0    0 -0.12086763408E+02  0.15525075183E+02  0.21432631522E+01  0.19791699935E+02  0.51100000000E-03 0.  1.
         12    1    3    3    0    0 -0.12074703280E+02  0.32964480330E+01  0.81439914249E+01  0.14932837147E+02  0.00000000000E+00 0. -1.
</event>
<event>
 7    1  0.2655656E-009  0.4778727E+02  0.7816164E-02  0.1312668E+00
        -11   -1    0    0    0    0  0.00000000000E+00  0.00000000000E+00  0.45593999997E+02  0.45594000000E+02  0.51100000000E-03 0.  1.
         11   -1    0    0    0    0 -0.00000000000E+00 -0.00000000000E+00 -0.45593999997E+02  0.45594000000E+02  0.51100000000E-03 0. -1.
    9900012    2    1    2    0    0 -0.38645960564E+02 -0.12430159234E+01 -0.19712128968E+02  0.47787269765E+02  0.19999994164E+02 0.  0.
        -12    1    1    2    0    0  0.38645960564E+02  0.12430159234E+01  0.19712128968E+02  0.43400730235E+02  0.00000000000E+00 0.  1.
         11    1    3    3    0    0 -0.14358697743E+02  0.10412960734E+01 -0.90372763678E+01  0.16997907601E+02  0.51100000000E-03 0. -1.
        -11    1    3    3    0    0 -0.14563007996E+02 -0.88025670194E+01 -0.78851091758E+01  0.18754768327E+02  0.51100000000E-03 0.  1.
        -12    1    3    3    0    0 -0.97242548251E+01  0.65182550226E+01 -0.27897434243E+01  0.12034593837E+02  0.00000000000E+00 0.  1.
</event>
<event>
 7    1  0.2655656E-009  0.4778727E+02  0.7816164E-02  0.1312668E+00
        -11   -1    0    0    0    0  0.00000000000E+00  0.00000000000E+00  0.45593999997E+02  0.45594000000E+02  0.51100000000E-03 0. -1.
         11   -1    0    0    0    0 -0.00000000000E+00 -0.00000000000E+00 -0.45593999997E+02  0.45594000000E+02  0.51100000000E-03 0.  1.
    9900012    2    1    2    0    0  0.13739985954E+02  0.44688485247E+01  0.40925122222E+02  0.47787269015E+02  0.19999990746E+02 0.  0.
        -12    1    1    2    0    0 -0.13739985954E+02 -0.44688485247E+01 -0.40925122222E+02  0.43400730985E+02  0.00000000000E+00 0.  1.
         11    1    3    3    0    0  0.94181895526E+01  0.47103379745E+01  0.25501682461E+02  0.27590313280E+02  0.51100000000E-03 0. -1.
        -11    1    3    3    0    0  0.54539963859E+01  0.10112359831E+01  0.95286775408E+00  0.56281997130E+01  0.51100000000E-03 0.  1.
        -12    1    3    3    0    0 -0.11321999844E+01 -0.12527254328E+01  0.14470572007E+02  0.14568756021E+02  0.00000000000E+00 0.  1.
</event>
<event>
 7    1  0.2655656E-009  0.4778727E+02  0.7816164E-02  0.1312668E+00
        -11   -1    0    0    0    0  0.00000000000E+00  0.00000000000E+00  0.45593999997E+02  0.45594000000E+02  0.51100000000E-03 0.  1.
         11   -1    0    0    0    0 -0.00000000000E+00 -0.00000000000E+00 -0.45593999997E+02  0.45594000000E+02  0.51100000000E-03 0. -1.
    9900012    2    1    2    0    0  0.28427304007E+02 -0.11687894544E+02 -0.30641550050E+02  0.47787273261E+02  0.20000010107E+02 0.  0.
        -12    1    1    2    0    0 -0.28427304007E+02  0.11687894544E+02  0.30641550050E+02  0.43400726739E+02  0.00000000000E+00 0.  1.
         11    1    3    3    0    0  0.21672756362E+02 -0.13377155017E+02 -0.29012526650E+02  0.38605483387E+02  0.51100000000E-03 0. -1.
        -11    1    3    3    0    0  0.27082349908E+01  0.36216246077E+01 -0.11906808257E+01  0.46763685328E+01  0.51100000000E-03 0.  1.
         12    1    3    3    0    0  0.40463126547E+01 -0.19323641354E+01 -0.43834257396E+00  0.45054213414E+01  0.00000000000E+00 0. -1.
</event>
<event>
 7    1  0.2655656E-009  0.4778727E+02  0.7816164E-02  0.1312668E+00
        -11   -1    0    0    0    0  0.00000000000E+00  0.00000000000E+00  0.45593999997E+02  0.45594000000E+02  0.51100000000E-03 0.  1.
         11   -1    0    0    0    0 -0.00000000000E+00 -0.00000000000E+00 -0.45593999997E+02  0.45594000000E+02  0.51100000000E-03 0. -1.
    9900012    2    1    2    0    0  0.41045343270E+02 -0.11068958415E+02 -0.87396254718E+01  0.47787273072E+02  0.20000009242E+02 0.  0.
        -12    1    1    2    0    0 -0.41045343270E+02  0.11068958415E+02  0.87396254718E+01  0.43400726928E+02  0.00000000000E+00 0.  1.
         11    1    3    3    0    0  0.11271442799E+02  0.90206058065E+00 -0.50124717495E+01  0.12368670477E+02  0.51100000000E-03 0. -1.
        -11    1    3    3    0    0  0.56881103878E+01 -0.34076650076E+01 -0.70061181754E+01  0.96463709620E+01  0.51100000000E-03 0.  1.
        -12    1    3    3    0    0  0.24085790083E+02 -0.85633539878E+01  0.32789644531E+01  0.25772231632E+02  0.00000000000E+00 0.  1.
</event>
<event>
 7    1  0.2655656E-009  0.4778726E+02  0.7816164E-02  0.1312668E+00
        -11   -1    0    0    0    0  0.00000000000E+00  0.00000000000E+00  0.45593999997E+02  0.45594000000E+02  0.51100000000E-03 0.  1.
         11   -1    0    0    0    0 -0.00000000000E+00 -0.00000000000E+00 -0.45593999997E+02  0.45594000000E+02  0.51100000000E-03 0. -1.
    9900012    2    1    2    0    0  0.27168718871E+01  0.30721583905E+02 -0.30535673107E+02  0.47787257580E+02  0.19999938610E+02 0.  0.
        -12    1    1    2    0    0 -0.27168718871E+01 -0.30721583905E+02  0.30535673107E+02  0.43400742420E+02  0.00000000000E+00 0.  1.
         11    1    3    3    0    0 -0.34535754130E+01  0.30155074787E+01 -0.10983002790E+02  0.11901546918E+02  0.51100000000E-03 0. -1.
        -11    1    3    3    0    0  0.65302677064E+01  0.13664358465E+02 -0.57693815736E+01  0.16206321377E+02  0.51100000000E-03 0.  1.
         12    1    3    3    0    0 -0.35982040633E+00  0.14041717962E+02 -0.13783288743E+02  0.19679389285E+02  0.00000000000E+00 0. -1.
</event>
<event>
 7    1  0.2655656E-009  0.4778727E+02  0.7816164E-02  0.1312668E+00
        -11   -1    0    0    0    0  0.00000000000E+00  0.00000000000E+00  0.45593999997E+02  0.45594000000E+02  0.51100000000E-03 0.  1.
         11   -1    0    0    0    0 -0.00000000000E+00 -0.00000000000E+00 -0.45593999997E+02  0.45594000000E+02  0.51100000000E-03 0. -1.
    9900012    2    1    2    0    0  0.41757661693E+02 -0.40929486617E+01 -0.11098137974E+02  0.47787271834E+02  0.20000003601E+02 0.  0.
        -12    1    1    2    0    0 -0.41757661693E+02  0.40929486617E+01  0.11098137974E+02  0.43400728166E+02  0.00000000000E+00 0.  1.
         11    1    3    3    0    0  0.16960184501E+02 -0.32415648593E+01 -0.65206016024E+01  0.18457352101E+02  0.51100000000E-03 0. -1.
        -11    1    3    3    0    0  0.20359095853E+02  0.22648780545E+01 -0.89588788554E+01  0.22358085051E+02  0.51100000000E-03 0.  1.
        -12    1    3    3    0    0  0.44383813390E+01 -0.31162618569E+01  0.43813424843E+01  0.69718346822E+01  0.00000000000E+00 0.  1.
</event>
<event>
 7    1  0.2655656E-009  0.4778727E+02  0.7816164E-02  0.1312668E+00
        -11   -1    0    0    0    0  0.00000000000E+00  0.00000000000E+00  0.45593999997E+02  0.45594000000E+02  0.51100000000E-03 0. -1.
         11   -1    0    0    0    0 -0.00000000000E+00 -0.00000000000E+00 -0.45593999997E+02  0.45594000000E+02  0.51100000000E-03 0.  1.
    9900012    2    1    2    0    0 -0.41685304689E+02  0.49558104000E+01  0.11018100393E+02  0.47787271665E+02  0.20000002829E+02 0.  0.
        -12    1    1    2    0    0  0.41685304689E+02 -0.49558104000E+01 -0.11018100393E+02  0.43400728335E+02  0.00000000000E+00 0.  1.
         11    1    3    3    0    0 -0.15546584667E+02  0.93106986402E+01  0.83032364763E+01  0.19933116671E+02  0.51100000000E-03 0. -1.
        -11    1    3    3    0    0 -0.57598835977E+01  0.21342837195E+01 -0.75013316359E+00  0.61882247921E+01  0.51100000000E-03 0.  1.
         12    1    3    3    0    0 -0.20378836425E+02 -0.64891719597E+01  0.34649970802E+01  0.21665930202E+02  0.00000000000E+00 0. -1.
</event>
<event>
 7    1  0.2655656E-009  0.4778727E+02  0.7816164E-02  0.1312668E+00
        -11   -1    0    0    0    0  0.00000000000E+00  0.00000000000E+00  0.45593999997E+02  0.45594000000E+02  0.51100000000E-03 0.  1.
         11   -1    0    0    0    0 -0.00000000000E+00 -0.00000000000E+00 -0.45593999997E+02  0.45594000000E+02  0.51100000000E-03 0. -1.
    9900012    2    1    2    0    0 -0.21347386944E+02  0.32679764852E+02 -0.18972224656E+02  0.47787271106E+02  0.20000000282E+02 0.  0.
        -12    1    1    2    0    0  0.21347386944E+02 -0.32679764852E+02  0.18972224656E+02  0.43400728894E+02  0.00000000000E+00 0.  1.
         11    1    3    3    0    0 -0.76767224520E+01  0.79551355882E+01 -0.60918885572E+01  0.12622494060E+02  0.51100000000E-03 0. -1.
        -11    1    3    3    0    0 -0.13339657306E+02  0.95550910398E+01 -0.20794411944E+01  0.16539960634E+02  0.51100000000E-03 0.  1.
        -12    1    3    3    0    0 -0.33100718563E+00  0.15169538224E+02 -0.10800894905E+02  0.18624816413E+02  0.00000000000E+00 0.  1.
</event>
<event>
 7    1  0.2655656E-009  0.4778727E+02  0.7816164E-02  0.1312668E+00
        -11   -1    0    0    0    0  0.00000000000E+00  0.00000000000E+00  0.45593999997E+02  0.45594000000E+02  0.51100000000E-03 0.  1.
         11   -1    0    0    0    0 -0.00000000000E+00 -0.00000000000E+00 -0.45593999997E+02  0.45594000000E+02  0.51100000000E-03 0. -1.
    9900012    2    1    2    0    0 -0.35316826698E+02 -0.21562119728E+02 -0.13092749318E+02  0.47787270284E+02  0.19999996534E+02 0.  0.
        -12    1    1    2    0    0  0.35316826698E+02  0.21562119728E+02  0.13092749318E+02  0.43400729716E+02  0.00000000000E+00 0.  1.
         11    1    3    3    0    0 -0.29076412011E+02 -0.12500241038E+02 -0.72085201459E+01  0.32460075853E+02  0.51100000000E-03 0. -1.
        -11    1    3    3    0    0 -0.45197844774E+01 -0.10147506803E+02 -0.25124224859E+01  0.11389144527E+02  0.51100000000E-03 0.  1.
         12    1    3    3    0    0 -0.17206302097E+01  0.10856281140E+01 -0.33718066858E+01  0.39380499041E+01  0.00000000000E+00 0. -1.
</event>
<event>
 7    1  0.2655656E-009  0.4778727E+02  0.7816164E-02  0.1312668E+00
        -11   -1    0    0    0    0  0.00000000000E+00  0.00000000000E+00  0.45593999997E+02  0.45594000000E+02  0.51100000000E-03 0.  1.
         11   -1    0    0    0    0 -0.00000000000E+00 -0.00000000000E+00 -0.45593999997E+02  0.45594000000E+02  0.51100000000E-03 0. -1.
    9900012    2    1    2    0    0 -0.20595120034E+02 -0.21033714991E+02 -0.31891177786E+02  0.47787270097E+02  0.19999995681E+02 0.  0.
        -12    1    1    2    0    0  0.20595120034E+02  0.21033714991E+02  0.31891177786E+02  0.43400729903E+02  0.00000000000E+00 0.  1.
         11    1    3    3    0    0 -0.14527200314E+02 -0.13232709888E+02 -0.24688211881E+02  0.31553953256E+02  0.51100000000E-03 0. -1.
        -11    1    3    3    0    0 -0.23253710284E+01 -0.79113269540E+01 -0.14910697965E+00  0.82473436781E+01  0.51100000000E-03 0.  1.
         12    1    3    3    0    0 -0.37425486917E+01  0.11032185113E+00 -0.70538589252E+01  0.79859731629E+01  0.00000000000E+00 0. -1.
</event>
<event>
 7    1  0.2655656E-009  0.4778727E+02  0.7816164E-02  0.1312668E+00
        -11   -1    0    0    0    0  0.00000000000E+00  0.00000000000E+00  0.45593999997E+02  0.45594000000E+02  0.51100000000E-03 0.  1.
         11   -1    0    0    0    0 -0.00000000000E+00 -0.00000000000E+00 -0.45593999997E+02  0.45594000000E+02  0.51100000000E-03 0. -1.
    9900012    2    1    2    0    0 -0.13320017495E+02  0.40681365243E+02 -0.71573168330E+01  0.47787268113E+02  0.19999986634E+02 0.  0.
        -12    1    1    2    0    0  0.13320017495E+02 -0.40681365243E+02  0.71573168330E+01  0.43400731887E+02  0.00000000000E+00 0.  1.
         11    1    3    3    0    0 -0.74882628013E+01  0.86703863652E+01 -0.96563037479E+00  0.11497048394E+02  0.51100000000E-03 0. -1.
        -11    1    3    3    0    0  0.44931073511E+00  0.26002872921E+02 -0.71457355030E+00  0.26016569641E+02  0.51100000000E-03 0.  1.
        -12    1    3    3    0    0 -0.62810654285E+01  0.60081059572E+01 -0.54771129079E+01  0.10273650078E+02  0.00000000000E+00 0.  1.
</event>
<event>
 7    1  0.2655656E-009  0.4778727E+02  0.7816164E-02  0.1312668E+00
        -11   -1    0    0    0    0  0.00000000000E+00  0.00000000000E+00  0.45593999997E+02  0.45594000000E+02  0.51100000000E-03 0.  1.
         11   -1    0    0    0    0 -0.00000000000E+00 -0.00000000000E+00 -0.45593999997E+02  0.45594000000E+02  0.51100000000E-03 0. -1.
    9900012    2    1    2    0    0  0.22149565360E+01 -0.42655342971E+02 -0.76966751723E+01  0.47787272758E+02  0.20000007811E+02 0.  0.
        -12    1    1    2    0    0 -0.22149565360E+01  0.42655342971E+02  0.76966751723E+01  0.43400727242E+02  0.00000000000E+00 0.  1.
         11    1    3    3    0    0 -0.49912201456E+00 -0.19449368268E+01 -0.18446149965E+01  0.27266291996E+01  0.51100000000E-03 0. -1.
        -11    1    3    3    0    0  0.70739541238E+01 -0.54732143877E+01  0.63660148325E+00  0.89667253994E+01  0.51100000000E-03 0.  1.
        -12    1    3    3    0    0 -0.43598755732E+01 -0.35237191757E+02 -0.64886616591E+01  0.36093918159E+02  0.00000000000E+00 0.  1.
</event>
<event>
 7    1  0.2655656E-009  0.4778727E+02  0.7816164E-02  0.1312668E+00
        -11   -1    0    0    0    0  0.00000000000E+00  0.00000000000E+00  0.45593999997E+02  0.45594000000E+02  0.51100000000E-03 0.  1.
         11   -1    0    0    0    0 -0.00000000000E+00 -0.00000000000E+00 -0.45593999997E+02  0.45594000000E+02  0.51100000000E-03 0. -1.
    9900012    2    1    2    0    0  0.31389930874E+02 -0.10995295230E+02 -0.27881879654E+02  0.47787268549E+02  0.19999988622E+02 0.  0.
        -12    1    1    2    0    0 -0.31389930874E+02  0.10995295230E+02  0.27881879654E+02  0.43400731451E+02  0.00000000000E+00 0.  1.
         11    1    3    3    0    0  0.19343718471E+02 -0.10368536411E+02 -0.12701793883E+02  0.25357869779E+02  0.51100000000E-03 0. -1.
        -11    1    3    3    0    0  0.63881418603E+01  0.52273401426E+01 -0.63140409800E+01  0.10392331555E+02  0.51100000000E-03 0.  1.
        -12    1    3    3    0    0  0.56580705427E+01 -0.58540989611E+01 -0.88660447903E+01  0.12037067215E+02  0.00000000000E+00 0.  1.
</event>
<event>
 7    1  0.2655656E-009  0.4778727E+02  0.7816164E-02  0.1312668E+00
        -11   -1    0    0    0    0  0.00000000000E+00  0.00000000000E+00  0.45593999997E+02  0.45594000000E+02  0.51100000000E-03 0.  1.
         11   -1    0    0    0    0 -0.00000000000E+00 -0.00000000000E+00 -0.45593999997E+02  0.45594000000E+02  0.51100000000E-03 0. -1.
    9900012    2    1    2    0    0  0.31834608983E+02  0.55780234193E+01 -0.28966648289E+02  0.47787269736E+02  0.19999994034E+02 0.  0.
        -12    1    1    2    0    0 -0.31834608983E+02 -0.55780234193E+01  0.28966648289E+02  0.43400730264E+02  0.00000000000E+00 0.  1.
         11    1    3    3    0    0  0.22775695482E+02  0.51780681360E+01 -0.24334023820E+02  0.33729651790E+02  0.51100000000E-03 0. -1.
        -11    1    3    3    0    0 -0.17279007078E+01  0.16595474277E+01 -0.11105874309E+01  0.26406709798E+01  0.51100000000E-03 0.  1.
         12    1    3    3    0    0  0.10786814208E+02 -0.12595921444E+01 -0.35220370383E+01  0.11416946967E+02  0.00000000000E+00 0. -1.
</event>
<event>
 7    1  0.2655656E-009  0.4778727E+02  0.7816164E-02  0.1312668E+00
        -11   -1    0    0    0    0  0.00000000000E+00  0.00000000000E+00  0.45593999997E+02  0.45594000000E+02  0.51100000000E-03 0. -1.
         11   -1    0    0    0    0 -0.00000000000E+00 -0.00000000000E+00 -0.45593999997E+02  0.45594000000E+02  0.51100000000E-03 0.  1.
    9900012    2    1    2    0    0 -0.27121338172E+02  0.33823990758E+02  0.19984656629E+01  0.47787271895E+02  0.20000003878E+02 0.  0.
        -12    1    1    2    0    0  0.27121338172E+02 -0.33823990758E+02 -0.19984656629E+01  0.43400728105E+02  0.00000000000E+00 0.  1.
         11    1    3    3    0    0 -0.57656433791E+01  0.65143477852E+01  0.50184398426E+01  0.10043112533E+02  0.51100000000E-03 0. -1.
        -11    1    3    3    0    0 -0.17005932114E+02  0.28328991450E+02 -0.36089375776E+01  0.33237898765E+02  0.51100000000E-03 0.  1.
        -12    1    3    3    0    0 -0.43497626788E+01 -0.10193484768E+01  0.58896339787E+00  0.45062605964E+01  0.00000000000E+00 0.  1.
</event>
<event>
 7    1  0.2655656E-009  0.4778726E+02  0.7816164E-02  0.1312668E+00
        -11   -1    0    0    0    0  0.00000000000E+00  0.00000000000E+00  0.45593999997E+02  0.45594000000E+02  0.51100000000E-03 0.  1.
         11   -1    0    0    0    0 -0.00000000000E+00 -0.00000000000E+00 -0.45593999997E+02  0.45594000000E+02  0.51100000000E-03 0. -1.
    9900012    2    1    2    0    0 -0.31168504302E+02  0.25846735204E+02 -0.15623527013E+02  0.47787262939E+02  0.19999963045E+02 0.  0.
        -12    1    1    2    0    0  0.31168504302E+02 -0.25846735204E+02  0.15623527013E+02  0.43400737061E+02  0.00000000000E+00 0.  1.
         11    1    3    3    0    0 -0.13846984949E+02  0.19780172009E+02 -0.51668074231E+01  0.24691903452E+02  0.51100000000E-03 0. -1.
        -11    1    3    3    0    0 -0.69062078979E+01 -0.64786395920E+00 -0.77693499814E+01  0.10415288505E+02  0.51100000000E-03 0.  1.
         12    1    3    3    0    0 -0.10415311455E+02  0.67144271544E+01 -0.26873696083E+01  0.12680070983E+02  0.00000000000E+00 0. -1.
</event>
<event>
 7    1  0.2655656E-009  0.4778728E+02  0.7816164E-02  0.1312668E+00
        -11   -1    0    0    0    0  0.00000000000E+00  0.00000000000E+00  0.45593999997E+02  0.45594000000E+02  0.51100000000E-03 0.  1.
         11   -1    0    0    0    0 -0.00000000000E+00 -0.00000000000E+00 -0.45593999997E+02  0.45594000000E+02  0.51100000000E-03 0. -1.
    9900012    2    1    2    0    0  0.41838180165E+02  0.10910260358E+02  0.37624151481E+01  0.47787275716E+02  0.20000021300E+02 0.  0.
        -12    1    1    2    0    0 -0.41838180165E+02 -0.10910260358E+02 -0.37624151481E+01  0.43400724284E+02  0.00000000000E+00 0.  1.
         11    1    3    3    0    0  0.12155850419E+02  0.37522683391E+01  0.33685067615E+01  0.13160207261E+02  0.51100000000E-03 0. -1.
        -11    1    3    3    0    0  0.19738822740E+02 -0.30260977953E+01  0.28868513456E+01  0.20177024111E+02  0.51100000000E-03 0.  1.
        -12    1    3    3    0    0  0.99435070061E+01  0.10184089815E+02 -0.24929429590E+01  0.14450044343E+02  0.00000000000E+00 0.  1.
</event>
<event>
 7    1  0.2655656E-009  0.4778727E+02  0.7816164E-02  0.1312668E+00
        -11   -1    0    0    0    0  0.00000000000E+00  0.00000000000E+00  0.45593999997E+02  0.45594000000E+02  0.51100000000E-03 0. -1.
         11   -1    0    0    0    0 -0.00000000000E+00 -0.00000000000E+00 -0.45593999997E+02  0.45594000000E+02  0.51100000000E-03 0.  1.
    9900012    2    1    2    0    0 -0.10337749645E+02 -0.41677856738E+02  0.63016178603E+01  0.47787271923E+02  0.20000004004E+02 0.  0.
        -12    1    1    2    0    0  0.10337749645E+02  0.41677856738E+02 -0.63016178603E+01  0.43400728077E+02  0.00000000000E+00 0.  1.
         11    1    3    3    0    0  0.15794774394E+01 -0.46378464449E+01 -0.40193617940E+01  0.63371632550E+01  0.51100000000E-03 0. -1.
        -11    1    3    3    0    0 -0.59021619924E+01 -0.11808470059E+02  0.79335868414E+01  0.15401859685E+02  0.51100000000E-03 0.  1.
         12    1    3    3    0    0 -0.60150650917E+01 -0.25231540234E+02  0.23873928129E+01  0.26048248983E+02  0.00000000000E+00 0. -1.
</event>
<event>
 7    1  0.2655656E-009  0.4778727E+02  0.7816164E-02  0.1312668E+00
        -11   -1    0    0    0    0  0.00000000000E+00  0.00000000000E+00  0.45593999997E+02  0.45594000000E+02  0.51100000000E-03 0. -1.
         11   -1    0    0    0    0 -0.00000000000E+00 -0.00000000000E+00 -0.45593999997E+02  0.45594000000E+02  0.51100000000E-03 0.  1.
    9900012    2    1    2    0    0  0.22851783077E+02  0.35576981730E+02 -0.97825323369E+01  0.47787267774E+02  0.19999985090E+02 0.  0.
        -12    1    1    2    0    0 -0.22851783077E+02 -0.35576981730E+02  0.97825323369E+01  0.43400732226E+02  0.00000000000E+00 0.  1.
         11    1    3    3    0    0  0.17750847801E+02  0.20866777005E+02  0.26479903962E+01  0.27523205366E+02  0.51100000000E-03 0. -1.
        -11    1    3    3    0    0  0.35346159545E+01  0.13389885623E+02 -0.99793659899E+01  0.17069572132E+02  0.51100000000E-03 0.  1.
         12    1    3    3    0    0  0.15663193212E+01  0.13203191027E+01 -0.24511567432E+01  0.31944902768E+01  0.00000000000E+00 0. -1.
</event>
<event>
 7    1  0.2655656E-009  0.4778727E+02  0.7816164E-02  0.1312668E+00
        -11   -1    0    0    0    0  0.00000000000E+00  0.00000000000E+00  0.45593999997E+02  0.45594000000E+02  0.51100000000E-03 0.  1.
         11   -1    0    0    0    0 -0.00000000000E+00 -0.00000000000E+00 -0.45593999997E+02  0.45594000000E+02  0.51100000000E-03 0. -1.
    9900012    2    1    2    0    0 -0.38842867457E+02 -0.18559805188E+02 -0.55125956812E+01  0.47787269223E+02  0.19999991695E+02 0.  0.
        -12    1    1    2    0    0  0.38842867457E+02  0.18559805188E+02  0.55125956812E+01  0.43400730777E+02  0.00000000000E+00 0.  1.
         11    1    3    3    0    0 -0.18226958861E+02 -0.45009163057E+01 -0.10940420036E+02  0.21729543662E+02  0.51100000000E-03 0. -1.
        -11    1    3    3    0    0 -0.15032932836E+02 -0.73643676370E+01  0.29746536972E+01  0.17002104141E+02  0.51100000000E-03 0.  1.
         12    1    3    3    0    0 -0.55829757593E+01 -0.66945212448E+01  0.24531706576E+01  0.90556214199E+01  0.00000000000E+00 0. -1.
</event>
<event>
 7    1  0.2655656E-009  0.4778727E+02  0.7816164E-02  0.1312668E+00
        -11   -1    0    0    0    0  0.00000000000E+00  0.00000000000E+00  0.45593999997E+02  0.45594000000E+02  0.51100000000E-03 0.  1.
         11   -1    0    0    0    0 -0.00000000000E+00 -0.00000000000E+00 -0.45593999997E+02  0.45594000000E+02  0.51100000000E-03 0. -1.
    9900012    2    1    2    0    0  0.31287006860E+02 -0.92562492144E+01 -0.28619373258E+02  0.47787268745E+02  0.19999989517E+02 0.  0.
        -12    1    1    2    0    0 -0.31287006860E+02  0.92562492144E+01  0.28619373258E+02  0.43400731255E+02  0.00000000000E+00 0.  1.
         11    1    3    3    0    0  0.18802221777E+02 -0.82552832182E+01 -0.18339881308E+02  0.27532244576E+02  0.51100000000E-03 0. -1.
        -11    1    3    3    0    0  0.19152841800E+01  0.48135074137E+01 -0.45727665947E+01  0.69100189365E+01  0.51100000000E-03 0.  1.
        -12    1    3    3    0    0  0.10569500903E+02 -0.58144734099E+01 -0.57067253555E+01  0.13345005232E+02  0.00000000000E+00 0.  1.
</event>
<event>
 7    1  0.2655656E-009  0.4778728E+02  0.7816164E-02  0.1312668E+00
        -11   -1    0    0    0    0  0.00000000000E+00  0.00000000000E+00  0.45593999997E+02  0.45594000000E+02  0.51100000000E-03 0.  1.
         11   -1    0    0    0    0 -0.00000000000E+00 -0.00000000000E+00 -0.45593999997E+02  0.45594000000E+02  0.51100000000E-03 0. -1.
    9900012    2    1    2    0    0  0.42495198594E+02  0.88181414455E+01 -0.14583155069E+00  0.47787276631E+02  0.20000025471E+02 0.  0.
        -12    1    1    2    0    0 -0.42495198594E+02 -0.88181414455E+01  0.14583155069E+00  0.43400723369E+02  0.00000000000E+00 0.  1.
         11    1    3    3    0    0  0.92207938935E+01  0.92548366882E+01 -0.26404568631E+01  0.13328430322E+02  0.51100000000E-03 0. -1.
        -11    1    3    3    0    0  0.31227133584E+01  0.18299163616E+01  0.21705688784E+01  0.42203438398E+01  0.51100000000E-03 0.  1.
         12    1    3    3    0    0  0.30151691342E+02 -0.22666116043E+01  0.32405643400E+00  0.30238502469E+02  0.00000000000E+00 0. -1.
</event>
<event>
 7    1  0.2655656E-009  0.4778727E+02  0.7816164E-02  0.1312668E+00
        -11   -1    0    0    0    0  0.00000000000E+00  0.00000000000E+00  0.45593999997E+02  0.45594000000E+02  0.51100000000E-03 0.  1.
         11   -1    0    0    0    0 -0.00000000000E+00 -0.00000000000E+00 -0.45593999997E+02  0.45594000000E+02  0.51100000000E-03 0. -1.
    9900012    2    1    2    0    0  0.35525718862E+02  0.49985502097E+01 -0.24424597066E+02  0.47787272510E+02  0.20000006681E+02 0.  0.
        -12    1    1    2    0    0 -0.35525718862E+02 -0.49985502097E+01  0.24424597066E+02  0.43400727490E+02  0.00000000000E+00 0.  1.
         11    1    3    3    0    0  0.16007682976E+02  0.79029050447E+01 -0.39100169556E+01  0.18275394805E+02  0.51100000000E-03 0. -1.
        -11    1    3    3    0    0  0.88565137634E+01 -0.40664594655E+01 -0.13673665907E+02  0.16791160419E+02  0.51100000000E-03 0.  1.
        -12    1    3    3    0    0  0.10661522122E+02  0.11621046305E+01 -0.68409142035E+01  0.12720717286E+02  0.00000000000E+00 0.  1.
</event>
<event>
 7    1  0.2655656E-009  0.4778727E+02  0.7816164E-02  0.1312668E+00
        -11   -1    0    0    0    0  0.00000000000E+00  0.00000000000E+00  0.45593999997E+02  0.45594000000E+02  0.51100000000E-03 0. -1.
         11   -1    0    0    0    0 -0.00000000000E+00 -0.00000000000E+00 -0.45593999997E+02  0.45594000000E+02  0.51100000000E-03 0.  1.
    9900012    2    1    2    0    0  0.14640485135E+02  0.54840642500E+01  0.40487093357E+02  0.47787268507E+02  0.19999988430E+02 0.  0.
        -12    1    1    2    0    0 -0.14640485135E+02 -0.54840642500E+01 -0.40487093357E+02  0.43400731493E+02  0.00000000000E+00 0.  1.
         11    1    3    3    0    0  0.90643476509E+01  0.44368999766E+01  0.15510291490E+02  0.18504529773E+02  0.51100000000E-03 0. -1.
        -11    1    3    3    0    0 -0.18221792212E+01 -0.52572801135E+01  0.92522913820E+01  0.10796491439E+02  0.51100000000E-03 0.  1.
        -12    1    3    3    0    0  0.73983167050E+01  0.63044443869E+01  0.15724510484E+02  0.18486247295E+02  0.00000000000E+00 0.  1.
</event>
<event>
 7    1  0.2655656E-009  0.4778727E+02  0.7816164E-02  0.1312668E+00
        -11   -1    0    0    0    0  0.00000000000E+00  0.00000000000E+00  0.45593999997E+02  0.45594000000E+02  0.51100000000E-03 0. -1.
         11   -1    0    0    0    0 -0.00000000000E+00 -0.00000000000E+00 -0.45593999997E+02  0.45594000000E+02  0.51100000000E-03 0.  1.
    9900012    2    1    2    0    0 -0.40014806301E+02  0.15806160560E+02  0.57099627145E+01  0.47787272942E+02  0.20000008652E+02 0.  0.
        -12    1    1    2    0    0  0.40014806301E+02 -0.15806160560E+02 -0.57099627145E+01  0.43400727058E+02  0.00000000000E+00 0.  1.
         11    1    3    3    0    0 -0.19205143780E+02  0.23889212752E+01  0.67831474301E+01  0.20507451860E+02  0.51100000000E-03 0. -1.
        -11    1    3    3    0    0 -0.12338834382E+01  0.53707655777E+01 -0.25321574252E+01  0.60646032613E+01  0.51100000000E-03 0.  1.
         12    1    3    3    0    0 -0.19575779082E+02  0.80464737072E+01  0.14589727096E+01  0.21215217821E+02  0.00000000000E+00 0. -1.
</event>
<event>
 7    1  0.2655656E-009  0.4778727E+02  0.7816164E-02  0.1312668E+00
        -11   -1    0    0    0    0  0.00000000000E+00  0.00000000000E+00  0.45593999997E+02  0.45594000000E+02  0.51100000000E-03 0.  1.
         11   -1    0    0    0    0 -0.00000000000E+00 -0.00000000000E+00 -0.45593999997E+02  0.45594000000E+02  0.51100000000E-03 0. -1.
    9900012    2    1    2    0    0  0.12020025082E+02  0.16544620935E+02 -0.38280780300E+02  0.47787266996E+02  0.19999981543E+02 0.  0.
        -12    1    1    2    0    0 -0.12020025082E+02 -0.16544620935E+02  0.38280780300E+02  0.43400733004E+02  0.00000000000E+00 0.  1.
         11    1    3    3    0    0  0.58707451373E+01  0.10565166307E+02 -0.29728518232E+02  0.32091637292E+02  0.51100000000E-03 0. -1.
        -11    1    3    3    0    0  0.68727346418E+01  0.57022373664E+01 -0.10390486404E+02  0.13700810210E+02  0.51100000000E-03 0.  1.
         12    1    3    3    0    0 -0.72345469691E+00  0.27721726080E+00  0.18382243352E+01  0.19948194942E+01  0.00000000000E+00 0. -1.
</event>
<event>
 7    1  0.2655656E-009  0.4778727E+02  0.7816164E-02  0.1312668E+00
        -11   -1    0    0    0    0  0.00000000000E+00  0.00000000000E+00  0.45593999997E+02  0.45594000000E+02  0.51100000000E-03 0.  1.
         11   -1    0    0    0    0 -0.00000000000E+00 -0.00000000000E+00 -0.45593999997E+02  0.45594000000E+02  0.51100000000E-03 0. -1.
    9900012    2    1    2    0    0 -0.36840032132E+02 -0.12640199377E+02 -0.19148384904E+02  0.47787271295E+02  0.20000001141E+02 0.  0.
        -12    1    1    2    0    0  0.36840032132E+02  0.12640199377E+02  0.19148384904E+02  0.43400728705E+02  0.00000000000E+00 0.  1.
         11    1    3    3    0    0 -0.15745481424E+02 -0.90299689613E+00 -0.77498467715E+01  0.17572584156E+02  0.51100000000E-03 0. -1.
        -11    1    3    3    0    0  0.15960692087E+01 -0.30261654340E+01 -0.12861801685E+00  0.34236905538E+01  0.51100000000E-03 0.  1.
        -12    1    3    3    0    0 -0.22690619916E+02 -0.87110370465E+01 -0.11269920115E+02  0.26790996585E+02  0.00000000000E+00 0.  1.
</event>
<event>
 7    1  0.2655656E-009  0.4778727E+02  0.7816164E-02  0.1312668E+00
        -11   -1    0    0    0    0  0.00000000000E+00  0.00000000000E+00  0.45593999997E+02  0.45594000000E+02  0.51100000000E-03 0.  1.
         11   -1    0    0    0    0 -0.00000000000E+00 -0.00000000000E+00 -0.45593999997E+02  0.45594000000E+02  0.51100000000E-03 0. -1.
    9900012    2    1    2    0    0 -0.12105283236E+01  0.32429820713E+02 -0.28817783029E+02  0.47787271101E+02  0.20000000256E+02 0.  0.
        -12    1    1    2    0    0  0.12105283236E+01 -0.32429820713E+02  0.28817783029E+02  0.43400728899E+02  0.00000000000E+00 0.  1.
         11    1    3    3    0    0 -0.86488154429E+01  0.71321749666E+01 -0.54412791385E+01  0.12461037166E+02  0.51100000000E-03 0. -1.
        -11    1    3    3    0    0  0.64366908352E+01  0.17935405725E+02 -0.16808936915E+02  0.25409646355E+02  0.51100000000E-03 0.  1.
         12    1    3    3    0    0  0.10015962841E+01  0.73622400212E+01 -0.65675669759E+01  0.99165875799E+01  0.00000000000E+00 0. -1.
</event>
<event>
 7    1  0.2655656E-009  0.4778721E+02  0.7816164E-02  0.1312668E+00
        -11   -1    0    0    0    0  0.00000000000E+00  0.00000000000E+00  0.45593999997E+02  0.45594000000E+02  0.51100000000E-03 0.  1.
         11   -1    0    0    0    0 -0.00000000000E+00 -0.00000000000E+00 -0.45593999997E+02  0.45594000000E+02  0.51100000000E-03 0. -1.
    9900012    2    1    2    0    0  0.21014593862E+02 -0.37955779990E+02 -0.11723117099E+01  0.47787208480E+02  0.19999714740E+02 0.  0.
        -12    1    1    2    0    0 -0.21014593862E+02  0.37955779990E+02  0.11723117099E+01  0.43400791520E+02  0.00000000000E+00 0.  1.
         11    1    3    3    0    0  0.22303496834E+02 -0.30111688172E+02 -0.15785121837E+01  0.37505352106E+02  0.51100000000E-03 0. -1.
        -11    1    3    3    0    0 -0.20554151832E+01 -0.56973846593E+01 -0.25306229804E+01  0.65642194099E+01  0.51100000000E-03 0.  1.
        -12    1    3    3    0    0  0.76651221146E+00 -0.21467071588E+01  0.29368234543E+01  0.37176369642E+01  0.00000000000E+00 0.  1.
</event>
<event>
 7    1  0.2655656E-009  0.4778732E+02  0.7816164E-02  0.1312668E+00
        -11   -1    0    0    0    0  0.00000000000E+00  0.00000000000E+00  0.45593999997E+02  0.45594000000E+02  0.51100000000E-03 0.  1.
         11   -1    0    0    0    0 -0.00000000000E+00 -0.00000000000E+00 -0.45593999997E+02  0.45594000000E+02  0.51100000000E-03 0. -1.
    9900012    2    1    2    0    0 -0.19094631121E+02 -0.12811603710E+02 -0.36808657450E+02  0.47787315783E+02  0.20000203979E+02 0.  0.
        -12    1    1    2    0    0  0.19094631121E+02  0.12811603710E+02  0.36808657450E+02  0.43400684217E+02  0.00000000000E+00 0.  1.
         11    1    3    3    0    0 -0.43074627625E+01  0.49976745487E+01 -0.71253898919E+01  0.97109303219E+01  0.51100000000E-03 0. -1.
        -11    1    3    3    0    0 -0.51944428077E+00 -0.34707973544E+01 -0.31793392381E+01  0.47354466408E+01  0.51100000000E-03 0.  1.
         12    1    3    3    0    0 -0.14267724078E+02 -0.14338480905E+02 -0.26503928320E+02  0.33340938820E+02  0.00000000000E+00 0. -1.
</event>
<event>
 7    1  0.2655656E-009  0.4778727E+02  0.7816164E-02  0.1312668E+00
        -11   -1    0    0    0    0  0.00000000000E+00  0.00000000000E+00  0.45593999997E+02  0.45594000000E+02  0.51100000000E-03 0. -1.
         11   -1    0    0    0    0 -0.00000000000E+00 -0.00000000000E+00 -0.45593999997E+02  0.45594000000E+02  0.51100000000E-03 0.  1.
    9900012    2    1    2    0    0  0.22803668107E+02  0.36136466818E+02 -0.76007685635E+01  0.47787271942E+02  0.20000004092E+02 0.  0.
        -12    1    1    2    0    0 -0.22803668107E+02 -0.36136466818E+02  0.76007685635E+01  0.43400728058E+02  0.00000000000E+00 0.  1.
         11    1    3    3    0    0  0.13810395451E+02  0.11034354656E+02 -0.10932169914E+02  0.20784521753E+02  0.51100000000E-03 0. -1.
        -11    1    3    3    0    0  0.89166172148E+01  0.23018137580E+02  0.27481082033E+01  0.24837327134E+02  0.51100000000E-03 0.  1.
         12    1    3    3    0    0  0.76655441373E-01  0.20839745818E+01  0.58329314688E+00  0.21654230556E+01  0.00000000000E+00 0. -1.
</event>
<event>
 7    1  0.2655656E-009  0.4778727E+02  0.7816164E-02  0.1312668E+00
        -11   -1    0    0    0    0  0.00000000000E+00  0.00000000000E+00  0.45593999997E+02  0.45594000000E+02  0.51100000000E-03 0.  1.
         11   -1    0    0    0    0 -0.00000000000E+00 -0.00000000000E+00 -0.45593999997E+02  0.45594000000E+02  0.51100000000E-03 0. -1.
    9900012    2    1    2    0    0 -0.91064707880E+01 -0.41979746347E+02 -0.61964692704E+01  0.47787272529E+02  0.20000006769E+02 0.  0.
        -12    1    1    2    0    0  0.91064707880E+01  0.41979746347E+02  0.61964692704E+01  0.43400727471E+02  0.00000000000E+00 0.  1.
         11    1    3    3    0    0 -0.17124797531E+01 -0.16217923814E+02 -0.51852838669E+01  0.17112592112E+02  0.51100000000E-03 0. -1.
        -11    1    3    3    0    0  0.13106089116E+01 -0.37582239101E+01  0.48723474038E+01  0.62913998571E+01  0.51100000000E-03 0.  1.
        -12    1    3    3    0    0 -0.87045999465E+01 -0.22003598623E+02 -0.58835328072E+01  0.24383280560E+02  0.00000000000E+00 0.  1.
</event>
<event>
 7    1  0.2655656E-009  0.4778728E+02  0.7816164E-02  0.1312668E+00
        -11   -1    0    0    0    0  0.00000000000E+00  0.00000000000E+00  0.45593999997E+02  0.45594000000E+02  0.51100000000E-03 0.  1.
         11   -1    0    0    0    0 -0.00000000000E+00 -0.00000000000E+00 -0.45593999997E+02  0.45594000000E+02  0.51100000000E-03 0. -1.
    9900012    2    1    2    0    0 -0.16168649470E+01 -0.21389276539E+02 -0.37729394896E+02  0.47787278320E+02  0.20000033173E+02 0.  0.
        -12    1    1    2    0    0  0.16168649470E+01  0.21389276539E+02  0.37729394896E+02  0.43400721680E+02  0.00000000000E+00 0.  1.
         11    1    3    3    0    0  0.12075152526E+01  0.23431752550E+01 -0.28985175266E+01  0.39179034539E+01  0.51100000000E-03 0. -1.
        -11    1    3    3    0    0 -0.33734889999E+01 -0.24977203658E+02 -0.32045878557E+02  0.40769835214E+02  0.51100000000E-03 0.  1.
        -12    1    3    3    0    0  0.54910880034E+00  0.12447518635E+01 -0.27849988117E+01  0.30995396525E+01  0.00000000000E+00 0.  1.
</event>
<event>
 7    1  0.2655656E-009  0.4778729E+02  0.7816164E-02  0.1312668E+00
        -11   -1    0    0    0    0  0.00000000000E+00  0.00000000000E+00  0.45593999997E+02  0.45594000000E+02  0.51100000000E-03 0. -1.
         11   -1    0    0    0    0 -0.00000000000E+00 -0.00000000000E+00 -0.45593999997E+02  0.45594000000E+02  0.51100000000E-03 0.  1.
    9900012    2    1    2    0    0 -0.28239874260E+02 -0.20887152870E+02  0.25492312332E+02  0.47787289853E+02  0.20000085758E+02 0.  0.
        -12    1    1    2    0    0  0.28239874260E+02  0.20887152870E+02 -0.25492312332E+02  0.43400710147E+02  0.00000000000E+00 0.  1.
         11    1    3    3    0    0 -0.13913580956E+02 -0.88457370037E+01  0.97389861426E+01  0.19148959489E+02  0.51100000000E-03 0. -1.
        -11    1    3    3    0    0 -0.12099869148E+02 -0.81225729805E+01  0.26902915026E+01  0.14819605051E+02  0.51100000000E-03 0.  1.
        -12    1    3    3    0    0 -0.22264241553E+01 -0.39188428856E+01  0.13063034686E+02  0.13818725314E+02  0.00000000000E+00 0.  1.
</event>
<event>
 7    1  0.2655656E-009  0.4778728E+02  0.7816164E-02  0.1312668E+00
        -11   -1    0    0    0    0  0.00000000000E+00  0.00000000000E+00  0.45593999997E+02  0.45594000000E+02  0.51100000000E-03 0.  1.
         11   -1    0    0    0    0 -0.00000000000E+00 -0.00000000000E+00 -0.45593999997E+02  0.45594000000E+02  0.51100000000E-03 0. -1.
    9900012    2    1    2    0    0  0.30218102649E+02  0.19035800609E+00 -0.31152087422E+02  0.47787279792E+02  0.20000039882E+02 0.  0.
        -12    1    1    2    0    0 -0.30218102649E+02 -0.19035800609E+00  0.31152087422E+02  0.43400720208E+02  0.00000000000E+00 0.  1.
         11    1    3    3    0    0  0.10627580356E+02  0.54810845899E+01 -0.18674200368E+02  0.22174614138E+02  0.51100000000E-03 0.  1.
        -11    1    3    3    0    0  0.18516293283E+02 -0.20388905128E+01 -0.88497139992E+01  0.20623472782E+02  0.51100000000E-03 0. -1.
        -12    1    3    3    0    0  0.10742290095E+01 -0.32518360709E+01 -0.36281730549E+01  0.49891928719E+01  0.00000000000E+00 0.  1.
</event>
<event>
 7    1  0.2655656E-009  0.4778727E+02  0.7816164E-02  0.1312668E+00
        -11   -1    0    0    0    0  0.00000000000E+00  0.00000000000E+00  0.45593999997E+02  0.45594000000E+02  0.51100000000E-03 0.  1.
         11   -1    0    0    0    0 -0.00000000000E+00 -0.00000000000E+00 -0.45593999997E+02  0.45594000000E+02  0.51100000000E-03 0. -1.
    9900012    2    1    2    0    0  0.14781243476E+02 -0.14168648456E+01 -0.40781497844E+02  0.47787271537E+02  0.20000002246E+02 0.  0.
        -12    1    1    2    0    0 -0.14781243476E+02  0.14168648456E+01  0.40781497844E+02  0.43400728463E+02  0.00000000000E+00 0.  1.
         11    1    3    3    0    0  0.56870803992E+01 -0.46253078586E+01 -0.32862566083E+02  0.33670233235E+02  0.51100000000E-03 0. -1.
        -11    1    3    3    0    0  0.30524224668E+01  0.32298420793E+01 -0.38629565530E+00  0.44607608507E+01  0.51100000000E-03 0.  1.
         12    1    3    3    0    0  0.60417406102E+01 -0.21399066382E-01 -0.75326361060E+01  0.96562774518E+01  0.00000000000E+00 0. -1.
</event>
<event>
 7    1  0.2655656E-009  0.4778727E+02  0.7816164E-02  0.1312668E+00
        -11   -1    0    0    0    0  0.00000000000E+00  0.00000000000E+00  0.45593999997E+02  0.45594000000E+02  0.51100000000E-03 0.  1.
         11   -1    0    0    0    0 -0.00000000000E+00 -0.00000000000E+00 -0.45593999997E+02  0.45594000000E+02  0.51100000000E-03 0. -1.
    9900012    2    1    2    0    0 -0.15328104722E+02 -0.31831750314E+02 -0.25207378278E+02  0.47787273715E+02  0.20000012174E+02 0.  0.
        -12    1    1    2    0    0  0.15328104722E+02  0.31831750314E+02  0.25207378278E+02  0.43400726285E+02  0.00000000000E+00 0.  1.
         11    1    3    3    0    0 -0.47552309361E+01 -0.15200553788E+02 -0.56220280839E+01  0.16890123053E+02  0.51100000000E-03 0. -1.
        -11    1    3    3    0    0 -0.25460264400E+01 -0.41773912904E+01 -0.14385734611E+02  0.15194808626E+02  0.51100000000E-03 0.  1.
        -12    1    3    3    0    0 -0.80268473463E+01 -0.12453805236E+02 -0.51996155829E+01  0.15702342035E+02  0.00000000000E+00 0.  1.
</event>
<event>
 7    1  0.2655656E-009  0.4778727E+02  0.7816164E-02  0.1312668E+00
        -11   -1    0    0    0    0  0.00000000000E+00  0.00000000000E+00  0.45593999997E+02  0.45594000000E+02  0.51100000000E-03 0.  1.
         11   -1    0    0    0    0 -0.00000000000E+00 -0.00000000000E+00 -0.45593999997E+02  0.45594000000E+02  0.51100000000E-03 0. -1.
    9900012    2    1    2    0    0 -0.23971842121E+02  0.34880250915E+02  0.96094995289E+01  0.47787267290E+02  0.19999982882E+02 0.  0.
        -12    1    1    2    0    0  0.23971842121E+02 -0.34880250915E+02 -0.96094995289E+01  0.43400732710E+02  0.00000000000E+00 0.  1.
         11    1    3    3    0    0  0.15102513638E+01  0.39456648833E+01 -0.20172157241E+00  0.42296362027E+01  0.51100000000E-03 0.  1.
        -11    1    3    3    0    0 -0.24503156456E+02  0.25689134783E+02  0.40929155913E+01  0.35736371955E+02  0.51100000000E-03 0. -1.
         12    1    3    3    0    0 -0.97893702882E+00  0.52454512491E+01  0.57183055100E+01  0.78212591326E+01  0.00000000000E+00 0. -1.
</event>
<event>
 7    1  0.2655656E-009  0.4778726E+02  0.7816164E-02  0.1312668E+00
        -11   -1    0    0    0    0  0.00000000000E+00  0.00000000000E+00  0.45593999997E+02  0.45594000000E+02  0.51100000000E-03 0. -1.
         11   -1    0    0    0    0 -0.00000000000E+00 -0.00000000000E+00 -0.45593999997E+02  0.45594000000E+02  0.51100000000E-03 0.  1.
    9900012    2    1    2    0    0  0.28001080719E+02  0.30165260160E+02  0.13770298910E+02  0.47787256066E+02  0.19999931708E+02 0.  0.
        -12    1    1    2    0    0 -0.28001080719E+02 -0.30165260160E+02 -0.13770298910E+02  0.43400743934E+02  0.00000000000E+00 0.  1.
         11    1    3    3    0    0  0.22495699247E+02  0.23034779395E+02  0.82529414804E+01  0.33238059355E+02  0.51100000000E-03 0. -1.
        -11    1    3    3    0    0  0.52826998667E+01 -0.88604763299E+00  0.30228191857E+01  0.61505637449E+01  0.51100000000E-03 0.  1.
         12    1    3    3    0    0  0.22268160587E+00  0.80165283976E+01  0.24945382435E+01  0.83986329658E+01  0.00000000000E+00 0. -1.
</event>
<event>
 7    1  0.2655656E-009  0.4778727E+02  0.7816164E-02  0.1312668E+00
        -11   -1    0    0    0    0  0.00000000000E+00  0.00000000000E+00  0.45593999997E+02  0.45594000000E+02  0.51100000000E-03 0.  1.
         11   -1    0    0    0    0 -0.00000000000E+00 -0.00000000000E+00 -0.45593999997E+02  0.45594000000E+02  0.51100000000E-03 0. -1.
    9900012    2    1    2    0    0  0.17100156929E+01  0.14439948202E+01 -0.43342984974E+02  0.47787267043E+02  0.19999981757E+02 0.  0.
        -12    1    1    2    0    0 -0.17100156929E+01 -0.14439948202E+01  0.43342984974E+02  0.43400732957E+02  0.00000000000E+00 0.  1.
         11    1    3    3    0    0 -0.71694917960E+01 -0.19201407049E+01 -0.21073768963E+02  0.22342611564E+02  0.51100000000E-03 0. -1.
        -11    1    3    3    0    0  0.65505507876E+01 -0.13272883197E+01 -0.92555592965E+01  0.11416513831E+02  0.51100000000E-03 0.  1.
        -12    1    3    3    0    0  0.23289567013E+01  0.46914238448E+01 -0.13013656714E+02  0.14028141648E+02  0.00000000000E+00 0.  1.
</event>
<event>
 7    1  0.2655656E-009  0.4778726E+02  0.7816164E-02  0.1312668E+00
        -11   -1    0    0    0    0  0.00000000000E+00  0.00000000000E+00  0.45593999997E+02  0.45594000000E+02  0.51100000000E-03 0. -1.
         11   -1    0    0    0    0 -0.00000000000E+00 -0.00000000000E+00 -0.45593999997E+02  0.45594000000E+02  0.51100000000E-03 0.  1.
    9900012    2    1    2    0    0  0.15783045494E+02 -0.25808166179E+02  0.31120065744E+02  0.47787257397E+02  0.19999937775E+02 0.  0.
        -12    1    1    2    0    0 -0.15783045494E+02  0.25808166179E+02 -0.31120065744E+02  0.43400742603E+02  0.00000000000E+00 0.  1.
         11    1    3    3    0    0  0.40454146447E+01 -0.11720379995E+02  0.14784236815E+01  0.12486729905E+02  0.51100000000E-03 0.  1.
        -11    1    3    3    0    0  0.92149264389E+01 -0.85513449260E+01  0.15878417441E+02  0.20252518609E+02  0.51100000000E-03 0. -1.
        -12    1    3    3    0    0  0.25227044102E+01 -0.55364412581E+01  0.13763224622E+02  0.15048008883E+02  0.00000000000E+00 0.  1.
</event>
<event>
 7    1  0.2655656E-009  0.4778728E+02  0.7816164E-02  0.1312668E+00
        -11   -1    0    0    0    0  0.00000000000E+00  0.00000000000E+00  0.45593999997E+02  0.45594000000E+02  0.51100000000E-03 0.  1.
         11   -1    0    0    0    0 -0.00000000000E+00 -0.00000000000E+00 -0.45593999997E+02  0.45594000000E+02  0.51100000000E-03 0. -1.
    9900012    2    1    2    0    0  0.61115053346E+01  0.81787535938E+01 -0.42182698390E+02  0.47787279370E+02  0.20000037958E+02 0.  0.
        -12    1    1    2    0    0 -0.61115053346E+01 -0.81787535938E+01  0.42182698390E+02  0.43400720630E+02  0.00000000000E+00 0.  1.
         11    1    3    3    0    0  0.97503721071E+00  0.22846097848E+01 -0.62567799723E+00  0.25615644923E+01  0.51100000000E-03 0.  1.
        -11    1    3    3    0    0 -0.23143284318E+01  0.90841203731E+01 -0.17694190000E+02  0.20024028542E+02  0.51100000000E-03 0. -1.
        -12    1    3    3    0    0  0.74507965557E+01 -0.31899765641E+01 -0.23862830393E+02  0.25201686335E+02  0.00000000000E+00 0.  1.
</event>
<event>
 7    1  0.2655656E-009  0.4778727E+02  0.7816164E-02  0.1312668E+00
        -11   -1    0    0    0    0  0.00000000000E+00  0.00000000000E+00  0.45593999997E+02  0.45594000000E+02  0.51100000000E-03 0.  1.
         11   -1    0    0    0    0 -0.00000000000E+00 -0.00000000000E+00 -0.45593999997E+02  0.45594000000E+02  0.51100000000E-03 0. -1.
    9900012    2    1    2    0    0  0.15393772056E+02  0.17097023992E+02 -0.36801455064E+02  0.47787267952E+02  0.19999985900E+02 0.  0.
        -12    1    1    2    0    0 -0.15393772056E+02 -0.17097023992E+02  0.36801455064E+02  0.43400732048E+02  0.00000000000E+00 0.  1.
         11    1    3    3    0    0  0.16596664221E+02  0.17100682573E+02 -0.30673711851E+02  0.38842749732E+02  0.51100000000E-03 0. -1.
        -11    1    3    3    0    0 -0.34332686939E+01  0.15667875596E+01 -0.32645894918E+01  0.49899601193E+01  0.51100000000E-03 0.  1.
         12    1    3    3    0    0  0.22303765296E+01 -0.15704461409E+01 -0.28631537206E+01  0.39545581009E+01  0.00000000000E+00 0. -1.
</event>
<event>
 7    1  0.2655656E-009  0.4778727E+02  0.7816164E-02  0.1312668E+00
        -11   -1    0    0    0    0  0.00000000000E+00  0.00000000000E+00  0.45593999997E+02  0.45594000000E+02  0.51100000000E-03 0.  1.
         11   -1    0    0    0    0 -0.00000000000E+00 -0.00000000000E+00 -0.45593999997E+02  0.45594000000E+02  0.51100000000E-03 0. -1.
    9900012    2    1    2    0    0 -0.17923050217E+02  0.19086496245E+02 -0.34613489940E+02  0.47787265515E+02  0.19999974790E+02 0.  0.
        -12    1    1    2    0    0  0.17923050217E+02 -0.19086496245E+02  0.34613489940E+02  0.43400734485E+02  0.00000000000E+00 0.  1.
         11    1    3    3    0    0 -0.12385854427E+02  0.46906183390E+01 -0.10866857325E+02  0.17131838158E+02  0.51100000000E-03 0. -1.
        -11    1    3    3    0    0  0.37092117279E+01  0.45027627636E+01 -0.76446535350E+01  0.96163325691E+01  0.51100000000E-03 0.  1.
        -12    1    3    3    0    0 -0.92464075184E+01  0.98931151422E+01 -0.16101979081E+02  0.21039094789E+02  0.00000000000E+00 0.  1.
</event>
<event>
 7    1  0.2655656E-009  0.4778727E+02  0.7816164E-02  0.1312668E+00
        -11   -1    0    0    0    0  0.00000000000E+00  0.00000000000E+00  0.45593999997E+02  0.45594000000E+02  0.51100000000E-03 0. -1.
         11   -1    0    0    0    0 -0.00000000000E+00 -0.00000000000E+00 -0.45593999997E+02  0.45594000000E+02  0.51100000000E-03 0.  1.
    9900012    2    1    2    0    0  0.39144644351E+02  0.10827635385E+02  0.15299768180E+02  0.47787265263E+02  0.19999973639E+02 0.  0.
        -12    1    1    2    0    0 -0.39144644351E+02 -0.10827635385E+02 -0.15299768180E+02  0.43400734737E+02  0.00000000000E+00 0.  1.
         11    1    3    3    0    0  0.23247696516E+02  0.10611251783E+02  0.14527972570E+01  0.25596184830E+02  0.51100000000E-03 0. -1.
        -11    1    3    3    0    0  0.12825575885E+02  0.19138366501E+01  0.76126884456E+01  0.15036994152E+02  0.51100000000E-03 0.  1.
         12    1    3    3    0    0  0.30713719497E+01 -0.16974530490E+01  0.62342824769E+01  0.71540862805E+01  0.00000000000E+00 0. -1.
</event>
<event>
 7    1  0.2655656E-009  0.4778726E+02  0.7816164E-02  0.1312668E+00
        -11   -1    0    0    0    0  0.00000000000E+00  0.00000000000E+00  0.45593999997E+02  0.45594000000E+02  0.51100000000E-03 0. -1.
         11   -1    0    0    0    0 -0.00000000000E+00 -0.00000000000E+00 -0.45593999997E+02  0.45594000000E+02  0.51100000000E-03 0.  1.
    9900012    2    1    2    0    0 -0.37406917032E+02  0.81363542087E+01  0.20448629996E+02  0.47787260717E+02  0.19999952911E+02 0.  0.
        -12    1    1    2    0    0  0.37406917032E+02 -0.81363542087E+01 -0.20448629996E+02  0.43400739283E+02  0.00000000000E+00 0.  1.
         11    1    3    3    0    0 -0.21510702732E+02  0.13190137300E+02  0.15391010381E+02  0.29556272682E+02  0.51100000000E-03 0. -1.
        -11    1    3    3    0    0 -0.45135123490E+01 -0.25421806985E+01 -0.70480456630E+00  0.52279275212E+01  0.51100000000E-03 0.  1.
        -12    1    3    3    0    0 -0.11382701951E+02 -0.25116023928E+01  0.57624241804E+01  0.13003060513E+02  0.00000000000E+00 0.  1.
</event>
<event>
 7    1  0.2655656E-009  0.4778726E+02  0.7816164E-02  0.1312668E+00
        -11   -1    0    0    0    0  0.00000000000E+00  0.00000000000E+00  0.45593999997E+02  0.45594000000E+02  0.51100000000E-03 0.  1.
         11   -1    0    0    0    0 -0.00000000000E+00 -0.00000000000E+00 -0.45593999997E+02  0.45594000000E+02  0.51100000000E-03 0. -1.
    9900012    2    1    2    0    0  0.26972250134E+02  0.30084121424E+02 -0.15845103904E+02  0.47787263175E+02  0.19999964122E+02 0.  0.
        -12    1    1    2    0    0 -0.26972250134E+02 -0.30084121424E+02  0.15845103904E+02  0.43400736825E+02  0.00000000000E+00 0.  1.
         11    1    3    3    0    0  0.10862329854E+02  0.12083274154E+02 -0.15741032805E+02  0.22622463132E+02  0.51100000000E-03 0. -1.
        -11    1    3    3    0    0  0.59541512684E-02  0.15939899240E+01 -0.14238431419E+01  0.21373275096E+01  0.51100000000E-03 0.  1.
         12    1    3    3    0    0  0.16103966128E+02  0.16406857347E+02  0.13197720420E+01  0.23027472534E+02  0.00000000000E+00 0. -1.
</event>
<event>
 7    1  0.2655656E-009  0.4778727E+02  0.7816164E-02  0.1312668E+00
        -11   -1    0    0    0    0  0.00000000000E+00  0.00000000000E+00  0.45593999997E+02  0.45594000000E+02  0.51100000000E-03 0.  1.
         11   -1    0    0    0    0 -0.00000000000E+00 -0.00000000000E+00 -0.45593999997E+02  0.45594000000E+02  0.51100000000E-03 0. -1.
    9900012    2    1    2    0    0  0.45624158697E+01  0.60149603612E+01 -0.42739064083E+02  0.47787274368E+02  0.20000015155E+02 0.  0.
        -12    1    1    2    0    0 -0.45624158697E+01 -0.60149603612E+01  0.42739064083E+02  0.43400725632E+02  0.00000000000E+00 0.  1.
         11    1    3    3    0    0  0.67144356452E+01  0.12312483065E+01 -0.60208985478E+01  0.91022435701E+01  0.51100000000E-03 0. -1.
        -11    1    3    3    0    0 -0.57906203300E+01  0.42924595457E+01 -0.31438248863E+02  0.32253991762E+02  0.51100000000E-03 0.  1.
        -12    1    3    3    0    0  0.36386005545E+01  0.49125250895E+00 -0.52799166719E+01  0.64310390362E+01  0.00000000000E+00 0.  1.
</event>
<event>
 7    1  0.2801913E-009  0.4778727E+02  0.7816164E-02  0.1312668E+00
        -11   -1    0    0    0    0  0.00000000000E+00  0.00000000000E+00  0.45593999997E+02  0.45594000000E+02  0.51100000000E-03 0. -1.
         11   -1    0    0    0    0 -0.00000000000E+00 -0.00000000000E+00 -0.45593999997E+02  0.45594000000E+02  0.51100000000E-03 0.  1.
    9900012    2    1    2    0    0 -0.39564807315E+02  0.14989168405E+02 -0.96733648453E+01  0.47787272647E+02  0.20000007306E+02 0.  0.
        -12    1    1    2    0    0  0.39564807315E+02 -0.14989168405E+02  0.96733648453E+01  0.43400727353E+02  0.00000000000E+00 0.  1.
         11    1    3    3    0    0 -0.24508077062E+02  0.14872499954E+02 -0.49952776696E+01  0.29099654558E+02  0.51100000000E-03 0. -1.
        -11    1    3    3    0    0 -0.38554881223E+01 -0.19755318996E+01  0.27073960757E+01  0.51085720822E+01  0.51100000000E-03 0.  1.
         12    1    3    3    0    0 -0.11201242131E+02  0.20922003508E+01 -0.73854832514E+01  0.13579046007E+02  0.00000000000E+00 0. -1.
</event>
<event>
 7    1  0.2655656E-009  0.4778727E+02  0.7816164E-02  0.1312668E+00
        -11   -1    0    0    0    0  0.00000000000E+00  0.00000000000E+00  0.45593999997E+02  0.45594000000E+02  0.51100000000E-03 0.  1.
         11   -1    0    0    0    0 -0.00000000000E+00 -0.00000000000E+00 -0.45593999997E+02  0.45594000000E+02  0.51100000000E-03 0. -1.
    9900012    2    1    2    0    0  0.61168282175E+01 -0.41091908281E+02  0.12556389500E+02  0.47787269236E+02  0.19999991753E+02 0.  0.
        -12    1    1    2    0    0 -0.61168282175E+01  0.41091908281E+02 -0.12556389500E+02  0.43400730764E+02  0.00000000000E+00 0.  1.
         11    1    3    3    0    0 -0.29882451898E+00 -0.15182921567E+02  0.75868996765E+01  0.16975613402E+02  0.51100000000E-03 0. -1.
        -11    1    3    3    0    0  0.55629782776E+01 -0.12496980091E+02 -0.44673708798E+01  0.14390227293E+02  0.51100000000E-03 0.  1.
        -12    1    3    3    0    0  0.85267445890E+00 -0.13412006623E+02  0.94368607033E+01  0.16421428541E+02  0.00000000000E+00 0.  1.
</event>
<event>
 7    1  0.2655656E-009  0.4778725E+02  0.7816164E-02  0.1312668E+00
        -11   -1    0    0    0    0  0.00000000000E+00  0.00000000000E+00  0.45593999997E+02  0.45594000000E+02  0.51100000000E-03 0. -1.
         11   -1    0    0    0    0 -0.00000000000E+00 -0.00000000000E+00 -0.45593999997E+02  0.45594000000E+02  0.51100000000E-03 0.  1.
    9900012    2    1    2    0    0  0.43062436436E+02 -0.14034126592E-01  0.54084481659E+01  0.47787251846E+02  0.19999912466E+02 0.  0.
        -12    1    1    2    0    0 -0.43062436436E+02  0.14034126592E-01 -0.54084481659E+01  0.43400748154E+02  0.00000000000E+00 0.  1.
         11    1    3    3    0    0  0.62905235872E+01 -0.20871750402E+00  0.50247808346E+01  0.80537365672E+01  0.51100000000E-03 0. -1.
        -11    1    3    3    0    0  0.34814103267E+02  0.45700537318E+00 -0.38818440454E+01  0.35032832510E+02  0.51100000000E-03 0.  1.
        -12    1    3    3    0    0  0.19578095819E+01 -0.26232199575E+00  0.42655113767E+01  0.47006827688E+01  0.00000000000E+00 0.  1.
</event>
<event>
 7    1  0.2655656E-009  0.4778727E+02  0.7816164E-02  0.1312668E+00
        -11   -1    0    0    0    0  0.00000000000E+00  0.00000000000E+00  0.45593999997E+02  0.45594000000E+02  0.51100000000E-03 0. -1.
         11   -1    0    0    0    0 -0.00000000000E+00 -0.00000000000E+00 -0.45593999997E+02  0.45594000000E+02  0.51100000000E-03 0.  1.
    9900012    2    1    2    0    0 -0.12872960594E+02 -0.41443386807E+02  0.59643940326E+00  0.47787272305E+02  0.20000005747E+02 0.  0.
        -12    1    1    2    0    0  0.12872960594E+02  0.41443386807E+02 -0.59643940326E+00  0.43400727695E+02  0.00000000000E+00 0.  1.
         11    1    3    3    0    0 -0.54088777676E+00 -0.17101853428E+02 -0.32354244698E+00  0.17113463420E+02  0.51100000000E-03 0. -1.
        -11    1    3    3    0    0 -0.88753793248E+00 -0.12689279865E+02  0.52748961772E+01  0.13770623697E+02  0.51100000000E-03 0.  1.
        -12    1    3    3    0    0 -0.11444534885E+02 -0.11652253514E+02 -0.43549143270E+01  0.16903185188E+02  0.00000000000E+00 0.  1.
</event>
<event>
 7    1  0.2655656E-009  0.4778727E+02  0.7816164E-02  0.1312668E+00
        -11   -1    0    0    0    0  0.00000000000E+00  0.00000000000E+00  0.45593999997E+02  0.45594000000E+02  0.51100000000E-03 0.  1.
         11   -1    0    0    0    0 -0.00000000000E+00 -0.00000000000E+00 -0.45593999997E+02  0.45594000000E+02  0.51100000000E-03 0. -1.
    9900012    2    1    2    0    0  0.73413334261E+01 -0.30072928424E+02 -0.30419513639E+02  0.47787274079E+02  0.20000013834E+02 0.  0.
        -12    1    1    2    0    0 -0.73413334261E+01  0.30072928424E+02  0.30419513639E+02  0.43400725921E+02  0.00000000000E+00 0.  1.
         11    1    3    3    0    0 -0.56345867143E+00 -0.14623042184E+02 -0.44247075900E+01  0.15288194331E+02  0.51100000000E-03 0. -1.
        -11    1    3    3    0    0  0.94779685081E+01 -0.12409808513E+02 -0.23686456711E+02  0.28370468204E+02  0.51100000000E-03 0.  1.
        -12    1    3    3    0    0 -0.15731764106E+01 -0.30400777271E+01 -0.23083493380E+01  0.41286115428E+01  0.00000000000E+00 0.  1.
</event>
<event>
 7    1  0.2655656E-009  0.4778727E+02  0.7816164E-02  0.1312668E+00
        -11   -1    0    0    0    0  0.00000000000E+00  0.00000000000E+00  0.45593999997E+02  0.45594000000E+02  0.51100000000E-03 0.  1.
         11   -1    0    0    0    0 -0.00000000000E+00 -0.00000000000E+00 -0.45593999997E+02  0.45594000000E+02  0.51100000000E-03 0. -1.
    9900012    2    1    2    0    0  0.29225181782E+02 -0.14976720389E+02 -0.28376218328E+02  0.47787272237E+02  0.20000005435E+02 0.  0.
        -12    1    1    2    0    0 -0.29225181782E+02  0.14976720389E+02  0.28376218328E+02  0.43400727763E+02  0.00000000000E+00 0.  1.
         11    1    3    3    0    0  0.20850307201E+02 -0.15967370228E+02 -0.23562483668E+02  0.35282897546E+02  0.51100000000E-03 0. -1.
        -11    1    3    3    0    0 -0.12688417480E+01 -0.67852974412E+00 -0.17145140191E+01  0.22382851869E+01  0.51100000000E-03 0.  1.
         12    1    3    3    0    0  0.96437163297E+01  0.16691795827E+01 -0.30992206404E+01  0.10266089504E+02  0.00000000000E+00 0. -1.
</event>
<event>
 7    1  0.2655656E-009  0.4778727E+02  0.7816164E-02  0.1312668E+00
        -11   -1    0    0    0    0  0.00000000000E+00  0.00000000000E+00  0.45593999997E+02  0.45594000000E+02  0.51100000000E-03 0.  1.
         11   -1    0    0    0    0 -0.00000000000E+00 -0.00000000000E+00 -0.45593999997E+02  0.45594000000E+02  0.51100000000E-03 0. -1.
    9900012    2    1    2    0    0  0.10213454979E+02  0.30110438612E+02 -0.29540990415E+02  0.47787270850E+02  0.19999999115E+02 0.  0.
        -12    1    1    2    0    0 -0.10213454979E+02 -0.30110438612E+02  0.29540990415E+02  0.43400729150E+02  0.00000000000E+00 0.  1.
         11    1    3    3    0    0  0.11338033522E+02  0.20797695234E+02 -0.14669313034E+02  0.27861871372E+02  0.51100000000E-03 0. -1.
        -11    1    3    3    0    0 -0.31764669480E+01  0.51555814235E+01 -0.13937587201E+02  0.15196259387E+02  0.51100000000E-03 0.  1.
        -12    1    3    3    0    0  0.20518884052E+01  0.41571619546E+01 -0.93409017975E+00  0.47291400918E+01  0.00000000000E+00 0.  1.
</event>
<event>
 7    1  0.2655656E-009  0.4778726E+02  0.7816164E-02  0.1312668E+00
        -11   -1    0    0    0    0  0.00000000000E+00  0.00000000000E+00  0.45593999997E+02  0.45594000000E+02  0.51100000000E-03 0. -1.
         11   -1    0    0    0    0 -0.00000000000E+00 -0.00000000000E+00 -0.45593999997E+02  0.45594000000E+02  0.51100000000E-03 0.  1.
    9900012    2    1    2    0    0 -0.80851285328E+01 -0.24004472037E+02  0.35242585964E+02  0.47787264446E+02  0.19999969916E+02 0.  0.
        -12    1    1    2    0    0  0.80851285328E+01  0.24004472037E+02 -0.35242585964E+02  0.43400735554E+02  0.00000000000E+00 0.  1.
         11    1    3    3    0    0 -0.41282480757E+01 -0.15668583461E+02  0.24142227215E+02  0.29075661214E+02  0.51100000000E-03 0. -1.
        -11    1    3    3    0    0  0.15438795273E+01 -0.12139412936E+00 -0.18540923491E+01  0.24157730087E+01  0.51100000000E-03 0.  1.
        -12    1    3    3    0    0 -0.55007599844E+01 -0.82144944469E+01  0.12954451098E+02  0.16295830224E+02  0.00000000000E+00 0.  1.
</event>
<event>
 7    1  0.2655656E-009  0.4778726E+02  0.7816164E-02  0.1312668E+00
        -11   -1    0    0    0    0  0.00000000000E+00  0.00000000000E+00  0.45593999997E+02  0.45594000000E+02  0.51100000000E-03 0.  1.
         11   -1    0    0    0    0 -0.00000000000E+00 -0.00000000000E+00 -0.45593999997E+02  0.45594000000E+02  0.51100000000E-03 0. -1.
    9900012    2    1    2    0    0  0.34743197558E+02 -0.17812122597E+02 -0.18954222611E+02  0.47787262186E+02  0.19999959613E+02 0.  0.
        -12    1    1    2    0    0 -0.34743197558E+02  0.17812122597E+02  0.18954222611E+02  0.43400737814E+02  0.00000000000E+00 0.  1.
         11    1    3    3    0    0  0.13655914302E+02 -0.63089372983E+01 -0.16332195199E+02  0.22204217742E+02  0.51100000000E-03 0. -1.
        -11    1    3    3    0    0  0.21227577718E+02 -0.92298385560E+01 -0.20720192994E+01  0.23239906192E+02  0.51100000000E-03 0.  1.
        -12    1    3    3    0    0 -0.14029446234E+00 -0.22733467422E+01 -0.55000811250E+00  0.23431382525E+01  0.00000000000E+00 0.  1.
</event>
<event>
 7    1  0.2655656E-009  0.4778727E+02  0.7816164E-02  0.1312668E+00
        -11   -1    0    0    0    0  0.00000000000E+00  0.00000000000E+00  0.45593999997E+02  0.45594000000E+02  0.51100000000E-03 0.  1.
         11   -1    0    0    0    0 -0.00000000000E+00 -0.00000000000E+00 -0.45593999997E+02  0.45594000000E+02  0.51100000000E-03 0. -1.
    9900012    2    1    2    0    0 -0.40491165252E+02 -0.13411149769E+02 -0.80143375523E+01  0.47787274108E+02  0.20000013966E+02 0.  0.
        -12    1    1    2    0    0  0.40491165252E+02  0.13411149769E+02  0.80143375523E+01  0.43400725892E+02  0.00000000000E+00 0.  1.
         11    1    3    3    0    0 -0.32950759946E+02 -0.84973301536E+01 -0.10037829813E+02  0.35478376913E+02  0.51100000000E-03 0. -1.
        -11    1    3    3    0    0 -0.47761814197E+01 -0.10916002273E+01  0.47805507002E+01  0.68452293803E+01  0.51100000000E-03 0.  1.
         12    1    3    3    0    0 -0.27642238858E+01 -0.38222193882E+01 -0.27570584396E+01  0.54636678141E+01  0.00000000000E+00 0. -1.
</event>
<event>
 7    1  0.2655656E-009  0.4778727E+02  0.7816164E-02  0.1312668E+00
        -11   -1    0    0    0    0  0.00000000000E+00  0.00000000000E+00  0.45593999997E+02  0.45594000000E+02  0.51100000000E-03 0. -1.
         11   -1    0    0    0    0 -0.00000000000E+00 -0.00000000000E+00 -0.45593999997E+02  0.45594000000E+02  0.51100000000E-03 0.  1.
    9900012    2    1    2    0    0 -0.14715644734E+02  0.16218950688E+02  0.37470234388E+02  0.47787273895E+02  0.20000012995E+02 0.  0.
        -12    1    1    2    0    0  0.14715644734E+02 -0.16218950688E+02 -0.37470234388E+02  0.43400726105E+02  0.00000000000E+00 0.  1.
         11    1    3    3    0    0 -0.63984772222E+01  0.90351126608E+01  0.26667533606E+02  0.28874402513E+02  0.51100000000E-03 0. -1.
        -11    1    3    3    0    0 -0.30436336517E+01  0.56654634981E+01 -0.39433000369E+00  0.64433437645E+01  0.51100000000E-03 0.  1.
        -12    1    3    3    0    0 -0.52735338601E+01  0.15183745293E+01  0.11197030786E+02  0.12469527617E+02  0.00000000000E+00 0.  1.
</event>
<event>
 7    1  0.2655656E-009  0.4778727E+02  0.7816164E-02  0.1312668E+00
        -11   -1    0    0    0    0  0.00000000000E+00  0.00000000000E+00  0.45593999997E+02  0.45594000000E+02  0.51100000000E-03 0.  1.
         11   -1    0    0    0    0 -0.00000000000E+00 -0.00000000000E+00 -0.45593999997E+02  0.45594000000E+02  0.51100000000E-03 0. -1.
    9900012    2    1    2    0    0  0.91861633267E+01  0.22002253806E+02 -0.36264844377E+02  0.47787266056E+02  0.19999977256E+02 0.  0.
        -12    1    1    2    0    0 -0.91861633267E+01 -0.22002253806E+02  0.36264844377E+02  0.43400733944E+02  0.00000000000E+00 0.  1.
         11    1    3    3    0    0  0.10838309609E+02  0.95670423655E+01 -0.86109116341E+01  0.16826914579E+02  0.51100000000E-03 0.  1.
        -11    1    3    3    0    0 -0.22761318470E+01  0.26381271314E+01 -0.11885969807E+02  0.12386152326E+02  0.51100000000E-03 0. -1.
        -12    1    3    3    0    0  0.62398556442E+00  0.97970843091E+01 -0.15767962936E+02  0.18574199151E+02  0.00000000000E+00 0.  1.
</event>
<event>
 7    1  0.2655656E-009  0.4778729E+02  0.7816164E-02  0.1312668E+00
        -11   -1    0    0    0    0  0.00000000000E+00  0.00000000000E+00  0.45593999997E+02  0.45594000000E+02  0.51100000000E-03 0.  1.
         11   -1    0    0    0    0 -0.00000000000E+00 -0.00000000000E+00 -0.45593999997E+02  0.45594000000E+02  0.51100000000E-03 0. -1.
    9900012    2    1    2    0    0 -0.98255260334E+01 -0.16531450468E+02 -0.38907482929E+02  0.47787285210E+02  0.20000064588E+02 0.  0.
        -12    1    1    2    0    0  0.98255260334E+01  0.16531450468E+02  0.38907482929E+02  0.43400714790E+02  0.00000000000E+00 0.  1.
         11    1    3    3    0    0  0.36784920085E+01 -0.57197441860E+00 -0.22886837196E+01  0.43699578512E+01  0.51100000000E-03 0.  1.
        -11    1    3    3    0    0 -0.50629942171E+01 -0.13174832322E+02 -0.25867558759E+02  0.29467621444E+02  0.51100000000E-03 0. -1.
         12    1    3    3    0    0 -0.84410238247E+01 -0.27846437276E+01 -0.10751240450E+02  0.13949705915E+02  0.00000000000E+00 0. -1.
</event>
<event>
 7    1  0.2655656E-009  0.4778729E+02  0.7816164E-02  0.1312668E+00
        -11   -1    0    0    0    0  0.00000000000E+00  0.00000000000E+00  0.45593999997E+02  0.45594000000E+02  0.51100000000E-03 0. -1.
         11   -1    0    0    0    0 -0.00000000000E+00 -0.00000000000E+00 -0.45593999997E+02  0.45594000000E+02  0.51100000000E-03 0.  1.
    9900012    2    1    2    0    0  0.21012981608E+02  0.10686592739E+02  0.36439992418E+02  0.47787289086E+02  0.20000082258E+02 0.  0.
        -12    1    1    2    0    0 -0.21012981608E+02 -0.10686592739E+02 -0.36439992418E+02  0.43400710914E+02  0.00000000000E+00 0.  1.
         11    1    3    3    0    0  0.37597994383E+01 -0.40579734296E+01  0.31754198806E+01  0.63785995211E+01  0.51100000000E-03 0. -1.
        -11    1    3    3    0    0  0.12906360392E+02  0.14987893243E+02  0.30137912589E+02  0.36048645715E+02  0.51100000000E-03 0.  1.
        -12    1    3    3    0    0  0.43468217777E+01 -0.24332707450E+00  0.31266599488E+01  0.53600438495E+01  0.00000000000E+00 0.  1.
</event>
<event>
 7    1  0.2655656E-009  0.4778726E+02  0.7816164E-02  0.1312668E+00
        -11   -1    0    0    0    0  0.00000000000E+00  0.00000000000E+00  0.45593999997E+02  0.45594000000E+02  0.51100000000E-03 0.  1.
         11   -1    0    0    0    0 -0.00000000000E+00 -0.00000000000E+00 -0.45593999997E+02  0.45594000000E+02  0.51100000000E-03 0. -1.
    9900012    2    1    2    0    0 -0.11132871112E+02 -0.12412597228E+02 -0.40070071080E+02  0.47787262846E+02  0.19999962622E+02 0.  0.
        -12    1    1    2    0    0  0.11132871112E+02  0.12412597228E+02  0.40070071080E+02  0.43400737154E+02  0.00000000000E+00 0.  1.
         11    1    3    3    0    0  0.19969956002E+01 -0.12534067938E+02 -0.20717666058E+02  0.24296348237E+02  0.51100000000E-03 0. -1.
        -11    1    3    3    0    0 -0.59569970266E+01  0.37940833746E+00 -0.69509271419E+01  0.91621587333E+01  0.51100000000E-03 0.  1.
         12    1    3    3    0    0 -0.71728696855E+01 -0.25793762695E+00 -0.12401477880E+02  0.14328755876E+02  0.00000000000E+00 0. -1.
</event>
<event>
 7    1  0.2655656E-009  0.4778727E+02  0.7816164E-02  0.1312668E+00
        -11   -1    0    0    0    0  0.00000000000E+00  0.00000000000E+00  0.45593999997E+02  0.45594000000E+02  0.51100000000E-03 0. -1.
         11   -1    0    0    0    0 -0.00000000000E+00 -0.00000000000E+00 -0.45593999997E+02  0.45594000000E+02  0.51100000000E-03 0.  1.
    9900012    2    1    2    0    0 -0.20692209206E+02 -0.13362248028E+01  0.38127029843E+02  0.47787269324E+02  0.19999992155E+02 0.  0.
        -12    1    1    2    0    0  0.20692209206E+02  0.13362248028E+01 -0.38127029843E+02  0.43400730676E+02  0.00000000000E+00 0.  1.
         11    1    3    3    0    0 -0.85115789041E+01  0.14486850167E+01  0.26656302245E+02  0.28019709373E+02  0.51100000000E-03 0. -1.
        -11    1    3    3    0    0 -0.30881044336E+01 -0.47712498846E+01  0.10214864703E+01  0.57744826023E+01  0.51100000000E-03 0.  1.
         12    1    3    3    0    0 -0.90925258685E+01  0.19863400652E+01  0.10449241129E+02  0.13993077349E+02  0.00000000000E+00 0. -1.
</event>
<event>
 7    1  0.2655656E-009  0.4778727E+02  0.7816164E-02  0.1312668E+00
        -11   -1    0    0    0    0  0.00000000000E+00  0.00000000000E+00  0.45593999997E+02  0.45594000000E+02  0.51100000000E-03 0.  1.
         11   -1    0    0    0    0 -0.00000000000E+00 -0.00000000000E+00 -0.45593999997E+02  0.45594000000E+02  0.51100000000E-03 0. -1.
    9900012    2    1    2    0    0  0.10377024590E+02 -0.40493802206E+02 -0.11670152872E+02  0.47787272765E+02  0.20000007847E+02 0.  0.
        -12    1    1    2    0    0 -0.10377024590E+02  0.40493802206E+02  0.11670152872E+02  0.43400727235E+02  0.00000000000E+00 0.  1.
         11    1    3    3    0    0  0.68533263063E+00 -0.14864089061E+02 -0.10973262600E+02  0.18488464425E+02  0.51100000000E-03 0. -1.
        -11    1    3    3    0    0  0.11550374453E+02 -0.18026813239E+02 -0.12973078199E+01  0.21449012877E+02  0.51100000000E-03 0.  1.
        -12    1    3    3    0    0 -0.18586824938E+01 -0.76028999057E+01  0.60041754770E+00  0.78497954636E+01  0.00000000000E+00 0.  1.
</event>
<event>
 7    1  0.2655656E-009  0.4778727E+02  0.7816164E-02  0.1312668E+00
        -11   -1    0    0    0    0  0.00000000000E+00  0.00000000000E+00  0.45593999997E+02  0.45594000000E+02  0.51100000000E-03 0.  1.
         11   -1    0    0    0    0 -0.00000000000E+00 -0.00000000000E+00 -0.45593999997E+02  0.45594000000E+02  0.51100000000E-03 0. -1.
    9900012    2    1    2    0    0  0.76071080401E+01  0.69563557592E+01 -0.42158800209E+02  0.47787269439E+02  0.19999992681E+02 0.  0.
        -12    1    1    2    0    0 -0.76071080401E+01 -0.69563557592E+01  0.42158800209E+02  0.43400730561E+02  0.00000000000E+00 0.  1.
         11    1    3    3    0    0 -0.30351093379E+01  0.68804091891E+01 -0.20379086893E+02  0.21722318066E+02  0.51100000000E-03 0. -1.
        -11    1    3    3    0    0  0.49503065773E+01 -0.43215274045E+01 -0.68464633971E+01  0.94897415995E+01  0.51100000000E-03 0.  1.
         12    1    3    3    0    0  0.56919108008E+01  0.43974739746E+01 -0.14933249919E+02  0.16575209774E+02  0.00000000000E+00 0. -1.
</event>
<event>
 7    1  0.2655656E-009  0.4778727E+02  0.7816164E-02  0.1312668E+00
        -11   -1    0    0    0    0  0.00000000000E+00  0.00000000000E+00  0.45593999997E+02  0.45594000000E+02  0.51100000000E-03 0.  1.
         11   -1    0    0    0    0 -0.00000000000E+00 -0.00000000000E+00 -0.45593999997E+02  0.45594000000E+02  0.51100000000E-03 0. -1.
    9900012    2    1    2    0    0 -0.34926417731E+02 -0.92587178441E+01 -0.24042560151E+02  0.47787271777E+02  0.20000003340E+02 0.  0.
        -12    1    1    2    0    0  0.34926417731E+02  0.92587178441E+01  0.24042560151E+02  0.43400728223E+02  0.00000000000E+00 0.  1.
         11    1    3    3    0    0 -0.79928371621E+01  0.42485121257E+00 -0.79233553193E+01  0.11262570942E+02  0.51100000000E-03 0. -1.
        -11    1    3    3    0    0 -0.21744363683E+02 -0.11352549106E+02 -0.18351269257E+02  0.30634405605E+02  0.51100000000E-03 0.  1.
        -12    1    3    3    0    0 -0.51892168868E+01  0.16689800488E+01  0.22320644250E+01  0.58902952302E+01  0.00000000000E+00 0.  1.
</event>
<event>
 7    1  0.2655656E-009  0.4778727E+02  0.7816164E-02  0.1312668E+00
        -11   -1    0    0    0    0  0.00000000000E+00  0.00000000000E+00  0.45593999997E+02  0.45594000000E+02  0.51100000000E-03 0.  1.
         11   -1    0    0    0    0 -0.00000000000E+00 -0.00000000000E+00 -0.45593999997E+02  0.45594000000E+02  0.51100000000E-03 0. -1.
    9900012    2    1    2    0    0 -0.28682417847E+02  0.11725777340E+02 -0.30388295482E+02  0.47787269014E+02  0.19999990744E+02 0.  0.
        -12    1    1    2    0    0  0.28682417847E+02 -0.11725777340E+02  0.30388295482E+02  0.43400730986E+02  0.00000000000E+00 0.  1.
         11    1    3    3    0    0 -0.47414871320E+01 -0.12726249220E+01 -0.10924140861E+02  0.11976565795E+02  0.51100000000E-03 0. -1.
        -11    1    3    3    0    0 -0.18063918612E+02  0.15265610101E+02 -0.16576411851E+02  0.28881160598E+02  0.51100000000E-03 0.  1.
        -12    1    3    3    0    0 -0.58770121028E+01 -0.22672078388E+01 -0.28877427699E+01  0.69295426217E+01  0.00000000000E+00 0.  1.
</event>
<event>
 7    1  0.2655656E-009  0.4778727E+02  0.7816164E-02  0.1312668E+00
        -11   -1    0    0    0    0  0.00000000000E+00  0.00000000000E+00  0.45593999997E+02  0.45594000000E+02  0.51100000000E-03 0. -1.
         11   -1    0    0    0    0 -0.00000000000E+00 -0.00000000000E+00 -0.45593999997E+02  0.45594000000E+02  0.51100000000E-03 0.  1.
    9900012    2    1    2    0    0  0.17534147181E+02  0.83880900444E+01  0.38804858455E+02  0.47787269457E+02  0.19999992763E+02 0.  0.
        -12    1    1    2    0    0 -0.17534147181E+02 -0.83880900444E+01 -0.38804858455E+02  0.43400730543E+02  0.00000000000E+00 0.  1.
         11    1    3    3    0    0  0.19349898051E+02  0.10540433961E+02  0.34814471536E+02  0.41201537972E+02  0.51100000000E-03 0. -1.
        -11    1    3    3    0    0 -0.30220213748E+00 -0.31959376726E+01  0.16494092611E+01  0.36091404670E+01  0.51100000000E-03 0.  1.
         12    1    3    3    0    0 -0.15135487331E+01  0.10435937559E+01  0.23409776578E+01  0.29765910181E+01  0.00000000000E+00 0. -1.
</event>
<event>
 7    1  0.2655656E-009  0.4778727E+02  0.7816164E-02  0.1312668E+00
        -11   -1    0    0    0    0  0.00000000000E+00  0.00000000000E+00  0.45593999997E+02  0.45594000000E+02  0.51100000000E-03 0. -1.
         11   -1    0    0    0    0 -0.00000000000E+00 -0.00000000000E+00 -0.45593999997E+02  0.45594000000E+02  0.51100000000E-03 0.  1.
    9900012    2    1    2    0    0  0.35863219834E+02 -0.30767771356E+01 -0.24248422603E+02  0.47787273127E+02  0.20000009496E+02 0.  0.
        -12    1    1    2    0    0 -0.35863219834E+02  0.30767771356E+01  0.24248422603E+02  0.43400726873E+02  0.00000000000E+00 0.  1.
         11    1    3    3    0    0  0.16480078490E+02 -0.59696124607E+01 -0.13312996857E+02  0.22010568951E+02  0.51100000000E-03 0. -1.
        -11    1    3    3    0    0  0.17200932106E+02 -0.17362603437E+00 -0.36621161744E+01  0.17587305264E+02  0.51100000000E-03 0.  1.
        -12    1    3    3    0    0  0.21822092375E+01  0.30664613594E+01 -0.72733095710E+01  0.81893989121E+01  0.00000000000E+00 0.  1.
</event>
<event>
 7    1  0.2655656E-009  0.4778727E+02  0.7816164E-02  0.1312668E+00
        -11   -1    0    0    0    0  0.00000000000E+00  0.00000000000E+00  0.45593999997E+02  0.45594000000E+02  0.51100000000E-03 0. -1.
         11   -1    0    0    0    0 -0.00000000000E+00 -0.00000000000E+00 -0.45593999997E+02  0.45594000000E+02  0.51100000000E-03 0.  1.
    9900012    2    1    2    0    0  0.42708563215E+01 -0.34022880909E+02  0.26605013582E+02  0.47787269744E+02  0.19999994070E+02 0.  0.
        -12    1    1    2    0    0 -0.42708563215E+01  0.34022880909E+02 -0.26605013582E+02  0.43400730256E+02  0.00000000000E+00 0.  1.
         11    1    3    3    0    0 -0.66772917706E+01 -0.22183999679E+02  0.17899331673E+02  0.29276306833E+02  0.51100000000E-03 0. -1.
        -11    1    3    3    0    0  0.80474535701E+01 -0.79595868863E+01  0.48252303476E+01  0.12304445560E+02  0.51100000000E-03 0.  1.
         12    1    3    3    0    0  0.29006945220E+01 -0.38792943435E+01  0.38804515614E+01  0.62065173514E+01  0.00000000000E+00 0. -1.
</event>
<event>
 7    1  0.2655656E-009  0.4778727E+02  0.7816164E-02  0.1312668E+00
        -11   -1    0    0    0    0  0.00000000000E+00  0.00000000000E+00  0.45593999997E+02  0.45594000000E+02  0.51100000000E-03 0.  1.
         11   -1    0    0    0    0 -0.00000000000E+00 -0.00000000000E+00 -0.45593999997E+02  0.45594000000E+02  0.51100000000E-03 0. -1.
    9900012    2    1    2    0    0  0.18352722501E+02  0.94115014937E+01 -0.38186703487E+02  0.47787272969E+02  0.20000008777E+02 0.  0.
        -12    1    1    2    0    0 -0.18352722501E+02 -0.94115014937E+01  0.38186703487E+02  0.43400727031E+02  0.00000000000E+00 0.  1.
         11    1    3    3    0    0  0.96659325240E+01  0.79593015661E+01 -0.29607353568E+02  0.32146168022E+02  0.51100000000E-03 0. -1.
        -11    1    3    3    0    0  0.94416648758E+01  0.62755981463E+00 -0.29644515344E+01  0.99159891140E+01  0.51100000000E-03 0.  1.
        -12    1    3    3    0    0 -0.75487489857E+00  0.82464011300E+00 -0.56148983852E+01  0.57251158333E+01  0.00000000000E+00 0.  1.
</event>
<event>
 7    1  0.2655656E-009  0.4778727E+02  0.7816164E-02  0.1312668E+00
        -11   -1    0    0    0    0  0.00000000000E+00  0.00000000000E+00  0.45593999997E+02  0.45594000000E+02  0.51100000000E-03 0.  1.
         11   -1    0    0    0    0 -0.00000000000E+00 -0.00000000000E+00 -0.45593999997E+02  0.45594000000E+02  0.51100000000E-03 0. -1.
    9900012    2    1    2    0    0  0.14918692635E+02 -0.33376609669E+02 -0.23389268308E+02  0.47787270341E+02  0.19999996791E+02 0.  0.
        -12    1    1    2    0    0 -0.14918692635E+02  0.33376609669E+02  0.23389268308E+02  0.43400729659E+02  0.00000000000E+00 0.  1.
         11    1    3    3    0    0  0.13660169436E+02 -0.21236220623E+02 -0.19987750535E+02  0.32203842427E+02  0.51100000000E-03 0. -1.
        -11    1    3    3    0    0 -0.11636428222E+01  0.11807296673E+01 -0.19341801791E+00  0.16690110712E+01  0.51100000000E-03 0.  1.
        -12    1    3    3    0    0  0.24221660220E+01 -0.13321118713E+02 -0.32080997551E+01  0.13914416842E+02  0.00000000000E+00 0.  1.
</event>
<event>
 7    1  0.2655656E-009  0.4778726E+02  0.7816164E-02  0.1312668E+00
        -11   -1    0    0    0    0  0.00000000000E+00  0.00000000000E+00  0.45593999997E+02  0.45594000000E+02  0.51100000000E-03 0.  1.
         11   -1    0    0    0    0 -0.00000000000E+00 -0.00000000000E+00 -0.45593999997E+02  0.45594000000E+02  0.51100000000E-03 0. -1.
    9900012    2    1    2    0    0  0.21699225940E+02  0.15640617567E+02 -0.34178048686E+02  0.47787258805E+02  0.19999944196E+02 0.  0.
        -12    1    1    2    0    0 -0.21699225940E+02 -0.15640617567E+02  0.34178048686E+02  0.43400741195E+02  0.00000000000E+00 0.  1.
         11    1    3    3    0    0  0.11686607497E+02  0.11581018277E+02 -0.95517523660E+01  0.19024530287E+02  0.51100000000E-03 0.  1.
        -11    1    3    3    0    0  0.10199915803E+02  0.50011641869E+01 -0.25201528149E+02  0.27643569721E+02  0.51100000000E-03 0. -1.
         12    1    3    3    0    0 -0.18729735890E+00 -0.94156489704E+00  0.57523182936E+00  0.11191587973E+01  0.00000000000E+00 0. -1.
</event>
<event>
 7    1  0.2655656E-009  0.4778726E+02  0.7816164E-02  0.1312668E+00
        -11   -1    0    0    0    0  0.00000000000E+00  0.00000000000E+00  0.45593999997E+02  0.45594000000E+02  0.51100000000E-03 0.  1.
         11   -1    0    0    0    0 -0.00000000000E+00 -0.00000000000E+00 -0.45593999997E+02  0.45594000000E+02  0.51100000000E-03 0. -1.
    9900012    2    1    2    0    0 -0.73406532784E+01  0.93230308732E+01 -0.41747092543E+02  0.47787264626E+02  0.19999970736E+02 0.  0.
        -12    1    1    2    0    0  0.73406532784E+01 -0.93230308732E+01  0.41747092543E+02  0.43400735374E+02  0.00000000000E+00 0.  1.
         11    1    3    3    0    0 -0.15459936486E+01  0.15312365425E+00 -0.11113477244E+02  0.11221538216E+02  0.51100000000E-03 0. -1.
        -11    1    3    3    0    0  0.57038605042E+01  0.24064853037E+01 -0.13495218284E+02  0.14847427823E+02  0.51100000000E-03 0.  1.
        -12    1    3    3    0    0 -0.11498520134E+02  0.67634219152E+01 -0.17138397016E+02  0.21718298588E+02  0.00000000000E+00 0.  1.
</event>
<event>
 7    1  0.2655656E-009  0.4778727E+02  0.7816164E-02  0.1312668E+00
        -11   -1    0    0    0    0  0.00000000000E+00  0.00000000000E+00  0.45593999997E+02  0.45594000000E+02  0.51100000000E-03 0.  1.
         11   -1    0    0    0    0 -0.00000000000E+00 -0.00000000000E+00 -0.45593999997E+02  0.45594000000E+02  0.51100000000E-03 0. -1.
    9900012    2    1    2    0    0  0.27114510402E+02  0.31679991604E+02  0.12033486734E+02  0.47787270221E+02  0.19999996247E+02 0.  0.
        -12    1    1    2    0    0 -0.27114510402E+02 -0.31679991604E+02 -0.12033486734E+02  0.43400729779E+02  0.00000000000E+00 0.  1.
         11    1    3    3    0    0  0.83336938135E+01  0.83147065911E+01  0.49463080949E+01  0.12769133185E+02  0.51100000000E-03 0. -1.
        -11    1    3    3    0    0  0.13417310559E+02  0.25212666008E+02  0.66767891202E+01  0.29330568748E+02  0.51100000000E-03 0.  1.
        -12    1    3    3    0    0  0.53635060293E+01 -0.18473809957E+01  0.41038951888E+00  0.56875682876E+01  0.00000000000E+00 0.  1.
</event>
<event>
 7    1  0.2655656E-009  0.4778731E+02  0.7816164E-02  0.1312668E+00
        -11   -1    0    0    0    0  0.00000000000E+00  0.00000000000E+00  0.45593999997E+02  0.45594000000E+02  0.51100000000E-03 0.  1.
         11   -1    0    0    0    0 -0.00000000000E+00 -0.00000000000E+00 -0.45593999997E+02  0.45594000000E+02  0.51100000000E-03 0. -1.
    9900012    2    1    2    0    0  0.21860860386E+02 -0.13491360180E+01 -0.37468688444E+02  0.47787308778E+02  0.20000172043E+02 0.  0.
        -12    1    1    2    0    0 -0.21860860386E+02  0.13491360180E+01  0.37468688444E+02  0.43400691222E+02  0.00000000000E+00 0.  1.
         11    1    3    3    0    0  0.13620335483E+02 -0.15210246628E+01 -0.25511502565E+02  0.28959692990E+02  0.51100000000E-03 0. -1.
        -11    1    3    3    0    0  0.82582003765E+01  0.24722922086E+01 -0.23303933660E+01  0.89297724341E+01  0.51100000000E-03 0.  1.
        -12    1    3    3    0    0 -0.17675473188E-01 -0.23004035639E+01 -0.96267925132E+01  0.98978433545E+01  0.00000000000E+00 0.  1.
</event>
<event>
 7    1  0.2655656E-009  0.4778727E+02  0.7816164E-02  0.1312668E+00
        -11   -1    0    0    0    0  0.00000000000E+00  0.00000000000E+00  0.45593999997E+02  0.45594000000E+02  0.51100000000E-03 0.  1.
         11   -1    0    0    0    0 -0.00000000000E+00 -0.00000000000E+00 -0.45593999997E+02  0.45594000000E+02  0.51100000000E-03 0. -1.
    9900012    2    1    2    0    0 -0.10619444931E+02  0.36742591739E+01 -0.41920763685E+02  0.47787271676E+02  0.20000002879E+02 0.  0.
        -12    1    1    2    0    0  0.10619444931E+02 -0.36742591739E+01  0.41920763685E+02  0.43400728324E+02  0.00000000000E+00 0.  1.
         11    1    3    3    0    0 -0.48537404063E+01  0.54969910387E+01 -0.25446590647E+02  0.26482157809E+02  0.51100000000E-03 0. -1.
        -11    1    3    3    0    0  0.16015179657E+01 -0.24796274868E+01  0.30547143897E+00  0.29676127323E+01  0.51100000000E-03 0.  1.
        -12    1    3    3    0    0 -0.73672224905E+01  0.65689562196E+00 -0.16779644477E+02  0.18337501135E+02  0.00000000000E+00 0.  1.
</event>
<event>
 7    1  0.2655656E-009  0.4778728E+02  0.7816164E-02  0.1312668E+00
        -11   -1    0    0    0    0  0.00000000000E+00  0.00000000000E+00  0.45593999997E+02  0.45594000000E+02  0.51100000000E-03 0. -1.
         11   -1    0    0    0    0 -0.00000000000E+00 -0.00000000000E+00 -0.45593999997E+02  0.45594000000E+02  0.51100000000E-03 0.  1.
    9900012    2    1    2    0    0 -0.32109744429E+02  0.28685917353E+02 -0.54502582369E+01  0.47787275852E+02  0.20000021919E+02 0.  0.
        -12    1    1    2    0    0  0.32109744429E+02 -0.28685917353E+02  0.54502582369E+01  0.43400724148E+02  0.00000000000E+00 0.  1.
         11    1    3    3    0    0 -0.10946532829E+02  0.94012575343E+01  0.44782398414E+01  0.15108436601E+02  0.51100000000E-03 0. -1.
        -11    1    3    3    0    0 -0.29680689146E+01  0.34643494404E+01  0.28618399727E+01  0.53852835039E+01  0.51100000000E-03 0.  1.
         12    1    3    3    0    0 -0.18195142686E+02  0.15820310379E+02 -0.12790338051E+02  0.27293555747E+02  0.00000000000E+00 0. -1.
</event>
<event>
 7    1  0.2655656E-009  0.4778727E+02  0.7816164E-02  0.1312668E+00
        -11   -1    0    0    0    0  0.00000000000E+00  0.00000000000E+00  0.45593999997E+02  0.45594000000E+02  0.51100000000E-03 0. -1.
         11   -1    0    0    0    0 -0.00000000000E+00 -0.00000000000E+00 -0.45593999997E+02  0.45594000000E+02  0.51100000000E-03 0.  1.
    9900012    2    1    2    0    0  0.36826540112E+02 -0.16377068019E+01  0.22907354030E+02  0.47787274098E+02  0.20000013924E+02 0.  0.
        -12    1    1    2    0    0 -0.36826540112E+02  0.16377068019E+01 -0.22907354030E+02  0.43400725902E+02  0.00000000000E+00 0.  1.
         11    1    3    3    0    0  0.33272217332E+01 -0.46673490879E+00 -0.74065836814E+00  0.34404681391E+01  0.51100000000E-03 0. -1.
        -11    1    3    3    0    0  0.15596917220E+02  0.74172301724E+01  0.78408211731E+01  0.18967277272E+02  0.51100000000E-03 0.  1.
        -12    1    3    3    0    0  0.17902401159E+02 -0.85882020655E+01  0.15807191225E+02  0.25379528687E+02  0.00000000000E+00 0.  1.
</event>
<event>
 7    1  0.2655656E-009  0.4778726E+02  0.7816164E-02  0.1312668E+00
        -11   -1    0    0    0    0  0.00000000000E+00  0.00000000000E+00  0.45593999997E+02  0.45594000000E+02  0.51100000000E-03 0.  1.
         11   -1    0    0    0    0 -0.00000000000E+00 -0.00000000000E+00 -0.45593999997E+02  0.45594000000E+02  0.51100000000E-03 0. -1.
    9900012    2    1    2    0    0  0.31012877783E+02 -0.16477217834E+02 -0.25501506240E+02  0.47787261337E+02  0.19999955742E+02 0.  0.
        -12    1    1    2    0    0 -0.31012877783E+02  0.16477217834E+02  0.25501506240E+02  0.43400738663E+02  0.00000000000E+00 0.  1.
         11    1    3    3    0    0  0.15079693386E+02 -0.13701061458E+02 -0.21092614170E+02  0.29326005703E+02  0.51100000000E-03 0. -1.
        -11    1    3    3    0    0  0.13419551399E+02 -0.27750025822E+01 -0.65230003194E+01  0.15176776090E+02  0.51100000000E-03 0.  1.
         12    1    3    3    0    0  0.25136329990E+01 -0.11537936661E-02  0.21141082497E+01  0.32844795442E+01  0.00000000000E+00 0. -1.
</event>
<event>
 7    1  0.2655656E-009  0.4778727E+02  0.7816164E-02  0.1312668E+00
        -11   -1    0    0    0    0  0.00000000000E+00  0.00000000000E+00  0.45593999997E+02  0.45594000000E+02  0.51100000000E-03 0. -1.
         11   -1    0    0    0    0 -0.00000000000E+00 -0.00000000000E+00 -0.45593999997E+02  0.45594000000E+02  0.51100000000E-03 0.  1.
    9900012    2    1    2    0    0  0.35382161438E+02 -0.70172410292E+01  0.24134714813E+02  0.47787268684E+02  0.19999989236E+02 0.  0.
        -12    1    1    2    0    0 -0.35382161438E+02  0.70172410292E+01 -0.24134714813E+02  0.43400731316E+02  0.00000000000E+00 0.  1.
         11    1    3    3    0    0  0.68698106010E+01 -0.60692113947E+01  0.26934248622E+00  0.91707235419E+01  0.51100000000E-03 0. -1.
        -11    1    3    3    0    0 -0.45016426531E+00  0.12175853590E+01  0.13014226179E+01  0.18381683991E+01  0.51100000000E-03 0.  1.
         12    1    3    3    0    0  0.28962515102E+02 -0.21656149935E+01  0.22563949709E+02  0.36778376743E+02  0.00000000000E+00 0. -1.
</event>
<event>
 7    1  0.2655656E-009  0.4778727E+02  0.7816164E-02  0.1312668E+00
        -11   -1    0    0    0    0  0.00000000000E+00  0.00000000000E+00  0.45593999997E+02  0.45594000000E+02  0.51100000000E-03 0. -1.
         11   -1    0    0    0    0 -0.00000000000E+00 -0.00000000000E+00 -0.45593999997E+02  0.45594000000E+02  0.51100000000E-03 0.  1.
    9900012    2    1    2    0    0  0.36379793434E+02 -0.11540436185E+02  0.20662819598E+02  0.47787272456E+02  0.20000006436E+02 0.  0.
        -12    1    1    2    0    0 -0.36379793434E+02  0.11540436185E+02 -0.20662819598E+02  0.43400727544E+02  0.00000000000E+00 0.  1.
         11    1    3    3    0    0  0.25672067435E+02 -0.83711705850E+01  0.19141421912E+02  0.33098724695E+02  0.51100000000E-03 0. -1.
        -11    1    3    3    0    0  0.61429727906E+00 -0.38272242782E+01 -0.14622079352E+01  0.41428322594E+01  0.51100000000E-03 0.  1.
        -12    1    3    3    0    0  0.10093428720E+02  0.65795867850E+00  0.29836056205E+01  0.10545715501E+02  0.00000000000E+00 0.  1.
</event>
<event>
 7    1  0.2655656E-009  0.4778726E+02  0.7816164E-02  0.1312668E+00
        -11   -1    0    0    0    0  0.00000000000E+00  0.00000000000E+00  0.45593999997E+02  0.45594000000E+02  0.51100000000E-03 0. -1.
         11   -1    0    0    0    0 -0.00000000000E+00 -0.00000000000E+00 -0.45593999997E+02  0.45594000000E+02  0.51100000000E-03 0.  1.
    9900012    2    1    2    0    0 -0.24990434879E+02 -0.32932808387E+02  0.13211071701E+02  0.47787261306E+02  0.19999955600E+02 0.  0.
        -12    1    1    2    0    0  0.24990434879E+02  0.32932808387E+02 -0.13211071701E+02  0.43400738694E+02  0.00000000000E+00 0.  1.
         11    1    3    3    0    0  0.80116738837E+00 -0.94656590941E+01  0.78596784181E+00  0.95319629132E+01  0.51100000000E-03 0.  1.
        -11    1    3    3    0    0 -0.10522085178E+02 -0.15822411579E+02  0.50998006236E+01  0.19674118820E+02  0.51100000000E-03 0. -1.
         12    1    3    3    0    0 -0.15269517089E+02 -0.76447377133E+01  0.73253032354E+01  0.18581179573E+02  0.00000000000E+00 0. -1.
</event>
<event>
 7    1  0.2655656E-009  0.4778726E+02  0.7816164E-02  0.1312668E+00
        -11   -1    0    0    0    0  0.00000000000E+00  0.00000000000E+00  0.45593999997E+02  0.45594000000E+02  0.51100000000E-03 0.  1.
         11   -1    0    0    0    0 -0.00000000000E+00 -0.00000000000E+00 -0.45593999997E+02  0.45594000000E+02  0.51100000000E-03 0. -1.
    9900012    2    1    2    0    0  0.38524163241E+01  0.42986861547E+02 -0.45730252942E+01  0.47787263399E+02  0.19999965141E+02 0.  0.
        -12    1    1    2    0    0 -0.38524163241E+01 -0.42986861547E+02  0.45730252942E+01  0.43400736601E+02  0.00000000000E+00 0.  1.
         11    1    3    3    0    0  0.87582175808E+01  0.15347682352E+02  0.30195369434E+01  0.17926944312E+02  0.51100000000E-03 0.  1.
        -11    1    3    3    0    0 -0.37944659441E+01  0.17758403633E+02 -0.15503523659E+01  0.18225324801E+02  0.51100000000E-03 0. -1.
        -12    1    3    3    0    0 -0.11113353125E+01  0.98807755621E+01 -0.60422098716E+01  0.11634994285E+02  0.00000000000E+00 0.  1.
</event>
<event>
 7    1  0.2655656E-009  0.4778727E+02  0.7816164E-02  0.1312668E+00
        -11   -1    0    0    0    0  0.00000000000E+00  0.00000000000E+00  0.45593999997E+02  0.45594000000E+02  0.51100000000E-03 0.  1.
         11   -1    0    0    0    0 -0.00000000000E+00 -0.00000000000E+00 -0.45593999997E+02  0.45594000000E+02  0.51100000000E-03 0. -1.
    9900012    2    1    2    0    0 -0.22637651821E+02  0.37018671693E+02 -0.88199813346E+00  0.47787271267E+02  0.20000001013E+02 0.  0.
        -12    1    1    2    0    0  0.22637651821E+02 -0.37018671693E+02  0.88199813346E+00  0.43400728733E+02  0.00000000000E+00 0.  1.
         11    1    3    3    0    0 -0.11799279800E+02  0.25371513970E+02  0.33108123772E+01  0.28176199243E+02  0.51100000000E-03 0. -1.
        -11    1    3    3    0    0 -0.56655830064E+01  0.59491666676E+01 -0.76029636603E+01  0.11193590645E+02  0.51100000000E-03 0.  1.
        -12    1    3    3    0    0 -0.51727890151E+01  0.56979910548E+01  0.34101531496E+01  0.84174813786E+01  0.00000000000E+00 0.  1.
</event>
<event>
 7    1  0.2655656E-009  0.4778727E+02  0.7816164E-02  0.1312668E+00
        -11   -1    0    0    0    0  0.00000000000E+00  0.00000000000E+00  0.45593999997E+02  0.45594000000E+02  0.51100000000E-03 0.  1.
         11   -1    0    0    0    0 -0.00000000000E+00 -0.00000000000E+00 -0.45593999997E+02  0.45594000000E+02  0.51100000000E-03 0. -1.
    9900012    2    1    2    0    0 -0.23646859004E+01 -0.29931544231E+02 -0.31339019980E+02  0.47787271288E+02  0.20000001109E+02 0.  0.
        -12    1    1    2    0    0  0.23646859004E+01  0.29931544231E+02  0.31339019980E+02  0.43400728712E+02  0.00000000000E+00 0.  1.
         11    1    3    3    0    0 -0.33362136206E+01 -0.17188858981E+02 -0.27465406679E+02  0.32572008822E+02  0.51100000000E-03 0. -1.
        -11    1    3    3    0    0 -0.15360025184E+01 -0.98633979309E+01 -0.30172227465E+00  0.99868392934E+01  0.51100000000E-03 0.  1.
         12    1    3    3    0    0  0.25075302386E+01 -0.28792873187E+01 -0.35718910266E+01  0.52284231722E+01  0.00000000000E+00 0. -1.
</event>
<event>
 7    1  0.2655656E-009  0.4778727E+02  0.7816164E-02  0.1312668E+00
        -11   -1    0    0    0    0  0.00000000000E+00  0.00000000000E+00  0.45593999997E+02  0.45594000000E+02  0.51100000000E-03 0.  1.
         11   -1    0    0    0    0 -0.00000000000E+00 -0.00000000000E+00 -0.45593999997E+02  0.45594000000E+02  0.51100000000E-03 0. -1.
    9900012    2    1    2    0    0 -0.42001928139E+02 -0.99874503209E+01 -0.44398340801E+01  0.47787271228E+02  0.20000000838E+02 0.  0.
        -12    1    1    2    0    0  0.42001928139E+02  0.99874503209E+01  0.44398340801E+01  0.43400728772E+02  0.00000000000E+00 0.  1.
         11    1    3    3    0    0 -0.34784159645E+02 -0.10898603127E+02 -0.10646744208E+02  0.37974603024E+02  0.51100000000E-03 0. -1.
        -11    1    3    3    0    0 -0.62719669336E+01  0.14090241779E+01  0.46913407247E+01  0.79581151290E+01  0.51100000000E-03 0.  1.
         12    1    3    3    0    0 -0.94580156010E+00 -0.49787137140E+00  0.15155694031E+01  0.18545530754E+01  0.00000000000E+00 0. -1.
</event>
<event>
 7    1  0.2655656E-009  0.4778728E+02  0.7816164E-02  0.1312668E+00
        -11   -1    0    0    0    0  0.00000000000E+00  0.00000000000E+00  0.45593999997E+02  0.45594000000E+02  0.51100000000E-03 0. -1.
         11   -1    0    0    0    0 -0.00000000000E+00 -0.00000000000E+00 -0.45593999997E+02  0.45594000000E+02  0.51100000000E-03 0.  1.
    9900012    2    1    2    0    0 -0.18679472743E+02  0.33569992854E+02  0.20192950449E+02  0.47787281457E+02  0.20000047476E+02 0.  0.
        -12    1    1    2    0    0  0.18679472743E+02 -0.33569992854E+02 -0.20192950449E+02  0.43400718543E+02  0.00000000000E+00 0.  1.
         11    1    3    3    0    0 -0.19475451812E+01  0.11896899064E+02  0.12810090915E+02  0.17590553405E+02  0.51100000000E-03 0.  1.
        -11    1    3    3    0    0  0.42285101228E+00  0.10325432970E+01  0.27411602293E+01  0.29595452864E+01  0.51100000000E-03 0. -1.
         12    1    3    3    0    0 -0.17154778574E+02  0.20640550493E+02  0.46416993045E+01  0.27237182766E+02  0.00000000000E+00 0. -1.
</event>
<event>
 7    1  0.2655656E-009  0.4778727E+02  0.7816164E-02  0.1312668E+00
        -11   -1    0    0    0    0  0.00000000000E+00  0.00000000000E+00  0.45593999997E+02  0.45594000000E+02  0.51100000000E-03 0.  1.
         11   -1    0    0    0    0 -0.00000000000E+00 -0.00000000000E+00 -0.45593999997E+02  0.45594000000E+02  0.51100000000E-03 0. -1.
    9900012    2    1    2    0    0 -0.16551858314E+02 -0.13324058615E+02 -0.37843476002E+02  0.47787271578E+02  0.20000002433E+02 0.  0.
        -12    1    1    2    0    0  0.16551858314E+02  0.13324058615E+02  0.37843476002E+02  0.43400728422E+02  0.00000000000E+00 0.  1.
         11    1    3    3    0    0 -0.15326517461E+02 -0.32607605512E+01 -0.29703447223E+02  0.33583172484E+02  0.51100000000E-03 0. -1.
        -11    1    3    3    0    0 -0.34800049623E+01 -0.71642780847E+01 -0.57192103372E+01  0.98054414564E+01  0.51100000000E-03 0.  1.
         12    1    3    3    0    0  0.22546641094E+01 -0.28990199795E+01 -0.24208184415E+01  0.43986576378E+01  0.00000000000E+00 0. -1.
</event>
<event>
 7    1  0.2655656E-009  0.4778727E+02  0.7816164E-02  0.1312668E+00
        -11   -1    0    0    0    0  0.00000000000E+00  0.00000000000E+00  0.45593999997E+02  0.45594000000E+02  0.51100000000E-03 0.  1.
         11   -1    0    0    0    0 -0.00000000000E+00 -0.00000000000E+00 -0.45593999997E+02  0.45594000000E+02  0.51100000000E-03 0. -1.
    9900012    2    1    2    0    0  0.41230588820E+02 -0.12256219229E+02 -0.57833640453E+01  0.47787266551E+02  0.19999979511E+02 0.  0.
        -12    1    1    2    0    0 -0.41230588820E+02  0.12256219229E+02  0.57833640453E+01  0.43400733449E+02  0.00000000000E+00 0.  1.
         11    1    3    3    0    0  0.23337862417E+02 -0.76095300939E+01 -0.41488315037E+01  0.24895252028E+02  0.51100000000E-03 0. -1.
        -11    1    3    3    0    0  0.19592074172E+00 -0.18795948241E+01 -0.43806599176E+01  0.47708954311E+01  0.51100000000E-03 0.  1.
        -12    1    3    3    0    0  0.17696805662E+02 -0.27670943109E+01  0.27461273760E+01  0.18121119092E+02  0.00000000000E+00 0.  1.
</event>
<event>
 7    1  0.2655656E-009  0.4778727E+02  0.7816164E-02  0.1312668E+00
        -11   -1    0    0    0    0  0.00000000000E+00  0.00000000000E+00  0.45593999997E+02  0.45594000000E+02  0.51100000000E-03 0.  1.
         11   -1    0    0    0    0 -0.00000000000E+00 -0.00000000000E+00 -0.45593999997E+02  0.45594000000E+02  0.51100000000E-03 0. -1.
    9900012    2    1    2    0    0 -0.98843736410E+01 -0.10619578479E+02 -0.40904121971E+02  0.47787268629E+02  0.19999988987E+02 0.  0.
        -12    1    1    2    0    0  0.98843736410E+01  0.10619578479E+02  0.40904121971E+02  0.43400731371E+02  0.00000000000E+00 0.  1.
         11    1    3    3    0    0  0.33197413639E+01 -0.25399701315E+01 -0.58979785891E+01  0.72289890504E+01  0.51100000000E-03 0. -1.
        -11    1    3    3    0    0 -0.23426000168E+01 -0.23301275600E+01  0.15860101159E+00  0.33079334677E+01  0.51100000000E-03 0.  1.
         12    1    3    3    0    0 -0.10861514988E+02 -0.57494807873E+01 -0.35164744393E+02  0.37250346111E+02  0.00000000000E+00 0. -1.
</event>
<event>
 7    1  0.2655656E-009  0.4778732E+02  0.7816164E-02  0.1312668E+00
        -11   -1    0    0    0    0  0.00000000000E+00  0.00000000000E+00  0.45593999997E+02  0.45594000000E+02  0.51100000000E-03 0.  1.
         11   -1    0    0    0    0 -0.00000000000E+00 -0.00000000000E+00 -0.45593999997E+02  0.45594000000E+02  0.51100000000E-03 0. -1.
    9900012    2    1    2    0    0 -0.18036782867E+02  0.26158007767E+02 -0.29564375759E+02  0.47787317741E+02  0.20000212906E+02 0.  0.
        -12    1    1    2    0    0  0.18036782867E+02 -0.26158007767E+02  0.29564375759E+02  0.43400682259E+02  0.00000000000E+00 0.  1.
         11    1    3    3    0    0 -0.19099957961E+02  0.17507453515E+02 -0.16458475751E+02  0.30695288678E+02  0.51100000000E-03 0. -1.
        -11    1    3    3    0    0 -0.45978005440E+00 -0.58920491680E+00  0.24313000297E+00  0.78592149218E+00  0.51100000000E-03 0.  1.
         12    1    3    3    0    0  0.15229551482E+01  0.92397591694E+01 -0.13349030010E+02  0.16306107571E+02  0.00000000000E+00 0. -1.
</event>
<event>
 7    1  0.2655656E-009  0.4778727E+02  0.7816164E-02  0.1312668E+00
        -11   -1    0    0    0    0  0.00000000000E+00  0.00000000000E+00  0.45593999997E+02  0.45594000000E+02  0.51100000000E-03 0.  1.
         11   -1    0    0    0    0 -0.00000000000E+00 -0.00000000000E+00 -0.45593999997E+02  0.45594000000E+02  0.51100000000E-03 0. -1.
    9900012    2    1    2    0    0 -0.10441454642E+02 -0.41107343671E+02 -0.92079002259E+01  0.47787272987E+02  0.20000008856E+02 0.  0.
        -12    1    1    2    0    0  0.10441454642E+02  0.41107343671E+02  0.92079002259E+01  0.43400727013E+02  0.00000000000E+00 0.  1.
         11    1    3    3    0    0 -0.34623170455E+00 -0.25011174780E+01 -0.26004165469E+00  0.25383236506E+01  0.51100000000E-03 0. -1.
        -11    1    3    3    0    0  0.38787411278E+01 -0.94133427553E+01  0.32107749114E+01  0.10675426472E+02  0.51100000000E-03 0.  1.
        -12    1    3    3    0    0 -0.13973964066E+02 -0.29192883437E+02 -0.12158633483E+02  0.34573522864E+02  0.00000000000E+00 0.  1.
</event>
<event>
 7    1  0.2655656E-009  0.4778727E+02  0.7816164E-02  0.1312668E+00
        -11   -1    0    0    0    0  0.00000000000E+00  0.00000000000E+00  0.45593999997E+02  0.45594000000E+02  0.51100000000E-03 0.  1.
         11   -1    0    0    0    0 -0.00000000000E+00 -0.00000000000E+00 -0.45593999997E+02  0.45594000000E+02  0.51100000000E-03 0. -1.
    9900012    2    1    2    0    0  0.30277721410E+01 -0.38997178718E+02 -0.18806275330E+02  0.47787270238E+02  0.19999996322E+02 0.  0.
        -12    1    1    2    0    0 -0.30277721410E+01  0.38997178718E+02  0.18806275330E+02  0.43400729762E+02  0.00000000000E+00 0.  1.
         11    1    3    3    0    0  0.66555538306E+01 -0.32155754543E+02 -0.99951527472E+01  0.34324801904E+02  0.51100000000E-03 0. -1.
        -11    1    3    3    0    0 -0.16532956344E+01 -0.28691867634E+01  0.30390991746E+00  0.33253542123E+01  0.51100000000E-03 0.  1.
         12    1    3    3    0    0 -0.19744860553E+01 -0.39722374118E+01 -0.91150325001E+01  0.10137114122E+02  0.00000000000E+00 0. -1.
</event>
<event>
 7    1  0.2655656E-009  0.4778728E+02  0.7816164E-02  0.1312668E+00
        -11   -1    0    0    0    0  0.00000000000E+00  0.00000000000E+00  0.45593999997E+02  0.45594000000E+02  0.51100000000E-03 0.  1.
         11   -1    0    0    0    0 -0.00000000000E+00 -0.00000000000E+00 -0.45593999997E+02  0.45594000000E+02  0.51100000000E-03 0. -1.
    9900012    2    1    2    0    0  0.31362357177E+02  0.13835209797E+02 -0.26619759842E+02  0.47787284661E+02  0.20000062085E+02 0.  0.
        -12    1    1    2    0    0 -0.31362357177E+02 -0.13835209797E+02  0.26619759842E+02  0.43400715339E+02  0.00000000000E+00 0.  1.
         11    1    3    3    0    0  0.13844599338E+02  0.13736344028E+02 -0.94292386768E+01  0.21662654971E+02  0.51100000000E-03 0. -1.
        -11    1    3    3    0    0  0.15504679880E+02  0.29870606348E+01 -0.15806090053E+02  0.22341667629E+02  0.51100000000E-03 0.  1.
         12    1    3    3    0    0  0.20130779596E+01 -0.28881948664E+01 -0.13844311126E+01  0.37829620621E+01  0.00000000000E+00 0. -1.
</event>
<event>
 7    1  0.2655656E-009  0.4778727E+02  0.7816164E-02  0.1312668E+00
        -11   -1    0    0    0    0  0.00000000000E+00  0.00000000000E+00  0.45593999997E+02  0.45594000000E+02  0.51100000000E-03 0.  1.
         11   -1    0    0    0    0 -0.00000000000E+00 -0.00000000000E+00 -0.45593999997E+02  0.45594000000E+02  0.51100000000E-03 0. -1.
    9900012    2    1    2    0    0  0.40632273680E+02 -0.10599444777E+02 -0.10967830422E+02  0.47787271917E+02  0.20000003978E+02 0.  0.
        -12    1    1    2    0    0 -0.40632273680E+02  0.10599444777E+02  0.10967830422E+02  0.43400728083E+02  0.00000000000E+00 0.  1.
         11    1    3    3    0    0  0.94666864566E+01 -0.53787676313E+01 -0.94494067317E+01  0.14416677202E+02  0.51100000000E-03 0.  1.
        -11    1    3    3    0    0  0.21358883027E+02 -0.57712747674E+01  0.34020479315E+01  0.22384892830E+02  0.51100000000E-03 0. -1.
        -12    1    3    3    0    0  0.98067041964E+01  0.55059762203E+00 -0.49204716218E+01  0.10985701886E+02  0.00000000000E+00 0.  1.
</event>
<event>
 7    1  0.2655656E-009  0.4778727E+02  0.7816164E-02  0.1312668E+00
        -11   -1    0    0    0    0  0.00000000000E+00  0.00000000000E+00  0.45593999997E+02  0.45594000000E+02  0.51100000000E-03 0.  1.
         11   -1    0    0    0    0 -0.00000000000E+00 -0.00000000000E+00 -0.45593999997E+02  0.45594000000E+02  0.51100000000E-03 0. -1.
    9900012    2    1    2    0    0 -0.11226105256E+02 -0.21106227083E+02 -0.36223269715E+02  0.47787268096E+02  0.19999986559E+02 0.  0.
        -12    1    1    2    0    0  0.11226105256E+02  0.21106227083E+02  0.36223269715E+02  0.43400731904E+02  0.00000000000E+00 0.  1.
         11    1    3    3    0    0 -0.66378723514E+01 -0.69436812653E+01 -0.91598157617E+01  0.13273216789E+02  0.51100000000E-03 0. -1.
        -11    1    3    3    0    0 -0.46080758093E+01 -0.99913044336E+01 -0.28132811001E+02  0.30207872849E+02  0.51100000000E-03 0.  1.
        -12    1    3    3    0    0  0.19842904919E-01 -0.41712413844E+01  0.10693570476E+01  0.43061784593E+01  0.00000000000E+00 0.  1.
</event>
<event>
 7    1  0.2655656E-009  0.4778727E+02  0.7816164E-02  0.1312668E+00
        -11   -1    0    0    0    0  0.00000000000E+00  0.00000000000E+00  0.45593999997E+02  0.45594000000E+02  0.51100000000E-03 0.  1.
         11   -1    0    0    0    0 -0.00000000000E+00 -0.00000000000E+00 -0.45593999997E+02  0.45594000000E+02  0.51100000000E-03 0. -1.
    9900012    2    1    2    0    0  0.38610699893E+02  0.19803728616E+02 -0.80603430453E+00  0.47787268386E+02  0.19999987880E+02 0.  0.
        -12    1    1    2    0    0 -0.38610699893E+02 -0.19803728616E+02  0.80603430453E+00  0.43400731614E+02  0.00000000000E+00 0.  1.
         11    1    3    3    0    0  0.24617574044E+02  0.15419891169E+02  0.20399454018E+00  0.29048917527E+02  0.51100000000E-03 0. -1.
        -11    1    3    3    0    0  0.15548995748E+01 -0.36025132349E+01 -0.40381765797E+00  0.39444750294E+01  0.51100000000E-03 0.  1.
        -12    1    3    3    0    0  0.12438226274E+02  0.79863506820E+01 -0.60621118674E+00  0.14793875830E+02  0.00000000000E+00 0.  1.
</event>
<event>
 7    1  0.2655656E-009  0.4778727E+02  0.7816164E-02  0.1312668E+00
        -11   -1    0    0    0    0  0.00000000000E+00  0.00000000000E+00  0.45593999997E+02  0.45594000000E+02  0.51100000000E-03 0.  1.
         11   -1    0    0    0    0 -0.00000000000E+00 -0.00000000000E+00 -0.45593999997E+02  0.45594000000E+02  0.51100000000E-03 0. -1.
    9900012    2    1    2    0    0 -0.10773320611E+02 -0.16486441446E+02 -0.38675010830E+02  0.47787266697E+02  0.19999980177E+02 0.  0.
        -12    1    1    2    0    0  0.10773320611E+02  0.16486441446E+02  0.38675010830E+02  0.43400733303E+02  0.00000000000E+00 0.  1.
         11    1    3    3    0    0 -0.35230171503E+01 -0.14344206504E+02 -0.18541295785E+02  0.23705433126E+02  0.51100000000E-03 0. -1.
        -11    1    3    3    0    0 -0.79081693389E+01  0.26011444525E+01 -0.14156303745E+02  0.16422729089E+02  0.51100000000E-03 0.  1.
        -12    1    3    3    0    0  0.65786587849E+00 -0.47433793951E+01 -0.59774113004E+01  0.76591044812E+01  0.00000000000E+00 0.  1.
</event>
<event>
 7    1  0.2655656E-009  0.4778727E+02  0.7816164E-02  0.1312668E+00
        -11   -1    0    0    0    0  0.00000000000E+00  0.00000000000E+00  0.45593999997E+02  0.45594000000E+02  0.51100000000E-03 0.  1.
         11   -1    0    0    0    0 -0.00000000000E+00 -0.00000000000E+00 -0.45593999997E+02  0.45594000000E+02  0.51100000000E-03 0. -1.
    9900012    2    1    2    0    0 -0.31122965564E+02 -0.10718162273E+02 -0.28286133957E+02  0.47787270026E+02  0.19999995359E+02 0.  0.
        -12    1    1    2    0    0  0.31122965564E+02  0.10718162273E+02  0.28286133957E+02  0.43400729974E+02  0.00000000000E+00 0.  1.
         11    1    3    3    0    0 -0.74328850186E+01 -0.11508622648E+02 -0.12818133188E+02  0.18761682058E+02  0.51100000000E-03 0. -1.
        -11    1    3    3    0    0 -0.18345590359E+02 -0.52387094000E+00 -0.14603974716E+02  0.23454449560E+02  0.51100000000E-03 0.  1.
         12    1    3    3    0    0 -0.53444901861E+01  0.13143313145E+01 -0.86402605318E+00  0.55711384092E+01  0.00000000000E+00 0. -1.
</event>
<event>
 7    1  0.2655656E-009  0.4778728E+02  0.7816164E-02  0.1312668E+00
        -11   -1    0    0    0    0  0.00000000000E+00  0.00000000000E+00  0.45593999997E+02  0.45594000000E+02  0.51100000000E-03 0.  1.
         11   -1    0    0    0    0 -0.00000000000E+00 -0.00000000000E+00 -0.45593999997E+02  0.45594000000E+02  0.51100000000E-03 0. -1.
    9900012    2    1    2    0    0 -0.49384506027E+01  0.15926712293E+02 -0.40069619093E+02  0.47787276123E+02  0.20000023155E+02 0.  0.
        -12    1    1    2    0    0  0.49384506027E+01 -0.15926712293E+02  0.40069619093E+02  0.43400723877E+02  0.00000000000E+00 0.  1.
         11    1    3    3    0    0  0.49147733045E+01  0.41462756209E+01 -0.81061480221E+01  0.10346798257E+02  0.51100000000E-03 0.  1.
        -11    1    3    3    0    0 -0.10674262027E+02  0.13684241439E+02 -0.27491076740E+02  0.32510884857E+02  0.51100000000E-03 0. -1.
        -12    1    3    3    0    0  0.82103812011E+00 -0.19038047671E+01 -0.44723943306E+01  0.49295930090E+01  0.00000000000E+00 0.  1.
</event>
<event>
 7    1  0.2655656E-009  0.4778727E+02  0.7816164E-02  0.1312668E+00
        -11   -1    0    0    0    0  0.00000000000E+00  0.00000000000E+00  0.45593999997E+02  0.45594000000E+02  0.51100000000E-03 0.  1.
         11   -1    0    0    0    0 -0.00000000000E+00 -0.00000000000E+00 -0.45593999997E+02  0.45594000000E+02  0.51100000000E-03 0. -1.
    9900012    2    1    2    0    0 -0.13395624303E+02 -0.14322102143E+02 -0.38717669796E+02  0.47787270574E+02  0.19999997855E+02 0.  0.
        -12    1    1    2    0    0  0.13395624303E+02  0.14322102143E+02  0.38717669796E+02  0.43400729426E+02  0.00000000000E+00 0.  1.
         11    1    3    3    0    0 -0.67070257381E+01 -0.48136807659E+01 -0.32918214281E+02  0.33937656791E+02  0.51100000000E-03 0. -1.
        -11    1    3    3    0    0 -0.69245058087E+01 -0.80817907458E+01 -0.62412332808E+01  0.12337630059E+02  0.51100000000E-03 0.  1.
         12    1    3    3    0    0  0.23590724385E+00 -0.14266306313E+01  0.44177776557E+00  0.15119837234E+01  0.00000000000E+00 0. -1.
</event>
<event>
 7    1  0.2655656E-009  0.4778727E+02  0.7816164E-02  0.1312668E+00
        -11   -1    0    0    0    0  0.00000000000E+00  0.00000000000E+00  0.45593999997E+02  0.45594000000E+02  0.51100000000E-03 0. -1.
         11   -1    0    0    0    0 -0.00000000000E+00 -0.00000000000E+00 -0.45593999997E+02  0.45594000000E+02  0.51100000000E-03 0.  1.
    9900012    2    1    2    0    0  0.35812487361E+01 -0.40939633133E+02  0.13955101206E+02  0.47787265522E+02  0.19999974820E+02 0.  0.
        -12    1    1    2    0    0 -0.35812487361E+01  0.40939633133E+02 -0.13955101206E+02  0.43400734478E+02  0.00000000000E+00 0.  1.
         11    1    3    3    0    0  0.49069988030E+01 -0.11241439194E+02 -0.32503097958E+01  0.12689093996E+02  0.51100000000E-03 0. -1.
        -11    1    3    3    0    0 -0.41767132655E+01 -0.13250025962E+02  0.74809029701E+01  0.15778847588E+02  0.51100000000E-03 0.  1.
         12    1    3    3    0    0  0.28509631985E+01 -0.16448167977E+02  0.97245080321E+01  0.19319323938E+02  0.00000000000E+00 0. -1.
</event>
<event>
 7    1  0.2655656E-009  0.4778727E+02  0.7816164E-02  0.1312668E+00
        -11   -1    0    0    0    0  0.00000000000E+00  0.00000000000E+00  0.45593999997E+02  0.45594000000E+02  0.51100000000E-03 0.  1.
         11   -1    0    0    0    0 -0.00000000000E+00 -0.00000000000E+00 -0.45593999997E+02  0.45594000000E+02  0.51100000000E-03 0. -1.
    9900012    2    1    2    0    0 -0.24397135810E+02 -0.35273180051E+02  0.66487296576E+01  0.47787273362E+02  0.20000010569E+02 0.  0.
        -12    1    1    2    0    0  0.24397135810E+02  0.35273180051E+02 -0.66487296576E+01  0.43400726638E+02  0.00000000000E+00 0.  1.
         11    1    3    3    0    0 -0.32002893132E+01 -0.27452788223E+01  0.28518170521E+00  0.42260781306E+01  0.51100000000E-03 0. -1.
        -11    1    3    3    0    0 -0.71998099394E+01 -0.26433842386E+02  0.11201481746E+01  0.27419701287E+02  0.51100000000E-03 0.  1.
        -12    1    3    3    0    0 -0.13997036557E+02 -0.60940588426E+01  0.52433997778E+01  0.16141493945E+02  0.00000000000E+00 0.  1.
</event>
<event>
 7    1  0.2655656E-009  0.4778727E+02  0.7816164E-02  0.1312668E+00
        -11   -1    0    0    0    0  0.00000000000E+00  0.00000000000E+00  0.45593999997E+02  0.45594000000E+02  0.51100000000E-03 0.  1.
         11   -1    0    0    0    0 -0.00000000000E+00 -0.00000000000E+00 -0.45593999997E+02  0.45594000000E+02  0.51100000000E-03 0. -1.
    9900012    2    1    2    0    0 -0.29701096923E+02 -0.63131149616E+01 -0.31009888310E+02  0.47787265537E+02  0.19999974888E+02 0.  0.
        -12    1    1    2    0    0  0.29701096923E+02  0.63131149616E+01  0.31009888310E+02  0.43400734463E+02  0.00000000000E+00 0.  1.
         11    1    3    3    0    0 -0.26245745588E+02 -0.10952695502E+02 -0.21810118443E+02  0.35839670296E+02  0.51100000000E-03 0. -1.
        -11    1    3    3    0    0  0.43755902649E+00  0.26287958827E+01 -0.14221005675E+01  0.30206615136E+01  0.51100000000E-03 0.  1.
         12    1    3    3    0    0 -0.38929103622E+01  0.20107846573E+01 -0.77776692996E+01  0.89269337266E+01  0.00000000000E+00 0. -1.
</event>
<event>
 7    1  0.2655656E-009  0.4778728E+02  0.7816164E-02  0.1312668E+00
        -11   -1    0    0    0    0  0.00000000000E+00  0.00000000000E+00  0.45593999997E+02  0.45594000000E+02  0.51100000000E-03 0. -1.
         11   -1    0    0    0    0 -0.00000000000E+00 -0.00000000000E+00 -0.45593999997E+02  0.45594000000E+02  0.51100000000E-03 0.  1.
    9900012    2    1    2    0    0  0.18470281553E+02  0.34660577459E+02  0.18469325135E+02  0.47787275335E+02  0.20000019564E+02 0.  0.
        -12    1    1    2    0    0 -0.18470281553E+02 -0.34660577459E+02 -0.18469325135E+02  0.43400724665E+02  0.00000000000E+00 0.  1.
         11    1    3    3    0    0  0.12959577013E+02  0.10168008914E+02  0.52303028187E+01  0.17282798080E+02  0.51100000000E-03 0. -1.
        -11    1    3    3    0    0 -0.27084806721E+01  0.11358523033E+02  0.79766457059E+01  0.14141385718E+02  0.51100000000E-03 0.  1.
        -12    1    3    3    0    0  0.82191852121E+01  0.13134045512E+02  0.52623766104E+01  0.16363091537E+02  0.00000000000E+00 0.  1.
</event>
<event>
 7    1  0.2655656E-009  0.4778727E+02  0.7816164E-02  0.1312668E+00
        -11   -1    0    0    0    0  0.00000000000E+00  0.00000000000E+00  0.45593999997E+02  0.45594000000E+02  0.51100000000E-03 0.  1.
         11   -1    0    0    0    0 -0.00000000000E+00 -0.00000000000E+00 -0.45593999997E+02  0.45594000000E+02  0.51100000000E-03 0. -1.
    9900012    2    1    2    0    0  0.21242438966E+00 -0.43398095032E+02 -0.42801734286E+00  0.47787274483E+02  0.20000015680E+02 0.  0.
        -12    1    1    2    0    0 -0.21242438966E+00  0.43398095032E+02  0.42801734286E+00  0.43400725517E+02  0.00000000000E+00 0.  1.
         11    1    3    3    0    0  0.90458815893E+01 -0.20481791357E+02  0.88300080163E+00  0.22407843306E+02  0.51100000000E-03 0. -1.
        -11    1    3    3    0    0 -0.58868615921E+01 -0.12160779016E+02 -0.36281594120E+01  0.13989396937E+02  0.51100000000E-03 0.  1.
         12    1    3    3    0    0 -0.29465956075E+01 -0.10755524658E+02  0.23171412676E+01  0.11390034241E+02  0.00000000000E+00 0. -1.
</event>
<event>
 7    1  0.2655656E-009  0.4778727E+02  0.7816164E-02  0.1312668E+00
        -11   -1    0    0    0    0  0.00000000000E+00  0.00000000000E+00  0.45593999997E+02  0.45594000000E+02  0.51100000000E-03 0. -1.
         11   -1    0    0    0    0 -0.00000000000E+00 -0.00000000000E+00 -0.45593999997E+02  0.45594000000E+02  0.51100000000E-03 0.  1.
    9900012    2    1    2    0    0 -0.34532350600E+02  0.25503751270E+02 -0.63795399073E+01  0.47787273091E+02  0.20000009330E+02 0.  0.
        -12    1    1    2    0    0  0.34532350600E+02 -0.25503751270E+02  0.63795399073E+01  0.43400726909E+02  0.00000000000E+00 0.  1.
         11    1    3    3    0    0 -0.12262559417E+02  0.61350428325E+01 -0.91313008159E+00  0.13742012983E+02  0.51100000000E-03 0. -1.
        -11    1    3    3    0    0 -0.80719316005E+01 -0.11249189421E+01 -0.39797055756E+01  0.90697066721E+01  0.51100000000E-03 0.  1.
        -12    1    3    3    0    0 -0.14197859583E+02  0.20493627380E+02 -0.14867042501E+01  0.24975553436E+02  0.00000000000E+00 0.  1.
</event>
<event>
 7    1  0.2655656E-009  0.4778727E+02  0.7816164E-02  0.1312668E+00
        -11   -1    0    0    0    0  0.00000000000E+00  0.00000000000E+00  0.45593999997E+02  0.45594000000E+02  0.51100000000E-03 0.  1.
         11   -1    0    0    0    0 -0.00000000000E+00 -0.00000000000E+00 -0.45593999997E+02  0.45594000000E+02  0.51100000000E-03 0. -1.
    9900012    2    1    2    0    0 -0.21674057241E+01 -0.12466639467E+02 -0.41515159931E+02  0.47787271304E+02  0.20000001186E+02 0.  0.
        -12    1    1    2    0    0  0.21674057241E+01  0.12466639467E+02  0.41515159931E+02  0.43400728696E+02  0.00000000000E+00 0.  1.
         11    1    3    3    0    0 -0.43978291439E+01 -0.15974841169E+01 -0.13071372710E+02  0.13883574520E+02  0.51100000000E-03 0. -1.
        -11    1    3    3    0    0  0.62998194605E+01 -0.12398688302E+02 -0.23618053018E+02  0.27408531983E+02  0.51100000000E-03 0.  1.
        -12    1    3    3    0    0 -0.40693960408E+01  0.15295329522E+01 -0.48257342040E+01  0.64951648013E+01  0.00000000000E+00 0.  1.
</event>
<event>
 7    1  0.2655656E-009  0.4778727E+02  0.7816164E-02  0.1312668E+00
        -11   -1    0    0    0    0  0.00000000000E+00  0.00000000000E+00  0.45593999997E+02  0.45594000000E+02  0.51100000000E-03 0.  1.
         11   -1    0    0    0    0 -0.00000000000E+00 -0.00000000000E+00 -0.45593999997E+02  0.45594000000E+02  0.51100000000E-03 0. -1.
    9900012    2    1    2    0    0 -0.25334032866E+02  0.56882303172E+01 -0.34777207041E+02  0.47787270571E+02  0.19999997842E+02 0.  0.
        -12    1    1    2    0    0  0.25334032866E+02 -0.56882303172E+01  0.34777207041E+02  0.43400729429E+02  0.00000000000E+00 0.  1.
         11    1    3    3    0    0 -0.69195800967E+01  0.24817956684E+01 -0.58202140551E+01  0.93762887308E+01  0.51100000000E-03 0. -1.
        -11    1    3    3    0    0 -0.18592025065E+02 -0.26157856260E+01 -0.18041179220E+02  0.26038238772E+02  0.51100000000E-03 0.  1.
        -12    1    3    3    0    0  0.17757229622E+00  0.58222202748E+01 -0.10915813766E+02  0.12372743068E+02  0.00000000000E+00 0.  1.
</event>
<event>
 7    1  0.2655656E-009  0.4778727E+02  0.7816164E-02  0.1312668E+00
        -11   -1    0    0    0    0  0.00000000000E+00  0.00000000000E+00  0.45593999997E+02  0.45594000000E+02  0.51100000000E-03 0.  1.
         11   -1    0    0    0    0 -0.00000000000E+00 -0.00000000000E+00 -0.45593999997E+02  0.45594000000E+02  0.51100000000E-03 0. -1.
    9900012    2    1    2    0    0 -0.39207961097E+02  0.17729169299E+01 -0.18526094058E+02  0.47787267185E+02  0.19999982404E+02 0.  0.
        -12    1    1    2    0    0  0.39207961097E+02 -0.17729169299E+01  0.18526094058E+02  0.43400732815E+02  0.00000000000E+00 0.  1.
         11    1    3    3    0    0 -0.22144812220E+02  0.13678378237E+01 -0.13455585815E+02  0.25948342499E+02  0.51100000000E-03 0. -1.
        -11    1    3    3    0    0 -0.68717826293E+01 -0.55411717863E+01  0.39268038214E+00  0.88362989658E+01  0.51100000000E-03 0.  1.
        -12    1    3    3    0    0 -0.10191366248E+02  0.59462508925E+01 -0.54631886251E+01  0.13002625721E+02  0.00000000000E+00 0.  1.
</event>
<event>
 7    1  0.2655656E-009  0.4778727E+02  0.7816164E-02  0.1312668E+00
        -11   -1    0    0    0    0  0.00000000000E+00  0.00000000000E+00  0.45593999997E+02  0.45594000000E+02  0.51100000000E-03 0. -1.
         11   -1    0    0    0    0 -0.00000000000E+00 -0.00000000000E+00 -0.45593999997E+02  0.45594000000E+02  0.51100000000E-03 0.  1.
    9900012    2    1    2    0    0  0.67125338888E+01 -0.33370532006E+01  0.42748441419E+02  0.47787270985E+02  0.19999999731E+02 0.  0.
        -12    1    1    2    0    0 -0.67125338888E+01  0.33370532006E+01 -0.42748441419E+02  0.43400729015E+02  0.00000000000E+00 0.  1.
         11    1    3    3    0    0  0.11512041050E+02 -0.19255531033E+00  0.33453878183E+02  0.35379741836E+02  0.51100000000E-03 0. -1.
        -11    1    3    3    0    0  0.39465121937E+00  0.11653884737E+01  0.51592679845E+00  0.13341891178E+01  0.51100000000E-03 0.  1.
         12    1    3    3    0    0 -0.51941583802E+01 -0.43098863640E+01  0.87786364377E+01  0.11073340032E+02  0.00000000000E+00 0. -1.
</event>
<event>
 7    1  0.2655656E-009  0.4778727E+02  0.7816164E-02  0.1312668E+00
        -11   -1    0    0    0    0  0.00000000000E+00  0.00000000000E+00  0.45593999997E+02  0.45594000000E+02  0.51100000000E-03 0.  1.
         11   -1    0    0    0    0 -0.00000000000E+00 -0.00000000000E+00 -0.45593999997E+02  0.45594000000E+02  0.51100000000E-03 0. -1.
    9900012    2    1    2    0    0 -0.73962630609E+01  0.57853745312E+00 -0.42761943305E+02  0.47787271802E+02  0.20000003455E+02 0.  0.
        -12    1    1    2    0    0  0.73962630609E+01 -0.57853745312E+00  0.42761943305E+02  0.43400728198E+02  0.00000000000E+00 0.  1.
         11    1    3    3    0    0 -0.38574056687E+01 -0.62005153675E+01 -0.25257148230E+02  0.26291624261E+02  0.51100000000E-03 0. -1.
        -11    1    3    3    0    0 -0.11616645495E+01 -0.34008437242E+00  0.97213749102E+00  0.15524733391E+01  0.51100000000E-03 0.  1.
         12    1    3    3    0    0 -0.23771928428E+01  0.71191371930E+01 -0.18476932566E+02  0.19943174202E+02  0.00000000000E+00 0. -1.
</event>
<event>
 7    1  0.2655656E-009  0.4778727E+02  0.7816164E-02  0.1312668E+00
        -11   -1    0    0    0    0  0.00000000000E+00  0.00000000000E+00  0.45593999997E+02  0.45594000000E+02  0.51100000000E-03 0. -1.
         11   -1    0    0    0    0 -0.00000000000E+00 -0.00000000000E+00 -0.45593999997E+02  0.45594000000E+02  0.51100000000E-03 0.  1.
    9900012    2    1    2    0    0 -0.23085378746E+02  0.20259905511E+02  0.30663086903E+02  0.47787269803E+02  0.19999994342E+02 0.  0.
        -12    1    1    2    0    0  0.23085378746E+02 -0.20259905511E+02 -0.30663086903E+02  0.43400730197E+02  0.00000000000E+00 0.  1.
         11    1    3    3    0    0 -0.17811394859E+02  0.63513489856E+01  0.23191983952E+02  0.29924129739E+02  0.51100000000E-03 0. -1.
        -11    1    3    3    0    0 -0.83106283122E+00  0.78502249923E+01  0.66195349215E+01  0.10302181356E+02  0.51100000000E-03 0.  1.
         12    1    3    3    0    0 -0.44429210556E+01  0.60583315332E+01  0.85156802974E+00  0.75609587079E+01  0.00000000000E+00 0. -1.
</event>
<event>
 7    1  0.2655656E-009  0.4778727E+02  0.7816164E-02  0.1312668E+00
        -11   -1    0    0    0    0  0.00000000000E+00  0.00000000000E+00  0.45593999997E+02  0.45594000000E+02  0.51100000000E-03 0.  1.
         11   -1    0    0    0    0 -0.00000000000E+00 -0.00000000000E+00 -0.45593999997E+02  0.45594000000E+02  0.51100000000E-03 0. -1.
    9900012    2    1    2    0    0 -0.19450509259E+01 -0.42188752147E+02  0.99974725650E+01  0.47787268572E+02  0.19999988726E+02 0.  0.
        -12    1    1    2    0    0  0.19450509259E+01  0.42188752147E+02 -0.99974725650E+01  0.43400731428E+02  0.00000000000E+00 0.  1.
         11    1    3    3    0    0  0.30053782792E+00 -0.13074558275E+00  0.42576946598E+01  0.42702905604E+01  0.51100000000E-03 0.  1.
        -11    1    3    3    0    0 -0.24888674753E+01 -0.36686229818E+02  0.17335832718E+01  0.36811400826E+02  0.51100000000E-03 0. -1.
         12    1    3    3    0    0  0.24327872146E+00 -0.53717767462E+01  0.40061946334E+01  0.67055771853E+01  0.00000000000E+00 0. -1.
</event>
<event>
 7    1  0.2655656E-009  0.4778726E+02  0.7816164E-02  0.1312668E+00
        -11   -1    0    0    0    0  0.00000000000E+00  0.00000000000E+00  0.45593999997E+02  0.45594000000E+02  0.51100000000E-03 0.  1.
         11   -1    0    0    0    0 -0.00000000000E+00 -0.00000000000E+00 -0.45593999997E+02  0.45594000000E+02  0.51100000000E-03 0. -1.
    9900012    2    1    2    0    0  0.12062793510E+02 -0.16360804242E+02 -0.38346281620E+02  0.47787260181E+02  0.19999950469E+02 0.  0.
        -12    1    1    2    0    0 -0.12062793510E+02  0.16360804242E+02  0.38346281620E+02  0.43400739819E+02  0.00000000000E+00 0.  1.
         11    1    3    3    0    0  0.95697871787E+01 -0.13700888518E+02 -0.18421544710E+02  0.24872645267E+02  0.51100000000E-03 0. -1.
        -11    1    3    3    0    0 -0.66774004757E+00  0.37240572563E+01 -0.10050034726E+02  0.10738606868E+02  0.51100000000E-03 0.  1.
        -12    1    3    3    0    0  0.31607463788E+01 -0.63839729806E+01 -0.98747021847E+01  0.12176008046E+02  0.00000000000E+00 0.  1.
</event>
<event>
 7    1  0.2655656E-009  0.4778727E+02  0.7816164E-02  0.1312668E+00
        -11   -1    0    0    0    0  0.00000000000E+00  0.00000000000E+00  0.45593999997E+02  0.45594000000E+02  0.51100000000E-03 0. -1.
         11   -1    0    0    0    0 -0.00000000000E+00 -0.00000000000E+00 -0.45593999997E+02  0.45594000000E+02  0.51100000000E-03 0.  1.
    9900012    2    1    2    0    0  0.35061057723E+02 -0.10645845603E+02  0.23259655904E+02  0.47787269706E+02  0.19999993898E+02 0.  0.
        -12    1    1    2    0    0 -0.35061057723E+02  0.10645845603E+02 -0.23259655904E+02  0.43400730294E+02  0.00000000000E+00 0.  1.
         11    1    3    3    0    0  0.13742989142E+02 -0.60973129545E+01  0.20471047708E+02  0.25399030894E+02  0.51100000000E-03 0. -1.
        -11    1    3    3    0    0  0.57442646957E+01 -0.27232528352E+01  0.20916316912E+01  0.66923543160E+01  0.51100000000E-03 0.  1.
         12    1    3    3    0    0  0.15573803886E+02 -0.18252798135E+01  0.69697650467E+00  0.15695884496E+02  0.00000000000E+00 0. -1.
</event>
<event>
 7    1  0.2655656E-009  0.4778727E+02  0.7816164E-02  0.1312668E+00
        -11   -1    0    0    0    0  0.00000000000E+00  0.00000000000E+00  0.45593999997E+02  0.45594000000E+02  0.51100000000E-03 0. -1.
         11   -1    0    0    0    0 -0.00000000000E+00 -0.00000000000E+00 -0.45593999997E+02  0.45594000000E+02  0.51100000000E-03 0.  1.
    9900012    2    1    2    0    0 -0.20141221250E+02  0.49476682066E+01  0.38124468942E+02  0.47787270211E+02  0.19999996202E+02 0.  0.
        -12    1    1    2    0    0  0.20141221250E+02 -0.49476682066E+01 -0.38124468942E+02  0.43400729789E+02  0.00000000000E+00 0.  1.
         11    1    3    3    0    0 -0.19357048225E+02  0.33317720294E+01  0.29211121515E+02  0.35200648307E+02  0.51100000000E-03 0. -1.
        -11    1    3    3    0    0  0.21255129510E+01  0.40968531434E+01  0.67979178984E+01  0.82166720148E+01  0.51100000000E-03 0.  1.
        -12    1    3    3    0    0 -0.29096859754E+01 -0.24809569663E+01  0.21154295284E+01  0.43699498891E+01  0.00000000000E+00 0.  1.
</event>
<event>
 7    1  0.2655656E-009  0.4778727E+02  0.7816164E-02  0.1312668E+00
        -11   -1    0    0    0    0  0.00000000000E+00  0.00000000000E+00  0.45593999997E+02  0.45594000000E+02  0.51100000000E-03 0. -1.
         11   -1    0    0    0    0 -0.00000000000E+00 -0.00000000000E+00 -0.45593999997E+02  0.45594000000E+02  0.51100000000E-03 0.  1.
    9900012    2    1    2    0    0  0.31918852017E+02 -0.29376030520E+02 -0.13634960958E+01  0.47787269536E+02  0.19999993123E+02 0.  0.
        -12    1    1    2    0    0 -0.31918852017E+02  0.29376030520E+02  0.13634960958E+01  0.43400730464E+02  0.00000000000E+00 0.  1.
         11    1    3    3    0    0  0.22428812080E+02 -0.12741471817E+02  0.33329816385E+01  0.26009718996E+02  0.51100000000E-03 0. -1.
        -11    1    3    3    0    0  0.96317517012E-01 -0.94203055518E+01 -0.20903411210E+01  0.96499202078E+01  0.51100000000E-03 0.  1.
         12    1    3    3    0    0  0.93937224201E+01 -0.72142531511E+01 -0.26061366133E+01  0.12127630333E+02  0.00000000000E+00 0. -1.
</event>
<event>
 7    1  0.2655656E-009  0.4778727E+02  0.7816164E-02  0.1312668E+00
        -11   -1    0    0    0    0  0.00000000000E+00  0.00000000000E+00  0.45593999997E+02  0.45594000000E+02  0.51100000000E-03 0.  1.
         11   -1    0    0    0    0 -0.00000000000E+00 -0.00000000000E+00 -0.45593999997E+02  0.45594000000E+02  0.51100000000E-03 0. -1.
    9900012    2    1    2    0    0 -0.24606845403E+01 -0.33857367195E+02  0.27041578971E+02  0.47787271031E+02  0.19999999938E+02 0.  0.
        -12    1    1    2    0    0  0.24606845403E+01  0.33857367195E+02 -0.27041578971E+02  0.43400728969E+02  0.00000000000E+00 0.  1.
         11    1    3    3    0    0  0.14713412387E+01 -0.11693899125E+02  0.19781473832E+02  0.23026481039E+02  0.51100000000E-03 0. -1.
        -11    1    3    3    0    0  0.16849317253E+01 -0.98501093463E+01  0.17360818977E+01  0.10142861020E+02  0.51100000000E-03 0.  1.
         12    1    3    3    0    0 -0.56169575042E+01 -0.12313358724E+02  0.55240232410E+01  0.14617928972E+02  0.00000000000E+00 0. -1.
</event>
<event>
 7    1  0.2655656E-009  0.4778727E+02  0.7816164E-02  0.1312668E+00
        -11   -1    0    0    0    0  0.00000000000E+00  0.00000000000E+00  0.45593999997E+02  0.45594000000E+02  0.51100000000E-03 0.  1.
         11   -1    0    0    0    0 -0.00000000000E+00 -0.00000000000E+00 -0.45593999997E+02  0.45594000000E+02  0.51100000000E-03 0. -1.
    9900012    2    1    2    0    0 -0.29542808496E+02 -0.25995319109E+02  0.18305437965E+02  0.47787271798E+02  0.20000003435E+02 0.  0.
        -12    1    1    2    0    0  0.29542808496E+02  0.25995319109E+02 -0.18305437965E+02  0.43400728202E+02  0.00000000000E+00 0.  1.
         11    1    3    3    0    0 -0.11246524442E+01 -0.67085414968E+01  0.10305675368E+01  0.68797850144E+01  0.51100000000E-03 0.  1.
        -11    1    3    3    0    0 -0.27686354026E+02 -0.13865565759E+02  0.11711295301E+02  0.33105023047E+02  0.51100000000E-03 0. -1.
         12    1    3    3    0    0 -0.73180202591E+00 -0.54212118534E+01  0.55635751271E+01  0.78024637365E+01  0.00000000000E+00 0. -1.
</event>
<event>
 7    1  0.2655656E-009  0.4778727E+02  0.7816164E-02  0.1312668E+00
        -11   -1    0    0    0    0  0.00000000000E+00  0.00000000000E+00  0.45593999997E+02  0.45594000000E+02  0.51100000000E-03 0.  1.
         11   -1    0    0    0    0 -0.00000000000E+00 -0.00000000000E+00 -0.45593999997E+02  0.45594000000E+02  0.51100000000E-03 0. -1.
    9900012    2    1    2    0    0  0.16899683177E+02 -0.28397683624E+02 -0.28135308273E+02  0.47787270763E+02  0.19999998718E+02 0.  0.
        -12    1    1    2    0    0 -0.16899683177E+02  0.28397683624E+02  0.28135308273E+02  0.43400729237E+02  0.00000000000E+00 0.  1.
         11    1    3    3    0    0  0.82760708807E+01 -0.18487514621E+02 -0.20901790922E+02  0.29106123241E+02  0.51100000000E-03 0. -1.
        -11    1    3    3    0    0  0.69969760788E+01 -0.51567550743E+00 -0.54972429442E+00  0.70374563968E+01  0.51100000000E-03 0.  1.
        -12    1    3    3    0    0  0.16266362172E+01 -0.93944934949E+01 -0.66837930565E+01  0.11643691126E+02  0.00000000000E+00 0.  1.
</event>
<event>
 7    1  0.2655656E-009  0.4778727E+02  0.7816164E-02  0.1312668E+00
        -11   -1    0    0    0    0  0.00000000000E+00  0.00000000000E+00  0.45593999997E+02  0.45594000000E+02  0.51100000000E-03 0.  1.
         11   -1    0    0    0    0 -0.00000000000E+00 -0.00000000000E+00 -0.45593999997E+02  0.45594000000E+02  0.51100000000E-03 0. -1.
    9900012    2    1    2    0    0 -0.24596132751E+01  0.11795758010E+02 -0.41694527586E+02  0.47787271491E+02  0.20000002036E+02 0.  0.
        -12    1    1    2    0    0  0.24596132751E+01 -0.11795758010E+02  0.41694527586E+02  0.43400728509E+02  0.00000000000E+00 0.  1.
         11    1    3    3    0    0  0.40135332677E+01  0.11871434619E+02 -0.31864880443E+02  0.34240473348E+02  0.51100000000E-03 0. -1.
        -11    1    3    3    0    0 -0.20218871264E+01 -0.27221237666E+01 -0.14320889916E+01  0.36808782231E+01  0.51100000000E-03 0.  1.
         12    1    3    3    0    0 -0.44512594163E+01  0.26464471582E+01 -0.83975581513E+01  0.98659199195E+01  0.00000000000E+00 0. -1.
</event>
<event>
 7    1  0.2655656E-009  0.4778728E+02  0.7816164E-02  0.1312668E+00
        -11   -1    0    0    0    0  0.00000000000E+00  0.00000000000E+00  0.45593999997E+02  0.45594000000E+02  0.51100000000E-03 0.  1.
         11   -1    0    0    0    0 -0.00000000000E+00 -0.00000000000E+00 -0.45593999997E+02  0.45594000000E+02  0.51100000000E-03 0. -1.
    9900012    2    1    2    0    0  0.15255128811E+02 -0.38943411284E+02  0.11589418984E+02  0.47787275699E+02  0.20000021221E+02 0.  0.
        -12    1    1    2    0    0 -0.15255128811E+02  0.38943411284E+02 -0.11589418984E+02  0.43400724301E+02  0.00000000000E+00 0.  1.
         11    1    3    3    0    0  0.14500474362E+02 -0.15887614367E+02  0.30843932481E+01  0.21730014472E+02  0.51100000000E-03 0. -1.
        -11    1    3    3    0    0 -0.15327146028E+01 -0.58286804949E+01 -0.12109981826E+01  0.61472959278E+01  0.51100000000E-03 0.  1.
         12    1    3    3    0    0  0.22873690518E+01 -0.17227116423E+02  0.97160239181E+01  0.19909965299E+02  0.00000000000E+00 0. -1.
</event>
<event>
 7    1  0.2655656E-009  0.4778728E+02  0.7816164E-02  0.1312668E+00
        -11   -1    0    0    0    0  0.00000000000E+00  0.00000000000E+00  0.45593999997E+02  0.45594000000E+02  0.51100000000E-03 0.  1.
         11   -1    0    0    0    0 -0.00000000000E+00 -0.00000000000E+00 -0.45593999997E+02  0.45594000000E+02  0.51100000000E-03 0. -1.
    9900012    2    1    2    0    0  0.37242976257E+02 -0.10376094444E+02 -0.19721054736E+02  0.47787278621E+02  0.20000034543E+02 0.  0.
        -12    1    1    2    0    0 -0.37242976257E+02  0.10376094444E+02  0.19721054736E+02  0.43400721379E+02  0.00000000000E+00 0.  1.
         11    1    3    3    0    0  0.17710436596E+02 -0.65325940453E+01 -0.13627408193E+02  0.23281765477E+02  0.51100000000E-03 0. -1.
        -11    1    3    3    0    0  0.12278862876E+02 -0.18653285561E+01  0.29294043128E+01  0.12760538156E+02  0.51100000000E-03 0.  1.
        -12    1    3    3    0    0  0.72536767849E+01 -0.19781718423E+01 -0.90230508553E+01  0.11744974988E+02  0.00000000000E+00 0.  1.
</event>
<event>
 7    1  0.2655656E-009  0.4778727E+02  0.7816164E-02  0.1312668E+00
        -11   -1    0    0    0    0  0.00000000000E+00  0.00000000000E+00  0.45593999997E+02  0.45594000000E+02  0.51100000000E-03 0.  1.
         11   -1    0    0    0    0 -0.00000000000E+00 -0.00000000000E+00 -0.45593999997E+02  0.45594000000E+02  0.51100000000E-03 0. -1.
    9900012    2    1    2    0    0 -0.37499449015E+02 -0.19996157112E+02 -0.88072927163E+01  0.47787269814E+02  0.19999994392E+02 0.  0.
        -12    1    1    2    0    0  0.37499449015E+02  0.19996157112E+02  0.88072927163E+01  0.43400730186E+02  0.00000000000E+00 0.  1.
         11    1    3    3    0    0 -0.56504844337E+01 -0.88585939267E+01  0.17742369073E+01  0.10656011334E+02  0.51100000000E-03 0. -1.
        -11    1    3    3    0    0 -0.32484345631E+02 -0.11413546929E+02 -0.11195568089E+02  0.36205559099E+02  0.51100000000E-03 0.  1.
        -12    1    3    3    0    0  0.63538105018E+00  0.27598374379E+00  0.61403846583E+00  0.92569938062E+00  0.00000000000E+00 0.  1.
</event>
<event>
 7    1  0.2655656E-009  0.4778727E+02  0.7816164E-02  0.1312668E+00
        -11   -1    0    0    0    0  0.00000000000E+00  0.00000000000E+00  0.45593999997E+02  0.45594000000E+02  0.51100000000E-03 0. -1.
         11   -1    0    0    0    0 -0.00000000000E+00 -0.00000000000E+00 -0.45593999997E+02  0.45594000000E+02  0.51100000000E-03 0.  1.
    9900012    2    1    2    0    0 -0.62184554269E+01 -0.85311554306E+01  0.42097194589E+02  0.47787267366E+02  0.19999983229E+02 0.  0.
        -12    1    1    2    0    0  0.62184554269E+01  0.85311554306E+01 -0.42097194589E+02  0.43400732634E+02  0.00000000000E+00 0.  1.
         11    1    3    3    0    0 -0.71556859379E+01  0.23239885410E+00  0.23613902331E+02  0.24675377080E+02  0.51100000000E-03 0. -1.
        -11    1    3    3    0    0  0.31287040046E+01  0.87837379950E+00  0.17902534408E+01  0.37101666975E+01  0.51100000000E-03 0.  1.
         12    1    3    3    0    0 -0.21914734936E+01 -0.96419280842E+01  0.16693038817E+02  0.19401723588E+02  0.00000000000E+00 0. -1.
</event>
<event>
 7    1  0.2655656E-009  0.4778727E+02  0.7816164E-02  0.1312668E+00
        -11   -1    0    0    0    0  0.00000000000E+00  0.00000000000E+00  0.45593999997E+02  0.45594000000E+02  0.51100000000E-03 0.  1.
         11   -1    0    0    0    0 -0.00000000000E+00 -0.00000000000E+00 -0.45593999997E+02  0.45594000000E+02  0.51100000000E-03 0. -1.
    9900012    2    1    2    0    0 -0.12888235914E+02  0.13210487992E+02 -0.39281035138E+02  0.47787270288E+02  0.19999996553E+02 0.  0.
        -12    1    1    2    0    0  0.12888235914E+02 -0.13210487992E+02  0.39281035138E+02  0.43400729712E+02  0.00000000000E+00 0.  1.
         11    1    3    3    0    0 -0.74348228696E+01  0.85745998482E+01 -0.17903361561E+02  0.21197422228E+02  0.51100000000E-03 0. -1.
        -11    1    3    3    0    0 -0.50050477624E+01 -0.44599276244E+01 -0.92241389565E+01  0.11402903019E+02  0.51100000000E-03 0.  1.
        -12    1    3    3    0    0 -0.44836528245E+00  0.90958157677E+01 -0.12153534621E+02  0.15186945041E+02  0.00000000000E+00 0.  1.
</event>
<event>
 7    1  0.2655656E-009  0.4778727E+02  0.7816164E-02  0.1312668E+00
        -11   -1    0    0    0    0  0.00000000000E+00  0.00000000000E+00  0.45593999997E+02  0.45594000000E+02  0.51100000000E-03 0.  1.
         11   -1    0    0    0    0 -0.00000000000E+00 -0.00000000000E+00 -0.45593999997E+02  0.45594000000E+02  0.51100000000E-03 0. -1.
    9900012    2    1    2    0    0  0.10080068086E+02  0.41372241169E+02  0.83876981577E+01  0.47787267375E+02  0.19999983271E+02 0.  0.
        -12    1    1    2    0    0 -0.10080068086E+02 -0.41372241169E+02 -0.83876981577E+01  0.43400732625E+02  0.00000000000E+00 0.  1.
         11    1    3    3    0    0  0.67595922319E+01  0.10757053866E+02  0.68667778335E-01  0.12704763301E+02  0.51100000000E-03 0. -1.
        -11    1    3    3    0    0  0.23754981614E+01 -0.90901337491E+00  0.63764532677E+00  0.26221915747E+01  0.51100000000E-03 0.  1.
         12    1    3    3    0    0  0.94497769254E+00  0.31524200678E+02  0.76813850526E+01  0.32460312500E+02  0.00000000000E+00 0. -1.
</event>
<event>
 7    1  0.2655656E-009  0.4778727E+02  0.7816164E-02  0.1312668E+00
        -11   -1    0    0    0    0  0.00000000000E+00  0.00000000000E+00  0.45593999997E+02  0.45594000000E+02  0.51100000000E-03 0.  1.
         11   -1    0    0    0    0 -0.00000000000E+00 -0.00000000000E+00 -0.45593999997E+02  0.45594000000E+02  0.51100000000E-03 0. -1.
    9900012    2    1    2    0    0 -0.39923166650E+02 -0.16494663244E+02 -0.42059818139E+01  0.47787269201E+02  0.19999991593E+02 0.  0.
        -12    1    1    2    0    0  0.39923166650E+02  0.16494663244E+02  0.42059818139E+01  0.43400730799E+02  0.00000000000E+00 0.  1.
         11    1    3    3    0    0 -0.32424529194E+02 -0.17672440836E+02 -0.51572555870E+00  0.36931439609E+02  0.51100000000E-03 0. -1.
        -11    1    3    3    0    0 -0.40808627787E+01  0.37348055072E+01 -0.55507562448E+00  0.55597052444E+01  0.51100000000E-03 0.  1.
         12    1    3    3    0    0 -0.34177746778E+01 -0.25570279156E+01 -0.31351806307E+01  0.52961243467E+01  0.00000000000E+00 0. -1.
</event>
<event>
 7    1  0.2655656E-009  0.4778727E+02  0.7816164E-02  0.1312668E+00
        -11   -1    0    0    0    0  0.00000000000E+00  0.00000000000E+00  0.45593999997E+02  0.45594000000E+02  0.51100000000E-03 0. -1.
         11   -1    0    0    0    0 -0.00000000000E+00 -0.00000000000E+00 -0.45593999997E+02  0.45594000000E+02  0.51100000000E-03 0.  1.
    9900012    2    1    2    0    0 -0.10774671163E+02 -0.16444054348E+02  0.38692670844E+02  0.47787271445E+02  0.20000001827E+02 0.  0.
        -12    1    1    2    0    0  0.10774671163E+02  0.16444054348E+02 -0.38692670844E+02  0.43400728555E+02  0.00000000000E+00 0.  1.
         11    1    3    3    0    0  0.48619815470E+01 -0.29782493628E+01  0.61621524338E+01  0.83952937238E+01  0.51100000000E-03 0. -1.
        -11    1    3    3    0    0 -0.13083112863E+02 -0.98543389851E+01  0.18637779125E+02  0.24812147227E+02  0.51100000000E-03 0.  1.
         12    1    3    3    0    0 -0.25535398469E+01 -0.36114660002E+01  0.13892739285E+02  0.14579830495E+02  0.00000000000E+00 0. -1.
</event>
<event>
 7    1  0.2655656E-009  0.4778727E+02  0.7816164E-02  0.1312668E+00
        -11   -1    0    0    0    0  0.00000000000E+00  0.00000000000E+00  0.45593999997E+02  0.45594000000E+02  0.51100000000E-03 0.  1.
         11   -1    0    0    0    0 -0.00000000000E+00 -0.00000000000E+00 -0.45593999997E+02  0.45594000000E+02  0.51100000000E-03 0. -1.
    9900012    2    1    2    0    0 -0.16685905773E+02  0.26963030169E+02 -0.29634422755E+02  0.47787268908E+02  0.19999990257E+02 0.  0.
        -12    1    1    2    0    0  0.16685905773E+02 -0.26963030169E+02  0.29634422755E+02  0.43400731092E+02  0.00000000000E+00 0.  1.
         11    1    3    3    0    0 -0.47389570417E+01  0.53515640854E+01  0.20354005224E+01  0.74323487237E+01  0.51100000000E-03 0.  1.
        -11    1    3    3    0    0 -0.11339104330E+02  0.17491923691E+02 -0.26530560609E+02  0.33740381265E+02  0.51100000000E-03 0. -1.
        -12    1    3    3    0    0 -0.60784440180E+00  0.41195423927E+01 -0.51392626679E+01  0.66145389190E+01  0.00000000000E+00 0.  1.
</event>
<event>
 7    1  0.2655656E-009  0.4778727E+02  0.7816164E-02  0.1312668E+00
        -11   -1    0    0    0    0  0.00000000000E+00  0.00000000000E+00  0.45593999997E+02  0.45594000000E+02  0.51100000000E-03 0. -1.
         11   -1    0    0    0    0 -0.00000000000E+00 -0.00000000000E+00 -0.45593999997E+02  0.45594000000E+02  0.51100000000E-03 0.  1.
    9900012    2    1    2    0    0 -0.37248136961E+02  0.16576508491E+02  0.14880152431E+02  0.47787271006E+02  0.19999999826E+02 0.  0.
        -12    1    1    2    0    0  0.37248136961E+02 -0.16576508491E+02 -0.14880152431E+02  0.43400728994E+02  0.00000000000E+00 0.  1.
         11    1    3    3    0    0 -0.13752279257E+02  0.62796331768E+01 -0.23730641876E+01  0.15303281069E+02  0.51100000000E-03 0. -1.
        -11    1    3    3    0    0 -0.88712048928E+01 -0.69024848558E-01  0.93635789257E+01  0.12898823638E+02  0.51100000000E-03 0.  1.
         12    1    3    3    0    0 -0.14624652811E+02  0.10365900163E+02  0.78896376931E+01  0.19585166299E+02  0.00000000000E+00 0. -1.
</event>
<event>
 7    1  0.2655656E-009  0.4778727E+02  0.7816164E-02  0.1312668E+00
        -11   -1    0    0    0    0  0.00000000000E+00  0.00000000000E+00  0.45593999997E+02  0.45594000000E+02  0.51100000000E-03 0. -1.
         11   -1    0    0    0    0 -0.00000000000E+00 -0.00000000000E+00 -0.45593999997E+02  0.45594000000E+02  0.51100000000E-03 0.  1.
    9900012    2    1    2    0    0 -0.35388782797E+02  0.33710924385E+01  0.24897645212E+02  0.47787274785E+02  0.20000017055E+02 0.  0.
        -12    1    1    2    0    0  0.35388782797E+02 -0.33710924385E+01 -0.24897645212E+02  0.43400725215E+02  0.00000000000E+00 0.  1.
         11    1    3    3    0    0 -0.45658518956E+01 -0.11161649093E+01 -0.33203678197E+00  0.47120140411E+01  0.51100000000E-03 0. -1.
        -11    1    3    3    0    0 -0.30177927875E+02  0.54217588666E+01  0.17583419385E+02  0.35345147299E+02  0.51100000000E-03 0.  1.
        -12    1    3    3    0    0 -0.64500302612E+00 -0.93450151873E+00  0.76462626088E+01  0.77301134451E+01  0.00000000000E+00 0.  1.
</event>
<event>
 7    1  0.2655656E-009  0.4778727E+02  0.7816164E-02  0.1312668E+00
        -11   -1    0    0    0    0  0.00000000000E+00  0.00000000000E+00  0.45593999997E+02  0.45594000000E+02  0.51100000000E-03 0.  1.
         11   -1    0    0    0    0 -0.00000000000E+00 -0.00000000000E+00 -0.45593999997E+02  0.45594000000E+02  0.51100000000E-03 0. -1.
    9900012    2    1    2    0    0  0.28053403341E+02 -0.32900127992E+02  0.37698038213E+01  0.47787270954E+02  0.19999999586E+02 0.  0.
        -12    1    1    2    0    0 -0.28053403341E+02  0.32900127992E+02 -0.37698038213E+01  0.43400729046E+02  0.00000000000E+00 0.  1.
         11    1    3    3    0    0  0.36720975957E+01 -0.40204154265E+01 -0.45846664422E+01  0.71180901653E+01  0.51100000000E-03 0. -1.
        -11    1    3    3    0    0  0.12657728317E+02 -0.16717704851E+02  0.10822782346E+02  0.23597295600E+02  0.51100000000E-03 0.  1.
        -12    1    3    3    0    0  0.11723577429E+02 -0.12162007714E+02 -0.24683120826E+01  0.17071885189E+02  0.00000000000E+00 0.  1.
</event>
<event>
 7    1  0.2655656E-009  0.4778727E+02  0.7816164E-02  0.1312668E+00
        -11   -1    0    0    0    0  0.00000000000E+00  0.00000000000E+00  0.45593999997E+02  0.45594000000E+02  0.51100000000E-03 0.  1.
         11   -1    0    0    0    0 -0.00000000000E+00 -0.00000000000E+00 -0.45593999997E+02  0.45594000000E+02  0.51100000000E-03 0. -1.
    9900012    2    1    2    0    0  0.48739761139E+00 -0.18778562331E+02 -0.39124816470E+02  0.47787271626E+02  0.20000002649E+02 0.  0.
        -12    1    1    2    0    0 -0.48739761139E+00  0.18778562331E+02  0.39124816470E+02  0.43400728374E+02  0.00000000000E+00 0.  1.
         11    1    3    3    0    0  0.95119217573E+00 -0.15651121319E+02 -0.18951284694E+02  0.24597023335E+02  0.51100000000E-03 0. -1.
        -11    1    3    3    0    0 -0.22082981586E+01 -0.59488673813E+00 -0.19978338619E+02  0.20108816107E+02  0.51100000000E-03 0.  1.
        -12    1    3    3    0    0  0.17445035942E+01 -0.25325542735E+01 -0.19519315722E+00  0.30814321844E+01  0.00000000000E+00 0.  1.
</event>
<event>
 7    1  0.2655656E-009  0.4778728E+02  0.7816164E-02  0.1312668E+00
        -11   -1    0    0    0    0  0.00000000000E+00  0.00000000000E+00  0.45593999997E+02  0.45594000000E+02  0.51100000000E-03 0.  1.
         11   -1    0    0    0    0 -0.00000000000E+00 -0.00000000000E+00 -0.45593999997E+02  0.45594000000E+02  0.51100000000E-03 0. -1.
    9900012    2    1    2    0    0 -0.34793628429E+02 -0.21506533579E+02 -0.14508457264E+02  0.47787275375E+02  0.20000019743E+02 0.  0.
        -12    1    1    2    0    0  0.34793628429E+02  0.21506533579E+02  0.14508457264E+02  0.43400724625E+02  0.00000000000E+00 0.  1.
         11    1    3    3    0    0 -0.73262606813E+01  0.10788910208E+01  0.79198089698E+00  0.74475053143E+01  0.51100000000E-03 0.  1.
        -11    1    3    3    0    0 -0.25063677708E+02 -0.14976372207E+02 -0.13460752189E+02  0.32150762269E+02  0.51100000000E-03 0. -1.
        -12    1    3    3    0    0 -0.24036900391E+01 -0.76090523928E+01 -0.18396859724E+01  0.81890077908E+01  0.00000000000E+00 0.  1.
</event>
<event>
 7    1  0.2655656E-009  0.4778726E+02  0.7816164E-02  0.1312668E+00
        -11   -1    0    0    0    0  0.00000000000E+00  0.00000000000E+00  0.45593999997E+02  0.45594000000E+02  0.51100000000E-03 0.  1.
         11   -1    0    0    0    0 -0.00000000000E+00 -0.00000000000E+00 -0.45593999997E+02  0.45594000000E+02  0.51100000000E-03 0. -1.
    9900012    2    1    2    0    0  0.20096055323E+02  0.75372461834E+01 -0.37722179930E+02  0.47787258322E+02  0.19999941991E+02 0.  0.
        -12    1    1    2    0    0 -0.20096055323E+02 -0.75372461834E+01  0.37722179930E+02  0.43400741678E+02  0.00000000000E+00 0.  1.
         11    1    3    3    0    0  0.25847863175E+01  0.67565625341E+00 -0.68434434234E+01  0.73464515128E+01  0.51100000000E-03 0. -1.
        -11    1    3    3    0    0  0.72127706535E+01 -0.34172880475E+01 -0.21981739838E+02  0.23385867627E+02  0.51100000000E-03 0.  1.
        -12    1    3    3    0    0  0.10298498352E+02  0.10278877977E+02 -0.88969966691E+01  0.17054939182E+02  0.00000000000E+00 0.  1.
</event>
<event>
 7    1  0.2655656E-009  0.4778729E+02  0.7816164E-02  0.1312668E+00
        -11   -1    0    0    0    0  0.00000000000E+00  0.00000000000E+00  0.45593999997E+02  0.45594000000E+02  0.51100000000E-03 0.  1.
         11   -1    0    0    0    0 -0.00000000000E+00 -0.00000000000E+00 -0.45593999997E+02  0.45594000000E+02  0.51100000000E-03 0. -1.
    9900012    2    1    2    0    0  0.14190628376E+02  0.12152455058E+02 -0.39173531657E+02  0.47787289405E+02  0.20000083715E+02 0.  0.
        -12    1    1    2    0    0 -0.14190628376E+02 -0.12152455058E+02  0.39173531657E+02  0.43400710595E+02  0.00000000000E+00 0.  1.
         11    1    3    3    0    0  0.13597471984E+02  0.16049469853E+02 -0.26628169946E+02  0.33934291828E+02  0.51100000000E-03 0. -1.
        -11    1    3    3    0    0  0.37201138047E+00 -0.14329131028E+01 -0.10607708571E+02  0.10710514171E+02  0.51100000000E-03 0.  1.
         12    1    3    3    0    0  0.22114501162E+00 -0.24641016926E+01 -0.19376531398E+01  0.31424834061E+01  0.00000000000E+00 0. -1.
</event>
<event>
 7    1  0.2655656E-009  0.4778727E+02  0.7816164E-02  0.1312668E+00
        -11   -1    0    0    0    0  0.00000000000E+00  0.00000000000E+00  0.45593999997E+02  0.45594000000E+02  0.51100000000E-03 0. -1.
         11   -1    0    0    0    0 -0.00000000000E+00 -0.00000000000E+00 -0.45593999997E+02  0.45594000000E+02  0.51100000000E-03 0.  1.
    9900012    2    1    2    0    0  0.18145374038E+02 -0.38972253693E+02  0.59608773105E+01  0.47787271721E+02  0.20000003083E+02 0.  0.
        -12    1    1    2    0    0 -0.18145374038E+02  0.38972253693E+02 -0.59608773105E+01  0.43400728279E+02  0.00000000000E+00 0.  1.
         11    1    3    3    0    0  0.15454007295E+02 -0.19869053161E+02  0.10198422456E+02  0.27159039671E+02  0.51100000000E-03 0. -1.
        -11    1    3    3    0    0  0.64587052819E+00 -0.47178298127E+01 -0.37989244325E+01  0.60915428247E+01  0.51100000000E-03 0.  1.
        -12    1    3    3    0    0  0.20454962142E+01 -0.14385370719E+02 -0.43862071328E+00  0.14536689224E+02  0.00000000000E+00 0.  1.
</event>
<event>
 7    1  0.2655656E-009  0.4778726E+02  0.7816164E-02  0.1312668E+00
        -11   -1    0    0    0    0  0.00000000000E+00  0.00000000000E+00  0.45593999997E+02  0.45594000000E+02  0.51100000000E-03 0.  1.
         11   -1    0    0    0    0 -0.00000000000E+00 -0.00000000000E+00 -0.45593999997E+02  0.45594000000E+02  0.51100000000E-03 0. -1.
    9900012    2    1    2    0    0 -0.11282001587E+01 -0.42581459987E+02 -0.83168777008E+01  0.47787262392E+02  0.19999960549E+02 0.  0.
        -12    1    1    2    0    0  0.11282001587E+01  0.42581459987E+02  0.83168777008E+01  0.43400737608E+02  0.00000000000E+00 0.  1.
         11    1    3    3    0    0  0.20555331849E+01 -0.16034609574E+02 -0.70619432933E+01  0.17641002358E+02  0.51100000000E-03 0. -1.
        -11    1    3    3    0    0 -0.80182113760E+01 -0.19993565926E+02  0.13837743840E+01  0.21585857035E+02  0.51100000000E-03 0.  1.
        -12    1    3    3    0    0  0.48344780325E+01 -0.65532844876E+01 -0.26387087916E+01  0.85604029992E+01  0.00000000000E+00 0.  1.
</event>
<event>
 7    1  0.2655656E-009  0.4778727E+02  0.7816164E-02  0.1312668E+00
        -11   -1    0    0    0    0  0.00000000000E+00  0.00000000000E+00  0.45593999997E+02  0.45594000000E+02  0.51100000000E-03 0.  1.
         11   -1    0    0    0    0 -0.00000000000E+00 -0.00000000000E+00 -0.45593999997E+02  0.45594000000E+02  0.51100000000E-03 0. -1.
    9900012    2    1    2    0    0 -0.15995057639E+02 -0.36513714640E+02 -0.17161880809E+02  0.47787269838E+02  0.19999994500E+02 0.  0.
        -12    1    1    2    0    0  0.15995057639E+02  0.36513714640E+02  0.17161880809E+02  0.43400730162E+02  0.00000000000E+00 0.  1.
         11    1    3    3    0    0 -0.42447086797E+01 -0.96319482428E+01 -0.17350888050E+01  0.10667826027E+02  0.51100000000E-03 0. -1.
        -11    1    3    3    0    0  0.16037425029E+01 -0.17025960053E+02 -0.66920805152E+01  0.18364074919E+02  0.51100000000E-03 0.  1.
        -12    1    3    3    0    0 -0.13354091462E+02 -0.98558063442E+01 -0.87347114891E+01  0.18755368892E+02  0.00000000000E+00 0.  1.
</event>
<event>
 7    1  0.2655656E-009  0.4778727E+02  0.7816164E-02  0.1312668E+00
        -11   -1    0    0    0    0  0.00000000000E+00  0.00000000000E+00  0.45593999997E+02  0.45594000000E+02  0.51100000000E-03 0. -1.
         11   -1    0    0    0    0 -0.00000000000E+00 -0.00000000000E+00 -0.45593999997E+02  0.45594000000E+02  0.51100000000E-03 0.  1.
    9900012    2    1    2    0    0 -0.42219748024E+02  0.93753383581E+01 -0.36357986369E+01  0.47787272768E+02  0.20000007860E+02 0.  0.
        -12    1    1    2    0    0  0.42219748024E+02 -0.93753383581E+01  0.36357986369E+01  0.43400727232E+02  0.00000000000E+00 0.  1.
         11    1    3    3    0    0 -0.10026561920E+02  0.97273794124E+01 -0.58113127929E+01  0.15130274644E+02  0.51100000000E-03 0. -1.
        -11    1    3    3    0    0 -0.29675134835E+01  0.35542232273E-01 -0.12667128661E+01  0.32267570828E+01  0.51100000000E-03 0.  1.
         12    1    3    3    0    0 -0.29225672620E+02 -0.38758328653E+00  0.34422270221E+01  0.29430241041E+02  0.00000000000E+00 0. -1.
</event>
<event>
 7    1  0.2655656E-009  0.4778727E+02  0.7816164E-02  0.1312668E+00
        -11   -1    0    0    0    0  0.00000000000E+00  0.00000000000E+00  0.45593999997E+02  0.45594000000E+02  0.51100000000E-03 0. -1.
         11   -1    0    0    0    0 -0.00000000000E+00 -0.00000000000E+00 -0.45593999997E+02  0.45594000000E+02  0.51100000000E-03 0.  1.
    9900012    2    1    2    0    0  0.10813901810E+02  0.20879056016E+02  0.36479415257E+02  0.47787272011E+02  0.20000004405E+02 0.  0.
        -12    1    1    2    0    0 -0.10813901810E+02 -0.20879056016E+02 -0.36479415257E+02  0.43400727989E+02  0.00000000000E+00 0.  1.
         11    1    3    3    0    0  0.51620244608E+01  0.12821210604E+02  0.27001548538E+02  0.30333373726E+02  0.51100000000E-03 0. -1.
        -11    1    3    3    0    0 -0.20783523489E+01  0.17908593219E+01 -0.10771335347E+01  0.29473619577E+01  0.51100000000E-03 0.  1.
         12    1    3    3    0    0  0.77302296985E+01  0.62669860904E+01  0.10555000254E+02  0.14506536327E+02  0.00000000000E+00 0. -1.
</event>
<event>
 7    1  0.2655656E-009  0.4778727E+02  0.7816164E-02  0.1312668E+00
        -11   -1    0    0    0    0  0.00000000000E+00  0.00000000000E+00  0.45593999997E+02  0.45594000000E+02  0.51100000000E-03 0.  1.
         11   -1    0    0    0    0 -0.00000000000E+00 -0.00000000000E+00 -0.45593999997E+02  0.45594000000E+02  0.51100000000E-03 0. -1.
    9900012    2    1    2    0    0 -0.29841037323E+02  0.23053709239E+01 -0.31429620777E+02  0.47787270677E+02  0.19999998323E+02 0.  0.
        -12    1    1    2    0    0  0.29841037323E+02 -0.23053709239E+01  0.31429620777E+02  0.43400729323E+02  0.00000000000E+00 0.  1.
         11    1    3    3    0    0 -0.43020798440E+01 -0.58382694971E+01 -0.10053357498E+02  0.12396099344E+02  0.51100000000E-03 0. -1.
        -11    1    3    3    0    0  0.40327024440E+00 -0.96572497520E-01  0.36673151230E+00  0.55357510830E+00  0.51100000000E-03 0.  1.
         12    1    3    3    0    0 -0.25942227724E+02  0.82402129185E+01 -0.21742994791E+02  0.34837596225E+02  0.00000000000E+00 0. -1.
</event>
<event>
 7    1  0.2655656E-009  0.4778727E+02  0.7816164E-02  0.1312668E+00
        -11   -1    0    0    0    0  0.00000000000E+00  0.00000000000E+00  0.45593999997E+02  0.45594000000E+02  0.51100000000E-03 0.  1.
         11   -1    0    0    0    0 -0.00000000000E+00 -0.00000000000E+00 -0.45593999997E+02  0.45594000000E+02  0.51100000000E-03 0. -1.
    9900012    2    1    2    0    0  0.93002784105E+01 -0.40028162226E+02 -0.13959739075E+02  0.47787271150E+02  0.20000000480E+02 0.  0.
        -12    1    1    2    0    0 -0.93002784105E+01  0.40028162226E+02  0.13959739075E+02  0.43400728850E+02  0.00000000000E+00 0.  1.
         11    1    3    3    0    0  0.38649877163E+01 -0.60974864883E+01 -0.41122107016E+01  0.83082939667E+01  0.51100000000E-03 0. -1.
        -11    1    3    3    0    0 -0.19076549097E+01 -0.14143154915E+02  0.32535694322E+01  0.14637407302E+02  0.51100000000E-03 0.  1.
        -12    1    3    3    0    0  0.73429456039E+01 -0.19787520822E+02 -0.13101097806E+02  0.24841569881E+02  0.00000000000E+00 0.  1.
</event>
<event>
 7    1  0.2655656E-009  0.4778727E+02  0.7816164E-02  0.1312668E+00
        -11   -1    0    0    0    0  0.00000000000E+00  0.00000000000E+00  0.45593999997E+02  0.45594000000E+02  0.51100000000E-03 0.  1.
         11   -1    0    0    0    0 -0.00000000000E+00 -0.00000000000E+00 -0.45593999997E+02  0.45594000000E+02  0.51100000000E-03 0. -1.
    9900012    2    1    2    0    0 -0.49941001900E+01  0.39451100807E+02 -0.17386578730E+02  0.47787268306E+02  0.19999987515E+02 0.  0.
        -12    1    1    2    0    0  0.49941001900E+01 -0.39451100807E+02  0.17386578730E+02  0.43400731694E+02  0.00000000000E+00 0.  1.
         11    1    3    3    0    0  0.24228644014E+01  0.97549234168E+01 -0.65865662255E+01  0.12017140162E+02  0.51100000000E-03 0. -1.
        -11    1    3    3    0    0 -0.35489523777E+01  0.59687249001E+01 -0.94026229534E+01  0.11688886114E+02  0.51100000000E-03 0.  1.
        -12    1    3    3    0    0 -0.38680122137E+01  0.23727452490E+02 -0.13973895513E+01  0.24081242030E+02  0.00000000000E+00 0.  1.
</event>
<event>
 7    1  0.2655656E-009  0.4778727E+02  0.7816164E-02  0.1312668E+00
        -11   -1    0    0    0    0  0.00000000000E+00  0.00000000000E+00  0.45593999997E+02  0.45594000000E+02  0.51100000000E-03 0.  1.
         11   -1    0    0    0    0 -0.00000000000E+00 -0.00000000000E+00 -0.45593999997E+02  0.45594000000E+02  0.51100000000E-03 0. -1.
    9900012    2    1    2    0    0 -0.11299508457E+02  0.17744724167E+02 -0.37961416503E+02  0.47787271089E+02  0.20000000201E+02 0.  0.
        -12    1    1    2    0    0  0.11299508457E+02 -0.17744724167E+02  0.37961416503E+02  0.43400728911E+02  0.00000000000E+00 0.  1.
         11    1    3    3    0    0  0.20049530780E+01  0.60270784342E+00 -0.14371715299E+02  0.14523405058E+02  0.51100000000E-03 0. -1.
        -11    1    3    3    0    0 -0.14080565610E+02  0.14395451407E+02 -0.18096737412E+02  0.27073663482E+02  0.51100000000E-03 0.  1.
         12    1    3    3    0    0  0.77610407432E+00  0.27465649168E+01 -0.54929637920E+01  0.61902025489E+01  0.00000000000E+00 0. -1.
</event>
<event>
 7    1  0.2655656E-009  0.4778727E+02  0.7816164E-02  0.1312668E+00
        -11   -1    0    0    0    0  0.00000000000E+00  0.00000000000E+00  0.45593999997E+02  0.45594000000E+02  0.51100000000E-03 0. -1.
         11   -1    0    0    0    0 -0.00000000000E+00 -0.00000000000E+00 -0.45593999997E+02  0.45594000000E+02  0.51100000000E-03 0.  1.
    9900012    2    1    2    0    0 -0.20733284769E+02 -0.35440821267E+02  0.14060675927E+02  0.47787268245E+02  0.19999987235E+02 0.  0.
        -12    1    1    2    0    0  0.20733284769E+02  0.35440821267E+02 -0.14060675927E+02  0.43400731755E+02  0.00000000000E+00 0.  1.
         11    1    3    3    0    0 -0.59309468944E+01 -0.18814863387E+02  0.13497596267E+02  0.23903144575E+02  0.51100000000E-03 0. -1.
        -11    1    3    3    0    0 -0.66689738989E+01 -0.52568245397E+01  0.41512190922E+01  0.94520916901E+01  0.51100000000E-03 0.  1.
         12    1    3    3    0    0 -0.81333639757E+01 -0.11369133340E+02 -0.35881394324E+01  0.14432031979E+02  0.00000000000E+00 0. -1.
</event>
<event>
 7    1  0.2655656E-009  0.4778727E+02  0.7816164E-02  0.1312668E+00
        -11   -1    0    0    0    0  0.00000000000E+00  0.00000000000E+00  0.45593999997E+02  0.45594000000E+02  0.51100000000E-03 0. -1.
         11   -1    0    0    0    0 -0.00000000000E+00 -0.00000000000E+00 -0.45593999997E+02  0.45594000000E+02  0.51100000000E-03 0.  1.
    9900012    2    1    2    0    0 -0.33324181185E+01  0.30726059426E+02  0.30470111244E+02  0.47787269389E+02  0.19999992451E+02 0.  0.
        -12    1    1    2    0    0  0.33324181185E+01 -0.30726059426E+02 -0.30470111244E+02  0.43400730611E+02  0.00000000000E+00 0.  1.
         11    1    3    3    0    0  0.14626445019E+01  0.18849782412E+02  0.92210965112E+01  0.21035261991E+02  0.51100000000E-03 0. -1.
        -11    1    3    3    0    0 -0.47254497487E+00  0.49339982286E+01  0.12007668034E+01  0.50999488675E+01  0.51100000000E-03 0.  1.
         12    1    3    3    0    0 -0.43225176455E+01  0.69422787854E+01  0.20048247930E+02  0.21652058530E+02  0.00000000000E+00 0. -1.
</event>
<event>
 7    1  0.2655656E-009  0.4778727E+02  0.7816164E-02  0.1312668E+00
        -11   -1    0    0    0    0  0.00000000000E+00  0.00000000000E+00  0.45593999997E+02  0.45594000000E+02  0.51100000000E-03 0.  1.
         11   -1    0    0    0    0 -0.00000000000E+00 -0.00000000000E+00 -0.45593999997E+02  0.45594000000E+02  0.51100000000E-03 0. -1.
    9900012    2    1    2    0    0  0.33317530183E+02  0.48904698248E+01 -0.27379717993E+02  0.47787268785E+02  0.19999989700E+02 0.  0.
        -12    1    1    2    0    0 -0.33317530183E+02 -0.48904698248E+01  0.27379717993E+02  0.43400731215E+02  0.00000000000E+00 0.  1.
         11    1    3    3    0    0  0.88579025078E+01 -0.61759666356E+00 -0.11811429905E+02  0.14776797324E+02  0.51100000000E-03 0. -1.
        -11    1    3    3    0    0  0.23542393969E+02  0.88635897766E+01 -0.15467241760E+02  0.29530375979E+02  0.51100000000E-03 0.  1.
        -12    1    3    3    0    0  0.91723370550E+00 -0.33555232883E+01 -0.10104632773E+00  0.34800954828E+01  0.00000000000E+00 0.  1.
</event>
<event>
 7    1  0.2655656E-009  0.4778727E+02  0.7816164E-02  0.1312668E+00
        -11   -1    0    0    0    0  0.00000000000E+00  0.00000000000E+00  0.45593999997E+02  0.45594000000E+02  0.51100000000E-03 0.  1.
         11   -1    0    0    0    0 -0.00000000000E+00 -0.00000000000E+00 -0.45593999997E+02  0.45594000000E+02  0.51100000000E-03 0. -1.
    9900012    2    1    2    0    0 -0.18106337528E+02 -0.35118304059E+02 -0.17957969185E+02  0.47787269638E+02  0.19999993588E+02 0.  0.
        -12    1    1    2    0    0  0.18106337528E+02  0.35118304059E+02  0.17957969185E+02  0.43400730362E+02  0.00000000000E+00 0.  1.
         11    1    3    3    0    0 -0.12557384020E+01 -0.81257928654E+01 -0.10532694128E+02  0.13361999644E+02  0.51100000000E-03 0. -1.
        -11    1    3    3    0    0 -0.18394505984E+02 -0.25005735373E+02 -0.73842401413E+01  0.31908802150E+02  0.51100000000E-03 0.  1.
        -12    1    3    3    0    0  0.15439068575E+01 -0.19867758212E+01 -0.41034916464E-01  0.25164678446E+01  0.00000000000E+00 0.  1.
</event>
<event>
 7    1  0.2655656E-009  0.4778727E+02  0.7816164E-02  0.1312668E+00
        -11   -1    0    0    0    0  0.00000000000E+00  0.00000000000E+00  0.45593999997E+02  0.45594000000E+02  0.51100000000E-03 0. -1.
         11   -1    0    0    0    0 -0.00000000000E+00 -0.00000000000E+00 -0.45593999997E+02  0.45594000000E+02  0.51100000000E-03 0.  1.
    9900012    2    1    2    0    0  0.38536526464E+02 -0.64118376890E+01  0.18906287235E+02  0.47787271533E+02  0.20000002226E+02 0.  0.
        -12    1    1    2    0    0 -0.38536526464E+02  0.64118376890E+01 -0.18906287235E+02  0.43400728467E+02  0.00000000000E+00 0.  1.
         11    1    3    3    0    0  0.17061853788E+02 -0.77963470033E+01  0.19560494330E+01  0.18860435067E+02  0.51100000000E-03 0. -1.
        -11    1    3    3    0    0  0.10217606468E+01 -0.23893277209E+01  0.24627318458E+01  0.35802137063E+01  0.51100000000E-03 0.  1.
         12    1    3    3    0    0  0.20452912029E+02  0.37738370352E+01  0.14487505956E+02  0.25346622759E+02  0.00000000000E+00 0. -1.
</event>
<event>
 7    1  0.2655656E-009  0.4778730E+02  0.7816164E-02  0.1312668E+00
        -11   -1    0    0    0    0  0.00000000000E+00  0.00000000000E+00  0.45593999997E+02  0.45594000000E+02  0.51100000000E-03 0. -1.
         11   -1    0    0    0    0 -0.00000000000E+00 -0.00000000000E+00 -0.45593999997E+02  0.45594000000E+02  0.51100000000E-03 0.  1.
    9900012    2    1    2    0    0  0.76828922623E+00 -0.29551399899E+02  0.31776495505E+02  0.47787295272E+02  0.20000110461E+02 0.  0.
        -12    1    1    2    0    0 -0.76828922623E+00  0.29551399899E+02 -0.31776495505E+02  0.43400704728E+02  0.00000000000E+00 0.  1.
         11    1    3    3    0    0 -0.56719594419E+01 -0.12782404641E+02  0.62789390595E+01  0.15329255308E+02  0.51100000000E-03 0. -1.
        -11    1    3    3    0    0  0.65406888740E+01 -0.62348625565E+01  0.15459616229E+02  0.17906810331E+02  0.51100000000E-03 0.  1.
        -12    1    3    3    0    0 -0.10044020585E+00 -0.10534132701E+02  0.10037940217E+02  0.14551229632E+02  0.00000000000E+00 0.  1.
</event>
<event>
 7    1  0.2655656E-009  0.4778727E+02  0.7816164E-02  0.1312668E+00
        -11   -1    0    0    0    0  0.00000000000E+00  0.00000000000E+00  0.45593999997E+02  0.45594000000E+02  0.51100000000E-03 0. -1.
         11   -1    0    0    0    0 -0.00000000000E+00 -0.00000000000E+00 -0.45593999997E+02  0.45594000000E+02  0.51100000000E-03 0.  1.
    9900012    2    1    2    0    0  0.33462168940E+02  0.22428976544E+02  0.16150786231E+02  0.47787266886E+02  0.19999981038E+02 0.  0.
        -12    1    1    2    0    0 -0.33462168940E+02 -0.22428976544E+02 -0.16150786231E+02  0.43400733114E+02  0.00000000000E+00 0.  1.
         11    1    3    3    0    0  0.25534966132E+02  0.13206101076E+02  0.16800124276E+02  0.33296843348E+02  0.51100000000E-03 0. -1.
        -11    1    3    3    0    0  0.67928676158E+00  0.34768345078E+01 -0.33284893947E+01  0.48609310436E+01  0.51100000000E-03 0.  1.
        -12    1    3    3    0    0  0.72479160465E+01  0.57460409603E+01  0.26791513499E+01  0.96294924939E+01  0.00000000000E+00 0.  1.
</event>
<event>
 7    1  0.2655656E-009  0.4778727E+02  0.7816164E-02  0.1312668E+00
        -11   -1    0    0    0    0  0.00000000000E+00  0.00000000000E+00  0.45593999997E+02  0.45594000000E+02  0.51100000000E-03 0. -1.
         11   -1    0    0    0    0 -0.00000000000E+00 -0.00000000000E+00 -0.45593999997E+02  0.45594000000E+02  0.51100000000E-03 0.  1.
    9900012    2    1    2    0    0  0.38583575649E+02 -0.16718384914E+02  0.10743662205E+02  0.47787274412E+02  0.20000015354E+02 0.  0.
        -12    1    1    2    0    0 -0.38583575649E+02  0.16718384914E+02 -0.10743662205E+02  0.43400725588E+02  0.00000000000E+00 0.  1.
         11    1    3    3    0    0  0.17396272864E+02 -0.16403450209E+02  0.87552977539E+01  0.25462889218E+02  0.51100000000E-03 0. -1.
        -11    1    3    3    0    0  0.19584192066E+02 -0.17589735682E+01  0.43865227408E+00  0.19667917606E+02  0.51100000000E-03 0.  1.
         12    1    3    3    0    0  0.16031107188E+01  0.14440388627E+01  0.15497121770E+01  0.26564675878E+01  0.00000000000E+00 0. -1.
</event>
<event>
 7    1  0.2655656E-009  0.4778726E+02  0.7816164E-02  0.1312668E+00
        -11   -1    0    0    0    0  0.00000000000E+00  0.00000000000E+00  0.45593999997E+02  0.45594000000E+02  0.51100000000E-03 0. -1.
         11   -1    0    0    0    0 -0.00000000000E+00 -0.00000000000E+00 -0.45593999997E+02  0.45594000000E+02  0.51100000000E-03 0.  1.
    9900012    2    1    2    0    0 -0.13906263602E+02  0.19215096085E+02 -0.36345835370E+02  0.47787264595E+02  0.19999970596E+02 0.  0.
        -12    1    1    2    0    0  0.13906263602E+02 -0.19215096085E+02  0.36345835370E+02  0.43400735405E+02  0.00000000000E+00 0.  1.
         11    1    3    3    0    0 -0.74776176440E+01  0.18487055755E+02 -0.35618422186E+02  0.40821048435E+02  0.51100000000E-03 0. -1.
        -11    1    3    3    0    0 -0.39885639023E+01  0.37271883769E+00 -0.16513861901E+01  0.43329710297E+01  0.51100000000E-03 0.  1.
         12    1    3    3    0    0 -0.24400820555E+01  0.35532149249E+00  0.92397300562E+00  0.26332451302E+01  0.00000000000E+00 0. -1.
</event>
<event>
 7    1  0.2655656E-009  0.4778727E+02  0.7816164E-02  0.1312668E+00
        -11   -1    0    0    0    0  0.00000000000E+00  0.00000000000E+00  0.45593999997E+02  0.45594000000E+02  0.51100000000E-03 0. -1.
         11   -1    0    0    0    0 -0.00000000000E+00 -0.00000000000E+00 -0.45593999997E+02  0.45594000000E+02  0.51100000000E-03 0.  1.
    9900012    2    1    2    0    0  0.19782919703E+02  0.32327146858E+02 -0.21147453386E+02  0.47787272809E+02  0.20000008047E+02 0.  0.
        -12    1    1    2    0    0 -0.19782919703E+02 -0.32327146858E+02  0.21147453386E+02  0.43400727191E+02  0.00000000000E+00 0.  1.
         11    1    3    3    0    0  0.92560442466E+01  0.28695901958E+02 -0.13498932740E+02  0.33035591862E+02  0.51100000000E-03 0. -1.
        -11    1    3    3    0    0  0.13436742376E+01 -0.11624662244E+01 -0.27950644832E+01  0.33119743214E+01  0.51100000000E-03 0.  1.
         12    1    3    3    0    0  0.91832012184E+01  0.47937111244E+01 -0.48534561635E+01  0.11439706626E+02  0.00000000000E+00 0. -1.
</event>
<event>
 7    1  0.2655656E-009  0.4778729E+02  0.7816164E-02  0.1312668E+00
        -11   -1    0    0    0    0  0.00000000000E+00  0.00000000000E+00  0.45593999997E+02  0.45594000000E+02  0.51100000000E-03 0.  1.
         11   -1    0    0    0    0 -0.00000000000E+00 -0.00000000000E+00 -0.45593999997E+02  0.45594000000E+02  0.51100000000E-03 0. -1.
    9900012    2    1    2    0    0  0.78091387496E+01  0.28923534780E+02 -0.31401727679E+02  0.47787285565E+02  0.20000066207E+02 0.  0.
        -12    1    1    2    0    0 -0.78091387496E+01 -0.28923534780E+02  0.31401727679E+02  0.43400714435E+02  0.00000000000E+00 0.  1.
         11    1    3    3    0    0  0.35517284786E+01  0.18943730555E+02 -0.16498545100E+02  0.25370882783E+02  0.51100000000E-03 0. -1.
        -11    1    3    3    0    0 -0.44696994257E+01  0.19313427181E+01 -0.41158267409E+01  0.63756041026E+01  0.51100000000E-03 0.  1.
        -12    1    3    3    0    0  0.87271096966E+01  0.80484615068E+01 -0.10787355839E+02  0.16040798679E+02  0.00000000000E+00 0.  1.
</event>
<event>
 7    1  0.2655656E-009  0.4778727E+02  0.7816164E-02  0.1312668E+00
        -11   -1    0    0    0    0  0.00000000000E+00  0.00000000000E+00  0.45593999997E+02  0.45594000000E+02  0.51100000000E-03 0. -1.
         11   -1    0    0    0    0 -0.00000000000E+00 -0.00000000000E+00 -0.45593999997E+02  0.45594000000E+02  0.51100000000E-03 0.  1.
    9900012    2    1    2    0    0  0.18298905010E+02  0.31400435834E+01  0.39228992430E+02  0.47787266765E+02  0.19999980487E+02 0.  0.
        -12    1    1    2    0    0 -0.18298905010E+02 -0.31400435834E+01 -0.39228992430E+02  0.43400733235E+02  0.00000000000E+00 0.  1.
         11    1    3    3    0    0 -0.30416094940E+00  0.48391359441E+01  0.58235073628E+01  0.75777957768E+01  0.51100000000E-03 0.  1.
        -11    1    3    3    0    0  0.19048573679E+02 -0.13500039845E+00  0.23884282327E+02  0.30550373596E+02  0.51100000000E-03 0. -1.
        -12    1    3    3    0    0 -0.44550772053E+00 -0.15640919622E+01  0.95212027407E+01  0.96590973919E+01  0.00000000000E+00 0.  1.
</event>
<event>
 7    1  0.2655656E-009  0.4778724E+02  0.7816164E-02  0.1312668E+00
        -11   -1    0    0    0    0  0.00000000000E+00  0.00000000000E+00  0.45593999997E+02  0.45594000000E+02  0.51100000000E-03 0.  1.
         11   -1    0    0    0    0 -0.00000000000E+00 -0.00000000000E+00 -0.45593999997E+02  0.45594000000E+02  0.51100000000E-03 0. -1.
    9900012    2    1    2    0    0 -0.20742358673E+02 -0.36761810496E+02 -0.10096999010E+02  0.47787244900E+02  0.19999880796E+02 0.  0.
        -12    1    1    2    0    0  0.20742358673E+02  0.36761810496E+02  0.10096999010E+02  0.43400755100E+02  0.00000000000E+00 0.  1.
         11    1    3    3    0    0 -0.94816814914E+00 -0.18657170815E+01  0.36532603131E+01  0.42102534655E+01  0.51100000000E-03 0. -1.
        -11    1    3    3    0    0 -0.23614017939E+00 -0.18833381566E+01  0.13628201690E+01  0.23366651174E+01  0.51100000000E-03 0.  1.
         12    1    3    3    0    0 -0.19558050345E+02 -0.33012755258E+02 -0.15113079492E+02  0.41240326317E+02  0.00000000000E+00 0. -1.
</event>
<event>
 7    1  0.2655656E-009  0.4778727E+02  0.7816164E-02  0.1312668E+00
        -11   -1    0    0    0    0  0.00000000000E+00  0.00000000000E+00  0.45593999997E+02  0.45594000000E+02  0.51100000000E-03 0.  1.
         11   -1    0    0    0    0 -0.00000000000E+00 -0.00000000000E+00 -0.45593999997E+02  0.45594000000E+02  0.51100000000E-03 0. -1.
    9900012    2    1    2    0    0 -0.29420990503E+02 -0.57404604157E+01 -0.31385916203E+02  0.47787270699E+02  0.19999998427E+02 0.  0.
        -12    1    1    2    0    0  0.29420990503E+02  0.57404604157E+01  0.31385916203E+02  0.43400729301E+02  0.00000000000E+00 0.  1.
         11    1    3    3    0    0 -0.13664330422E+02  0.34657540143E+01 -0.19368118183E+02  0.23955153495E+02  0.51100000000E-03 0. -1.
        -11    1    3    3    0    0 -0.51633118405E+01 -0.84276859585E+01 -0.47809526794E+01  0.10979216209E+02  0.51100000000E-03 0.  1.
        -12    1    3    3    0    0 -0.10593348240E+02 -0.77852847140E+00 -0.72368453407E+01  0.12852900996E+02  0.00000000000E+00 0.  1.
</event>
<event>
 7    1  0.2655656E-009  0.4778727E+02  0.7816164E-02  0.1312668E+00
        -11   -1    0    0    0    0  0.00000000000E+00  0.00000000000E+00  0.45593999997E+02  0.45594000000E+02  0.51100000000E-03 0. -1.
         11   -1    0    0    0    0 -0.00000000000E+00 -0.00000000000E+00 -0.45593999997E+02  0.45594000000E+02  0.51100000000E-03 0.  1.
    9900012    2    1    2    0    0 -0.16400285628E+02  0.13090961436E+02  0.37990533552E+02  0.47787270979E+02  0.19999999703E+02 0.  0.
        -12    1    1    2    0    0  0.16400285628E+02 -0.13090961436E+02 -0.37990533552E+02  0.43400729021E+02  0.00000000000E+00 0.  1.
         11    1    3    3    0    0 -0.64492219743E+01  0.11378270547E+01  0.11066916583E+02  0.12859384021E+02  0.51100000000E-03 0. -1.
        -11    1    3    3    0    0  0.14543812681E+01 -0.87698323317E+00  0.12183191591E+02  0.12300995166E+02  0.51100000000E-03 0.  1.
        -12    1    3    3    0    0 -0.11405444922E+02  0.12830117615E+02  0.14740425377E+02  0.22626891792E+02  0.00000000000E+00 0.  1.
</event>
<event>
 7    1  0.2655656E-009  0.4778727E+02  0.7816164E-02  0.1312668E+00
        -11   -1    0    0    0    0  0.00000000000E+00  0.00000000000E+00  0.45593999997E+02  0.45594000000E+02  0.51100000000E-03 0.  1.
         11   -1    0    0    0    0 -0.00000000000E+00 -0.00000000000E+00 -0.45593999997E+02  0.45594000000E+02  0.51100000000E-03 0. -1.
    9900012    2    1    2    0    0  0.11920393719E+02 -0.10715547624E+02 -0.40332424594E+02  0.47787271655E+02  0.20000002782E+02 0.  0.
        -12    1    1    2    0    0 -0.11920393719E+02  0.10715547624E+02  0.40332424594E+02  0.43400728345E+02  0.00000000000E+00 0.  1.
         11    1    3    3    0    0  0.63017200483E+01 -0.13235731560E+02 -0.37260795550E+02  0.40040768609E+02  0.51100000000E-03 0. -1.
        -11    1    3    3    0    0  0.55226595290E+01  0.11946229123E+01 -0.18616320968E+01  0.59491651936E+01  0.51100000000E-03 0.  1.
        -12    1    3    3    0    0  0.96014141251E-01  0.13255610239E+01 -0.12099969469E+01  0.17973378522E+01  0.00000000000E+00 0.  1.
</event>
<event>
 7    1  0.2655656E-009  0.4778728E+02  0.7816164E-02  0.1312668E+00
        -11   -1    0    0    0    0  0.00000000000E+00  0.00000000000E+00  0.45593999997E+02  0.45594000000E+02  0.51100000000E-03 0.  1.
         11   -1    0    0    0    0 -0.00000000000E+00 -0.00000000000E+00 -0.45593999997E+02  0.45594000000E+02  0.51100000000E-03 0. -1.
    9900012    2    1    2    0    0 -0.24212537175E+02  0.84337165701E+01 -0.35017828631E+02  0.47787275886E+02  0.20000022075E+02 0.  0.
        -12    1    1    2    0    0  0.24212537175E+02 -0.84337165701E+01  0.35017828631E+02  0.43400724114E+02  0.00000000000E+00 0.  1.
         11    1    3    3    0    0 -0.12527667425E+02  0.49402588595E+00 -0.97785380705E+01  0.15899884268E+02  0.51100000000E-03 0. -1.
        -11    1    3    3    0    0 -0.12870012493E+01  0.84761212390E+01 -0.78766578414E+01  0.11642282529E+02  0.51100000000E-03 0.  1.
        -12    1    3    3    0    0 -0.10397868500E+02 -0.53643055487E+00 -0.17362632719E+02  0.20245109089E+02  0.00000000000E+00 0.  1.
</event>
<event>
 7    1  0.2655656E-009  0.4778727E+02  0.7816164E-02  0.1312668E+00
        -11   -1    0    0    0    0  0.00000000000E+00  0.00000000000E+00  0.45593999997E+02  0.45594000000E+02  0.51100000000E-03 0.  1.
         11   -1    0    0    0    0 -0.00000000000E+00 -0.00000000000E+00 -0.45593999997E+02  0.45594000000E+02  0.51100000000E-03 0. -1.
    9900012    2    1    2    0    0  0.19686307553E+02  0.18473861520E+02 -0.33982186649E+02  0.47787271043E+02  0.19999999995E+02 0.  0.
        -12    1    1    2    0    0 -0.19686307553E+02 -0.18473861520E+02  0.33982186649E+02  0.43400728957E+02  0.00000000000E+00 0.  1.
         11    1    3    3    0    0  0.36219842767E+01  0.66978699785E+01  0.11485138578E+00  0.76153413220E+01  0.51100000000E-03 0.  1.
        -11    1    3    3    0    0  0.11912780813E+02  0.11340843247E+02 -0.30540827418E+02  0.34688199894E+02  0.51100000000E-03 0. -1.
         12    1    3    3    0    0  0.41515424637E+01  0.43514829435E+00 -0.35562106166E+01  0.54837298270E+01  0.00000000000E+00 0. -1.
</event>
<event>
 7    1  0.2655656E-009  0.4778727E+02  0.7816164E-02  0.1312668E+00
        -11   -1    0    0    0    0  0.00000000000E+00  0.00000000000E+00  0.45593999997E+02  0.45594000000E+02  0.51100000000E-03 0.  1.
         11   -1    0    0    0    0 -0.00000000000E+00 -0.00000000000E+00 -0.45593999997E+02  0.45594000000E+02  0.51100000000E-03 0. -1.
    9900012    2    1    2    0    0 -0.11754134101E+02  0.20387158836E+01 -0.41728977617E+02  0.47787267242E+02  0.19999982665E+02 0.  0.
        -12    1    1    2    0    0  0.11754134101E+02 -0.20387158836E+01  0.41728977617E+02  0.43400732758E+02  0.00000000000E+00 0.  1.
         11    1    3    3    0    0 -0.10225951638E+02 -0.19297405748E+01 -0.20586522578E+02  0.23067268970E+02  0.51100000000E-03 0. -1.
        -11    1    3    3    0    0  0.13301041969E+01  0.26568127417E+00  0.12498019941E+01  0.18443885164E+01  0.51100000000E-03 0.  1.
         12    1    3    3    0    0 -0.28582866603E+01  0.37027751842E+01 -0.22392257033E+02  0.22875609756E+02  0.00000000000E+00 0. -1.
</event>
<event>
 7    1  0.2655656E-009  0.4778727E+02  0.7816164E-02  0.1312668E+00
        -11   -1    0    0    0    0  0.00000000000E+00  0.00000000000E+00  0.45593999997E+02  0.45594000000E+02  0.51100000000E-03 0.  1.
         11   -1    0    0    0    0 -0.00000000000E+00 -0.00000000000E+00 -0.45593999997E+02  0.45594000000E+02  0.51100000000E-03 0. -1.
    9900012    2    1    2    0    0  0.11589242318E+02 -0.66085667055E+01 -0.41299390790E+02  0.47787269925E+02  0.19999994897E+02 0.  0.
        -12    1    1    2    0    0 -0.11589242318E+02  0.66085667055E+01  0.41299390790E+02  0.43400730075E+02  0.00000000000E+00 0.  1.
         11    1    3    3    0    0 -0.86927338940E+00 -0.20422504489E+01 -0.10565584504E+01  0.24581983528E+01  0.51100000000E-03 0. -1.
        -11    1    3    3    0    0  0.45611438180E+00  0.48342723467E+01 -0.52061031402E+01  0.71191108728E+01  0.51100000000E-03 0.  1.
        -12    1    3    3    0    0  0.12002401326E+02 -0.94005886033E+01 -0.35036729199E+02  0.38209960700E+02  0.00000000000E+00 0.  1.
</event>
<event>
 7    1  0.2655656E-009  0.4778727E+02  0.7816164E-02  0.1312668E+00
        -11   -1    0    0    0    0  0.00000000000E+00  0.00000000000E+00  0.45593999997E+02  0.45594000000E+02  0.51100000000E-03 0. -1.
         11   -1    0    0    0    0 -0.00000000000E+00 -0.00000000000E+00 -0.45593999997E+02  0.45594000000E+02  0.51100000000E-03 0.  1.
    9900012    2    1    2    0    0  0.30365094924E+02  0.24061833837E+02  0.19560479947E+02  0.47787271745E+02  0.20000003192E+02 0.  0.
        -12    1    1    2    0    0 -0.30365094924E+02 -0.24061833837E+02 -0.19560479947E+02  0.43400728255E+02  0.00000000000E+00 0.  1.
         11    1    3    3    0    0  0.27705374757E+02  0.22910809994E+02  0.14426295169E+02  0.38737720604E+02  0.51100000000E-03 0. -1.
        -11    1    3    3    0    0  0.22614416511E+01 -0.27323480541E+01  0.23505415461E+01  0.42549841423E+01  0.51100000000E-03 0.  1.
        -12    1    3    3    0    0  0.39827851650E+00  0.38833718964E+01  0.27836432315E+01  0.47945669985E+01  0.00000000000E+00 0.  1.
</event>
<event>
 7    1  0.2655656E-009  0.4778727E+02  0.7816164E-02  0.1312668E+00
        -11   -1    0    0    0    0  0.00000000000E+00  0.00000000000E+00  0.45593999997E+02  0.45594000000E+02  0.51100000000E-03 0.  1.
         11   -1    0    0    0    0 -0.00000000000E+00 -0.00000000000E+00 -0.45593999997E+02  0.45594000000E+02  0.51100000000E-03 0. -1.
    9900012    2    1    2    0    0  0.23101467125E+02  0.48325826898E+01 -0.36422409743E+02  0.47787267630E+02  0.19999984430E+02 0.  0.
        -12    1    1    2    0    0 -0.23101467125E+02 -0.48325826898E+01  0.36422409743E+02  0.43400732370E+02  0.00000000000E+00 0.  1.
         11    1    3    3    0    0  0.15361541085E+02  0.32320352187E+01 -0.25523226944E+02  0.29964280570E+02  0.51100000000E-03 0. -1.
        -11    1    3    3    0    0  0.60988414596E+01  0.51561025407E+01 -0.11353150093E+02  0.13880752064E+02  0.51100000000E-03 0.  1.
         12    1    3    3    0    0  0.16410845809E+01 -0.35555550696E+01  0.45396729485E+00  0.39422349954E+01  0.00000000000E+00 0. -1.
</event>
<event>
 7    1  0.2655656E-009  0.4778727E+02  0.7816164E-02  0.1312668E+00
        -11   -1    0    0    0    0  0.00000000000E+00  0.00000000000E+00  0.45593999997E+02  0.45594000000E+02  0.51100000000E-03 0. -1.
         11   -1    0    0    0    0 -0.00000000000E+00 -0.00000000000E+00 -0.45593999997E+02  0.45594000000E+02  0.51100000000E-03 0.  1.
    9900012    2    1    2    0    0  0.23285640182E+02 -0.30176408773E+02  0.20755399883E+02  0.47787270635E+02  0.19999998132E+02 0.  0.
        -12    1    1    2    0    0 -0.23285640182E+02  0.30176408773E+02 -0.20755399883E+02  0.43400729365E+02  0.00000000000E+00 0.  1.
         11    1    3    3    0    0  0.26020712252E+01 -0.93396375588E+01  0.26310529926E+01  0.10045996441E+02  0.51100000000E-03 0. -1.
        -11    1    3    3    0    0  0.69117883147E+01 -0.12118314966E+02  0.16120714756E+02  0.21319095192E+02  0.51100000000E-03 0.  1.
        -12    1    3    3    0    0  0.13771780642E+02 -0.87184562485E+01  0.20036321349E+01  0.16422179001E+02  0.00000000000E+00 0.  1.
</event>
<event>
 7    1  0.2655656E-009  0.4778727E+02  0.7816164E-02  0.1312668E+00
        -11   -1    0    0    0    0  0.00000000000E+00  0.00000000000E+00  0.45593999997E+02  0.45594000000E+02  0.51100000000E-03 0.  1.
         11   -1    0    0    0    0 -0.00000000000E+00 -0.00000000000E+00 -0.45593999997E+02  0.45594000000E+02  0.51100000000E-03 0. -1.
    9900012    2    1    2    0    0 -0.62937123784E+01 -0.41666362556E+02 -0.10388765334E+02  0.47787273862E+02  0.20000012846E+02 0.  0.
        -12    1    1    2    0    0  0.62937123784E+01  0.41666362556E+02  0.10388765334E+02  0.43400726138E+02  0.00000000000E+00 0.  1.
         11    1    3    3    0    0  0.23111871058E+00 -0.12999036525E+02 -0.11450276178E+02  0.17324467993E+02  0.51100000000E-03 0. -1.
        -11    1    3    3    0    0 -0.76251007678E+01 -0.21961343997E+02 -0.12600534715E+01  0.23281549065E+02  0.51100000000E-03 0.  1.
        -12    1    3    3    0    0  0.11002696788E+01 -0.67059820338E+01  0.23215643155E+01  0.71812568033E+01  0.00000000000E+00 0.  1.
</event>
<event>
 7    1  0.2655656E-009  0.4778727E+02  0.7816164E-02  0.1312668E+00
        -11   -1    0    0    0    0  0.00000000000E+00  0.00000000000E+00  0.45593999997E+02  0.45594000000E+02  0.51100000000E-03 0. -1.
         11   -1    0    0    0    0 -0.00000000000E+00 -0.00000000000E+00 -0.45593999997E+02  0.45594000000E+02  0.51100000000E-03 0.  1.
    9900012    2    1    2    0    0 -0.18376819180E+02  0.30550133419E+02  0.24750866699E+02  0.47787268008E+02  0.19999986156E+02 0.  0.
        -12    1    1    2    0    0  0.18376819180E+02 -0.30550133419E+02 -0.24750866699E+02  0.43400731992E+02  0.00000000000E+00 0.  1.
         11    1    3    3    0    0  0.43243466349E+00 -0.19761193514E+01  0.16608631320E+00  0.20296877479E+01  0.51100000000E-03 0.  1.
        -11    1    3    3    0    0 -0.17066070620E+01  0.10743014189E+02  0.75906208792E+01  0.13264327617E+02  0.51100000000E-03 0. -1.
         12    1    3    3    0    0 -0.17102646782E+02  0.21783238581E+02  0.16994159507E+02  0.32493252643E+02  0.00000000000E+00 0. -1.
</event>
<event>
 7    1  0.2655656E-009  0.4778727E+02  0.7816164E-02  0.1312668E+00
        -11   -1    0    0    0    0  0.00000000000E+00  0.00000000000E+00  0.45593999997E+02  0.45594000000E+02  0.51100000000E-03 0.  1.
         11   -1    0    0    0    0 -0.00000000000E+00 -0.00000000000E+00 -0.45593999997E+02  0.45594000000E+02  0.51100000000E-03 0. -1.
    9900012    2    1    2    0    0 -0.33236951205E+02 -0.83213206775E+01 -0.26639892071E+02  0.47787272440E+02  0.20000006362E+02 0.  0.
        -12    1    1    2    0    0  0.33236951205E+02  0.83213206775E+01  0.26639892071E+02  0.43400727560E+02  0.00000000000E+00 0.  1.
         11    1    3    3    0    0 -0.12496937097E+02  0.98281465672E+00 -0.89076707638E+01  0.15378100017E+02  0.51100000000E-03 0. -1.
        -11    1    3    3    0    0 -0.20303083249E+02 -0.68644031277E+01 -0.88497059306E+01  0.23187335229E+02  0.51100000000E-03 0.  1.
        -12    1    3    3    0    0 -0.43693085975E+00 -0.24397322065E+01 -0.88825153761E+01  0.92218371934E+01  0.00000000000E+00 0.  1.
</event>
<event>
 7    1  0.2655656E-009  0.4778727E+02  0.7816164E-02  0.1312668E+00
        -11   -1    0    0    0    0  0.00000000000E+00  0.00000000000E+00  0.45593999997E+02  0.45594000000E+02  0.51100000000E-03 0. -1.
         11   -1    0    0    0    0 -0.00000000000E+00 -0.00000000000E+00 -0.45593999997E+02  0.45594000000E+02  0.51100000000E-03 0.  1.
    9900012    2    1    2    0    0  0.43195315947E+02  0.41620677935E+01  0.68190217951E+00  0.47787272832E+02  0.20000008152E+02 0.  0.
        -12    1    1    2    0    0 -0.43195315947E+02 -0.41620677935E+01 -0.68190217951E+00  0.43400727168E+02  0.00000000000E+00 0.  1.
         11    1    3    3    0    0  0.28807261078E+02  0.10257974246E+01  0.42768140751E+00  0.28828691660E+02  0.51100000000E-03 0. -1.
        -11    1    3    3    0    0  0.33071787698E+01  0.10913615905E+01 -0.53423823513E+01  0.63772683012E+01  0.51100000000E-03 0.  1.
        -12    1    3    3    0    0  0.11080876099E+02  0.20449087784E+01  0.55966031233E+01  0.12581312871E+02  0.00000000000E+00 0.  1.
</event>
<event>
 7    1  0.2655656E-009  0.4778727E+02  0.7816164E-02  0.1312668E+00
        -11   -1    0    0    0    0  0.00000000000E+00  0.00000000000E+00  0.45593999997E+02  0.45594000000E+02  0.51100000000E-03 0. -1.
         11   -1    0    0    0    0 -0.00000000000E+00 -0.00000000000E+00 -0.45593999997E+02  0.45594000000E+02  0.51100000000E-03 0.  1.
    9900012    2    1    2    0    0  0.26467545806E+02  0.31305611880E+02  0.14249597357E+02  0.47787270271E+02  0.19999996474E+02 0.  0.
        -12    1    1    2    0    0 -0.26467545806E+02 -0.31305611880E+02 -0.14249597357E+02  0.43400729729E+02  0.00000000000E+00 0.  1.
         11    1    3    3    0    0  0.85219791547E+01  0.64987406604E+01 -0.23963531745E+01  0.10981815318E+02  0.51100000000E-03 0. -1.
        -11    1    3    3    0    0  0.19366687000E+02  0.20128144067E+02  0.14370993214E+02  0.31412357364E+02  0.51100000000E-03 0.  1.
        -12    1    3    3    0    0 -0.14211203486E+01  0.46787271520E+01  0.22749573171E+01  0.53930975889E+01  0.00000000000E+00 0.  1.
</event>
<event>
 7    1  0.2655656E-009  0.4778727E+02  0.7816164E-02  0.1312668E+00
        -11   -1    0    0    0    0  0.00000000000E+00  0.00000000000E+00  0.45593999997E+02  0.45594000000E+02  0.51100000000E-03 0.  1.
         11   -1    0    0    0    0 -0.00000000000E+00 -0.00000000000E+00 -0.45593999997E+02  0.45594000000E+02  0.51100000000E-03 0. -1.
    9900012    2    1    2    0    0  0.34258054016E+02  0.22226942325E+01 -0.26553126682E+02  0.47787272227E+02  0.20000005392E+02 0.  0.
        -12    1    1    2    0    0 -0.34258054016E+02 -0.22226942325E+01  0.26553126682E+02  0.43400727773E+02  0.00000000000E+00 0.  1.
         11    1    3    3    0    0  0.10913890378E+02 -0.14422140606E+01 -0.87234850425E+01  0.14046073335E+02  0.51100000000E-03 0. -1.
        -11    1    3    3    0    0  0.22897620649E+02  0.59957900783E+01 -0.10240968351E+02  0.25790074895E+02  0.51100000000E-03 0.  1.
        -12    1    3    3    0    0  0.44654298890E+00 -0.23308817852E+01 -0.75886732891E+01  0.79511239976E+01  0.00000000000E+00 0.  1.
</event>
<event>
 7    1  0.2655656E-009  0.4778730E+02  0.7816164E-02  0.1312668E+00
        -11   -1    0    0    0    0  0.00000000000E+00  0.00000000000E+00  0.45593999997E+02  0.45594000000E+02  0.51100000000E-03 0. -1.
         11   -1    0    0    0    0 -0.00000000000E+00 -0.00000000000E+00 -0.45593999997E+02  0.45594000000E+02  0.51100000000E-03 0.  1.
    9900012    2    1    2    0    0 -0.31826623451E+02  0.13603350006E+02  0.26184651460E+02  0.47787296507E+02  0.20000116092E+02 0.  0.
        -12    1    1    2    0    0  0.31826623451E+02 -0.13603350006E+02 -0.26184651460E+02  0.43400703493E+02  0.00000000000E+00 0.  1.
         11    1    3    3    0    0  0.23486439695E+00  0.22197442040E+01  0.26456897328E+01  0.34615170141E+01  0.51100000000E-03 0.  1.
        -11    1    3    3    0    0 -0.18415282883E+02  0.73575855871E+01  0.22600362209E+02  0.30067142890E+02  0.51100000000E-03 0. -1.
        -12    1    3    3    0    0 -0.13646204965E+02  0.40260202146E+01  0.93859951807E+00  0.14258636603E+02  0.00000000000E+00 0.  1.
</event>
<event>
 7    1  0.2655656E-009  0.4778727E+02  0.7816164E-02  0.1312668E+00
        -11   -1    0    0    0    0  0.00000000000E+00  0.00000000000E+00  0.45593999997E+02  0.45594000000E+02  0.51100000000E-03 0. -1.
         11   -1    0    0    0    0 -0.00000000000E+00 -0.00000000000E+00 -0.45593999997E+02  0.45594000000E+02  0.51100000000E-03 0.  1.
    9900012    2    1    2    0    0  0.43449140060E+01 -0.18157304423E+02  0.39179809724E+02  0.47787268766E+02  0.19999989610E+02 0.  0.
        -12    1    1    2    0    0 -0.43449140060E+01  0.18157304423E+02 -0.39179809724E+02  0.43400731234E+02  0.00000000000E+00 0.  1.
         11    1    3    3    0    0  0.12301453783E+01 -0.74128232444E+01  0.14475224795E+02  0.16309363545E+02  0.51100000000E-03 0. -1.
        -11    1    3    3    0    0 -0.62856081599E+01 -0.60972383044E+01  0.87011269042E+01  0.12344828656E+02  0.51100000000E-03 0.  1.
        -12    1    3    3    0    0  0.94003767876E+01 -0.46472428743E+01  0.16003458025E+02  0.19133076565E+02  0.00000000000E+00 0.  1.
</event>
<event>
 7    1  0.2655656E-009  0.4778727E+02  0.7816164E-02  0.1312668E+00
        -11   -1    0    0    0    0  0.00000000000E+00  0.00000000000E+00  0.45593999997E+02  0.45594000000E+02  0.51100000000E-03 0. -1.
         11   -1    0    0    0    0 -0.00000000000E+00 -0.00000000000E+00 -0.45593999997E+02  0.45594000000E+02  0.51100000000E-03 0.  1.
    9900012    2    1    2    0    0 -0.70362460337E+00  0.37545943658E+02  0.21758462024E+02  0.47787266799E+02  0.19999980644E+02 0.  0.
        -12    1    1    2    0    0  0.70362460337E+00 -0.37545943658E+02 -0.21758462024E+02  0.43400733201E+02  0.00000000000E+00 0.  1.
         11    1    3    3    0    0  0.62456108397E+01  0.58979850002E+01  0.35936575402E+01  0.93117268324E+01  0.51100000000E-03 0. -1.
        -11    1    3    3    0    0 -0.41856587050E+00 -0.66178625753E+00  0.11192444637E+01  0.13659673749E+01  0.51100000000E-03 0.  1.
         12    1    3    3    0    0 -0.65306695726E+01  0.32309744915E+02  0.17045560020E+02  0.37109572592E+02  0.00000000000E+00 0. -1.
</event>
<event>
 7    1  0.2655656E-009  0.4778727E+02  0.7816164E-02  0.1312668E+00
        -11   -1    0    0    0    0  0.00000000000E+00  0.00000000000E+00  0.45593999997E+02  0.45594000000E+02  0.51100000000E-03 0.  1.
         11   -1    0    0    0    0 -0.00000000000E+00 -0.00000000000E+00 -0.45593999997E+02  0.45594000000E+02  0.51100000000E-03 0. -1.
    9900012    2    1    2    0    0  0.39378129267E+01 -0.31532931173E+02 -0.29559960505E+02  0.47787269775E+02  0.19999994213E+02 0.  0.
        -12    1    1    2    0    0 -0.39378129267E+01  0.31532931173E+02  0.29559960505E+02  0.43400730225E+02  0.00000000000E+00 0.  1.
         11    1    3    3    0    0  0.19102634633E+01 -0.33978386452E+02 -0.25317099586E+02  0.42416216051E+02  0.51100000000E-03 0. -1.
        -11    1    3    3    0    0  0.44543590873E+00  0.10664883875E+01 -0.19154370587E+01  0.22371209213E+01  0.51100000000E-03 0.  1.
         12    1    3    3    0    0  0.15821135546E+01  0.13789668918E+01 -0.23274238598E+01  0.31339328027E+01  0.00000000000E+00 0. -1.
</event>
<event>
 7    1  0.2655656E-009  0.4778730E+02  0.7816164E-02  0.1312668E+00
        -11   -1    0    0    0    0  0.00000000000E+00  0.00000000000E+00  0.45593999997E+02  0.45594000000E+02  0.51100000000E-03 0. -1.
         11   -1    0    0    0    0 -0.00000000000E+00 -0.00000000000E+00 -0.45593999997E+02  0.45594000000E+02  0.51100000000E-03 0.  1.
    9900012    2    1    2    0    0  0.21230454616E+01 -0.40130046681E+02  0.16391861399E+02  0.47787296218E+02  0.20000114774E+02 0.  0.
        -12    1    1    2    0    0 -0.21230454616E+01  0.40130046681E+02 -0.16391861399E+02  0.43400703782E+02  0.00000000000E+00 0.  1.
         11    1    3    3    0    0 -0.18756386935E+01 -0.95441954186E+01  0.10273943610E+02  0.14147918725E+02  0.51100000000E-03 0. -1.
        -11    1    3    3    0    0  0.13194990432E+01 -0.13462604452E+02 -0.32865853682E+01  0.13920647973E+02  0.51100000000E-03 0.  1.
        -12    1    3    3    0    0  0.26791851119E+01 -0.17123246811E+02  0.94045031579E+01  0.19718729520E+02  0.00000000000E+00 0.  1.
</event>
<event>
 7    1  0.2655656E-009  0.4778727E+02  0.7816164E-02  0.1312668E+00
        -11   -1    0    0    0    0  0.00000000000E+00  0.00000000000E+00  0.45593999997E+02  0.45594000000E+02  0.51100000000E-03 0.  1.
         11   -1    0    0    0    0 -0.00000000000E+00 -0.00000000000E+00 -0.45593999997E+02  0.45594000000E+02  0.51100000000E-03 0. -1.
    9900012    2    1    2    0    0  0.11361033148E+02  0.11580847043E+02 -0.40254616773E+02  0.47787271158E+02  0.20000000519E+02 0.  0.
        -12    1    1    2    0    0 -0.11361033148E+02 -0.11580847043E+02  0.40254616773E+02  0.43400728842E+02  0.00000000000E+00 0.  1.
         11    1    3    3    0    0  0.36397667667E+00  0.30453864468E+00 -0.27211039783E+02  0.27215177919E+02  0.51100000000E-03 0. -1.
        -11    1    3    3    0    0  0.54027760964E+01  0.40955559031E+01 -0.49892126292E+01  0.84175893595E+01  0.51100000000E-03 0.  1.
         12    1    3    3    0    0  0.55942803750E+01  0.71807524950E+01 -0.80543643609E+01  0.12154503880E+02  0.00000000000E+00 0. -1.
</event>
<event>
 7    1  0.2655656E-009  0.4778727E+02  0.7816164E-02  0.1312668E+00
        -11   -1    0    0    0    0  0.00000000000E+00  0.00000000000E+00  0.45593999997E+02  0.45594000000E+02  0.51100000000E-03 0.  1.
         11   -1    0    0    0    0 -0.00000000000E+00 -0.00000000000E+00 -0.45593999997E+02  0.45594000000E+02  0.51100000000E-03 0. -1.
    9900012    2    1    2    0    0 -0.97059717718E+01 -0.80976799872E+01 -0.41519215223E+02  0.47787267956E+02  0.19999985917E+02 0.  0.
        -12    1    1    2    0    0  0.97059717718E+01  0.80976799872E+01  0.41519215223E+02  0.43400732044E+02  0.00000000000E+00 0.  1.
         11    1    3    3    0    0 -0.30010810977E+01 -0.30535971758E+01 -0.12711137766E+02  0.13412828450E+02  0.51100000000E-03 0. -1.
        -11    1    3    3    0    0  0.75693646631E+00 -0.34989542693E+01  0.91100253645E+00  0.36939896690E+01  0.51100000000E-03 0.  1.
        -12    1    3    3    0    0 -0.74618271405E+01 -0.15451285421E+01 -0.29719079994E+02  0.30680449837E+02  0.00000000000E+00 0.  1.
</event>
<event>
 7    1  0.2655656E-009  0.4778727E+02  0.7816164E-02  0.1312668E+00
        -11   -1    0    0    0    0  0.00000000000E+00  0.00000000000E+00  0.45593999997E+02  0.45594000000E+02  0.51100000000E-03 0.  1.
         11   -1    0    0    0    0 -0.00000000000E+00 -0.00000000000E+00 -0.45593999997E+02  0.45594000000E+02  0.51100000000E-03 0. -1.
    9900012    2    1    2    0    0  0.24506528045E+01  0.30220051342E+02 -0.31054245693E+02  0.47787269846E+02  0.19999994537E+02 0.  0.
        -12    1    1    2    0    0 -0.24506528045E+01 -0.30220051342E+02  0.31054245693E+02  0.43400730154E+02  0.00000000000E+00 0.  1.
         11    1    3    3    0    0 -0.19248096692E+01  0.14660887676E+02 -0.23613396081E+02  0.27861065925E+02  0.51100000000E-03 0. -1.
        -11    1    3    3    0    0 -0.15890116468E+01  0.83811296389E+01 -0.61240781261E+01  0.10501077335E+02  0.51100000000E-03 0.  1.
         12    1    3    3    0    0  0.59644741204E+01  0.71780340271E+01 -0.13167714861E+01  0.94251265866E+01  0.00000000000E+00 0. -1.
</event>
<event>
 7    1  0.2655656E-009  0.4778727E+02  0.7816164E-02  0.1312668E+00
        -11   -1    0    0    0    0  0.00000000000E+00  0.00000000000E+00  0.45593999997E+02  0.45594000000E+02  0.51100000000E-03 0. -1.
         11   -1    0    0    0    0 -0.00000000000E+00 -0.00000000000E+00 -0.45593999997E+02  0.45594000000E+02  0.51100000000E-03 0.  1.
    9900012    2    1    2    0    0 -0.40304907779E+02 -0.15501065802E+02  0.43421919494E+01  0.47787271170E+02  0.20000000571E+02 0.  0.
        -12    1    1    2    0    0  0.40304907779E+02  0.15501065802E+02 -0.43421919494E+01  0.43400728830E+02  0.00000000000E+00 0.  1.
         11    1    3    3    0    0 -0.14963954034E+02 -0.57598586483E+01 -0.28752918164E+00  0.16036787873E+02  0.51100000000E-03 0. -1.
        -11    1    3    3    0    0 -0.71733703714E+01 -0.95562048281E+01 -0.25443181548E+01  0.12216867370E+02  0.51100000000E-03 0.  1.
        -12    1    3    3    0    0 -0.18167583373E+02 -0.18500232539E+00  0.71740392859E+01  0.19533615927E+02  0.00000000000E+00 0.  1.
</event>
<event>
 7    1  0.2655656E-009  0.4778727E+02  0.7816164E-02  0.1312668E+00
        -11   -1    0    0    0    0  0.00000000000E+00  0.00000000000E+00  0.45593999997E+02  0.45594000000E+02  0.51100000000E-03 0. -1.
         11   -1    0    0    0    0 -0.00000000000E+00 -0.00000000000E+00 -0.45593999997E+02  0.45594000000E+02  0.51100000000E-03 0.  1.
    9900012    2    1    2    0    0 -0.17628901322E+02  0.15689418937E+01  0.39628068978E+02  0.47787267386E+02  0.19999983319E+02 0.  0.
        -12    1    1    2    0    0  0.17628901322E+02 -0.15689418937E+01 -0.39628068978E+02  0.43400732614E+02  0.00000000000E+00 0.  1.
         11    1    3    3    0    0 -0.88978143930E+01 -0.62876091634E+00  0.34340443757E+01  0.95581955565E+01  0.51100000000E-03 0.  1.
        -11    1    3    3    0    0 -0.59099682086E+01  0.53690866166E+01  0.25602070385E+02  0.26818292705E+02  0.51100000000E-03 0. -1.
         12    1    3    3    0    0 -0.28211187209E+01 -0.31713838066E+01  0.10591954217E+02  0.11410779125E+02  0.00000000000E+00 0. -1.
</event>
<event>
 7    1  0.2655656E-009  0.4778729E+02  0.7816164E-02  0.1312668E+00
        -11   -1    0    0    0    0  0.00000000000E+00  0.00000000000E+00  0.45593999997E+02  0.45594000000E+02  0.51100000000E-03 0.  1.
         11   -1    0    0    0    0 -0.00000000000E+00 -0.00000000000E+00 -0.45593999997E+02  0.45594000000E+02  0.51100000000E-03 0. -1.
    9900012    2    1    2    0    0 -0.36264034410E+02  0.98996069019E+01 -0.21691918366E+02  0.47787288821E+02  0.20000081049E+02 0.  0.
        -12    1    1    2    0    0  0.36264034410E+02 -0.98996069019E+01  0.21691918366E+02  0.43400711179E+02  0.00000000000E+00 0.  1.
         11    1    3    3    0    0 -0.25275469236E+02 -0.33606261776E+00 -0.95723941672E+01  0.27029484152E+02  0.51100000000E-03 0. -1.
        -11    1    3    3    0    0 -0.20558031624E+01  0.60081307366E+01 -0.75628877878E+01  0.98752839727E+01  0.51100000000E-03 0.  1.
        -12    1    3    3    0    0 -0.89327620113E+01  0.42275387831E+01 -0.45566364107E+01  0.10882520696E+02  0.00000000000E+00 0.  1.
</event>
<event>
 7    1  0.2655656E-009  0.4778727E+02  0.7816164E-02  0.1312668E+00
        -11   -1    0    0    0    0  0.00000000000E+00  0.00000000000E+00  0.45593999997E+02  0.45594000000E+02  0.51100000000E-03 0.  1.
         11   -1    0    0    0    0 -0.00000000000E+00 -0.00000000000E+00 -0.45593999997E+02  0.45594000000E+02  0.51100000000E-03 0. -1.
    9900012    2    1    2    0    0  0.23278394708E+02  0.27566806243E+02 -0.24120752177E+02  0.47787272446E+02  0.20000006389E+02 0.  0.
        -12    1    1    2    0    0 -0.23278394708E+02 -0.27566806243E+02  0.24120752177E+02  0.43400727554E+02  0.00000000000E+00 0.  1.
         11    1    3    3    0    0  0.18253547823E+02  0.29064005795E+02 -0.23797246718E+02  0.41763828759E+02  0.51100000000E-03 0. -1.
        -11    1    3    3    0    0  0.49566250339E+01 -0.12539100850E+01  0.52354893724E+00  0.51395063944E+01  0.51100000000E-03 0.  1.
        -12    1    3    3    0    0  0.68221850929E-01 -0.24328946708E+00 -0.84705439618E+00  0.88393729179E+00  0.00000000000E+00 0.  1.
</event>
<event>
 7    1  0.2655656E-009  0.4778727E+02  0.7816164E-02  0.1312668E+00
        -11   -1    0    0    0    0  0.00000000000E+00  0.00000000000E+00  0.45593999997E+02  0.45594000000E+02  0.51100000000E-03 0.  1.
         11   -1    0    0    0    0 -0.00000000000E+00 -0.00000000000E+00 -0.45593999997E+02  0.45594000000E+02  0.51100000000E-03 0. -1.
    9900012    2    1    2    0    0 -0.32632619131E+02 -0.70497166100E+01 -0.27731518247E+02  0.47787269132E+02  0.19999991279E+02 0.  0.
        -12    1    1    2    0    0  0.32632619131E+02  0.70497166100E+01  0.27731518247E+02  0.43400730868E+02  0.00000000000E+00 0.  1.
         11    1    3    3    0    0 -0.61603285390E+01 -0.46937141759E+01 -0.22034428135E+01  0.80520656336E+01  0.51100000000E-03 0.  1.
        -11    1    3    3    0    0 -0.12499454042E+02  0.24369192622E+01 -0.20495131587E+02  0.24129346155E+02  0.51100000000E-03 0. -1.
         12    1    3    3    0    0 -0.13972836550E+02 -0.47929216963E+01 -0.50329438459E+01  0.15605857343E+02  0.00000000000E+00 0. -1.
</event>
<event>
 7    1  0.2655656E-009  0.4778726E+02  0.7816164E-02  0.1312668E+00
        -11   -1    0    0    0    0  0.00000000000E+00  0.00000000000E+00  0.45593999997E+02  0.45594000000E+02  0.51100000000E-03 0.  1.
         11   -1    0    0    0    0 -0.00000000000E+00 -0.00000000000E+00 -0.45593999997E+02  0.45594000000E+02  0.51100000000E-03 0. -1.
    9900012    2    1    2    0    0  0.17062541249E+02 -0.24427462340E+02 -0.31556181768E+02  0.47787264545E+02  0.19999970367E+02 0.  0.
        -12    1    1    2    0    0 -0.17062541249E+02  0.24427462340E+02  0.31556181768E+02  0.43400735455E+02  0.00000000000E+00 0.  1.
         11    1    3    3    0    0  0.58069428460E+01  0.76400594765E+00 -0.39498022421E+01  0.70643632634E+01  0.51100000000E-03 0. -1.
        -11    1    3    3    0    0  0.12488467846E+02 -0.25714525179E+02 -0.26594013923E+02  0.39044080359E+02  0.51100000000E-03 0.  1.
         12    1    3    3    0    0 -0.12328694427E+01  0.52305689144E+00 -0.10123656034E+01  0.16788209224E+01  0.00000000000E+00 0. -1.
</event>
<event>
 7    1  0.2655656E-009  0.4778727E+02  0.7816164E-02  0.1312668E+00
        -11   -1    0    0    0    0  0.00000000000E+00  0.00000000000E+00  0.45593999997E+02  0.45594000000E+02  0.51100000000E-03 0. -1.
         11   -1    0    0    0    0 -0.00000000000E+00 -0.00000000000E+00 -0.45593999997E+02  0.45594000000E+02  0.51100000000E-03 0.  1.
    9900012    2    1    2    0    0 -0.18354057694E+02  0.36426118818E+02  0.14828683610E+02  0.47787269319E+02  0.19999992135E+02 0.  0.
        -12    1    1    2    0    0  0.18354057694E+02 -0.36426118818E+02 -0.14828683610E+02  0.43400730681E+02  0.00000000000E+00 0.  1.
         11    1    3    3    0    0 -0.14091519350E+02  0.14831149546E+02  0.12354555150E+02  0.23899141149E+02  0.51100000000E-03 0. -1.
        -11    1    3    3    0    0 -0.65543979794E+00 -0.53745837051E+00 -0.87122815109E+00  0.12155252285E+01  0.51100000000E-03 0.  1.
         12    1    3    3    0    0 -0.36070985458E+01  0.22132427643E+02  0.33453566106E+01  0.22672602942E+02  0.00000000000E+00 0. -1.
</event>
<event>
 7    1  0.2655656E-009  0.4778725E+02  0.7816164E-02  0.1312668E+00
        -11   -1    0    0    0    0  0.00000000000E+00  0.00000000000E+00  0.45593999997E+02  0.45594000000E+02  0.51100000000E-03 0. -1.
         11   -1    0    0    0    0 -0.00000000000E+00 -0.00000000000E+00 -0.45593999997E+02  0.45594000000E+02  0.51100000000E-03 0.  1.
    9900012    2    1    2    0    0  0.22716637463E+02  0.28983434536E+02  0.22968230897E+02  0.47787254320E+02  0.19999923745E+02 0.  0.
        -12    1    1    2    0    0 -0.22716637463E+02 -0.28983434536E+02 -0.22968230897E+02  0.43400745680E+02  0.00000000000E+00 0.  1.
         11    1    3    3    0    0  0.19252214112E+02  0.28634590665E+02  0.18497150861E+02  0.39150122873E+02  0.51100000000E-03 0. -1.
        -11    1    3    3    0    0  0.18023278160E+01 -0.27616906462E+01  0.38273314797E+01  0.50521072136E+01  0.51100000000E-03 0.  1.
        -12    1    3    3    0    0  0.16620955348E+01  0.31105345172E+01  0.64374855643E+00  0.35850242333E+01  0.00000000000E+00 0.  1.
</event>
<event>
 7    1  0.2655656E-009  0.4778727E+02  0.7816164E-02  0.1312668E+00
        -11   -1    0    0    0    0  0.00000000000E+00  0.00000000000E+00  0.45593999997E+02  0.45594000000E+02  0.51100000000E-03 0.  1.
         11   -1    0    0    0    0 -0.00000000000E+00 -0.00000000000E+00 -0.45593999997E+02  0.45594000000E+02  0.51100000000E-03 0. -1.
    9900012    2    1    2    0    0  0.28583208803E+02  0.28721804308E+02 -0.15546101111E+02  0.47787272726E+02  0.20000007668E+02 0.  0.
        -12    1    1    2    0    0 -0.28583208803E+02 -0.28721804308E+02  0.15546101111E+02  0.43400727274E+02  0.00000000000E+00 0.  1.
         11    1    3    3    0    0  0.36871112150E+01  0.13685136069E+02 -0.10312799849E+02  0.17528022687E+02  0.51100000000E-03 0. -1.
        -11    1    3    3    0    0  0.17862692474E+02  0.85791760514E+01 -0.10761019605E+01  0.19845302715E+02  0.51100000000E-03 0.  1.
         12    1    3    3    0    0  0.70334051133E+01  0.64574921876E+01 -0.41571993011E+01  0.10413947324E+02  0.00000000000E+00 0. -1.
</event>
<event>
 7    1  0.2655656E-009  0.4778726E+02  0.7816164E-02  0.1312668E+00
        -11   -1    0    0    0    0  0.00000000000E+00  0.00000000000E+00  0.45593999997E+02  0.45594000000E+02  0.51100000000E-03 0.  1.
         11   -1    0    0    0    0 -0.00000000000E+00 -0.00000000000E+00 -0.45593999997E+02  0.45594000000E+02  0.51100000000E-03 0. -1.
    9900012    2    1    2    0    0  0.38590553555E+02  0.49282437776E+01 -0.19238132768E+02  0.47787260803E+02  0.19999953306E+02 0.  0.
        -12    1    1    2    0    0 -0.38590553555E+02 -0.49282437776E+01  0.19238132768E+02  0.43400739197E+02  0.00000000000E+00 0.  1.
         11    1    3    3    0    0  0.21632875157E+01 -0.34514759125E+00 -0.21906778695E+01  0.30980654487E+01  0.51100000000E-03 0. -1.
        -11    1    3    3    0    0  0.21532672168E+02 -0.62899395462E+01 -0.99721660146E+01  0.24549203765E+02  0.51100000000E-03 0.  1.
        -12    1    3    3    0    0  0.14894593871E+02  0.11563330915E+02 -0.70752888842E+01  0.20139991590E+02  0.00000000000E+00 0.  1.
</event>
<event>
 7    1  0.2655656E-009  0.4778727E+02  0.7816164E-02  0.1312668E+00
        -11   -1    0    0    0    0  0.00000000000E+00  0.00000000000E+00  0.45593999997E+02  0.45594000000E+02  0.51100000000E-03 0. -1.
         11   -1    0    0    0    0 -0.00000000000E+00 -0.00000000000E+00 -0.45593999997E+02  0.45594000000E+02  0.51100000000E-03 0.  1.
    9900012    2    1    2    0    0 -0.10914295079E+02  0.37363905611E+02  0.19194789631E+02  0.47787271567E+02  0.20000002382E+02 0.  0.
        -12    1    1    2    0    0  0.10914295079E+02 -0.37363905611E+02 -0.19194789631E+02  0.43400728433E+02  0.00000000000E+00 0.  1.
         11    1    3    3    0    0 -0.67256098918E+01  0.47980850655E+01  0.50607475480E+01  0.96884784522E+01  0.51100000000E-03 0. -1.
        -11    1    3    3    0    0  0.24803465317E+01  0.22047135897E+02  0.52461634680E+01  0.22798038327E+02  0.51100000000E-03 0.  1.
         12    1    3    3    0    0 -0.66690317186E+01  0.10518684648E+02  0.88878786150E+01  0.15300754787E+02  0.00000000000E+00 0. -1.
</event>
<event>
 7    1  0.2655656E-009  0.4778727E+02  0.7816164E-02  0.1312668E+00
        -11   -1    0    0    0    0  0.00000000000E+00  0.00000000000E+00  0.45593999997E+02  0.45594000000E+02  0.51100000000E-03 0. -1.
         11   -1    0    0    0    0 -0.00000000000E+00 -0.00000000000E+00 -0.45593999997E+02  0.45594000000E+02  0.51100000000E-03 0.  1.
    9900012    2    1    2    0    0 -0.12154315699E+02  0.40482436864E+02 -0.98523090519E+01  0.47787273298E+02  0.20000010277E+02 0.  0.
        -12    1    1    2    0    0  0.12154315699E+02 -0.40482436864E+02  0.98523090519E+01  0.43400726702E+02  0.00000000000E+00 0.  1.
         11    1    3    3    0    0 -0.14330886429E+02  0.37970773276E+02 -0.53253764364E+01  0.40933037554E+02  0.51100000000E-03 0. -1.
        -11    1    3    3    0    0  0.29235636890E+00 -0.10080838240E+01 -0.15595907661E+01  0.18799012904E+01  0.51100000000E-03 0.  1.
         12    1    3    3    0    0  0.18842143606E+01  0.35197474124E+01 -0.29673418495E+01  0.49743344536E+01  0.00000000000E+00 0. -1.
</event>
<event>
 7    1  0.2655656E-009  0.4778728E+02  0.7816164E-02  0.1312668E+00
        -11   -1    0    0    0    0  0.00000000000E+00  0.00000000000E+00  0.45593999997E+02  0.45594000000E+02  0.51100000000E-03 0. -1.
         11   -1    0    0    0    0 -0.00000000000E+00 -0.00000000000E+00 -0.45593999997E+02  0.45594000000E+02  0.51100000000E-03 0.  1.
    9900012    2    1    2    0    0 -0.30229014106E+02 -0.11927961639E+02  0.28767227219E+02  0.47787275068E+02  0.20000018347E+02 0.  0.
        -12    1    1    2    0    0  0.30229014106E+02  0.11927961639E+02 -0.28767227219E+02  0.43400724932E+02  0.00000000000E+00 0.  1.
         11    1    3    3    0    0 -0.29432459995E+02 -0.10686390166E+02  0.19235752413E+02  0.36748915729E+02  0.51100000000E-03 0. -1.
        -11    1    3    3    0    0 -0.79799186156E+00 -0.26410938396E+01  0.20763997707E+01  0.34530571889E+01  0.51100000000E-03 0.  1.
         12    1    3    3    0    0  0.14377500545E-02  0.13995223672E+01  0.74550750356E+01  0.75853021502E+01  0.00000000000E+00 0. -1.
</event>
<event>
 7    1  0.2655656E-009  0.4778727E+02  0.7816164E-02  0.1312668E+00
        -11   -1    0    0    0    0  0.00000000000E+00  0.00000000000E+00  0.45593999997E+02  0.45594000000E+02  0.51100000000E-03 0. -1.
         11   -1    0    0    0    0 -0.00000000000E+00 -0.00000000000E+00 -0.45593999997E+02  0.45594000000E+02  0.51100000000E-03 0.  1.
    9900012    2    1    2    0    0 -0.19218716529E+02 -0.24347811327E+02  0.30355364308E+02  0.47787272775E+02  0.20000007889E+02 0.  0.
        -12    1    1    2    0    0  0.19218716529E+02  0.24347811327E+02 -0.30355364308E+02  0.43400727225E+02  0.00000000000E+00 0.  1.
         11    1    3    3    0    0 -0.11028713830E+02 -0.17077477198E+01  0.90256124486E+01  0.14353069754E+02  0.51100000000E-03 0. -1.
        -11    1    3    3    0    0 -0.82576236605E+01 -0.15560995112E+02  0.10537914781E+02  0.20527556249E+02  0.51100000000E-03 0.  1.
         12    1    3    3    0    0  0.67620962066E-01 -0.70790684952E+01  0.10791837078E+02  0.12906646771E+02  0.00000000000E+00 0. -1.
</event>
<event>
 7    1  0.2655656E-009  0.4778727E+02  0.7816164E-02  0.1312668E+00
        -11   -1    0    0    0    0  0.00000000000E+00  0.00000000000E+00  0.45593999997E+02  0.45594000000E+02  0.51100000000E-03 0.  1.
         11   -1    0    0    0    0 -0.00000000000E+00 -0.00000000000E+00 -0.45593999997E+02  0.45594000000E+02  0.51100000000E-03 0. -1.
    9900012    2    1    2    0    0 -0.15314128460E+02 -0.18197707375E+02 -0.36303499395E+02  0.47787272443E+02  0.20000006375E+02 0.  0.
        -12    1    1    2    0    0  0.15314128460E+02  0.18197707375E+02  0.36303499395E+02  0.43400727557E+02  0.00000000000E+00 0.  1.
         11    1    3    3    0    0 -0.10574686106E+02 -0.12502900838E+02 -0.23591253972E+02  0.28717482130E+02  0.51100000000E-03 0. -1.
        -11    1    3    3    0    0 -0.30049326871E+01  0.29641394885E+01 -0.80361791494E+01  0.90772197805E+01  0.51100000000E-03 0.  1.
        -12    1    3    3    0    0 -0.17345096662E+01 -0.86589460257E+01 -0.46760662731E+01  0.99925705326E+01  0.00000000000E+00 0.  1.
</event>
<event>
 7    1  0.2655656E-009  0.4778727E+02  0.7816164E-02  0.1312668E+00
        -11   -1    0    0    0    0  0.00000000000E+00  0.00000000000E+00  0.45593999997E+02  0.45594000000E+02  0.51100000000E-03 0.  1.
         11   -1    0    0    0    0 -0.00000000000E+00 -0.00000000000E+00 -0.45593999997E+02  0.45594000000E+02  0.51100000000E-03 0. -1.
    9900012    2    1    2    0    0  0.31462918949E+02  0.29823356051E+02  0.20676515827E+01  0.47787273992E+02  0.20000013439E+02 0.  0.
        -12    1    1    2    0    0 -0.31462918949E+02 -0.29823356051E+02 -0.20676515827E+01  0.43400726008E+02  0.00000000000E+00 0.  1.
         11    1    3    3    0    0  0.22447475818E+02  0.29549683249E+02  0.16652130768E+00  0.37109307193E+02  0.51100000000E-03 0. -1.
        -11    1    3    3    0    0  0.80684828158E+01  0.96426546607E+00  0.33715578439E+01  0.87975920225E+01  0.51100000000E-03 0.  1.
         12    1    3    3    0    0  0.94696031510E+00 -0.69059266375E+00 -0.14704275689E+01  0.18803747767E+01  0.00000000000E+00 0. -1.
</event>
<event>
 7    1  0.2655656E-009  0.4778727E+02  0.7816164E-02  0.1312668E+00
        -11   -1    0    0    0    0  0.00000000000E+00  0.00000000000E+00  0.45593999997E+02  0.45594000000E+02  0.51100000000E-03 0. -1.
         11   -1    0    0    0    0 -0.00000000000E+00 -0.00000000000E+00 -0.45593999997E+02  0.45594000000E+02  0.51100000000E-03 0.  1.
    9900012    2    1    2    0    0  0.33308724833E+02 -0.10869966714E+02  0.25612422089E+02  0.47787268536E+02  0.19999988562E+02 0.  0.
        -12    1    1    2    0    0 -0.33308724833E+02  0.10869966714E+02 -0.25612422089E+02  0.43400731464E+02  0.00000000000E+00 0.  1.
         11    1    3    3    0    0 -0.14163374740E-01 -0.48516333934E+01  0.21879427484E+01  0.53221838484E+01  0.51100000000E-03 0. -1.
        -11    1    3    3    0    0  0.55541569095E+01 -0.20769267593E+01  0.11007563278E-01  0.59297896393E+01  0.51100000000E-03 0.  1.
         12    1    3    3    0    0  0.27768731298E+02 -0.39414065615E+01  0.23413471777E+02  0.36535295048E+02  0.00000000000E+00 0. -1.
</event>
<event>
 7    1  0.2655656E-009  0.4778727E+02  0.7816164E-02  0.1312668E+00
        -11   -1    0    0    0    0  0.00000000000E+00  0.00000000000E+00  0.45593999997E+02  0.45594000000E+02  0.51100000000E-03 0.  1.
         11   -1    0    0    0    0 -0.00000000000E+00 -0.00000000000E+00 -0.45593999997E+02  0.45594000000E+02  0.51100000000E-03 0. -1.
    9900012    2    1    2    0    0 -0.15929319883E+02 -0.37069593439E+01 -0.40201224641E+02  0.47787271410E+02  0.20000001667E+02 0.  0.
        -12    1    1    2    0    0  0.15929319883E+02  0.37069593439E+01  0.40201224641E+02  0.43400728590E+02  0.00000000000E+00 0.  1.
         11    1    3    3    0    0 -0.11514971220E+02 -0.34757817119E+01 -0.83414515540E+01  0.14637466823E+02  0.51100000000E-03 0. -1.
        -11    1    3    3    0    0  0.28007296305E+00  0.32555402744E+01 -0.12994083020E+02  0.13398625942E+02  0.51100000000E-03 0.  1.
        -12    1    3    3    0    0 -0.46944216257E+01 -0.34867179064E+01 -0.18865690067E+02  0.19751178645E+02  0.00000000000E+00 0.  1.
</event>
<event>
 7    1  0.2655656E-009  0.4778725E+02  0.7816164E-02  0.1312668E+00
        -11   -1    0    0    0    0  0.00000000000E+00  0.00000000000E+00  0.45593999997E+02  0.45594000000E+02  0.51100000000E-03 0.  1.
         11   -1    0    0    0    0 -0.00000000000E+00 -0.00000000000E+00 -0.45593999997E+02  0.45594000000E+02  0.51100000000E-03 0. -1.
    9900012    2    1    2    0    0  0.15145257288E+02 -0.32726464409E+01 -0.40540550829E+02  0.47787247766E+02  0.19999893862E+02 0.  0.
        -12    1    1    2    0    0 -0.15145257288E+02  0.32726464409E+01  0.40540550829E+02  0.43400752234E+02  0.00000000000E+00 0.  1.
         11    1    3    3    0    0 -0.17714272434E+01  0.39714450914E+01 -0.13538088368E+02  0.14219358900E+02  0.51100000000E-03 0. -1.
        -11    1    3    3    0    0  0.82776401963E+01 -0.73475667478E+01 -0.12582927826E+02  0.16758166286E+02  0.51100000000E-03 0.  1.
         12    1    3    3    0    0  0.86390443349E+01  0.10347521547E+00 -0.14419534634E+02  0.16809722579E+02  0.00000000000E+00 0. -1.
</event>
<event>
 7    1  0.2655656E-009  0.4778727E+02  0.7816164E-02  0.1312668E+00
        -11   -1    0    0    0    0  0.00000000000E+00  0.00000000000E+00  0.45593999997E+02  0.45594000000E+02  0.51100000000E-03 0.  1.
         11   -1    0    0    0    0 -0.00000000000E+00 -0.00000000000E+00 -0.45593999997E+02  0.45594000000E+02  0.51100000000E-03 0. -1.
    9900012    2    1    2    0    0  0.25623470197E+02  0.33972205442E+02 -0.85411052199E+01  0.47787269063E+02  0.19999990964E+02 0.  0.
        -12    1    1    2    0    0 -0.25623470197E+02 -0.33972205442E+02  0.85411052199E+01  0.43400730937E+02  0.00000000000E+00 0.  1.
         11    1    3    3    0    0  0.14823255276E+02  0.13166269759E+02 -0.93304826899E+00  0.19848177137E+02  0.51100000000E-03 0. -1.
        -11    1    3    3    0    0 -0.27249760825E+01  0.10073463078E+01 -0.88401310394E+00  0.30367286120E+01  0.51100000000E-03 0.  1.
        -12    1    3    3    0    0  0.13525191004E+02  0.19798589375E+02 -0.67240438470E+01  0.24902363313E+02  0.00000000000E+00 0.  1.
</event>
<event>
 7    1  0.2655656E-009  0.4778727E+02  0.7816164E-02  0.1312668E+00
        -11   -1    0    0    0    0  0.00000000000E+00  0.00000000000E+00  0.45593999997E+02  0.45594000000E+02  0.51100000000E-03 0. -1.
         11   -1    0    0    0    0 -0.00000000000E+00 -0.00000000000E+00 -0.45593999997E+02  0.45594000000E+02  0.51100000000E-03 0.  1.
    9900012    2    1    2    0    0 -0.31571794207E+02  0.12412056367E+01 -0.29754071069E+02  0.47787268139E+02  0.19999986754E+02 0.  0.
        -12    1    1    2    0    0  0.31571794207E+02 -0.12412056367E+01  0.29754071069E+02  0.43400731861E+02  0.00000000000E+00 0.  1.
         11    1    3    3    0    0 -0.10911951020E+02  0.16633682246E+01 -0.12582064709E+01  0.11109480307E+02  0.51100000000E-03 0. -1.
        -11    1    3    3    0    0 -0.14004507360E+02 -0.50209936921E+01 -0.20235126721E+02  0.25115671557E+02  0.51100000000E-03 0.  1.
        -12    1    3    3    0    0 -0.66553358266E+01  0.45988311041E+01 -0.82607378769E+01  0.11562116275E+02  0.00000000000E+00 0.  1.
</event>
<event>
 7    1  0.2655656E-009  0.4778727E+02  0.7816164E-02  0.1312668E+00
        -11   -1    0    0    0    0  0.00000000000E+00  0.00000000000E+00  0.45593999997E+02  0.45594000000E+02  0.51100000000E-03 0.  1.
         11   -1    0    0    0    0 -0.00000000000E+00 -0.00000000000E+00 -0.45593999997E+02  0.45594000000E+02  0.51100000000E-03 0. -1.
    9900012    2    1    2    0    0 -0.13354294923E+02  0.31458038838E+02 -0.26752154707E+02  0.47787272104E+02  0.20000004832E+02 0.  0.
        -12    1    1    2    0    0  0.13354294923E+02 -0.31458038838E+02  0.26752154707E+02  0.43400727896E+02  0.00000000000E+00 0.  1.
         11    1    3    3    0    0 -0.77933791461E+01  0.78275529277E+01 -0.15078060498E+02  0.18691047376E+02  0.51100000000E-03 0. -1.
        -11    1    3    3    0    0 -0.79478083185E+01  0.17350001165E+02 -0.52318544380E+01  0.19787938211E+02  0.51100000000E-03 0.  1.
        -12    1    3    3    0    0  0.23868925414E+01  0.62804847449E+01 -0.64422397706E+01  0.93082865178E+01  0.00000000000E+00 0.  1.
</event>
<event>
 7    1  0.2655656E-009  0.4778727E+02  0.7816164E-02  0.1312668E+00
        -11   -1    0    0    0    0  0.00000000000E+00  0.00000000000E+00  0.45593999997E+02  0.45594000000E+02  0.51100000000E-03 0.  1.
         11   -1    0    0    0    0 -0.00000000000E+00 -0.00000000000E+00 -0.45593999997E+02  0.45594000000E+02  0.51100000000E-03 0. -1.
    9900012    2    1    2    0    0 -0.28202441383E+02  0.31345408065E+02  0.10281568667E+02  0.47787274650E+02  0.20000016438E+02 0.  0.
        -12    1    1    2    0    0  0.28202441383E+02 -0.31345408065E+02 -0.10281568667E+02  0.43400725350E+02  0.00000000000E+00 0.  1.
         11    1    3    3    0    0 -0.35360182238E+01  0.15437290801E+02  0.76545769667E+01  0.17589938060E+02  0.51100000000E-03 0. -1.
        -11    1    3    3    0    0 -0.22474371631E+02  0.15611813226E+02  0.88027263690E+00  0.27378841695E+02  0.51100000000E-03 0.  1.
        -12    1    3    3    0    0 -0.21920515281E+01  0.29630403802E+00  0.17467190631E+01  0.28184948945E+01  0.00000000000E+00 0.  1.
</event>
<event>
 7    1  0.2655656E-009  0.4778727E+02  0.7816164E-02  0.1312668E+00
        -11   -1    0    0    0    0  0.00000000000E+00  0.00000000000E+00  0.45593999997E+02  0.45594000000E+02  0.51100000000E-03 0.  1.
         11   -1    0    0    0    0 -0.00000000000E+00 -0.00000000000E+00 -0.45593999997E+02  0.45594000000E+02  0.51100000000E-03 0. -1.
    9900012    2    1    2    0    0  0.38579467151E+02 -0.10606041330E+02 -0.16815471581E+02  0.47787268637E+02  0.19999989022E+02 0.  0.
        -12    1    1    2    0    0 -0.38579467151E+02  0.10606041330E+02  0.16815471581E+02  0.43400731363E+02  0.00000000000E+00 0.  1.
         11    1    3    3    0    0  0.31336801899E+02 -0.11247541758E+01 -0.75245133198E+01  0.32247147566E+02  0.51100000000E-03 0. -1.
        -11    1    3    3    0    0  0.48417703262E+01 -0.40276978978E+01 -0.61567688716E+01  0.88074339877E+01  0.51100000000E-03 0.  1.
         12    1    3    3    0    0  0.24008949264E+01 -0.54535892564E+01 -0.31341893898E+01  0.67326870829E+01  0.00000000000E+00 0. -1.
</event>
<event>
 7    1  0.2655656E-009  0.4778727E+02  0.7816164E-02  0.1312668E+00
        -11   -1    0    0    0    0  0.00000000000E+00  0.00000000000E+00  0.45593999997E+02  0.45594000000E+02  0.51100000000E-03 0.  1.
         11   -1    0    0    0    0 -0.00000000000E+00 -0.00000000000E+00 -0.45593999997E+02  0.45594000000E+02  0.51100000000E-03 0. -1.
    9900012    2    1    2    0    0 -0.94925598006E+01 -0.25577067405E+02 -0.33753938116E+02  0.47787269511E+02  0.19999993011E+02 0.  0.
        -12    1    1    2    0    0  0.94925598006E+01  0.25577067405E+02  0.33753938116E+02  0.43400730489E+02  0.00000000000E+00 0.  1.
         11    1    3    3    0    0 -0.55066335353E+01 -0.17855102647E+02 -0.79719926070E+01  0.20314535924E+02  0.51100000000E-03 0. -1.
        -11    1    3    3    0    0 -0.17998385923E+01 -0.62020588184E+01 -0.21321613394E+02  0.22278154110E+02  0.51100000000E-03 0.  1.
         12    1    3    3    0    0 -0.21860876729E+01 -0.15199059404E+01 -0.44603321142E+01  0.51945794778E+01  0.00000000000E+00 0. -1.
</event>
<event>
 7    1  0.2655656E-009  0.4778727E+02  0.7816164E-02  0.1312668E+00
        -11   -1    0    0    0    0  0.00000000000E+00  0.00000000000E+00  0.45593999997E+02  0.45594000000E+02  0.51100000000E-03 0.  1.
         11   -1    0    0    0    0 -0.00000000000E+00 -0.00000000000E+00 -0.45593999997E+02  0.45594000000E+02  0.51100000000E-03 0. -1.
    9900012    2    1    2    0    0  0.21687241485E+02 -0.25964511620E+02 -0.27186961621E+02  0.47787272021E+02  0.20000004455E+02 0.  0.
        -12    1    1    2    0    0 -0.21687241485E+02  0.25964511620E+02  0.27186961621E+02  0.43400727979E+02  0.00000000000E+00 0.  1.
         11    1    3    3    0    0  0.14569374986E+02 -0.13235954085E+02 -0.25402641443E+02  0.32136449097E+02  0.51100000000E-03 0. -1.
        -11    1    3    3    0    0  0.55110317056E+01 -0.49909089236E+01  0.41838730951E+00  0.74468577633E+01  0.51100000000E-03 0.  1.
         12    1    3    3    0    0  0.16068347935E+01 -0.77376486116E+01 -0.22027074868E+01  0.82039651610E+01  0.00000000000E+00 0. -1.
</event>
<event>
 7    1  0.2655656E-009  0.4778727E+02  0.7816164E-02  0.1312668E+00
        -11   -1    0    0    0    0  0.00000000000E+00  0.00000000000E+00  0.45593999997E+02  0.45594000000E+02  0.51100000000E-03 0.  1.
         11   -1    0    0    0    0 -0.00000000000E+00 -0.00000000000E+00 -0.45593999997E+02  0.45594000000E+02  0.51100000000E-03 0. -1.
    9900012    2    1    2    0    0  0.16014691759E+02 -0.40110855829E+02  0.42746203495E+01  0.47787268593E+02  0.19999988824E+02 0.  0.
        -12    1    1    2    0    0 -0.16014691759E+02  0.40110855829E+02 -0.42746203495E+01  0.43400731407E+02  0.00000000000E+00 0.  1.
         11    1    3    3    0    0  0.51488651855E+01 -0.57692641048E+01 -0.42722195153E+01  0.88344258929E+01  0.51100000000E-03 0. -1.
        -11    1    3    3    0    0  0.96956965083E+01 -0.18177069096E+02  0.95662514490E+01  0.22713994337E+02  0.51100000000E-03 0.  1.
         12    1    3    3    0    0  0.11701300656E+01 -0.16164522629E+02 -0.10194115842E+01  0.16238848363E+02  0.00000000000E+00 0. -1.
</event>
<event>
 7    1  0.2655656E-009  0.4778724E+02  0.7816164E-02  0.1312668E+00
        -11   -1    0    0    0    0  0.00000000000E+00  0.00000000000E+00  0.45593999997E+02  0.45594000000E+02  0.51100000000E-03 0.  1.
         11   -1    0    0    0    0 -0.00000000000E+00 -0.00000000000E+00 -0.45593999997E+02  0.45594000000E+02  0.51100000000E-03 0. -1.
    9900012    2    1    2    0    0  0.23245864436E+02  0.15477129678E+02 -0.33222188921E+02  0.47787244325E+02  0.19999878174E+02 0.  0.
        -12    1    1    2    0    0 -0.23245864436E+02 -0.15477129678E+02  0.33222188921E+02  0.43400755675E+02  0.00000000000E+00 0.  1.
         11    1    3    3    0    0  0.11406411901E+02 -0.13398689934E+01 -0.13439668446E+02  0.17678409701E+02  0.51100000000E-03 0. -1.
        -11    1    3    3    0    0  0.27154318253E+01  0.11011223719E+02 -0.68452481976E+01  0.13246812482E+02  0.51100000000E-03 0.  1.
         12    1    3    3    0    0  0.91240207096E+01  0.58057749531E+01 -0.12937272278E+02  0.16862022142E+02  0.00000000000E+00 0. -1.
</event>
<event>
 7    1  0.2655656E-009  0.4778727E+02  0.7816164E-02  0.1312668E+00
        -11   -1    0    0    0    0  0.00000000000E+00  0.00000000000E+00  0.45593999997E+02  0.45594000000E+02  0.51100000000E-03 0.  1.
         11   -1    0    0    0    0 -0.00000000000E+00 -0.00000000000E+00 -0.45593999997E+02  0.45594000000E+02  0.51100000000E-03 0. -1.
    9900012    2    1    2    0    0  0.70419425981E+01  0.34064826538E+02 -0.25954229275E+02  0.47787269823E+02  0.19999994433E+02 0.  0.
        -12    1    1    2    0    0 -0.70419425981E+01 -0.34064826538E+02  0.25954229275E+02  0.43400730177E+02  0.00000000000E+00 0.  1.
         11    1    3    3    0    0  0.21506854101E+00  0.11442456137E+02  0.81783040204E+00  0.11473661306E+02  0.51100000000E-03 0. -1.
        -11    1    3    3    0    0  0.14764359082E+01  0.76791982030E+01 -0.46879037766E+01  0.91173674990E+01  0.51100000000E-03 0.  1.
         12    1    3    3    0    0  0.53504381488E+01  0.14943172197E+02 -0.22084155901E+02  0.27196241019E+02  0.00000000000E+00 0. -1.
</event>
<event>
 7    1  0.2655656E-009  0.4778726E+02  0.7816164E-02  0.1312668E+00
        -11   -1    0    0    0    0  0.00000000000E+00  0.00000000000E+00  0.45593999997E+02  0.45594000000E+02  0.51100000000E-03 0. -1.
         11   -1    0    0    0    0 -0.00000000000E+00 -0.00000000000E+00 -0.45593999997E+02  0.45594000000E+02  0.51100000000E-03 0.  1.
    9900012    2    1    2    0    0  0.17743094261E+02 -0.38762849723E+02 -0.81392902260E+01  0.47787263163E+02  0.19999964067E+02 0.  0.
        -12    1    1    2    0    0 -0.17743094261E+02  0.38762849723E+02  0.81392902260E+01  0.43400736837E+02  0.00000000000E+00 0.  1.
         11    1    3    3    0    0  0.17129722968E+02 -0.25184423651E+02 -0.26883905711E+01  0.30576298791E+02  0.51100000000E-03 0. -1.
        -11    1    3    3    0    0 -0.26155411788E+00 -0.14709552916E+02 -0.41707183309E+01  0.15291639846E+02  0.51100000000E-03 0.  1.
         12    1    3    3    0    0  0.87492541111E+00  0.11311268446E+01 -0.12801813240E+01  0.19193245260E+01  0.00000000000E+00 0. -1.
</event>
<event>
 7    1  0.2655656E-009  0.4778728E+02  0.7816164E-02  0.1312668E+00
        -11   -1    0    0    0    0  0.00000000000E+00  0.00000000000E+00  0.45593999997E+02  0.45594000000E+02  0.51100000000E-03 0.  1.
         11   -1    0    0    0    0 -0.00000000000E+00 -0.00000000000E+00 -0.45593999997E+02  0.45594000000E+02  0.51100000000E-03 0. -1.
    9900012    2    1    2    0    0  0.15573101675E+02 -0.13267695054E+02 -0.38276227907E+02  0.47787275921E+02  0.20000022233E+02 0.  0.
        -12    1    1    2    0    0 -0.15573101675E+02  0.13267695054E+02  0.38276227907E+02  0.43400724079E+02  0.00000000000E+00 0.  1.
         11    1    3    3    0    0  0.56448062313E+01  0.18658252527E+00 -0.20257906287E+02  0.21030487817E+02  0.51100000000E-03 0. -1.
        -11    1    3    3    0    0  0.11722733887E+02 -0.94022888205E+01 -0.11728550450E+02  0.19062644643E+02  0.51100000000E-03 0.  1.
         12    1    3    3    0    0 -0.17944384435E+01 -0.40519887590E+01 -0.62897711696E+01  0.76941434609E+01  0.00000000000E+00 0. -1.
</event>
<event>
 7    1  0.2655656E-009  0.4778727E+02  0.7816164E-02  0.1312668E+00
        -11   -1    0    0    0    0  0.00000000000E+00  0.00000000000E+00  0.45593999997E+02  0.45594000000E+02  0.51100000000E-03 0.  1.
         11   -1    0    0    0    0 -0.00000000000E+00 -0.00000000000E+00 -0.45593999997E+02  0.45594000000E+02  0.51100000000E-03 0. -1.
    9900012    2    1    2    0    0  0.35103468587E+02  0.24486974596E+02  0.71943031152E+01  0.47787269257E+02  0.19999991848E+02 0.  0.
        -12    1    1    2    0    0 -0.35103468587E+02 -0.24486974596E+02 -0.71943031152E+01  0.43400730743E+02  0.00000000000E+00 0.  1.
         11    1    3    3    0    0  0.10523330378E+02  0.16243927538E+02  0.16646391305E+01  0.19426185622E+02  0.51100000000E-03 0. -1.
        -11    1    3    3    0    0  0.92792359380E+01  0.43923266010E+00  0.62056634520E+01  0.11171723415E+02  0.51100000000E-03 0.  1.
         12    1    3    3    0    0  0.15300902272E+02  0.78038143979E+01 -0.67599946734E+00  0.17189360220E+02  0.00000000000E+00 0. -1.
</event>
<event>
 7    1  0.2655656E-009  0.4778725E+02  0.7816164E-02  0.1312668E+00
        -11   -1    0    0    0    0  0.00000000000E+00  0.00000000000E+00  0.45593999997E+02  0.45594000000E+02  0.51100000000E-03 0. -1.
         11   -1    0    0    0    0 -0.00000000000E+00 -0.00000000000E+00 -0.45593999997E+02  0.45594000000E+02  0.51100000000E-03 0.  1.
    9900012    2    1    2    0    0  0.27624290799E+02 -0.18953278681E+02 -0.27591609064E+02  0.47787249941E+02  0.19999903781E+02 0.  0.
        -12    1    1    2    0    0 -0.27624290799E+02  0.18953278681E+02  0.27591609064E+02  0.43400750059E+02  0.00000000000E+00 0.  1.
         11    1    3    3    0    0  0.21069327317E+02 -0.77193573252E+01 -0.13595069792E+02  0.26236062090E+02  0.51100000000E-03 0. -1.
        -11    1    3    3    0    0  0.59205280954E+01 -0.95636055056E+01 -0.15544504959E+02  0.19187152938E+02  0.51100000000E-03 0.  1.
         12    1    3    3    0    0  0.63443538655E+00 -0.16703158503E+01  0.15479656866E+01  0.23640349123E+01  0.00000000000E+00 0. -1.
</event>
<event>
 7    1  0.2655656E-009  0.4778728E+02  0.7816164E-02  0.1312668E+00
        -11   -1    0    0    0    0  0.00000000000E+00  0.00000000000E+00  0.45593999997E+02  0.45594000000E+02  0.51100000000E-03 0.  1.
         11   -1    0    0    0    0 -0.00000000000E+00 -0.00000000000E+00 -0.45593999997E+02  0.45594000000E+02  0.51100000000E-03 0. -1.
    9900012    2    1    2    0    0  0.24840455774E+02 -0.29933114034E+02  0.19250537317E+02  0.47787277128E+02  0.20000027738E+02 0.  0.
        -12    1    1    2    0    0 -0.24840455774E+02  0.29933114034E+02 -0.19250537317E+02  0.43400722872E+02  0.00000000000E+00 0.  1.
         11    1    3    3    0    0  0.15226650676E+02 -0.24887869381E+02  0.17292985746E+02  0.33916136122E+02  0.51100000000E-03 0. -1.
        -11    1    3    3    0    0  0.28970512034E+01  0.15217456694E+01  0.29749933153E+01  0.44225785515E+01  0.51100000000E-03 0.  1.
         12    1    3    3    0    0  0.67167538941E+01 -0.65669903218E+01 -0.10174417441E+01  0.94485624548E+01  0.00000000000E+00 0. -1.
</event>
<event>
 7    1  0.2655656E-009  0.4778727E+02  0.7816164E-02  0.1312668E+00
        -11   -1    0    0    0    0  0.00000000000E+00  0.00000000000E+00  0.45593999997E+02  0.45594000000E+02  0.51100000000E-03 0.  1.
         11   -1    0    0    0    0 -0.00000000000E+00 -0.00000000000E+00 -0.45593999997E+02  0.45594000000E+02  0.51100000000E-03 0. -1.
    9900012    2    1    2    0    0 -0.63786479173E+01  0.37821427671E+02 -0.20309493015E+02  0.47787273660E+02  0.20000011924E+02 0.  0.
        -12    1    1    2    0    0  0.63786479173E+01 -0.37821427671E+02  0.20309493015E+02  0.43400726340E+02  0.00000000000E+00 0.  1.
         11    1    3    3    0    0  0.63148631166E+00  0.76052718536E+01 -0.56193606345E+01  0.94771382352E+01  0.51100000000E-03 0. -1.
        -11    1    3    3    0    0 -0.15157480649E+01  0.29641782591E+01 -0.94512567579E+01  0.10020483996E+02  0.51100000000E-03 0.  1.
        -12    1    3    3    0    0 -0.54943861641E+01  0.27251977558E+02 -0.52388756231E+01  0.28289651429E+02  0.00000000000E+00 0.  1.
</event>
<event>
 7    1  0.2655656E-009  0.4778727E+02  0.7816164E-02  0.1312668E+00
        -11   -1    0    0    0    0  0.00000000000E+00  0.00000000000E+00  0.45593999997E+02  0.45594000000E+02  0.51100000000E-03 0.  1.
         11   -1    0    0    0    0 -0.00000000000E+00 -0.00000000000E+00 -0.45593999997E+02  0.45594000000E+02  0.51100000000E-03 0. -1.
    9900012    2    1    2    0    0  0.22815646000E+02 -0.15696831887E+02 -0.33416744850E+02  0.47787273392E+02  0.20000010706E+02 0.  0.
        -12    1    1    2    0    0 -0.22815646000E+02  0.15696831887E+02  0.33416744850E+02  0.43400726608E+02  0.00000000000E+00 0.  1.
         11    1    3    3    0    0  0.19585893429E+02 -0.10555922793E+02 -0.16511767067E+02  0.27706915732E+02  0.51100000000E-03 0. -1.
        -11    1    3    3    0    0 -0.76945578321E+00  0.11519430593E+01  0.21995347164E+00  0.14026456449E+01  0.51100000000E-03 0.  1.
         12    1    3    3    0    0  0.39992083547E+01 -0.62928521534E+01 -0.17124931254E+02  0.18677712016E+02  0.00000000000E+00 0. -1.
</event>
<event>
 7    1  0.2655656E-009  0.4778727E+02  0.7816164E-02  0.1312668E+00
        -11   -1    0    0    0    0  0.00000000000E+00  0.00000000000E+00  0.45593999997E+02  0.45594000000E+02  0.51100000000E-03 0. -1.
         11   -1    0    0    0    0 -0.00000000000E+00 -0.00000000000E+00 -0.45593999997E+02  0.45594000000E+02  0.51100000000E-03 0.  1.
    9900012    2    1    2    0    0 -0.13490773224E+01  0.36602150310E+02 -0.23282735259E+02  0.47787272148E+02  0.20000005031E+02 0.  0.
        -12    1    1    2    0    0  0.13490773224E+01 -0.36602150310E+02  0.23282735259E+02  0.43400727852E+02  0.00000000000E+00 0.  1.
         11    1    3    3    0    0  0.29646482433E+01  0.25698589592E+02 -0.14204411514E+02  0.29512233954E+02  0.51100000000E-03 0. -1.
        -11    1    3    3    0    0 -0.37385266639E+01 -0.23789139316E+00 -0.53122204578E+01  0.65002200259E+01  0.51100000000E-03 0.  1.
        -12    1    3    3    0    0 -0.57519890182E+00  0.11141452111E+02 -0.37661032869E+01  0.11774818168E+02  0.00000000000E+00 0.  1.
</event>
<event>
 7    1  0.2655656E-009  0.4778727E+02  0.7816164E-02  0.1312668E+00
        -11   -1    0    0    0    0  0.00000000000E+00  0.00000000000E+00  0.45593999997E+02  0.45594000000E+02  0.51100000000E-03 0.  1.
         11   -1    0    0    0    0 -0.00000000000E+00 -0.00000000000E+00 -0.45593999997E+02  0.45594000000E+02  0.51100000000E-03 0. -1.
    9900012    2    1    2    0    0 -0.16656871674E+02  0.18286153462E+01 -0.40035333866E+02  0.47787272289E+02  0.20000005676E+02 0.  0.
        -12    1    1    2    0    0  0.16656871674E+02 -0.18286153462E+01  0.40035333866E+02  0.43400727711E+02  0.00000000000E+00 0.  1.
         11    1    3    3    0    0 -0.52234323126E+00  0.42013643967E+01 -0.21365293942E+02  0.21780727507E+02  0.51100000000E-03 0. -1.
        -11    1    3    3    0    0 -0.15641536088E+02 -0.29523741822E+01 -0.19301002488E+02  0.25018050720E+02  0.51100000000E-03 0.  1.
        -12    1    3    3    0    0 -0.49299235487E+00  0.57962513171E+00  0.63096256401E+00  0.98849406293E+00  0.00000000000E+00 0.  1.
</event>
<event>
 7    1  0.2655656E-009  0.4778727E+02  0.7816164E-02  0.1312668E+00
        -11   -1    0    0    0    0  0.00000000000E+00  0.00000000000E+00  0.45593999997E+02  0.45594000000E+02  0.51100000000E-03 0.  1.
         11   -1    0    0    0    0 -0.00000000000E+00 -0.00000000000E+00 -0.45593999997E+02  0.45594000000E+02  0.51100000000E-03 0. -1.
    9900012    2    1    2    0    0 -0.13169892757E+02 -0.20914721334E+02 -0.35675643551E+02  0.47787272051E+02  0.20000004589E+02 0.  0.
        -12    1    1    2    0    0  0.13169892757E+02  0.20914721334E+02  0.35675643551E+02  0.43400727949E+02  0.00000000000E+00 0.  1.
         11    1    3    3    0    0 -0.21844639493E+01 -0.30226573597E+01 -0.86494898454E+01  0.94192364397E+01  0.51100000000E-03 0. -1.
        -11    1    3    3    0    0 -0.14761811192E+02 -0.83613456833E+01 -0.16183971307E+02  0.23446622333E+02  0.51100000000E-03 0.  1.
        -12    1    3    3    0    0  0.37763823838E+01 -0.95307182913E+01 -0.10842182399E+02  0.14921413279E+02  0.00000000000E+00 0.  1.
</event>
<event>
 7    1  0.2655656E-009  0.4778727E+02  0.7816164E-02  0.1312668E+00
        -11   -1    0    0    0    0  0.00000000000E+00  0.00000000000E+00  0.45593999997E+02  0.45594000000E+02  0.51100000000E-03 0.  1.
         11   -1    0    0    0    0 -0.00000000000E+00 -0.00000000000E+00 -0.45593999997E+02  0.45594000000E+02  0.51100000000E-03 0. -1.
    9900012    2    1    2    0    0  0.25186858348E+02 -0.22175549106E+01 -0.35275032835E+02  0.47787270459E+02  0.19999997329E+02 0.  0.
        -12    1    1    2    0    0 -0.25186858348E+02  0.22175549106E+01  0.35275032835E+02  0.43400729541E+02  0.00000000000E+00 0.  1.
         11    1    3    3    0    0  0.21077021990E+02 -0.64183162140E+01 -0.18523663664E+02  0.28784748649E+02  0.51100000000E-03 0. -1.
        -11    1    3    3    0    0 -0.17078182842E+01  0.95306277429E-01 -0.47409265962E+01  0.50400507766E+01  0.51100000000E-03 0.  1.
         12    1    3    3    0    0  0.58176546418E+01  0.41054550259E+01 -0.12010442574E+02  0.13962471032E+02  0.00000000000E+00 0. -1.
</event>
<event>
 7    1  0.2655656E-009  0.4778727E+02  0.7816164E-02  0.1312668E+00
        -11   -1    0    0    0    0  0.00000000000E+00  0.00000000000E+00  0.45593999997E+02  0.45594000000E+02  0.51100000000E-03 0. -1.
         11   -1    0    0    0    0 -0.00000000000E+00 -0.00000000000E+00 -0.45593999997E+02  0.45594000000E+02  0.51100000000E-03 0.  1.
    9900012    2    1    2    0    0  0.40445318286E+02 -0.58836739343E+01 -0.14600754827E+02  0.47787269225E+02  0.19999991706E+02 0.  0.
        -12    1    1    2    0    0 -0.40445318286E+02  0.58836739343E+01  0.14600754827E+02  0.43400730775E+02  0.00000000000E+00 0.  1.
         11    1    3    3    0    0  0.12038682176E+02 -0.60346485600E+01  0.25572199613E+01  0.13707159661E+02  0.51100000000E-03 0. -1.
        -11    1    3    3    0    0  0.28889097150E+02  0.35373650283E+00 -0.17045551099E+02  0.33544833823E+02  0.51100000000E-03 0.  1.
        -12    1    3    3    0    0 -0.48246103984E+00 -0.20276187708E+00 -0.11242368920E+00  0.53527574170E+00  0.00000000000E+00 0.  1.
</event>
<event>
 7    1  0.2655656E-009  0.4778727E+02  0.7816164E-02  0.1312668E+00
        -11   -1    0    0    0    0  0.00000000000E+00  0.00000000000E+00  0.45593999997E+02  0.45594000000E+02  0.51100000000E-03 0.  1.
         11   -1    0    0    0    0 -0.00000000000E+00 -0.00000000000E+00 -0.45593999997E+02  0.45594000000E+02  0.51100000000E-03 0. -1.
    9900012    2    1    2    0    0 -0.35217730824E+02  0.15943927469E+02 -0.19726274434E+02  0.47787270852E+02  0.19999999123E+02 0.  0.
        -12    1    1    2    0    0  0.35217730824E+02 -0.15943927469E+02  0.19726274434E+02  0.43400729148E+02  0.00000000000E+00 0.  1.
         11    1    3    3    0    0 -0.10531118617E+02  0.92200764018E+01  0.18994404044E+01  0.14125230699E+02  0.51100000000E-03 0. -1.
        -11    1    3    3    0    0 -0.75616032815E+01  0.96336642036E+00 -0.78457553073E+01  0.10939003412E+02  0.51100000000E-03 0.  1.
         12    1    3    3    0    0 -0.17125008926E+02  0.57604846469E+01 -0.13779959531E+02  0.22723036741E+02  0.00000000000E+00 0. -1.
</event>
<event>
 7    1  0.2655656E-009  0.4778727E+02  0.7816164E-02  0.1312668E+00
        -11   -1    0    0    0    0  0.00000000000E+00  0.00000000000E+00  0.45593999997E+02  0.45594000000E+02  0.51100000000E-03 0.  1.
         11   -1    0    0    0    0 -0.00000000000E+00 -0.00000000000E+00 -0.45593999997E+02  0.45594000000E+02  0.51100000000E-03 0. -1.
    9900012    2    1    2    0    0 -0.13410135715E+02  0.22913893535E+02 -0.34332856302E+02  0.47787270989E+02  0.19999999749E+02 0.  0.
        -12    1    1    2    0    0  0.13410135715E+02 -0.22913893535E+02  0.34332856302E+02  0.43400729011E+02  0.00000000000E+00 0.  1.
         11    1    3    3    0    0 -0.13915465527E+02  0.95539843687E+01 -0.15681643959E+02  0.23039808065E+02  0.51100000000E-03 0. -1.
        -11    1    3    3    0    0 -0.23945463753E+01  0.58500671741E+01 -0.26874399103E+01  0.68687314562E+01  0.51100000000E-03 0.  1.
         12    1    3    3    0    0  0.28998761872E+01  0.75098419922E+01 -0.15963772432E+02  0.17878731468E+02  0.00000000000E+00 0. -1.
</event>
<event>
 7    1  0.2655656E-009  0.4778727E+02  0.7816164E-02  0.1312668E+00
        -11   -1    0    0    0    0  0.00000000000E+00  0.00000000000E+00  0.45593999997E+02  0.45594000000E+02  0.51100000000E-03 0.  1.
         11   -1    0    0    0    0 -0.00000000000E+00 -0.00000000000E+00 -0.45593999997E+02  0.45594000000E+02  0.51100000000E-03 0. -1.
    9900012    2    1    2    0    0 -0.65017674506E+01  0.28269185542E+02 -0.32283173964E+02  0.47787272444E+02  0.20000006383E+02 0.  0.
        -12    1    1    2    0    0  0.65017674506E+01 -0.28269185542E+02  0.32283173964E+02  0.43400727556E+02  0.00000000000E+00 0.  1.
         11    1    3    3    0    0 -0.82674013381E+01  0.27255184040E+02 -0.33868261333E+02  0.44252165009E+02  0.51100000000E-03 0. -1.
        -11    1    3    3    0    0  0.10627107198E+01 -0.39443124095E+00  0.16001085920E+01  0.19609380014E+01  0.51100000000E-03 0.  1.
         12    1    3    3    0    0  0.70292316765E+00  0.14084327426E+01 -0.15021222274E-01  0.15741694341E+01  0.00000000000E+00 0. -1.
</event>
<event>
 7    1  0.2655656E-009  0.4778727E+02  0.7816164E-02  0.1312668E+00
        -11   -1    0    0    0    0  0.00000000000E+00  0.00000000000E+00  0.45593999997E+02  0.45594000000E+02  0.51100000000E-03 0.  1.
         11   -1    0    0    0    0 -0.00000000000E+00 -0.00000000000E+00 -0.45593999997E+02  0.45594000000E+02  0.51100000000E-03 0. -1.
    9900012    2    1    2    0    0 -0.18107217332E+02  0.36472391186E+02 -0.15017203534E+02  0.47787273736E+02  0.20000012270E+02 0.  0.
        -12    1    1    2    0    0  0.18107217332E+02 -0.36472391186E+02  0.15017203534E+02  0.43400726264E+02  0.00000000000E+00 0.  1.
         11    1    3    3    0    0 -0.37117757703E+01  0.16755412621E+02 -0.38420099627E+01  0.17586420110E+02  0.51100000000E-03 0. -1.
        -11    1    3    3    0    0 -0.15536012542E+02  0.12973898331E+02 -0.46922612549E+01  0.20777560962E+02  0.51100000000E-03 0.  1.
        -12    1    3    3    0    0  0.11405709803E+01  0.67430802337E+01 -0.64829323164E+01  0.94232926633E+01  0.00000000000E+00 0.  1.
</event>
<event>
 7    1  0.2655656E-009  0.4778728E+02  0.7816164E-02  0.1312668E+00
        -11   -1    0    0    0    0  0.00000000000E+00  0.00000000000E+00  0.45593999997E+02  0.45594000000E+02  0.51100000000E-03 0.  1.
         11   -1    0    0    0    0 -0.00000000000E+00 -0.00000000000E+00 -0.45593999997E+02  0.45594000000E+02  0.51100000000E-03 0. -1.
    9900012    2    1    2    0    0  0.96136279041E+01  0.31430940886E+02 -0.28342493930E+02  0.47787275944E+02  0.20000022337E+02 0.  0.
        -12    1    1    2    0    0 -0.96136279041E+01 -0.31430940886E+02  0.28342493930E+02  0.43400724056E+02  0.00000000000E+00 0.  1.
         11    1    3    3    0    0  0.11438825118E+02  0.29039115485E+02 -0.20724507578E+02  0.37464945788E+02  0.51100000000E-03 0. -1.
        -11    1    3    3    0    0 -0.17937447393E+01  0.29898336641E+01 -0.85391995270E+01  0.92235868485E+01  0.51100000000E-03 0.  1.
         12    1    3    3    0    0 -0.31452475122E-01 -0.59800826371E+00  0.92121317499E+00  0.10987433073E+01  0.00000000000E+00 0. -1.
</event>
<event>
 7    1  0.2655656E-009  0.4778727E+02  0.7816164E-02  0.1312668E+00
        -11   -1    0    0    0    0  0.00000000000E+00  0.00000000000E+00  0.45593999997E+02  0.45594000000E+02  0.51100000000E-03 0. -1.
         11   -1    0    0    0    0 -0.00000000000E+00 -0.00000000000E+00 -0.45593999997E+02  0.45594000000E+02  0.51100000000E-03 0.  1.
    9900012    2    1    2    0    0  0.14389871806E+02 -0.19574908097E+02  0.35963560842E+02  0.47787272517E+02  0.20000006716E+02 0.  0.
        -12    1    1    2    0    0 -0.14389871806E+02  0.19574908097E+02 -0.35963560842E+02  0.43400727483E+02  0.00000000000E+00 0.  1.
         11    1    3    3    0    0  0.14275586968E+02 -0.13328993323E+02  0.28665728822E+02  0.34686862865E+02  0.51100000000E-03 0. -1.
        -11    1    3    3    0    0  0.73292477758E+00  0.20200963185E+01  0.31976303251E+01  0.38526364768E+01  0.51100000000E-03 0.  1.
         12    1    3    3    0    0 -0.61863993924E+00 -0.82660110932E+01  0.41002016942E+01  0.92477731752E+01  0.00000000000E+00 0. -1.
</event>
<event>
 7    1  0.2655656E-009  0.4778727E+02  0.7816164E-02  0.1312668E+00
        -11   -1    0    0    0    0  0.00000000000E+00  0.00000000000E+00  0.45593999997E+02  0.45594000000E+02  0.51100000000E-03 0.  1.
         11   -1    0    0    0    0 -0.00000000000E+00 -0.00000000000E+00 -0.45593999997E+02  0.45594000000E+02  0.51100000000E-03 0. -1.
    9900012    2    1    2    0    0  0.26403212281E+02 -0.31655736833E+02 -0.13579692427E+02  0.47787270287E+02  0.19999996547E+02 0.  0.
        -12    1    1    2    0    0 -0.26403212281E+02  0.31655736833E+02  0.13579692427E+02  0.43400729713E+02  0.00000000000E+00 0.  1.
         11    1    3    3    0    0  0.82358380319E+01 -0.91712174635E+01 -0.58719842809E+01  0.13653587716E+02  0.51100000000E-03 0. -1.
        -11    1    3    3    0    0  0.11969984404E+02 -0.22446966351E+02 -0.16897890590E+01  0.25495140955E+02  0.51100000000E-03 0.  1.
        -12    1    3    3    0    0  0.61973898451E+01 -0.37553018413E-01 -0.60179190869E+01  0.86385416164E+01  0.00000000000E+00 0.  1.
</event>
<event>
 7    1  0.2655656E-009  0.4778727E+02  0.7816164E-02  0.1312668E+00
        -11   -1    0    0    0    0  0.00000000000E+00  0.00000000000E+00  0.45593999997E+02  0.45594000000E+02  0.51100000000E-03 0.  1.
         11   -1    0    0    0    0 -0.00000000000E+00 -0.00000000000E+00 -0.45593999997E+02  0.45594000000E+02  0.51100000000E-03 0. -1.
    9900012    2    1    2    0    0  0.17158379857E+02  0.21748056440E+02 -0.33410111639E+02  0.47787268233E+02  0.19999987180E+02 0.  0.
        -12    1    1    2    0    0 -0.17158379857E+02 -0.21748056440E+02  0.33410111639E+02  0.43400731767E+02  0.00000000000E+00 0.  1.
         11    1    3    3    0    0  0.13022311907E+02  0.35234558530E+01 -0.21630491937E+02  0.25492617172E+02  0.51100000000E-03 0. -1.
        -11    1    3    3    0    0  0.30908511116E+01  0.13334632938E+02 -0.69866411470E+01  0.15368114750E+02  0.51100000000E-03 0.  1.
         12    1    3    3    0    0  0.10452168385E+01  0.48899676483E+01 -0.47929785546E+01  0.69265363109E+01  0.00000000000E+00 0. -1.
</event>
<event>
 7    1  0.2655656E-009  0.4778727E+02  0.7816164E-02  0.1312668E+00
        -11   -1    0    0    0    0  0.00000000000E+00  0.00000000000E+00  0.45593999997E+02  0.45594000000E+02  0.51100000000E-03 0.  1.
         11   -1    0    0    0    0 -0.00000000000E+00 -0.00000000000E+00 -0.45593999997E+02  0.45594000000E+02  0.51100000000E-03 0. -1.
    9900012    2    1    2    0    0 -0.23537658093E+02 -0.16836433450E+01 -0.36424813365E+02  0.47787273830E+02  0.20000012701E+02 0.  0.
        -12    1    1    2    0    0  0.23537658093E+02  0.16836433450E+01  0.36424813365E+02  0.43400726170E+02  0.00000000000E+00 0.  1.
         11    1    3    3    0    0 -0.20283983117E+02 -0.43068539217E+01 -0.27250515665E+02  0.34242949144E+02  0.51100000000E-03 0. -1.
        -11    1    3    3    0    0 -0.79275530360E+00  0.43754502299E+01 -0.95163703518E+01  0.10504014976E+02  0.51100000000E-03 0.  1.
         12    1    3    3    0    0 -0.24609196720E+01 -0.17522396531E+01  0.34207265213E+00  0.30403097101E+01  0.00000000000E+00 0. -1.
</event>
<event>
 7    1  0.2655656E-009  0.4778727E+02  0.7816164E-02  0.1312668E+00
        -11   -1    0    0    0    0  0.00000000000E+00  0.00000000000E+00  0.45593999997E+02  0.45594000000E+02  0.51100000000E-03 0.  1.
         11   -1    0    0    0    0 -0.00000000000E+00 -0.00000000000E+00 -0.45593999997E+02  0.45594000000E+02  0.51100000000E-03 0. -1.
    9900012    2    1    2    0    0  0.22698879211E+01  0.42246572856E+02 -0.96797738235E+01  0.47787270392E+02  0.19999997024E+02 0.  0.
        -12    1    1    2    0    0 -0.22698879211E+01 -0.42246572856E+02  0.96797738235E+01  0.43400729608E+02  0.00000000000E+00 0.  1.
         11    1    3    3    0    0  0.48713071197E+01  0.22745835878E+02 -0.11521132100E+02  0.25958412278E+02  0.51100000000E-03 0. -1.
        -11    1    3    3    0    0 -0.23888493886E+01  0.24657542009E+00  0.85173988795E+00  0.25481094830E+01  0.51100000000E-03 0.  1.
         12    1    3    3    0    0 -0.21256981000E+00  0.19254161558E+02  0.98961838827E+00  0.19280748631E+02  0.00000000000E+00 0. -1.
</event>
<event>
 7    1  0.2655656E-009  0.4778727E+02  0.7816164E-02  0.1312668E+00
        -11   -1    0    0    0    0  0.00000000000E+00  0.00000000000E+00  0.45593999997E+02  0.45594000000E+02  0.51100000000E-03 0. -1.
         11   -1    0    0    0    0 -0.00000000000E+00 -0.00000000000E+00 -0.45593999997E+02  0.45594000000E+02  0.51100000000E-03 0.  1.
    9900012    2    1    2    0    0 -0.11191998867E+02  0.34682934811E+02  0.23568124573E+02  0.47787270725E+02  0.19999998542E+02 0.  0.
        -12    1    1    2    0    0  0.11191998867E+02 -0.34682934811E+02 -0.23568124573E+02  0.43400729275E+02  0.00000000000E+00 0.  1.
         11    1    3    3    0    0 -0.34125050689E+01  0.15470605493E+02  0.18524924112E+02  0.24375348998E+02  0.51100000000E-03 0. -1.
        -11    1    3    3    0    0 -0.50020578034E+01  0.17288336093E+02  0.72211349710E+01  0.19392058624E+02  0.51100000000E-03 0.  1.
         12    1    3    3    0    0 -0.27774359948E+01  0.19239932247E+01 -0.21779345097E+01  0.40198631025E+01  0.00000000000E+00 0. -1.
</event>
<event>
 7    1  0.2655656E-009  0.4778727E+02  0.7816164E-02  0.1312668E+00
        -11   -1    0    0    0    0  0.00000000000E+00  0.00000000000E+00  0.45593999997E+02  0.45594000000E+02  0.51100000000E-03 0.  1.
         11   -1    0    0    0    0 -0.00000000000E+00 -0.00000000000E+00 -0.45593999997E+02  0.45594000000E+02  0.51100000000E-03 0. -1.
    9900012    2    1    2    0    0 -0.18909127351E+02  0.20972918826E+02 -0.32957618343E+02  0.47787273876E+02  0.20000012910E+02 0.  0.
        -12    1    1    2    0    0  0.18909127351E+02 -0.20972918826E+02  0.32957618343E+02  0.43400726124E+02  0.00000000000E+00 0.  1.
         11    1    3    3    0    0  0.26620121449E+01  0.51784168456E+00 -0.95613897017E+01  0.99385432513E+01  0.51100000000E-03 0. -1.
        -11    1    3    3    0    0 -0.10838044507E+02  0.10603069693E+02 -0.12626290593E+02  0.19730978436E+02  0.51100000000E-03 0.  1.
         12    1    3    3    0    0 -0.10733094989E+02  0.98520074480E+01 -0.10769938049E+02  0.18117752189E+02  0.00000000000E+00 0. -1.
</event>
<event>
 7    1  0.2655656E-009  0.4778728E+02  0.7816164E-02  0.1312668E+00
        -11   -1    0    0    0    0  0.00000000000E+00  0.00000000000E+00  0.45593999997E+02  0.45594000000E+02  0.51100000000E-03 0.  1.
         11   -1    0    0    0    0 -0.00000000000E+00 -0.00000000000E+00 -0.45593999997E+02  0.45594000000E+02  0.51100000000E-03 0. -1.
    9900012    2    1    2    0    0  0.40336671676E+02  0.44886181321E+01 -0.15376215993E+02  0.47787276585E+02  0.20000025262E+02 0.  0.
        -12    1    1    2    0    0 -0.40336671676E+02 -0.44886181321E+01  0.15376215993E+02  0.43400723415E+02  0.00000000000E+00 0.  1.
         11    1    3    3    0    0  0.18717083293E+02 -0.27357922793E+01 -0.12405807754E+02  0.22621181063E+02  0.51100000000E-03 0. -1.
        -11    1    3    3    0    0  0.16208021767E+02  0.98573365245E+01 -0.21211271953E+01  0.19088379548E+02  0.51100000000E-03 0.  1.
        -12    1    3    3    0    0  0.54115666167E+01 -0.26329261130E+01 -0.84928104395E+00  0.60777159736E+01  0.00000000000E+00 0.  1.
</event>
<event>
 7    1  0.2655656E-009  0.4778726E+02  0.7816164E-02  0.1312668E+00
        -11   -1    0    0    0    0  0.00000000000E+00  0.00000000000E+00  0.45593999997E+02  0.45594000000E+02  0.51100000000E-03 0.  1.
         11   -1    0    0    0    0 -0.00000000000E+00 -0.00000000000E+00 -0.45593999997E+02  0.45594000000E+02  0.51100000000E-03 0. -1.
    9900012    2    1    2    0    0  0.42253644187E+02 -0.83991596285E+01  0.52638432363E+01  0.47787258357E+02  0.19999942155E+02 0.  0.
        -12    1    1    2    0    0 -0.42253644187E+02  0.83991596285E+01 -0.52638432363E+01  0.43400741643E+02  0.00000000000E+00 0.  1.
         11    1    3    3    0    0  0.20860469776E+02 -0.24935738227E+01 -0.15263169289E+01  0.21064347921E+02  0.51100000000E-03 0. -1.
        -11    1    3    3    0    0  0.13407408961E+02 -0.10132373228E+02  0.46660968858E+01  0.17441217351E+02  0.51100000000E-03 0.  1.
        -12    1    3    3    0    0  0.79857654497E+01  0.42267874220E+01  0.21240632794E+01  0.92816930860E+01  0.00000000000E+00 0.  1.
</event>
<event>
 7    1  0.2655656E-009  0.4778727E+02  0.7816164E-02  0.1312668E+00
        -11   -1    0    0    0    0  0.00000000000E+00  0.00000000000E+00  0.45593999997E+02  0.45594000000E+02  0.51100000000E-03 0.  1.
         11   -1    0    0    0    0 -0.00000000000E+00 -0.00000000000E+00 -0.45593999997E+02  0.45594000000E+02  0.51100000000E-03 0. -1.
    9900012    2    1    2    0    0  0.86333557643E+01 -0.36686679718E+02 -0.21521523068E+02  0.47787271254E+02  0.20000000957E+02 0.  0.
        -12    1    1    2    0    0 -0.86333557643E+01  0.36686679718E+02  0.21521523068E+02  0.43400728746E+02  0.00000000000E+00 0.  1.
         11    1    3    3    0    0 -0.27255999201E+01 -0.22299595896E+02 -0.59425753371E+01  0.23238224414E+02  0.51100000000E-03 0. -1.
        -11    1    3    3    0    0  0.47577310242E+01 -0.42444311001E+01 -0.81554613993E+01  0.10351944298E+02  0.51100000000E-03 0.  1.
         12    1    3    3    0    0  0.66012246603E+01 -0.10142652722E+02 -0.74234863316E+01  0.14197102542E+02  0.00000000000E+00 0. -1.
</event>
<event>
 7    1  0.2655656E-009  0.4778727E+02  0.7816164E-02  0.1312668E+00
        -11   -1    0    0    0    0  0.00000000000E+00  0.00000000000E+00  0.45593999997E+02  0.45594000000E+02  0.51100000000E-03 0.  1.
         11   -1    0    0    0    0 -0.00000000000E+00 -0.00000000000E+00 -0.45593999997E+02  0.45594000000E+02  0.51100000000E-03 0. -1.
    9900012    2    1    2    0    0 -0.32326417864E+01 -0.37791731450E+02 -0.21094036568E+02  0.47787270540E+02  0.19999997699E+02 0.  0.
        -12    1    1    2    0    0  0.32326417864E+01  0.37791731450E+02  0.21094036568E+02  0.43400729460E+02  0.00000000000E+00 0.  1.
         11    1    3    3    0    0 -0.17874730923E+01 -0.37979732780E+01 -0.44537310166E+01  0.61200801715E+01  0.51100000000E-03 0. -1.
        -11    1    3    3    0    0 -0.87934707180E+01 -0.25085989900E+02 -0.12748530728E+02  0.29481469646E+02  0.51100000000E-03 0.  1.
        -12    1    3    3    0    0  0.73483020239E+01 -0.89077682724E+01 -0.38917748239E+01  0.12185720722E+02  0.00000000000E+00 0.  1.
</event>
<event>
 7    1  0.2655656E-009  0.4778728E+02  0.7816164E-02  0.1312668E+00
        -11   -1    0    0    0    0  0.00000000000E+00  0.00000000000E+00  0.45593999997E+02  0.45594000000E+02  0.51100000000E-03 0.  1.
         11   -1    0    0    0    0 -0.00000000000E+00 -0.00000000000E+00 -0.45593999997E+02  0.45594000000E+02  0.51100000000E-03 0. -1.
    9900012    2    1    2    0    0 -0.13431509396E+02  0.29754806239E+02 -0.28598402225E+02  0.47787279398E+02  0.20000038086E+02 0.  0.
        -12    1    1    2    0    0  0.13431509396E+02 -0.29754806239E+02  0.28598402225E+02  0.43400720602E+02  0.00000000000E+00 0.  1.
         11    1    3    3    0    0 -0.14832067656E+01  0.76775471881E+01 -0.13325107425E+02  0.15450020107E+02  0.51100000000E-03 0. -1.
        -11    1    3    3    0    0  0.46027757590E+00  0.34704232773E+01  0.20420336067E+01  0.40528501925E+01  0.51100000000E-03 0.  1.
        -12    1    3    3    0    0 -0.12408580206E+02  0.18606835774E+02 -0.17315328406E+02  0.28284409099E+02  0.00000000000E+00 0.  1.
</event>
<event>
 7    1  0.2655656E-009  0.4778727E+02  0.7816164E-02  0.1312668E+00
        -11   -1    0    0    0    0  0.00000000000E+00  0.00000000000E+00  0.45593999997E+02  0.45594000000E+02  0.51100000000E-03 0. -1.
         11   -1    0    0    0    0 -0.00000000000E+00 -0.00000000000E+00 -0.45593999997E+02  0.45594000000E+02  0.51100000000E-03 0.  1.
    9900012    2    1    2    0    0  0.34305043750E+02 -0.17949271105E+02  0.19611502244E+02  0.47787269820E+02  0.19999994418E+02 0.  0.
        -12    1    1    2    0    0 -0.34305043750E+02  0.17949271105E+02 -0.19611502244E+02  0.43400730180E+02  0.00000000000E+00 0.  1.
         11    1    3    3    0    0  0.19958283061E+02 -0.89538258346E+01  0.11026256200E+02  0.24496579065E+02  0.51100000000E-03 0. -1.
        -11    1    3    3    0    0  0.11614286153E-01  0.28297976077E+01  0.23839840784E+01  0.37001715824E+01  0.51100000000E-03 0.  1.
        -12    1    3    3    0    0  0.14335146402E+02 -0.11825242878E+02  0.62012619655E+01  0.19590519173E+02  0.00000000000E+00 0.  1.
</event>
<event>
 7    1  0.2655656E-009  0.4778728E+02  0.7816164E-02  0.1312668E+00
        -11   -1    0    0    0    0  0.00000000000E+00  0.00000000000E+00  0.45593999997E+02  0.45594000000E+02  0.51100000000E-03 0. -1.
         11   -1    0    0    0    0 -0.00000000000E+00 -0.00000000000E+00 -0.45593999997E+02  0.45594000000E+02  0.51100000000E-03 0.  1.
    9900012    2    1    2    0    0  0.22633939005E+02 -0.83282804567E+01  0.36082786217E+02  0.47787275220E+02  0.20000019037E+02 0.  0.
        -12    1    1    2    0    0 -0.22633939005E+02  0.83282804567E+01 -0.36082786217E+02  0.43400724780E+02  0.00000000000E+00 0.  1.
         11    1    3    3    0    0  0.17273250929E+02 -0.17254008051E+01  0.32710470210E+02  0.37031298482E+02  0.51100000000E-03 0. -1.
        -11    1    3    3    0    0  0.63668515886E+01 -0.65704053744E+01  0.33677009138E+01  0.97492787241E+01  0.51100000000E-03 0.  1.
         12    1    3    3    0    0 -0.10061635122E+01 -0.32474277252E-01  0.46150928377E-02  0.10066980139E+01  0.00000000000E+00 0. -1.
</event>
<event>
 7    1  0.2655656E-009  0.4778727E+02  0.7816164E-02  0.1312668E+00
        -11   -1    0    0    0    0  0.00000000000E+00  0.00000000000E+00  0.45593999997E+02  0.45594000000E+02  0.51100000000E-03 0. -1.
         11   -1    0    0    0    0 -0.00000000000E+00 -0.00000000000E+00 -0.45593999997E+02  0.45594000000E+02  0.51100000000E-03 0.  1.
    9900012    2    1    2    0    0  0.30867688453E+02  0.28278241655E+02  0.11452086078E+02  0.47787269395E+02  0.19999992479E+02 0.  0.
        -12    1    1    2    0    0 -0.30867688453E+02 -0.28278241655E+02 -0.11452086078E+02  0.43400730605E+02  0.00000000000E+00 0.  1.
         11    1    3    3    0    0  0.10509659312E+02  0.14557246020E+02  0.85718398715E+01  0.19895798290E+02  0.51100000000E-03 0. -1.
        -11    1    3    3    0    0  0.15558887054E+02  0.13823905899E+02 -0.21677057780E+01  0.20925541553E+02  0.51100000000E-03 0.  1.
        -12    1    3    3    0    0  0.47991420863E+01 -0.10291026421E+00  0.50479519844E+01  0.69659295521E+01  0.00000000000E+00 0.  1.
</event>
<event>
 7    1  0.2655656E-009  0.4778727E+02  0.7816164E-02  0.1312668E+00
        -11   -1    0    0    0    0  0.00000000000E+00  0.00000000000E+00  0.45593999997E+02  0.45594000000E+02  0.51100000000E-03 0.  1.
         11   -1    0    0    0    0 -0.00000000000E+00 -0.00000000000E+00 -0.45593999997E+02  0.45594000000E+02  0.51100000000E-03 0. -1.
    9900012    2    1    2    0    0  0.30085110292E+02 -0.10284243848E+02 -0.29542232728E+02  0.47787273654E+02  0.20000011897E+02 0.  0.
        -12    1    1    2    0    0 -0.30085110292E+02  0.10284243848E+02  0.29542232728E+02  0.43400726346E+02  0.00000000000E+00 0.  1.
         11    1    3    3    0    0  0.13147005369E+02 -0.12312103769E+02 -0.11658449649E+02  0.21455794040E+02  0.51100000000E-03 0. -1.
        -11    1    3    3    0    0  0.10699442189E+01 -0.95987975612E+00  0.79366297137E+00  0.16419655755E+01  0.51100000000E-03 0.  1.
         12    1    3    3    0    0  0.15868160704E+02  0.29877396770E+01 -0.18677446050E+02  0.24689514039E+02  0.00000000000E+00 0. -1.
</event>
<event>
 7    1  0.2655656E-009  0.4778727E+02  0.7816164E-02  0.1312668E+00
        -11   -1    0    0    0    0  0.00000000000E+00  0.00000000000E+00  0.45593999997E+02  0.45594000000E+02  0.51100000000E-03 0. -1.
         11   -1    0    0    0    0 -0.00000000000E+00 -0.00000000000E+00 -0.45593999997E+02  0.45594000000E+02  0.51100000000E-03 0.  1.
    9900012    2    1    2    0    0  0.11530924287E+02 -0.93471432344E+00  0.41830461126E+02  0.47787269778E+02  0.19999994226E+02 0.  0.
        -12    1    1    2    0    0 -0.11530924287E+02  0.93471432344E+00 -0.41830461126E+02  0.43400730222E+02  0.00000000000E+00 0.  1.
         11    1    3    3    0    0  0.64771510935E+01  0.53434794374E+01  0.34776350227E+02  0.35775701169E+02  0.51100000000E-03 0. -1.
        -11    1    3    3    0    0  0.16116272868E+01 -0.39473773497E+01  0.55919473235E+00  0.43002127229E+01  0.51100000000E-03 0.  1.
         12    1    3    3    0    0  0.34421459066E+01 -0.23308164112E+01  0.64949161668E+01  0.77113558859E+01  0.00000000000E+00 0. -1.
</event>
<event>
 7    1  0.2655656E-009  0.4778729E+02  0.7816164E-02  0.1312668E+00
        -11   -1    0    0    0    0  0.00000000000E+00  0.00000000000E+00  0.45593999997E+02  0.45594000000E+02  0.51100000000E-03 0.  1.
         11   -1    0    0    0    0 -0.00000000000E+00 -0.00000000000E+00 -0.45593999997E+02  0.45594000000E+02  0.51100000000E-03 0. -1.
    9900012    2    1    2    0    0  0.26398615429E+02  0.27169094671E+02 -0.21179592704E+02  0.47787288613E+02  0.20000080101E+02 0.  0.
        -12    1    1    2    0    0 -0.26398615429E+02 -0.27169094671E+02  0.21179592704E+02  0.43400711387E+02  0.00000000000E+00 0.  1.
         11    1    3    3    0    0  0.16158778121E+02  0.21648718919E+02 -0.16539568664E+02  0.31675392232E+02  0.51100000000E-03 0. -1.
        -11    1    3    3    0    0 -0.35034993256E+00  0.37910881837E+01  0.10727483043E+01  0.39554878179E+01  0.51100000000E-03 0.  1.
         12    1    3    3    0    0  0.10590187241E+02  0.17292875681E+01 -0.57127723436E+01  0.12156408562E+02  0.00000000000E+00 0. -1.
</event>
<event>
 7    1  0.2655656E-009  0.4778728E+02  0.7816164E-02  0.1312668E+00
        -11   -1    0    0    0    0  0.00000000000E+00  0.00000000000E+00  0.45593999997E+02  0.45594000000E+02  0.51100000000E-03 0. -1.
         11   -1    0    0    0    0 -0.00000000000E+00 -0.00000000000E+00 -0.45593999997E+02  0.45594000000E+02  0.51100000000E-03 0.  1.
    9900012    2    1    2    0    0 -0.41315399412E+02 -0.12304785202E+02  0.50252006754E+01  0.47787278701E+02  0.20000034908E+02 0.  0.
        -12    1    1    2    0    0  0.41315399412E+02  0.12304785202E+02 -0.50252006754E+01  0.43400721299E+02  0.00000000000E+00 0.  1.
         11    1    3    3    0    0 -0.20271503778E+02 -0.10553475878E+02  0.86323508702E+01  0.24430047080E+02  0.51100000000E-03 0. -1.
        -11    1    3    3    0    0  0.26346647808E+00 -0.99253298939E+00 -0.16543054606E+01  0.19471166216E+01  0.51100000000E-03 0.  1.
         12    1    3    3    0    0 -0.21307362113E+02 -0.75877633456E+00 -0.19528447342E+01  0.21410114999E+02  0.00000000000E+00 0. -1.
</event>
<event>
 7    1  0.2655656E-009  0.4778726E+02  0.7816164E-02  0.1312668E+00
        -11   -1    0    0    0    0  0.00000000000E+00  0.00000000000E+00  0.45593999997E+02  0.45594000000E+02  0.51100000000E-03 0. -1.
         11   -1    0    0    0    0 -0.00000000000E+00 -0.00000000000E+00 -0.45593999997E+02  0.45594000000E+02  0.51100000000E-03 0.  1.
    9900012    2    1    2    0    0  0.26127996471E+02  0.34415170631E+02 -0.40679522365E+01  0.47787258019E+02  0.19999940611E+02 0.  0.
        -12    1    1    2    0    0 -0.26127996471E+02 -0.34415170631E+02  0.40679522365E+01  0.43400741981E+02  0.00000000000E+00 0.  1.
         11    1    3    3    0    0  0.21946911515E+02  0.19436895962E+02 -0.15768907864E+01  0.29358924274E+02  0.51100000000E-03 0. -1.
        -11    1    3    3    0    0  0.10187910611E+01 -0.12742404986E+01  0.23443433957E+00  0.16482062356E+01  0.51100000000E-03 0.  1.
         12    1    3    3    0    0  0.31622938948E+01  0.16252515167E+02 -0.27254957897E+01  0.16780127509E+02  0.00000000000E+00 0. -1.
</event>
<event>
 7    1  0.2655656E-009  0.4778729E+02  0.7816164E-02  0.1312668E+00
        -11   -1    0    0    0    0  0.00000000000E+00  0.00000000000E+00  0.45593999997E+02  0.45594000000E+02  0.51100000000E-03 0.  1.
         11   -1    0    0    0    0 -0.00000000000E+00 -0.00000000000E+00 -0.45593999997E+02  0.45594000000E+02  0.51100000000E-03 0. -1.
    9900012    2    1    2    0    0 -0.10071074060E+02 -0.23130208196E+00 -0.42215417030E+02  0.47787291844E+02  0.20000094834E+02 0.  0.
        -12    1    1    2    0    0  0.10071074060E+02  0.23130208196E+00  0.42215417030E+02  0.43400708156E+02  0.00000000000E+00 0.  1.
         11    1    3    3    0    0 -0.54386830645E+01 -0.13374040440E+01 -0.34035504697E+02  0.34493238515E+02  0.51100000000E-03 0. -1.
        -11    1    3    3    0    0 -0.59555021419E+01  0.31920291024E+01 -0.26876990788E+01  0.72719173642E+01  0.51100000000E-03 0.  1.
        -12    1    3    3    0    0  0.13231111464E+01 -0.20859271403E+01 -0.54922132551E+01  0.60221359649E+01  0.00000000000E+00 0.  1.
</event>
<event>
 7    1  0.2655656E-009  0.4778727E+02  0.7816164E-02  0.1312668E+00
        -11   -1    0    0    0    0  0.00000000000E+00  0.00000000000E+00  0.45593999997E+02  0.45594000000E+02  0.51100000000E-03 0.  1.
         11   -1    0    0    0    0 -0.00000000000E+00 -0.00000000000E+00 -0.45593999997E+02  0.45594000000E+02  0.51100000000E-03 0. -1.
    9900012    2    1    2    0    0 -0.38049773944E+01 -0.40932616746E+02 -0.13916399554E+02  0.47787272550E+02  0.20000006864E+02 0.  0.
        -12    1    1    2    0    0  0.38049773944E+01  0.40932616746E+02  0.13916399554E+02  0.43400727450E+02  0.00000000000E+00 0.  1.
         11    1    3    3    0    0 -0.12717437488E+01 -0.25120616002E+02 -0.60691385777E+00  0.25160107813E+02  0.51100000000E-03 0. -1.
        -11    1    3    3    0    0  0.24220690387E+01 -0.78611962041E+01 -0.31525205648E+01  0.88092684350E+01  0.51100000000E-03 0.  1.
         12    1    3    3    0    0 -0.49553026843E+01 -0.79508045403E+01 -0.10156965131E+02  0.13817896302E+02  0.00000000000E+00 0. -1.
</event>
<event>
 7    1  0.2655656E-009  0.4778728E+02  0.7816164E-02  0.1312668E+00
        -11   -1    0    0    0    0  0.00000000000E+00  0.00000000000E+00  0.45593999997E+02  0.45594000000E+02  0.51100000000E-03 0.  1.
         11   -1    0    0    0    0 -0.00000000000E+00 -0.00000000000E+00 -0.45593999997E+02  0.45594000000E+02  0.51100000000E-03 0. -1.
    9900012    2    1    2    0    0  0.15401333014E+02  0.15236197882E+02 -0.37606912008E+02  0.47787278631E+02  0.20000034592E+02 0.  0.
        -12    1    1    2    0    0 -0.15401333014E+02 -0.15236197882E+02  0.37606912008E+02  0.43400721369E+02  0.00000000000E+00 0.  1.
         11    1    3    3    0    0  0.25503045440E+01  0.55798573816E+01 -0.16365348472E+02  0.17477513912E+02  0.51100000000E-03 0. -1.
        -11    1    3    3    0    0  0.15673432859E+02  0.65832860285E+01 -0.19263983517E+02  0.25692357107E+02  0.51100000000E-03 0.  1.
        -12    1    3    3    0    0 -0.28224043894E+01  0.30730544717E+01 -0.19775800192E+01  0.46174076121E+01  0.00000000000E+00 0.  1.
</event>
<event>
 7    1  0.2655656E-009  0.4778727E+02  0.7816164E-02  0.1312668E+00
        -11   -1    0    0    0    0  0.00000000000E+00  0.00000000000E+00  0.45593999997E+02  0.45594000000E+02  0.51100000000E-03 0.  1.
         11   -1    0    0    0    0 -0.00000000000E+00 -0.00000000000E+00 -0.45593999997E+02  0.45594000000E+02  0.51100000000E-03 0. -1.
    9900012    2    1    2    0    0  0.39394276596E+02  0.12907839856E+02 -0.12849194410E+02  0.47787272411E+02  0.20000006230E+02 0.  0.
        -12    1    1    2    0    0 -0.39394276596E+02 -0.12907839856E+02  0.12849194410E+02  0.43400727589E+02  0.00000000000E+00 0.  1.
         11    1    3    3    0    0  0.17500716240E+02  0.97526246209E+01  0.70038926861E+00  0.20046927478E+02  0.51100000000E-03 0. -1.
        -11    1    3    3    0    0  0.12282729889E+02  0.47823623795E+01 -0.12086587824E+02  0.17883569245E+02  0.51100000000E-03 0.  1.
        -12    1    3    3    0    0  0.96108304669E+01 -0.16271471445E+01 -0.14629958549E+01  0.98567756880E+01  0.00000000000E+00 0.  1.
</event>
<event>
 7    1  0.2655656E-009  0.4778731E+02  0.7816164E-02  0.1312668E+00
        -11   -1    0    0    0    0  0.00000000000E+00  0.00000000000E+00  0.45593999997E+02  0.45594000000E+02  0.51100000000E-03 0. -1.
         11   -1    0    0    0    0 -0.00000000000E+00 -0.00000000000E+00 -0.45593999997E+02  0.45594000000E+02  0.51100000000E-03 0.  1.
    9900012    2    1    2    0    0 -0.12541004296E+01  0.42577872031E+02 -0.83169729067E+01  0.47787308843E+02  0.20000172340E+02 0.  0.
        -12    1    1    2    0    0  0.12541004296E+01 -0.42577872031E+02  0.83169729067E+01  0.43400691157E+02  0.00000000000E+00 0.  1.
         11    1    3    3    0    0 -0.14282130640E+01  0.33307834733E+02 -0.56357758794E+00  0.33343204211E+02  0.51100000000E-03 0. -1.
        -11    1    3    3    0    0  0.34441468544E+00  0.59204946558E+01 -0.90735641206E+01  0.10839762200E+02  0.51100000000E-03 0.  1.
         12    1    3    3    0    0 -0.17030205111E+00  0.33495426421E+01  0.13201688019E+01  0.36043424318E+01  0.00000000000E+00 0. -1.
</event>
<event>
 7    1  0.2655656E-009  0.4778733E+02  0.7816164E-02  0.1312667E+00
        -11   -1    0    0    0    0  0.00000000000E+00  0.00000000000E+00  0.45593999997E+02  0.45594000000E+02  0.51100000000E-03 0. -1.
         11   -1    0    0    0    0 -0.00000000000E+00 -0.00000000000E+00 -0.45593999997E+02  0.45594000000E+02  0.51100000000E-03 0.  1.
    9900012    2    1    2    0    0 -0.24946976839E+02 -0.33960671040E+01  0.35351562971E+02  0.47787332613E+02  0.20000280713E+02 0.  0.
        -12    1    1    2    0    0  0.24946976839E+02  0.33960671040E+01 -0.35351562971E+02  0.43400667387E+02  0.00000000000E+00 0.  1.
         11    1    3    3    0    0 -0.12950729691E+02 -0.26086686824E+01  0.19583173765E+02  0.23622600339E+02  0.51100000000E-03 0. -1.
        -11    1    3    3    0    0  0.59498106858E+00  0.38156625128E+01  0.74389878972E+01  0.83816361219E+01  0.51100000000E-03 0.  1.
        -12    1    3    3    0    0 -0.12591228217E+02 -0.46030609344E+01  0.83294013088E+01  0.15783096152E+02  0.00000000000E+00 0.  1.
</event>
<event>
 7    1  0.2655656E-009  0.4778727E+02  0.7816164E-02  0.1312668E+00
        -11   -1    0    0    0    0  0.00000000000E+00  0.00000000000E+00  0.45593999997E+02  0.45594000000E+02  0.51100000000E-03 0. -1.
         11   -1    0    0    0    0 -0.00000000000E+00 -0.00000000000E+00 -0.45593999997E+02  0.45594000000E+02  0.51100000000E-03 0.  1.
    9900012    2    1    2    0    0  0.19595961402E+01 -0.42799980620E+02 -0.69242304270E+01  0.47787270454E+02  0.19999997307E+02 0.  0.
        -12    1    1    2    0    0 -0.19595961402E+01  0.42799980620E+02  0.69242304270E+01  0.43400729546E+02  0.00000000000E+00 0.  1.
         11    1    3    3    0    0  0.14181612702E+01 -0.31112151747E+02 -0.28374510795E+00  0.31145748976E+02  0.51100000000E-03 0. -1.
        -11    1    3    3    0    0  0.13153463015E+01 -0.66169469943E+01 -0.87893439393E+01  0.11080013112E+02  0.51100000000E-03 0.  1.
         12    1    3    3    0    0 -0.77391143147E+00 -0.50708818792E+01  0.21488586203E+01  0.55615083662E+01  0.00000000000E+00 0. -1.
</event>
<event>
 7    1  0.2655656E-009  0.4778727E+02  0.7816164E-02  0.1312668E+00
        -11   -1    0    0    0    0  0.00000000000E+00  0.00000000000E+00  0.45593999997E+02  0.45594000000E+02  0.51100000000E-03 0.  1.
         11   -1    0    0    0    0 -0.00000000000E+00 -0.00000000000E+00 -0.45593999997E+02  0.45594000000E+02  0.51100000000E-03 0. -1.
    9900012    2    1    2    0    0  0.22849263010E+02  0.34712250048E+02 -0.12513774860E+02  0.47787266311E+02  0.19999978419E+02 0.  0.
        -12    1    1    2    0    0 -0.22849263010E+02 -0.34712250048E+02  0.12513774860E+02  0.43400733689E+02  0.00000000000E+00 0.  1.
         11    1    3    3    0    0  0.16458625734E+02  0.15773901056E+02 -0.56348480585E+01  0.23483054071E+02  0.51100000000E-03 0. -1.
        -11    1    3    3    0    0 -0.91133336277E+00  0.38345205835E+01  0.28932521194E+01  0.48892724092E+01  0.51100000000E-03 0.  1.
        -12    1    3    3    0    0  0.73019706390E+01  0.15103828408E+02 -0.97721789211E+01  0.19414939831E+02  0.00000000000E+00 0.  1.
</event>
<event>
 7    1  0.2655656E-009  0.4778727E+02  0.7816164E-02  0.1312668E+00
        -11   -1    0    0    0    0  0.00000000000E+00  0.00000000000E+00  0.45593999997E+02  0.45594000000E+02  0.51100000000E-03 0.  1.
         11   -1    0    0    0    0 -0.00000000000E+00 -0.00000000000E+00 -0.45593999997E+02  0.45594000000E+02  0.51100000000E-03 0. -1.
    9900012    2    1    2    0    0 -0.50183717083E+00  0.98534270303E+01 -0.42264427118E+02  0.47787266545E+02  0.19999979487E+02 0.  0.
        -12    1    1    2    0    0  0.50183717083E+00 -0.98534270303E+01  0.42264427118E+02  0.43400733455E+02  0.00000000000E+00 0.  1.
         11    1    3    3    0    0 -0.13903589999E+01  0.17538900350E+01 -0.28958257913E+02  0.29044619640E+02  0.51100000000E-03 0. -1.
        -11    1    3    3    0    0  0.14327506603E+01  0.10321586578E+02 -0.86043291160E+01  0.13513785692E+02  0.51100000000E-03 0.  1.
        -12    1    3    3    0    0 -0.54422883121E+00 -0.22220495823E+01 -0.47018400885E+01  0.52288612130E+01  0.00000000000E+00 0.  1.
</event>
<event>
 7    1  0.2655656E-009  0.4778727E+02  0.7816164E-02  0.1312668E+00
        -11   -1    0    0    0    0  0.00000000000E+00  0.00000000000E+00  0.45593999997E+02  0.45594000000E+02  0.51100000000E-03 0. -1.
         11   -1    0    0    0    0 -0.00000000000E+00 -0.00000000000E+00 -0.45593999997E+02  0.45594000000E+02  0.51100000000E-03 0.  1.
    9900012    2    1    2    0    0 -0.16586643262E+02  0.11665859536E+02  0.38372055463E+02  0.47787266667E+02  0.19999980040E+02 0.  0.
        -12    1    1    2    0    0  0.16586643262E+02 -0.11665859536E+02 -0.38372055463E+02  0.43400733333E+02  0.00000000000E+00 0.  1.
         11    1    3    3    0    0 -0.16606284792E+02  0.36167038024E+01  0.19899131008E+02  0.26169154670E+02  0.51100000000E-03 0. -1.
        -11    1    3    3    0    0 -0.38883395418E+01  0.36429424114E+01  0.82902924920E+01  0.98549055637E+01  0.51100000000E-03 0.  1.
         12    1    3    3    0    0  0.39079810718E+01  0.44062133224E+01  0.10182631963E+02  0.11763206433E+02  0.00000000000E+00 0. -1.
</event>
<event>
 7    1  0.2655656E-009  0.4778727E+02  0.7816164E-02  0.1312668E+00
        -11   -1    0    0    0    0  0.00000000000E+00  0.00000000000E+00  0.45593999997E+02  0.45594000000E+02  0.51100000000E-03 0. -1.
         11   -1    0    0    0    0 -0.00000000000E+00 -0.00000000000E+00 -0.45593999997E+02  0.45594000000E+02  0.51100000000E-03 0.  1.
    9900012    2    1    2    0    0 -0.40072744643E+02  0.15796882012E+02 -0.53157148842E+01  0.47787272250E+02  0.20000005495E+02 0.  0.
        -12    1    1    2    0    0  0.40072744643E+02 -0.15796882012E+02  0.53157148842E+01  0.43400727750E+02  0.00000000000E+00 0.  1.
         11    1    3    3    0    0 -0.35180456692E+02  0.96906261174E+01 -0.58169567589E+01  0.36951451308E+02  0.51100000000E-03 0. -1.
        -11    1    3    3    0    0  0.57962511491E+00  0.13236206847E+01 -0.25681928406E+01  0.29467866768E+01  0.51100000000E-03 0.  1.
        -12    1    3    3    0    0 -0.54719130660E+01  0.47826352104E+01  0.30694347153E+01  0.78890342646E+01  0.00000000000E+00 0.  1.
</event>
<event>
 7    1  0.2655656E-009  0.4778727E+02  0.7816164E-02  0.1312668E+00
        -11   -1    0    0    0    0  0.00000000000E+00  0.00000000000E+00  0.45593999997E+02  0.45594000000E+02  0.51100000000E-03 0. -1.
         11   -1    0    0    0    0 -0.00000000000E+00 -0.00000000000E+00 -0.45593999997E+02  0.45594000000E+02  0.51100000000E-03 0.  1.
    9900012    2    1    2    0    0 -0.13809141627E+02  0.30864063659E+02  0.27209195791E+02  0.47787272430E+02  0.20000006317E+02 0.  0.
        -12    1    1    2    0    0  0.13809141627E+02 -0.30864063659E+02 -0.27209195791E+02  0.43400727570E+02  0.00000000000E+00 0.  1.
         11    1    3    3    0    0 -0.74192510404E+01  0.21205392764E+02  0.18257347536E+02  0.28949001841E+02  0.51100000000E-03 0. -1.
        -11    1    3    3    0    0 -0.26799959260E+00  0.56748040346E+01 -0.16934505997E+01  0.59281531532E+01  0.51100000000E-03 0.  1.
         12    1    3    3    0    0 -0.61218909943E+01  0.39838668607E+01  0.10645298854E+02  0.12910117436E+02  0.00000000000E+00 0. -1.
</event>
<event>
 7    1  0.2655656E-009  0.4778727E+02  0.7816164E-02  0.1312668E+00
        -11   -1    0    0    0    0  0.00000000000E+00  0.00000000000E+00  0.45593999997E+02  0.45594000000E+02  0.51100000000E-03 0.  1.
         11   -1    0    0    0    0 -0.00000000000E+00 -0.00000000000E+00 -0.45593999997E+02  0.45594000000E+02  0.51100000000E-03 0. -1.
    9900012    2    1    2    0    0  0.42899035273E+02  0.13773635133E+01 -0.64342031115E+01  0.47787270429E+02  0.19999997193E+02 0.  0.
        -12    1    1    2    0    0 -0.42899035273E+02 -0.13773635133E+01  0.64342031115E+01  0.43400729571E+02  0.00000000000E+00 0.  1.
         11    1    3    3    0    0  0.28362638172E+02  0.97536888852E+00 -0.11632995473E+02  0.30671112997E+02  0.51100000000E-03 0. -1.
        -11    1    3    3    0    0  0.93108578196E+01  0.37641159196E+01  0.38645009619E+01  0.10760808982E+02  0.51100000000E-03 0.  1.
         12    1    3    3    0    0  0.52255392814E+01 -0.33621212948E+01  0.13342913992E+01  0.63553484500E+01  0.00000000000E+00 0. -1.
</event>
<event>
 7    1  0.2655656E-009  0.4778727E+02  0.7816164E-02  0.1312668E+00
        -11   -1    0    0    0    0  0.00000000000E+00  0.00000000000E+00  0.45593999997E+02  0.45594000000E+02  0.51100000000E-03 0.  1.
         11   -1    0    0    0    0 -0.00000000000E+00 -0.00000000000E+00 -0.45593999997E+02  0.45594000000E+02  0.51100000000E-03 0. -1.
    9900012    2    1    2    0    0 -0.41929571416E+01  0.21798268971E+00 -0.43197162060E+02  0.47787271711E+02  0.20000003037E+02 0.  0.
        -12    1    1    2    0    0  0.41929571416E+01 -0.21798268971E+00  0.43197162060E+02  0.43400728289E+02  0.00000000000E+00 0.  1.
         11    1    3    3    0    0 -0.52394248344E+01 -0.18344459344E+01 -0.82406028514E+01  0.99360102705E+01  0.51100000000E-03 0. -1.
        -11    1    3    3    0    0  0.45948845054E+01  0.69007592064E+01 -0.23417377159E+02  0.24841638322E+02  0.51100000000E-03 0.  1.
        -12    1    3    3    0    0 -0.35484168126E+01 -0.48483305822E+01 -0.11539182049E+02  0.13009623118E+02  0.00000000000E+00 0.  1.
</event>
<event>
 7    1  0.2655656E-009  0.4778727E+02  0.7816164E-02  0.1312668E+00
        -11   -1    0    0    0    0  0.00000000000E+00  0.00000000000E+00  0.45593999997E+02  0.45594000000E+02  0.51100000000E-03 0.  1.
         11   -1    0    0    0    0 -0.00000000000E+00 -0.00000000000E+00 -0.45593999997E+02  0.45594000000E+02  0.51100000000E-03 0. -1.
    9900012    2    1    2    0    0  0.11131278896E+02  0.77744368549E+01 -0.41222276575E+02  0.47787270463E+02  0.19999997351E+02 0.  0.
        -12    1    1    2    0    0 -0.11131278896E+02 -0.77744368549E+01  0.41222276575E+02  0.43400729537E+02  0.00000000000E+00 0.  1.
         11    1    3    3    0    0  0.67237274538E+01  0.11417068721E+02 -0.16560350824E+02  0.21208564042E+02  0.51100000000E-03 0.  1.
        -11    1    3    3    0    0  0.66252414787E+01 -0.18190161853E+01 -0.14987258221E+02  0.16486981342E+02  0.51100000000E-03 0. -1.
         12    1    3    3    0    0 -0.22176900368E+01 -0.18236156808E+01 -0.96746675307E+01  0.10091725080E+02  0.00000000000E+00 0. -1.
</event>
<event>
 7    1  0.2655656E-009  0.4778728E+02  0.7816164E-02  0.1312668E+00
        -11   -1    0    0    0    0  0.00000000000E+00  0.00000000000E+00  0.45593999997E+02  0.45594000000E+02  0.51100000000E-03 0.  1.
         11   -1    0    0    0    0 -0.00000000000E+00 -0.00000000000E+00 -0.45593999997E+02  0.45594000000E+02  0.51100000000E-03 0. -1.
    9900012    2    1    2    0    0 -0.26517300849E+01  0.20125511595E+01 -0.43272865442E+02  0.47787275142E+02  0.20000018683E+02 0.  0.
        -12    1    1    2    0    0  0.26517300849E+01 -0.20125511595E+01  0.43272865442E+02  0.43400724858E+02  0.00000000000E+00 0.  1.
         11    1    3    3    0    0  0.26652650856E+00 -0.66118141572E+01 -0.24762429500E+02  0.25631329225E+02  0.51100000000E-03 0. -1.
        -11    1    3    3    0    0 -0.56600442003E+01  0.67323382975E+01 -0.14279851899E+02  0.16771244731E+02  0.51100000000E-03 0.  1.
         12    1    3    3    0    0  0.27417876068E+01  0.18920270191E+01 -0.42305840436E+01  0.53847011869E+01  0.00000000000E+00 0. -1.
</event>
<event>
 7    1  0.2655656E-009  0.4778727E+02  0.7816164E-02  0.1312668E+00
        -11   -1    0    0    0    0  0.00000000000E+00  0.00000000000E+00  0.45593999997E+02  0.45594000000E+02  0.51100000000E-03 0.  1.
         11   -1    0    0    0    0 -0.00000000000E+00 -0.00000000000E+00 -0.45593999997E+02  0.45594000000E+02  0.51100000000E-03 0. -1.
    9900012    2    1    2    0    0  0.32861798392E+02 -0.25422012579E+02  0.12547770804E+02  0.47787273402E+02  0.20000010749E+02 0.  0.
        -12    1    1    2    0    0 -0.32861798392E+02  0.25422012579E+02 -0.12547770804E+02  0.43400726598E+02  0.00000000000E+00 0.  1.
         11    1    3    3    0    0  0.17469450655E+02 -0.11639925421E+02  0.23546316183E+01  0.21123774765E+02  0.51100000000E-03 0. -1.
        -11    1    3    3    0    0  0.93355399573E+01 -0.24668114453E+01  0.98950666879E+01  0.13825693835E+02  0.51100000000E-03 0.  1.
        -12    1    3    3    0    0  0.60568077790E+01 -0.11315275712E+02  0.29807249786E+00  0.12837804802E+02  0.00000000000E+00 0.  1.
</event>
<event>
 7    1  0.2655656E-009  0.4778727E+02  0.7816164E-02  0.1312668E+00
        -11   -1    0    0    0    0  0.00000000000E+00  0.00000000000E+00  0.45593999997E+02  0.45594000000E+02  0.51100000000E-03 0.  1.
         11   -1    0    0    0    0 -0.00000000000E+00 -0.00000000000E+00 -0.45593999997E+02  0.45594000000E+02  0.51100000000E-03 0. -1.
    9900012    2    1    2    0    0  0.28619713671E+02  0.19945348322E+02 -0.25820887118E+02  0.47787272565E+02  0.20000006933E+02 0.  0.
        -12    1    1    2    0    0 -0.28619713671E+02 -0.19945348322E+02  0.25820887118E+02  0.43400727435E+02  0.00000000000E+00 0.  1.
         11    1    3    3    0    0  0.72823185048E+01  0.77101342717E+01 -0.71452531707E+01  0.12788001268E+02  0.51100000000E-03 0. -1.
        -11    1    3    3    0    0  0.92778289016E+01  0.14578984220E+02 -0.10083167079E+02  0.20007377355E+02  0.51100000000E-03 0.  1.
        -12    1    3    3    0    0  0.12059566264E+02 -0.23437701692E+01 -0.85924668689E+01  0.14991893943E+02  0.00000000000E+00 0.  1.
</event>
<event>
 7    1  0.2655656E-009  0.4778727E+02  0.7816164E-02  0.1312668E+00
        -11   -1    0    0    0    0  0.00000000000E+00  0.00000000000E+00  0.45593999997E+02  0.45594000000E+02  0.51100000000E-03 0. -1.
         11   -1    0    0    0    0 -0.00000000000E+00 -0.00000000000E+00 -0.45593999997E+02  0.45594000000E+02  0.51100000000E-03 0.  1.
    9900012    2    1    2    0    0 -0.23886369613E+01  0.29077628215E+02  0.32131132193E+02  0.47787266077E+02  0.19999977349E+02 0.  0.
        -12    1    1    2    0    0  0.23886369613E+01 -0.29077628215E+02 -0.32131132193E+02  0.43400733923E+02  0.00000000000E+00 0.  1.
         11    1    3    3    0    0 -0.77331294795E+01  0.85427928171E+01  0.10318663959E+02  0.15467883722E+02  0.51100000000E-03 0. -1.
        -11    1    3    3    0    0  0.81421617787E+01  0.10207513289E+02  0.10569147216E+02  0.16798660634E+02  0.51100000000E-03 0.  1.
        -12    1    3    3    0    0 -0.27976692605E+01  0.10327322109E+02  0.11243321017E+02  0.15520721721E+02  0.00000000000E+00 0.  1.
</event>
<event>
 7    1  0.2655656E-009  0.4778727E+02  0.7816164E-02  0.1312668E+00
        -11   -1    0    0    0    0  0.00000000000E+00  0.00000000000E+00  0.45593999997E+02  0.45594000000E+02  0.51100000000E-03 0.  1.
         11   -1    0    0    0    0 -0.00000000000E+00 -0.00000000000E+00 -0.45593999997E+02  0.45594000000E+02  0.51100000000E-03 0. -1.
    9900012    2    1    2    0    0  0.40802666517E+02 -0.83114760020E+00  0.14767354900E+02  0.47787272219E+02  0.20000005353E+02 0.  0.
        -12    1    1    2    0    0 -0.40802666517E+02  0.83114760020E+00 -0.14767354900E+02  0.43400727781E+02  0.00000000000E+00 0.  1.
         11    1    3    3    0    0  0.13387966597E+02 -0.43092593386E+01  0.35747115054E+01  0.14511579110E+02  0.51100000000E-03 0. -1.
        -11    1    3    3    0    0  0.47555109717E+01  0.65781315451E+01  0.80483765256E+00  0.81568660118E+01  0.51100000000E-03 0.  1.
        -12    1    3    3    0    0  0.22659188948E+02 -0.31000198067E+01  0.10387805742E+02  0.25118827097E+02  0.00000000000E+00 0.  1.
</event>
<event>
 7    1  0.2655656E-009  0.4778727E+02  0.7816164E-02  0.1312668E+00
        -11   -1    0    0    0    0  0.00000000000E+00  0.00000000000E+00  0.45593999997E+02  0.45594000000E+02  0.51100000000E-03 0.  1.
         11   -1    0    0    0    0 -0.00000000000E+00 -0.00000000000E+00 -0.45593999997E+02  0.45594000000E+02  0.51100000000E-03 0. -1.
    9900012    2    1    2    0    0 -0.18974659054E+02 -0.17672361977E+02 -0.34803352518E+02  0.47787269469E+02  0.19999992818E+02 0.  0.
        -12    1    1    2    0    0  0.18974659054E+02  0.17672361977E+02  0.34803352518E+02  0.43400730531E+02  0.00000000000E+00 0.  1.
         11    1    3    3    0    0 -0.13871066103E+02 -0.19971086075E+02 -0.20821436925E+02  0.32012231877E+02  0.51100000000E-03 0. -1.
        -11    1    3    3    0    0 -0.72857830604E+00  0.25634070992E+01 -0.74189013645E+01  0.78830184588E+01  0.51100000000E-03 0.  1.
         12    1    3    3    0    0 -0.43750146449E+01 -0.26468300132E+00 -0.65630142283E+01  0.78920191330E+01  0.00000000000E+00 0. -1.
</event>
<event>
 7    1  0.2655656E-009  0.4778728E+02  0.7816164E-02  0.1312668E+00
        -11   -1    0    0    0    0  0.00000000000E+00  0.00000000000E+00  0.45593999997E+02  0.45594000000E+02  0.51100000000E-03 0. -1.
         11   -1    0    0    0    0 -0.00000000000E+00 -0.00000000000E+00 -0.45593999997E+02  0.45594000000E+02  0.51100000000E-03 0.  1.
    9900012    2    1    2    0    0 -0.41849832678E+02 -0.56971993813E+01  0.99878032112E+01  0.47787276631E+02  0.20000025471E+02 0.  0.
        -12    1    1    2    0    0  0.41849832678E+02  0.56971993813E+01 -0.99878032112E+01  0.43400723369E+02  0.00000000000E+00 0.  1.
         11    1    3    3    0    0 -0.26875882446E+02  0.21577470738E+01  0.13444342480E+02  0.30128379888E+02  0.51100000000E-03 0. -1.
        -11    1    3    3    0    0 -0.57747632127E+01 -0.35797963861E+01 -0.32035187195E+01  0.75116818873E+01  0.51100000000E-03 0.  1.
         12    1    3    3    0    0 -0.91991870194E+01 -0.42751500690E+01 -0.25302054976E+00  0.10147214856E+02  0.00000000000E+00 0. -1.
</event>
<event>
 7    1  0.2655656E-009  0.4778727E+02  0.7816164E-02  0.1312668E+00
        -11   -1    0    0    0    0  0.00000000000E+00  0.00000000000E+00  0.45593999997E+02  0.45594000000E+02  0.51100000000E-03 0.  1.
         11   -1    0    0    0    0 -0.00000000000E+00 -0.00000000000E+00 -0.45593999997E+02  0.45594000000E+02  0.51100000000E-03 0. -1.
    9900012    2    1    2    0    0  0.22039936133E+02  0.36940629728E+02 -0.57666548012E+01  0.47787271699E+02  0.20000002983E+02 0.  0.
        -12    1    1    2    0    0 -0.22039936133E+02 -0.36940629728E+02  0.57666548012E+01  0.43400728301E+02  0.00000000000E+00 0.  1.
         11    1    3    3    0    0  0.13715562142E+02  0.30714613723E+02 -0.11295110524E+02  0.35483568917E+02  0.51100000000E-03 0. -1.
        -11    1    3    3    0    0 -0.89570718737E-01 -0.18848672967E+00  0.59364569529E+00  0.62925800239E+00  0.51100000000E-03 0.  1.
         12    1    3    3    0    0  0.84139447097E+01  0.64145027344E+01  0.49348100272E+01  0.11674444780E+02  0.00000000000E+00 0. -1.
</event>
<event>
 7    1  0.2655656E-009  0.4778728E+02  0.7816164E-02  0.1312668E+00
        -11   -1    0    0    0    0  0.00000000000E+00  0.00000000000E+00  0.45593999997E+02  0.45594000000E+02  0.51100000000E-03 0.  1.
         11   -1    0    0    0    0 -0.00000000000E+00 -0.00000000000E+00 -0.45593999997E+02  0.45594000000E+02  0.51100000000E-03 0. -1.
    9900012    2    1    2    0    0 -0.21451772230E+02  0.37722043008E+02 -0.70115496881E+00  0.47787277900E+02  0.20000031257E+02 0.  0.
        -12    1    1    2    0    0  0.21451772230E+02 -0.37722043008E+02  0.70115496881E+00  0.43400722100E+02  0.00000000000E+00 0.  1.
         11    1    3    3    0    0 -0.19132071956E+02  0.22053850214E+02 -0.73778382964E+01  0.30113800570E+02  0.51100000000E-03 0. -1.
        -11    1    3    3    0    0 -0.29372821291E+01  0.80290892049E+01  0.47103863286E+01  0.97612314485E+01  0.51100000000E-03 0.  1.
         12    1    3    3    0    0  0.61758185521E+00  0.76391035895E+01  0.19662969989E+01  0.79122458813E+01  0.00000000000E+00 0. -1.
</event>
<event>
 7    1  0.2655656E-009  0.4778727E+02  0.7816164E-02  0.1312668E+00
        -11   -1    0    0    0    0  0.00000000000E+00  0.00000000000E+00  0.45593999997E+02  0.45594000000E+02  0.51100000000E-03 0.  1.
         11   -1    0    0    0    0 -0.00000000000E+00 -0.00000000000E+00 -0.45593999997E+02  0.45594000000E+02  0.51100000000E-03 0. -1.
    9900012    2    1    2    0    0  0.48712302965E+01  0.25116215678E+02 -0.35058093450E+02  0.47787273152E+02  0.20000009607E+02 0.  0.
        -12    1    1    2    0    0 -0.48712302965E+01 -0.25116215678E+02  0.35058093450E+02  0.43400726848E+02  0.00000000000E+00 0.  1.
         11    1    3    3    0    0  0.13500597064E+01  0.32066914204E+01 -0.29162574654E+01  0.45398335809E+01  0.51100000000E-03 0. -1.
        -11    1    3    3    0    0  0.54394940170E+01  0.19220723275E+02 -0.13023963099E+02  0.23846339623E+02  0.51100000000E-03 0.  1.
         12    1    3    3    0    0 -0.19183234269E+01  0.26888009833E+01 -0.19117872885E+02  0.19401099947E+02  0.00000000000E+00 0. -1.
</event>
<event>
 7    1  0.2655656E-009  0.4778722E+02  0.7816164E-02  0.1312668E+00
        -11   -1    0    0    0    0  0.00000000000E+00  0.00000000000E+00  0.45593999997E+02  0.45594000000E+02  0.51100000000E-03 0.  1.
         11   -1    0    0    0    0 -0.00000000000E+00 -0.00000000000E+00 -0.45593999997E+02  0.45594000000E+02  0.51100000000E-03 0. -1.
    9900012    2    1    2    0    0 -0.26086552482E+02 -0.15754014857E+01 -0.34650219836E+02  0.47787218384E+02  0.19999759897E+02 0.  0.
        -12    1    1    2    0    0  0.26086552482E+02  0.15754014857E+01  0.34650219836E+02  0.43400781616E+02  0.00000000000E+00 0.  1.
         11    1    3    3    0    0 -0.22242001522E+00  0.13561435267E+01 -0.10337422331E+02  0.10428369798E+02  0.51100000000E-03 0. -1.
        -11    1    3    3    0    0 -0.26078295435E+02 -0.71782799604E+00 -0.22980293935E+02  0.34766171481E+02  0.51100000000E-03 0.  1.
        -12    1    3    3    0    0  0.21416296905E+00 -0.22137170164E+01 -0.13325035703E+01  0.25926771050E+01  0.00000000000E+00 0.  1.
</event>
<event>
 7    1  0.2655656E-009  0.4778727E+02  0.7816164E-02  0.1312668E+00
        -11   -1    0    0    0    0  0.00000000000E+00  0.00000000000E+00  0.45593999997E+02  0.45594000000E+02  0.51100000000E-03 0.  1.
         11   -1    0    0    0    0 -0.00000000000E+00 -0.00000000000E+00 -0.45593999997E+02  0.45594000000E+02  0.51100000000E-03 0. -1.
    9900012    2    1    2    0    0  0.30884242548E+02  0.23565966582E+02 -0.19350241599E+02  0.47787273409E+02  0.20000010782E+02 0.  0.
        -12    1    1    2    0    0 -0.30884242548E+02 -0.23565966582E+02  0.19350241599E+02  0.43400726591E+02  0.00000000000E+00 0.  1.
         11    1    3    3    0    0  0.67321248457E+00  0.18668736077E+01 -0.26119716159E+01  0.32803701163E+01  0.51100000000E-03 0. -1.
        -11    1    3    3    0    0  0.10470395490E+02  0.16335945435E+02 -0.24561245140E+01  0.19558242325E+02  0.51100000000E-03 0.  1.
        -12    1    3    3    0    0  0.19740634573E+02  0.53631475394E+01 -0.14282145469E+02  0.24948660968E+02  0.00000000000E+00 0.  1.
</event>
<event>
 7    1  0.2655656E-009  0.4778727E+02  0.7816164E-02  0.1312668E+00
        -11   -1    0    0    0    0  0.00000000000E+00  0.00000000000E+00  0.45593999997E+02  0.45594000000E+02  0.51100000000E-03 0. -1.
         11   -1    0    0    0    0 -0.00000000000E+00 -0.00000000000E+00 -0.45593999997E+02  0.45594000000E+02  0.51100000000E-03 0.  1.
    9900012    2    1    2    0    0  0.25879506181E+02  0.22284698661E+02 -0.26781836623E+02  0.47787269505E+02  0.19999992983E+02 0.  0.
        -12    1    1    2    0    0 -0.25879506181E+02 -0.22284698661E+02  0.26781836623E+02  0.43400730495E+02  0.00000000000E+00 0.  1.
         11    1    3    3    0    0  0.16723138459E+02  0.13210176749E+02 -0.18838377280E+02  0.28443920061E+02  0.51100000000E-03 0. -1.
        -11    1    3    3    0    0 -0.13982122606E+01  0.27390839266E+01  0.18710081395E+01  0.35997569366E+01  0.51100000000E-03 0.  1.
        -12    1    3    3    0    0  0.10554579983E+02  0.63354379858E+01 -0.98144674819E+01  0.15743592507E+02  0.00000000000E+00 0.  1.
</event>
<event>
 7    1  0.2655656E-009  0.4778727E+02  0.7816164E-02  0.1312668E+00
        -11   -1    0    0    0    0  0.00000000000E+00  0.00000000000E+00  0.45593999997E+02  0.45594000000E+02  0.51100000000E-03 0.  1.
         11   -1    0    0    0    0 -0.00000000000E+00 -0.00000000000E+00 -0.45593999997E+02  0.45594000000E+02  0.51100000000E-03 0. -1.
    9900012    2    1    2    0    0 -0.41314525841E+02  0.61373947430E+01 -0.11792604626E+02  0.47787272085E+02  0.20000004744E+02 0.  0.
        -12    1    1    2    0    0  0.41314525841E+02 -0.61373947430E+01  0.11792604626E+02  0.43400727915E+02  0.00000000000E+00 0.  1.
         11    1    3    3    0    0 -0.35071366564E+02  0.89108440676E+01 -0.65323277273E+01  0.36770575199E+02  0.51100000000E-03 0. -1.
        -11    1    3    3    0    0 -0.60669060767E+01 -0.47228859134E+01 -0.38110674645E+01  0.85812141434E+01  0.51100000000E-03 0.  1.
        -12    1    3    3    0    0 -0.17625319991E+00  0.19494365888E+01 -0.14492094341E+01  0.24354827423E+01  0.00000000000E+00 0.  1.
</event>
<event>
 7    1  0.2655656E-009  0.4778723E+02  0.7816164E-02  0.1312668E+00
        -11   -1    0    0    0    0  0.00000000000E+00  0.00000000000E+00  0.45593999997E+02  0.45594000000E+02  0.51100000000E-03 0.  1.
         11   -1    0    0    0    0 -0.00000000000E+00 -0.00000000000E+00 -0.45593999997E+02  0.45594000000E+02  0.51100000000E-03 0. -1.
    9900012    2    1    2    0    0  0.11118016836E+02  0.39039331435E+02 -0.15360574882E+02  0.47787228602E+02  0.19999806485E+02 0.  0.
        -12    1    1    2    0    0 -0.11118016836E+02 -0.39039331435E+02  0.15360574882E+02  0.43400771398E+02  0.00000000000E+00 0.  1.
         11    1    3    3    0    0 -0.20507305964E+01  0.11658224969E+02  0.22664150756E+01  0.12052233941E+02  0.51100000000E-03 0. -1.
        -11    1    3    3    0    0  0.31213273974E+01  0.11007087876E+02 -0.95188242938E+01  0.14883100632E+02  0.51100000000E-03 0.  1.
         12    1    3    3    0    0  0.10047420035E+02  0.16374018591E+02 -0.81081656636E+01  0.20851894029E+02  0.00000000000E+00 0. -1.
</event>
<event>
 7    1  0.2655656E-009  0.4778728E+02  0.7816164E-02  0.1312668E+00
        -11   -1    0    0    0    0  0.00000000000E+00  0.00000000000E+00  0.45593999997E+02  0.45594000000E+02  0.51100000000E-03 0.  1.
         11   -1    0    0    0    0 -0.00000000000E+00 -0.00000000000E+00 -0.45593999997E+02  0.45594000000E+02  0.51100000000E-03 0. -1.
    9900012    2    1    2    0    0  0.13800544913E+02 -0.87588397722E+01 -0.40205105617E+02  0.47787276138E+02  0.20000023224E+02 0.  0.
        -12    1    1    2    0    0 -0.13800544913E+02  0.87588397722E+01  0.40205105617E+02  0.43400723862E+02  0.00000000000E+00 0.  1.
         11    1    3    3    0    0 -0.35981590126E+01  0.50534306950E+00 -0.13302234005E+02  0.13789544941E+02  0.51100000000E-03 0. -1.
        -11    1    3    3    0    0  0.97867764052E+01 -0.39541419853E+01 -0.91673766074E+01  0.13980594600E+02  0.51100000000E-03 0.  1.
         12    1    3    3    0    0  0.76119275206E+01 -0.53100408564E+01 -0.17735495005E+02  0.20017136597E+02  0.00000000000E+00 0. -1.
</event>
<event>
 7    1  0.2655656E-009  0.4778727E+02  0.7816164E-02  0.1312668E+00
        -11   -1    0    0    0    0  0.00000000000E+00  0.00000000000E+00  0.45593999997E+02  0.45594000000E+02  0.51100000000E-03 0. -1.
         11   -1    0    0    0    0 -0.00000000000E+00 -0.00000000000E+00 -0.45593999997E+02  0.45594000000E+02  0.51100000000E-03 0.  1.
    9900012    2    1    2    0    0  0.38471701863E+02  0.14249287354E+02  0.14160136538E+02  0.47787268427E+02  0.19999988066E+02 0.  0.
        -12    1    1    2    0    0 -0.38471701863E+02 -0.14249287354E+02 -0.14160136538E+02  0.43400731573E+02  0.00000000000E+00 0.  1.
         11    1    3    3    0    0  0.16742665226E+02  0.72302511482E+01 -0.10630329835E+01  0.18268098148E+02  0.51100000000E-03 0. -1.
        -11    1    3    3    0    0  0.38352291238E+01  0.32177542663E+01  0.88125954536E+01  0.10135322582E+02  0.51100000000E-03 0.  1.
        -12    1    3    3    0    0  0.17893807512E+02  0.38012819392E+01  0.64105740679E+01  0.19383847697E+02  0.00000000000E+00 0.  1.
</event>
<event>
 7    1  0.2655656E-009  0.4778727E+02  0.7816164E-02  0.1312668E+00
        -11   -1    0    0    0    0  0.00000000000E+00  0.00000000000E+00  0.45593999997E+02  0.45594000000E+02  0.51100000000E-03 0.  1.
         11   -1    0    0    0    0 -0.00000000000E+00 -0.00000000000E+00 -0.45593999997E+02  0.45594000000E+02  0.51100000000E-03 0. -1.
    9900012    2    1    2    0    0  0.22433593943E+02 -0.23110202491E+02 -0.29090820019E+02  0.47787269525E+02  0.19999993070E+02 0.  0.
        -12    1    1    2    0    0 -0.22433593943E+02  0.23110202491E+02  0.29090820019E+02  0.43400730475E+02  0.00000000000E+00 0.  1.
         11    1    3    3    0    0  0.43941711234E+00 -0.92506571941E+01 -0.20086867702E+01  0.94764217257E+01  0.51100000000E-03 0. -1.
        -11    1    3    3    0    0  0.11030091849E+02 -0.25557792089E+01 -0.10477914908E+02  0.15426653385E+02  0.51100000000E-03 0.  1.
         12    1    3    3    0    0  0.10964084982E+02 -0.11303766088E+02 -0.16604218341E+02  0.22884194414E+02  0.00000000000E+00 0. -1.
</event>
<event>
 7    1  0.2655656E-009  0.4778727E+02  0.7816164E-02  0.1312668E+00
        -11   -1    0    0    0    0  0.00000000000E+00  0.00000000000E+00  0.45593999997E+02  0.45594000000E+02  0.51100000000E-03 0.  1.
         11   -1    0    0    0    0 -0.00000000000E+00 -0.00000000000E+00 -0.45593999997E+02  0.45594000000E+02  0.51100000000E-03 0. -1.
    9900012    2    1    2    0    0  0.24837276364E+02  0.13466722485E+02 -0.32945110191E+02  0.47787271928E+02  0.20000004030E+02 0.  0.
        -12    1    1    2    0    0 -0.24837276364E+02 -0.13466722485E+02  0.32945110191E+02  0.43400728072E+02  0.00000000000E+00 0.  1.
         11    1    3    3    0    0  0.13567450153E+02  0.76987064917E+01 -0.16397499298E+02  0.22632361096E+02  0.51100000000E-03 0. -1.
        -11    1    3    3    0    0  0.14455925574E+02  0.32837700242E+01 -0.13921385521E+02  0.20336221499E+02  0.51100000000E-03 0.  1.
        -12    1    3    3    0    0 -0.31860993631E+01  0.24842459688E+01 -0.26262253717E+01  0.48186893330E+01  0.00000000000E+00 0.  1.
</event>
<event>
 7    1  0.2655656E-009  0.4778724E+02  0.7816164E-02  0.1312668E+00
        -11   -1    0    0    0    0  0.00000000000E+00  0.00000000000E+00  0.45593999997E+02  0.45594000000E+02  0.51100000000E-03 0.  1.
         11   -1    0    0    0    0 -0.00000000000E+00 -0.00000000000E+00 -0.45593999997E+02  0.45594000000E+02  0.51100000000E-03 0. -1.
    9900012    2    1    2    0    0 -0.22758779693E+02  0.25553607100E+02 -0.26696009920E+02  0.47787241543E+02  0.19999865492E+02 0.  0.
        -12    1    1    2    0    0  0.22758779693E+02 -0.25553607100E+02  0.26696009920E+02  0.43400758457E+02  0.00000000000E+00 0.  1.
         11    1    3    3    0    0 -0.44649700390E+01  0.57391660847E-01 -0.89515132049E+01  0.10003441416E+02  0.51100000000E-03 0. -1.
        -11    1    3    3    0    0 -0.18900066890E+02  0.18889945973E+02 -0.14390895406E+02  0.30350295849E+02  0.51100000000E-03 0.  1.
        -12    1    3    3    0    0  0.60625723562E+00  0.66062694666E+01 -0.33536013096E+01  0.74335042776E+01  0.00000000000E+00 0.  1.
</event>
<event>
 7    1  0.2655656E-009  0.4778724E+02  0.7816164E-02  0.1312668E+00
        -11   -1    0    0    0    0  0.00000000000E+00  0.00000000000E+00  0.45593999997E+02  0.45594000000E+02  0.51100000000E-03 0.  1.
         11   -1    0    0    0    0 -0.00000000000E+00 -0.00000000000E+00 -0.45593999997E+02  0.45594000000E+02  0.51100000000E-03 0. -1.
    9900012    2    1    2    0    0 -0.13626197144E+01  0.37712619589E+02 -0.21436588282E+02  0.47787242796E+02  0.19999871202E+02 0.  0.
        -12    1    1    2    0    0  0.13626197144E+01 -0.37712619589E+02  0.21436588282E+02  0.43400757204E+02  0.00000000000E+00 0.  1.
         11    1    3    3    0    0 -0.69317574922E+01  0.24649067278E+02 -0.10213839474E+02  0.27567159750E+02  0.51100000000E-03 0. -1.
        -11    1    3    3    0    0 -0.19787557771E+00 -0.81781210859E+00  0.65152348751E+00  0.10641684571E+01  0.51100000000E-03 0.  1.
         12    1    3    3    0    0  0.57670133555E+01  0.13881364419E+02 -0.11874272296E+02  0.19155914589E+02  0.00000000000E+00 0. -1.
</event>
<event>
 7    1  0.2655656E-009  0.4778727E+02  0.7816164E-02  0.1312668E+00
        -11   -1    0    0    0    0  0.00000000000E+00  0.00000000000E+00  0.45593999997E+02  0.45594000000E+02  0.51100000000E-03 0.  1.
         11   -1    0    0    0    0 -0.00000000000E+00 -0.00000000000E+00 -0.45593999997E+02  0.45594000000E+02  0.51100000000E-03 0. -1.
    9900012    2    1    2    0    0 -0.49871150579E+01 -0.87100584489E+01 -0.42224244136E+02  0.47787271577E+02  0.20000002428E+02 0.  0.
        -12    1    1    2    0    0  0.49871150579E+01  0.87100584489E+01  0.42224244136E+02  0.43400728423E+02  0.00000000000E+00 0.  1.
         11    1    3    3    0    0 -0.20712879790E+01  0.47478586742E+01 -0.25303780211E+02  0.25828544076E+02  0.51100000000E-03 0. -1.
        -11    1    3    3    0    0 -0.29735062404E+00 -0.64712643488E+01 -0.88517705299E+01  0.10969025547E+02  0.51100000000E-03 0.  1.
         12    1    3    3    0    0 -0.26184764549E+01 -0.69866527744E+01 -0.80686933954E+01  0.10989701954E+02  0.00000000000E+00 0. -1.
</event>
<event>
 7    1  0.2655656E-009  0.4778727E+02  0.7816164E-02  0.1312668E+00
        -11   -1    0    0    0    0  0.00000000000E+00  0.00000000000E+00  0.45593999997E+02  0.45594000000E+02  0.51100000000E-03 0. -1.
         11   -1    0    0    0    0 -0.00000000000E+00 -0.00000000000E+00 -0.45593999997E+02  0.45594000000E+02  0.51100000000E-03 0.  1.
    9900012    2    1    2    0    0 -0.39089036903E+02 -0.15621147737E+02  0.10566459005E+02  0.47787272834E+02  0.20000008158E+02 0.  0.
        -12    1    1    2    0    0  0.39089036903E+02  0.15621147737E+02 -0.10566459005E+02  0.43400727166E+02  0.00000000000E+00 0.  1.
         11    1    3    3    0    0 -0.11994099519E+02  0.58196339719E+00  0.95047441684E+01  0.15314609581E+02  0.51100000000E-03 0. -1.
        -11    1    3    3    0    0 -0.19530648738E+02 -0.75138892748E+01  0.10437370310E+01  0.20952187461E+02  0.51100000000E-03 0.  1.
         12    1    3    3    0    0 -0.75642886466E+01 -0.86892218594E+01  0.17977805672E-01  0.11520475791E+02  0.00000000000E+00 0. -1.
</event>
<event>
 7    1  0.2655656E-009  0.4778725E+02  0.7816164E-02  0.1312668E+00
        -11   -1    0    0    0    0  0.00000000000E+00  0.00000000000E+00  0.45593999997E+02  0.45594000000E+02  0.51100000000E-03 0.  1.
         11   -1    0    0    0    0 -0.00000000000E+00 -0.00000000000E+00 -0.45593999997E+02  0.45594000000E+02  0.51100000000E-03 0. -1.
    9900012    2    1    2    0    0 -0.38071545831E+02  0.16779143725E+02  0.12354873512E+02  0.47787249251E+02  0.19999900633E+02 0.  0.
        -12    1    1    2    0    0  0.38071545831E+02 -0.16779143725E+02 -0.12354873512E+02  0.43400750749E+02  0.00000000000E+00 0.  1.
         11    1    3    3    0    0 -0.21871386198E+01  0.22610632120E+01 -0.49847402853E+00  0.31850367045E+01  0.51100000000E-03 0. -1.
        -11    1    3    3    0    0 -0.81120858960E+01 -0.25461802890E+01  0.79491058239E+01  0.11639469718E+02  0.51100000000E-03 0.  1.
        -12    1    3    3    0    0 -0.27772321315E+02  0.17064260802E+02  0.49042417171E+01  0.32962742828E+02  0.00000000000E+00 0.  1.
</event>
<event>
 7    1  0.2655656E-009  0.4778727E+02  0.7816164E-02  0.1312668E+00
        -11   -1    0    0    0    0  0.00000000000E+00  0.00000000000E+00  0.45593999997E+02  0.45594000000E+02  0.51100000000E-03 0.  1.
         11   -1    0    0    0    0 -0.00000000000E+00 -0.00000000000E+00 -0.45593999997E+02  0.45594000000E+02  0.51100000000E-03 0. -1.
    9900012    2    1    2    0    0  0.49366035289E+01  0.74447875294E+01 -0.42471500601E+02  0.47787270984E+02  0.19999999726E+02 0.  0.
        -12    1    1    2    0    0 -0.49366035289E+01 -0.74447875294E+01  0.42471500601E+02  0.43400729016E+02  0.00000000000E+00 0.  1.
         11    1    3    3    0    0  0.23453058695E+01  0.79670031406E+01 -0.25412939000E+02  0.26735576813E+02  0.51100000000E-03 0. -1.
        -11    1    3    3    0    0  0.24315641208E+01 -0.20137217371E+01  0.69676219679E+00  0.32331187928E+01  0.51100000000E-03 0.  1.
        -12    1    3    3    0    0  0.15973353850E+00  0.14915061259E+01 -0.17755323798E+02  0.17818575378E+02  0.00000000000E+00 0.  1.
</event>
<event>
 7    1  0.2655656E-009  0.4778728E+02  0.7816164E-02  0.1312668E+00
        -11   -1    0    0    0    0  0.00000000000E+00  0.00000000000E+00  0.45593999997E+02  0.45594000000E+02  0.51100000000E-03 0. -1.
         11   -1    0    0    0    0 -0.00000000000E+00 -0.00000000000E+00 -0.45593999997E+02  0.45594000000E+02  0.51100000000E-03 0.  1.
    9900012    2    1    2    0    0  0.27003358254E+02  0.29720498750E+02 -0.16466126608E+02  0.47787277328E+02  0.20000028650E+02 0.  0.
        -12    1    1    2    0    0 -0.27003358254E+02 -0.29720498750E+02  0.16466126608E+02  0.43400722672E+02  0.00000000000E+00 0.  1.
         11    1    3    3    0    0  0.28163678149E+01 -0.13203474506E+01  0.11956731800E+01  0.33323984866E+01  0.51100000000E-03 0. -1.
        -11    1    3    3    0    0  0.22401069815E+02  0.31749272132E+02 -0.17103260321E+02  0.42454042488E+02  0.51100000000E-03 0.  1.
        -12    1    3    3    0    0  0.17859206248E+01 -0.70842593072E+00 -0.55853946660E+00  0.20008363534E+01  0.00000000000E+00 0.  1.
</event>
<event>
 7    1  0.2655656E-009  0.4778727E+02  0.7816164E-02  0.1312668E+00
        -11   -1    0    0    0    0  0.00000000000E+00  0.00000000000E+00  0.45593999997E+02  0.45594000000E+02  0.51100000000E-03 0. -1.
         11   -1    0    0    0    0 -0.00000000000E+00 -0.00000000000E+00 -0.45593999997E+02  0.45594000000E+02  0.51100000000E-03 0.  1.
    9900012    2    1    2    0    0  0.10566523414E+02  0.31589791309E+02  0.27821876189E+02  0.47787272740E+02  0.20000007731E+02 0.  0.
        -12    1    1    2    0    0 -0.10566523414E+02 -0.31589791309E+02 -0.27821876189E+02  0.43400727260E+02  0.00000000000E+00 0.  1.
         11    1    3    3    0    0  0.41056542970E+01  0.88670705291E+01  0.17053966346E+02  0.19655002044E+02  0.51100000000E-03 0. -1.
        -11    1    3    3    0    0  0.15143829491E+01  0.19995897829E+02  0.65953173409E+01  0.21109890970E+02  0.51100000000E-03 0.  1.
        -12    1    3    3    0    0  0.49464861679E+01  0.27268229517E+01  0.41725925018E+01  0.70223797252E+01  0.00000000000E+00 0.  1.
</event>
<event>
 7    1  0.2655656E-009  0.4778727E+02  0.7816164E-02  0.1312668E+00
        -11   -1    0    0    0    0  0.00000000000E+00  0.00000000000E+00  0.45593999997E+02  0.45594000000E+02  0.51100000000E-03 0.  1.
         11   -1    0    0    0    0 -0.00000000000E+00 -0.00000000000E+00 -0.45593999997E+02  0.45594000000E+02  0.51100000000E-03 0. -1.
    9900012    2    1    2    0    0 -0.39332632219E+02 -0.99602694676E+01 -0.15406506521E+02  0.47787269957E+02  0.19999995040E+02 0.  0.
        -12    1    1    2    0    0  0.39332632219E+02  0.99602694676E+01  0.15406506521E+02  0.43400730043E+02  0.00000000000E+00 0.  1.
         11    1    3    3    0    0 -0.36097862400E+01 -0.35925018402E+01 -0.81916473398E+01  0.96457095422E+01  0.51100000000E-03 0.  1.
        -11    1    3    3    0    0 -0.26723038951E+02 -0.28604603181E+01 -0.89522520613E+01  0.28327475377E+02  0.51100000000E-03 0. -1.
         12    1    3    3    0    0 -0.89998070276E+01 -0.35073073093E+01  0.17373928801E+01  0.98140850371E+01  0.00000000000E+00 0. -1.
</event>
<event>
 7    1  0.2655656E-009  0.4778727E+02  0.7816164E-02  0.1312668E+00
        -11   -1    0    0    0    0  0.00000000000E+00  0.00000000000E+00  0.45593999997E+02  0.45594000000E+02  0.51100000000E-03 0. -1.
         11   -1    0    0    0    0 -0.00000000000E+00 -0.00000000000E+00 -0.45593999997E+02  0.45594000000E+02  0.51100000000E-03 0.  1.
    9900012    2    1    2    0    0  0.20668173663E+02  0.35191627588E+02  0.14764799623E+02  0.47787270020E+02  0.19999995331E+02 0.  0.
        -12    1    1    2    0    0 -0.20668173663E+02 -0.35191627588E+02 -0.14764799623E+02  0.43400729980E+02  0.00000000000E+00 0.  1.
         11    1    3    3    0    0  0.27249237507E+01  0.69363252785E+01  0.64312600360E+01  0.98437250941E+01  0.51100000000E-03 0. -1.
        -11    1    3    3    0    0 -0.79133642012E-01  0.65359707366E+00  0.47379775355E+01  0.47835010877E+01  0.51100000000E-03 0.  1.
        -12    1    3    3    0    0  0.18022383555E+02  0.27601705236E+02  0.35955620519E+01  0.33160043839E+02  0.00000000000E+00 0.  1.
</event>
<event>
 7    1  0.2655656E-009  0.4778727E+02  0.7816164E-02  0.1312668E+00
        -11   -1    0    0    0    0  0.00000000000E+00  0.00000000000E+00  0.45593999997E+02  0.45594000000E+02  0.51100000000E-03 0. -1.
         11   -1    0    0    0    0 -0.00000000000E+00 -0.00000000000E+00 -0.45593999997E+02  0.45594000000E+02  0.51100000000E-03 0.  1.
    9900012    2    1    2    0    0 -0.42735631857E+02  0.75576280115E+01  0.41384986363E+00  0.47787271399E+02  0.20000001616E+02 0.  0.
        -12    1    1    2    0    0  0.42735631857E+02 -0.75576280115E+01 -0.41384986363E+00  0.43400728601E+02  0.00000000000E+00 0.  1.
         11    1    3    3    0    0 -0.18928695080E+02  0.44122712157E+01 -0.46365900940E+01  0.19981531540E+02  0.51100000000E-03 0. -1.
        -11    1    3    3    0    0 -0.25428116864E+02  0.27684826226E+01  0.41483641977E+01  0.25912594410E+02  0.51100000000E-03 0.  1.
        -12    1    3    3    0    0  0.16211800865E+01  0.37687417322E+00  0.90207575997E+00  0.18931454493E+01  0.00000000000E+00 0.  1.
</event>
<event>
 7    1  0.2655656E-009  0.4778727E+02  0.7816164E-02  0.1312668E+00
        -11   -1    0    0    0    0  0.00000000000E+00  0.00000000000E+00  0.45593999997E+02  0.45594000000E+02  0.51100000000E-03 0.  1.
         11   -1    0    0    0    0 -0.00000000000E+00 -0.00000000000E+00 -0.45593999997E+02  0.45594000000E+02  0.51100000000E-03 0. -1.
    9900012    2    1    2    0    0  0.17921693730E+02  0.12204467260E+02 -0.37596370512E+02  0.47787271861E+02  0.20000003725E+02 0.  0.
        -12    1    1    2    0    0 -0.17921693730E+02 -0.12204467260E+02  0.37596370512E+02  0.43400728139E+02  0.00000000000E+00 0.  1.
         11    1    3    3    0    0 -0.78724650589E+00  0.18974837580E+01 -0.15872255090E+02  0.16004645687E+02  0.51100000000E-03 0. -1.
        -11    1    3    3    0    0  0.85401638921E+01  0.77361196834E+01 -0.63079456627E+01  0.13136671032E+02  0.51100000000E-03 0.  1.
        -12    1    3    3    0    0  0.10168776344E+02  0.25708638186E+01 -0.15416169760E+02  0.18645955142E+02  0.00000000000E+00 0.  1.
</event>
<event>
 7    1  0.2655656E-009  0.4778727E+02  0.7816164E-02  0.1312668E+00
        -11   -1    0    0    0    0  0.00000000000E+00  0.00000000000E+00  0.45593999997E+02  0.45594000000E+02  0.51100000000E-03 0.  1.
         11   -1    0    0    0    0 -0.00000000000E+00 -0.00000000000E+00 -0.45593999997E+02  0.45594000000E+02  0.51100000000E-03 0. -1.
    9900012    2    1    2    0    0  0.39706068627E+02  0.25896245681E+01 -0.17330464030E+02  0.47787273915E+02  0.20000013088E+02 0.  0.
        -12    1    1    2    0    0 -0.39706068627E+02 -0.25896245681E+01  0.17330464030E+02  0.43400726085E+02  0.00000000000E+00 0.  1.
         11    1    3    3    0    0  0.13561462439E+02  0.54223169524E+01 -0.91388758849E+01  0.17228866397E+02  0.51100000000E-03 0.  1.
        -11    1    3    3    0    0  0.11634353680E+02 -0.78182394937E+01 -0.27879700144E+01  0.14291809941E+02  0.51100000000E-03 0. -1.
         12    1    3    3    0    0  0.14510252509E+02  0.49855471094E+01 -0.54036181310E+01  0.16266597578E+02  0.00000000000E+00 0. -1.
</event>
<event>
 7    1  0.2655656E-009  0.4778727E+02  0.7816164E-02  0.1312668E+00
        -11   -1    0    0    0    0  0.00000000000E+00  0.00000000000E+00  0.45593999997E+02  0.45594000000E+02  0.51100000000E-03 0.  1.
         11   -1    0    0    0    0 -0.00000000000E+00 -0.00000000000E+00 -0.45593999997E+02  0.45594000000E+02  0.51100000000E-03 0. -1.
    9900012    2    1    2    0    0  0.34552927227E+02 -0.59571116255E+01 -0.25577946520E+02  0.47787270662E+02  0.19999998257E+02 0.  0.
        -12    1    1    2    0    0 -0.34552927227E+02  0.59571116255E+01  0.25577946520E+02  0.43400729338E+02  0.00000000000E+00 0.  1.
         11    1    3    3    0    0  0.44354593753E+01  0.80977282516E+00 -0.41607280813E+01  0.61352009197E+01  0.51100000000E-03 0. -1.
        -11    1    3    3    0    0  0.26290397203E+01 -0.76873134871E+01 -0.61942529888E+01  0.10216428380E+02  0.51100000000E-03 0.  1.
        -12    1    3    3    0    0  0.27488428132E+02  0.92042903641E+00 -0.15222965449E+02  0.31435641362E+02  0.00000000000E+00 0.  1.
</event>
<event>
 7    1  0.2655656E-009  0.4778727E+02  0.7816164E-02  0.1312668E+00
        -11   -1    0    0    0    0  0.00000000000E+00  0.00000000000E+00  0.45593999997E+02  0.45594000000E+02  0.51100000000E-03 0.  1.
         11   -1    0    0    0    0 -0.00000000000E+00 -0.00000000000E+00 -0.45593999997E+02  0.45594000000E+02  0.51100000000E-03 0. -1.
    9900012    2    1    2    0    0 -0.80728688465E+01  0.16013837653E+02 -0.39522259926E+02  0.47787271464E+02  0.20000001914E+02 0.  0.
        -12    1    1    2    0    0  0.80728688465E+01 -0.16013837653E+02  0.39522259926E+02  0.43400728536E+02  0.00000000000E+00 0.  1.
         11    1    3    3    0    0  0.12879233242E+01  0.73422844120E+01 -0.10132149140E+02  0.12578884423E+02  0.51100000000E-03 0. -1.
        -11    1    3    3    0    0  0.33195932616E+01  0.25825606204E+01 -0.25854668857E+01  0.49369988919E+01  0.51100000000E-03 0.  1.
         12    1    3    3    0    0 -0.12680385432E+02  0.60889926203E+01 -0.26804643901E+02  0.30271388149E+02  0.00000000000E+00 0. -1.
</event>
<event>
 7    1  0.2655656E-009  0.4778727E+02  0.7816164E-02  0.1312668E+00
        -11   -1    0    0    0    0  0.00000000000E+00  0.00000000000E+00  0.45593999997E+02  0.45594000000E+02  0.51100000000E-03 0. -1.
         11   -1    0    0    0    0 -0.00000000000E+00 -0.00000000000E+00 -0.45593999997E+02  0.45594000000E+02  0.51100000000E-03 0.  1.
    9900012    2    1    2    0    0 -0.41993013108E+02 -0.65412247241E+01 -0.87990038416E+01  0.47787271442E+02  0.20000001813E+02 0.  0.
        -12    1    1    2    0    0  0.41993013108E+02  0.65412247241E+01  0.87990038416E+01  0.43400728558E+02  0.00000000000E+00 0.  1.
         11    1    3    3    0    0 -0.30537550898E+02  0.10026245529E+01 -0.40550351646E+01  0.30821917223E+02  0.51100000000E-03 0. -1.
        -11    1    3    3    0    0  0.12186382052E+01 -0.16360423455E+01 -0.16976275463E+01  0.26539881647E+01  0.51100000000E-03 0.  1.
         12    1    3    3    0    0 -0.12674100415E+02 -0.59078069314E+01 -0.30463411307E+01  0.14311366054E+02  0.00000000000E+00 0. -1.
</event>
<event>
 7    1  0.2655656E-009  0.4778727E+02  0.7816164E-02  0.1312668E+00
        -11   -1    0    0    0    0  0.00000000000E+00  0.00000000000E+00  0.45593999997E+02  0.45594000000E+02  0.51100000000E-03 0.  1.
         11   -1    0    0    0    0 -0.00000000000E+00 -0.00000000000E+00 -0.45593999997E+02  0.45594000000E+02  0.51100000000E-03 0. -1.
    9900012    2    1    2    0    0  0.22427849617E+02 -0.37087938654E+02 -0.22581884229E+01  0.47787273659E+02  0.20000011919E+02 0.  0.
        -12    1    1    2    0    0 -0.22427849617E+02  0.37087938654E+02  0.22581884229E+01  0.43400726341E+02  0.00000000000E+00 0.  1.
         11    1    3    3    0    0  0.37665302325E+01 -0.17572926277E+02 -0.20001864311E+01  0.18083009538E+02  0.51100000000E-03 0. -1.
        -11    1    3    3    0    0  0.38919868372E+01  0.79290797535E+00 -0.21607492467E+01  0.45216260533E+01  0.51100000000E-03 0.  1.
        -12    1    3    3    0    0  0.14769332547E+02 -0.20307920352E+02  0.19027472549E+01  0.25182638067E+02  0.00000000000E+00 0.  1.
</event>
<event>
 7    1  0.2655656E-009  0.4778727E+02  0.7816164E-02  0.1312668E+00
        -11   -1    0    0    0    0  0.00000000000E+00  0.00000000000E+00  0.45593999997E+02  0.45594000000E+02  0.51100000000E-03 0. -1.
         11   -1    0    0    0    0 -0.00000000000E+00 -0.00000000000E+00 -0.45593999997E+02  0.45594000000E+02  0.51100000000E-03 0.  1.
    9900012    2    1    2    0    0 -0.54541334923E+01 -0.36915587499E+02  0.22161123015E+02  0.47787267911E+02  0.19999985714E+02 0.  0.
        -12    1    1    2    0    0  0.54541334923E+01  0.36915587499E+02 -0.22161123015E+02  0.43400732089E+02  0.00000000000E+00 0.  1.
         11    1    3    3    0    0 -0.40825725381E+01 -0.93603652565E+01  0.10512447533E+02  0.14655899483E+02  0.51100000000E-03 0. -1.
        -11    1    3    3    0    0  0.64326478631E+01 -0.12574318955E+02  0.52689213249E+01  0.15074945701E+02  0.51100000000E-03 0.  1.
        -12    1    3    3    0    0 -0.78042088174E+01 -0.14980903288E+02  0.63797541573E+01  0.18056422727E+02  0.00000000000E+00 0.  1.
</event>
<event>
 7    1  0.2655656E-009  0.4778727E+02  0.7816164E-02  0.1312668E+00
        -11   -1    0    0    0    0  0.00000000000E+00  0.00000000000E+00  0.45593999997E+02  0.45594000000E+02  0.51100000000E-03 0.  1.
         11   -1    0    0    0    0 -0.00000000000E+00 -0.00000000000E+00 -0.45593999997E+02  0.45594000000E+02  0.51100000000E-03 0. -1.
    9900012    2    1    2    0    0 -0.41382660569E+02 -0.12410651663E+02 -0.41321283184E+01  0.47787270110E+02  0.19999995741E+02 0.  0.
        -12    1    1    2    0    0  0.41382660569E+02  0.12410651663E+02  0.41321283184E+01  0.43400729890E+02  0.00000000000E+00 0.  1.
         11    1    3    3    0    0 -0.32641267195E+02 -0.95613695748E+01 -0.59487105990E+01  0.34529107581E+02  0.51100000000E-03 0. -1.
        -11    1    3    3    0    0 -0.91698042947E+01 -0.51729146750E+01  0.47036125310E+00  0.10538766389E+02  0.51100000000E-03 0.  1.
         12    1    3    3    0    0  0.42841092057E+00  0.23236325865E+01  0.13462210275E+01  0.27193961404E+01  0.00000000000E+00 0. -1.
</event>
<event>
 7    1  0.2655656E-009  0.4778727E+02  0.7816164E-02  0.1312668E+00
        -11   -1    0    0    0    0  0.00000000000E+00  0.00000000000E+00  0.45593999997E+02  0.45594000000E+02  0.51100000000E-03 0.  1.
         11   -1    0    0    0    0 -0.00000000000E+00 -0.00000000000E+00 -0.45593999997E+02  0.45594000000E+02  0.51100000000E-03 0. -1.
    9900012    2    1    2    0    0  0.19997354992E+02 -0.15471542440E+02 -0.35275496034E+02  0.47787268986E+02  0.19999990614E+02 0.  0.
        -12    1    1    2    0    0 -0.19997354992E+02  0.15471542440E+02  0.35275496034E+02  0.43400731014E+02  0.00000000000E+00 0.  1.
         11    1    3    3    0    0  0.15586388597E+02  0.29600079582E+00 -0.16121099320E+02  0.22425721160E+02  0.51100000000E-03 0. -1.
        -11    1    3    3    0    0 -0.22954802578E+00 -0.17038793306E+01 -0.29080632095E+01  0.33782730738E+01  0.51100000000E-03 0.  1.
         12    1    3    3    0    0  0.46405144208E+01 -0.14063663905E+02 -0.16246333504E+02  0.21983274752E+02  0.00000000000E+00 0. -1.
</event>
<event>
 7    1  0.2655656E-009  0.4778730E+02  0.7816164E-02  0.1312668E+00
        -11   -1    0    0    0    0  0.00000000000E+00  0.00000000000E+00  0.45593999997E+02  0.45594000000E+02  0.51100000000E-03 0. -1.
         11   -1    0    0    0    0 -0.00000000000E+00 -0.00000000000E+00 -0.45593999997E+02  0.45594000000E+02  0.51100000000E-03 0.  1.
    9900012    2    1    2    0    0 -0.28676642497E+02  0.32034249956E+02  0.59226739910E+01  0.47787296522E+02  0.20000116164E+02 0.  0.
        -12    1    1    2    0    0  0.28676642497E+02 -0.32034249956E+02 -0.59226739910E+01  0.43400703478E+02  0.00000000000E+00 0.  1.
         11    1    3    3    0    0 -0.19265299720E+02  0.23584268364E+02  0.97821840684E+01  0.31985318710E+02  0.51100000000E-03 0. -1.
        -11    1    3    3    0    0 -0.27252963250E+01  0.26492153511E+01 -0.56125631669E+01  0.67783808980E+01  0.51100000000E-03 0.  1.
        -12    1    3    3    0    0 -0.66860464518E+01  0.58007662406E+01  0.17530530895E+01  0.90235969141E+01  0.00000000000E+00 0.  1.
</event>
<event>
 7    1  0.2655656E-009  0.4778727E+02  0.7816164E-02  0.1312668E+00
        -11   -1    0    0    0    0  0.00000000000E+00  0.00000000000E+00  0.45593999997E+02  0.45594000000E+02  0.51100000000E-03 0.  1.
         11   -1    0    0    0    0 -0.00000000000E+00 -0.00000000000E+00 -0.45593999997E+02  0.45594000000E+02  0.51100000000E-03 0. -1.
    9900012    2    1    2    0    0 -0.28272837180E+02 -0.46015800507E+00 -0.32925036770E+02  0.47787272888E+02  0.20000008403E+02 0.  0.
        -12    1    1    2    0    0  0.28272837180E+02  0.46015800507E+00  0.32925036770E+02  0.43400727112E+02  0.00000000000E+00 0.  1.
         11    1    3    3    0    0 -0.17483651842E+02  0.26581749420E+01 -0.11713517265E+02  0.21212035799E+02  0.51100000000E-03 0.  1.
        -11    1    3    3    0    0 -0.15858529038E+01 -0.51860334907E+01 -0.12936510266E+02  0.14027229624E+02  0.51100000000E-03 0. -1.
         12    1    3    3    0    0 -0.92033324345E+01  0.20677005436E+01 -0.82750092390E+01  0.12548007465E+02  0.00000000000E+00 0. -1.
</event>
<event>
 7    1  0.2655656E-009  0.4778727E+02  0.7816164E-02  0.1312668E+00
        -11   -1    0    0    0    0  0.00000000000E+00  0.00000000000E+00  0.45593999997E+02  0.45594000000E+02  0.51100000000E-03 0.  1.
         11   -1    0    0    0    0 -0.00000000000E+00 -0.00000000000E+00 -0.45593999997E+02  0.45594000000E+02  0.51100000000E-03 0. -1.
    9900012    2    1    2    0    0 -0.30212235043E+02 -0.14255776093E+02 -0.27705899568E+02  0.47787272251E+02  0.20000005501E+02 0.  0.
        -12    1    1    2    0    0  0.30212235043E+02  0.14255776093E+02  0.27705899568E+02  0.43400727749E+02  0.00000000000E+00 0.  1.
         11    1    3    3    0    0 -0.76474425472E+01 -0.10057893452E+02 -0.56670984738E+01  0.13847765292E+02  0.51100000000E-03 0.  1.
        -11    1    3    3    0    0 -0.13372428510E+02 -0.47815174009E-01 -0.19315009744E+02  0.23492418611E+02  0.51100000000E-03 0. -1.
         12    1    3    3    0    0 -0.91923639857E+01 -0.41500674674E+01 -0.27237913500E+01  0.10447088348E+02  0.00000000000E+00 0. -1.
</event>
<event>
 7    1  0.2655656E-009  0.4778727E+02  0.7816164E-02  0.1312668E+00
        -11   -1    0    0    0    0  0.00000000000E+00  0.00000000000E+00  0.45593999997E+02  0.45594000000E+02  0.51100000000E-03 0. -1.
         11   -1    0    0    0    0 -0.00000000000E+00 -0.00000000000E+00 -0.45593999997E+02  0.45594000000E+02  0.51100000000E-03 0.  1.
    9900012    2    1    2    0    0 -0.20630912849E+02  0.27296478623E+02  0.26700016871E+02  0.47787271767E+02  0.20000003296E+02 0.  0.
        -12    1    1    2    0    0  0.20630912849E+02 -0.27296478623E+02 -0.26700016871E+02  0.43400728233E+02  0.00000000000E+00 0.  1.
         11    1    3    3    0    0 -0.39777358799E+01  0.12189240396E+02  0.14740666337E+02  0.19536816744E+02  0.51100000000E-03 0. -1.
        -11    1    3    3    0    0 -0.17192003116E+02  0.15472687935E+02  0.83618313424E+01  0.24594496676E+02  0.51100000000E-03 0.  1.
        -12    1    3    3    0    0  0.53882614664E+00 -0.36544970784E+00  0.35975191919E+01  0.36559583479E+01  0.00000000000E+00 0.  1.
</event>
<event>
 7    1  0.2655656E-009  0.4778727E+02  0.7816164E-02  0.1312668E+00
        -11   -1    0    0    0    0  0.00000000000E+00  0.00000000000E+00  0.45593999997E+02  0.45594000000E+02  0.51100000000E-03 0.  1.
         11   -1    0    0    0    0 -0.00000000000E+00 -0.00000000000E+00 -0.45593999997E+02  0.45594000000E+02  0.51100000000E-03 0. -1.
    9900012    2    1    2    0    0 -0.32882094092E+02 -0.72356950740E+01 -0.27386779085E+02  0.47787273466E+02  0.20000011039E+02 0.  0.
        -12    1    1    2    0    0  0.32882094092E+02  0.72356950740E+01  0.27386779085E+02  0.43400726534E+02  0.00000000000E+00 0.  1.
         11    1    3    3    0    0 -0.20814722614E+02 -0.73606703399E+00 -0.16368587242E+02  0.26490094766E+02  0.51100000000E-03 0. -1.
        -11    1    3    3    0    0  0.22590378350E+00 -0.41540085965E+01  0.62109977576E+00  0.42062554763E+01  0.51100000000E-03 0.  1.
        -12    1    3    3    0    0 -0.12293275261E+02 -0.23456194435E+01 -0.11639291619E+02  0.17090923223E+02  0.00000000000E+00 0.  1.
</event>
<event>
 7    1  0.2655656E-009  0.4778727E+02  0.7816164E-02  0.1312668E+00
        -11   -1    0    0    0    0  0.00000000000E+00  0.00000000000E+00  0.45593999997E+02  0.45594000000E+02  0.51100000000E-03 0.  1.
         11   -1    0    0    0    0 -0.00000000000E+00 -0.00000000000E+00 -0.45593999997E+02  0.45594000000E+02  0.51100000000E-03 0. -1.
    9900012    2    1    2    0    0  0.19124065605E+01  0.52410842762E+01 -0.43040645853E+02  0.47787268915E+02  0.19999990293E+02 0.  0.
        -12    1    1    2    0    0 -0.19124065605E+01 -0.52410842762E+01  0.43040645853E+02  0.43400731085E+02  0.00000000000E+00 0.  1.
         11    1    3    3    0    0  0.81756922808E+01  0.32072603743E+01 -0.33363501258E+02  0.34500024345E+02  0.51100000000E-03 0. -1.
        -11    1    3    3    0    0 -0.40202055161E+01 -0.31840318401E+00 -0.91436189436E+01  0.99934578914E+01  0.51100000000E-03 0.  1.
         12    1    3    3    0    0 -0.22430802042E+01  0.23522270859E+01 -0.53352565182E+00  0.32937866791E+01  0.00000000000E+00 0. -1.
</event>
<event>
 7    1  0.2655656E-009  0.4778727E+02  0.7816164E-02  0.1312668E+00
        -11   -1    0    0    0    0  0.00000000000E+00  0.00000000000E+00  0.45593999997E+02  0.45594000000E+02  0.51100000000E-03 0.  1.
         11   -1    0    0    0    0 -0.00000000000E+00 -0.00000000000E+00 -0.45593999997E+02  0.45594000000E+02  0.51100000000E-03 0. -1.
    9900012    2    1    2    0    0 -0.28343930333E+02 -0.22988853240E+02 -0.23489516542E+02  0.47787272502E+02  0.20000006644E+02 0.  0.
        -12    1    1    2    0    0  0.28343930333E+02  0.22988853240E+02  0.23489516542E+02  0.43400727498E+02  0.00000000000E+00 0.  1.
         11    1    3    3    0    0 -0.11567430913E+02 -0.11127853392E+02 -0.84368259794E+01  0.18133246039E+02  0.51100000000E-03 0. -1.
        -11    1    3    3    0    0 -0.10998781609E+02 -0.15267108422E+02 -0.11679996966E+02  0.22146785903E+02  0.51100000000E-03 0.  1.
        -12    1    3    3    0    0 -0.57777178112E+01  0.34061085740E+01 -0.33726935960E+01  0.75072405593E+01  0.00000000000E+00 0.  1.
</event>
<event>
 7    1  0.2655656E-009  0.4778729E+02  0.7816164E-02  0.1312668E+00
        -11   -1    0    0    0    0  0.00000000000E+00  0.00000000000E+00  0.45593999997E+02  0.45594000000E+02  0.51100000000E-03 0.  1.
         11   -1    0    0    0    0 -0.00000000000E+00 -0.00000000000E+00 -0.45593999997E+02  0.45594000000E+02  0.51100000000E-03 0. -1.
    9900012    2    1    2    0    0 -0.18558296974E+02 -0.12338452761E+02 -0.37242098805E+02  0.47787288871E+02  0.20000081277E+02 0.  0.
        -12    1    1    2    0    0  0.18558296974E+02  0.12338452761E+02  0.37242098805E+02  0.43400711129E+02  0.00000000000E+00 0.  1.
         11    1    3    3    0    0 -0.20153193725E+02 -0.10285848412E+02 -0.30539973976E+02  0.38008418878E+02  0.51100000000E-03 0. -1.
        -11    1    3    3    0    0  0.18387071942E+01 -0.40537863126E+01 -0.63148676643E+01  0.77260327137E+01  0.51100000000E-03 0.  1.
         12    1    3    3    0    0 -0.24381044254E+00  0.20011819635E+01 -0.38725716504E+00  0.20528372791E+01  0.00000000000E+00 0. -1.
</event>
<event>
 7    1  0.2655656E-009  0.4778727E+02  0.7816164E-02  0.1312668E+00
        -11   -1    0    0    0    0  0.00000000000E+00  0.00000000000E+00  0.45593999997E+02  0.45594000000E+02  0.51100000000E-03 0.  1.
         11   -1    0    0    0    0 -0.00000000000E+00 -0.00000000000E+00 -0.45593999997E+02  0.45594000000E+02  0.51100000000E-03 0. -1.
    9900012    2    1    2    0    0 -0.35033046653E+02 -0.13492669986E+02 -0.21777437616E+02  0.47787270856E+02  0.19999999139E+02 0.  0.
        -12    1    1    2    0    0  0.35033046653E+02  0.13492669986E+02  0.21777437616E+02  0.43400729144E+02  0.00000000000E+00 0.  1.
         11    1    3    3    0    0 -0.34458740828E+02 -0.14203765329E+02 -0.18687097133E+02  0.41693637027E+02  0.51100000000E-03 0. -1.
        -11    1    3    3    0    0 -0.20463474350E+01  0.23028228166E+01 -0.19172182776E+01  0.36285337169E+01  0.51100000000E-03 0.  1.
         12    1    3    3    0    0  0.14720416106E+01 -0.15917274732E+01 -0.11731222054E+01  0.24651001117E+01  0.00000000000E+00 0. -1.
</event>
<event>
 7    1  0.2655656E-009  0.4778727E+02  0.7816164E-02  0.1312668E+00
        -11   -1    0    0    0    0  0.00000000000E+00  0.00000000000E+00  0.45593999997E+02  0.45594000000E+02  0.51100000000E-03 0.  1.
         11   -1    0    0    0    0 -0.00000000000E+00 -0.00000000000E+00 -0.45593999997E+02  0.45594000000E+02  0.51100000000E-03 0. -1.
    9900012    2    1    2    0    0 -0.10532397158E+02  0.91775441870E+01 -0.41090931729E+02  0.47787269850E+02  0.19999994552E+02 0.  0.
        -12    1    1    2    0    0  0.10532397158E+02 -0.91775441870E+01  0.41090931729E+02  0.43400730150E+02  0.00000000000E+00 0.  1.
         11    1    3    3    0    0 -0.14182780014E+02  0.15302202434E+01 -0.25670761615E+02  0.29368023853E+02  0.51100000000E-03 0. -1.
        -11    1    3    3    0    0  0.20504712079E+01  0.74444234673E+01 -0.14796504279E+02  0.16690129181E+02  0.51100000000E-03 0.  1.
        -12    1    3    3    0    0  0.15999116484E+01  0.20290047626E+00 -0.62366583605E+00  0.17291168153E+01  0.00000000000E+00 0.  1.
</event>
<event>
 7    1  0.2655656E-009  0.4778727E+02  0.7816164E-02  0.1312668E+00
        -11   -1    0    0    0    0  0.00000000000E+00  0.00000000000E+00  0.45593999997E+02  0.45594000000E+02  0.51100000000E-03 0.  1.
         11   -1    0    0    0    0 -0.00000000000E+00 -0.00000000000E+00 -0.45593999997E+02  0.45594000000E+02  0.51100000000E-03 0. -1.
    9900012    2    1    2    0    0 -0.12290435943E+02 -0.35003887067E+02 -0.22523238288E+02  0.47787272028E+02  0.20000004485E+02 0.  0.
        -12    1    1    2    0    0  0.12290435943E+02  0.35003887067E+02  0.22523238288E+02  0.43400727972E+02  0.00000000000E+00 0.  1.
         11    1    3    3    0    0  0.28393719536E+01 -0.67856221308E+00  0.59345798291E+00  0.29790388393E+01  0.51100000000E-03 0.  1.
        -11    1    3    3    0    0 -0.64643878151E+01 -0.11623183235E+02 -0.39944520060E+01  0.13886768718E+02  0.51100000000E-03 0. -1.
         12    1    3    3    0    0 -0.86654200819E+01 -0.22702141619E+02 -0.19122244265E+02  0.30921464471E+02  0.00000000000E+00 0. -1.
</event>
<event>
 7    1  0.2655656E-009  0.4778727E+02  0.7816164E-02  0.1312668E+00
        -11   -1    0    0    0    0  0.00000000000E+00  0.00000000000E+00  0.45593999997E+02  0.45594000000E+02  0.51100000000E-03 0.  1.
         11   -1    0    0    0    0 -0.00000000000E+00 -0.00000000000E+00 -0.45593999997E+02  0.45594000000E+02  0.51100000000E-03 0. -1.
    9900012    2    1    2    0    0  0.22383399581E+02 -0.13087527335E+02 -0.34804069514E+02  0.47787271858E+02  0.20000003710E+02 0.  0.
        -12    1    1    2    0    0 -0.22383399581E+02  0.13087527335E+02  0.34804069514E+02  0.43400728142E+02  0.00000000000E+00 0.  1.
         11    1    3    3    0    0  0.14945249511E+02 -0.78923479010E+01 -0.89982955787E+01  0.19147296465E+02  0.51100000000E-03 0. -1.
        -11    1    3    3    0    0  0.50183842072E+00 -0.52585115467E+01 -0.86564720494E+01  0.10140921757E+02  0.51100000000E-03 0.  1.
         12    1    3    3    0    0  0.69363116491E+01  0.63332113106E-01 -0.17149301886E+02  0.18499053636E+02  0.00000000000E+00 0. -1.
</event>
<event>
 7    1  0.2655656E-009  0.4778727E+02  0.7816164E-02  0.1312668E+00
        -11   -1    0    0    0    0  0.00000000000E+00  0.00000000000E+00  0.45593999997E+02  0.45594000000E+02  0.51100000000E-03 0.  1.
         11   -1    0    0    0    0 -0.00000000000E+00 -0.00000000000E+00 -0.45593999997E+02  0.45594000000E+02  0.51100000000E-03 0. -1.
    9900012    2    1    2    0    0  0.17831994611E+01  0.25687238444E+02 -0.34937223280E+02  0.47787267406E+02  0.19999983409E+02 0.  0.
        -12    1    1    2    0    0 -0.17831994611E+01 -0.25687238444E+02  0.34937223280E+02  0.43400732594E+02  0.00000000000E+00 0.  1.
         11    1    3    3    0    0  0.27501575124E+01  0.85947100740E+01 -0.11721366433E+02  0.14792661658E+02  0.51100000000E-03 0. -1.
        -11    1    3    3    0    0  0.70708658215E+01  0.58380898692E+01 -0.62075728246E+01  0.11073138553E+02  0.51100000000E-03 0.  1.
        -12    1    3    3    0    0 -0.80378238727E+01  0.11254438501E+02 -0.17008284022E+02  0.21921467195E+02  0.00000000000E+00 0.  1.
</event>
<event>
 7    1  0.2655656E-009  0.4778727E+02  0.7816164E-02  0.1312668E+00
        -11   -1    0    0    0    0  0.00000000000E+00  0.00000000000E+00  0.45593999997E+02  0.45594000000E+02  0.51100000000E-03 0.  1.
         11   -1    0    0    0    0 -0.00000000000E+00 -0.00000000000E+00 -0.45593999997E+02  0.45594000000E+02  0.51100000000E-03 0. -1.
    9900012    2    1    2    0    0 -0.17446551587E+02  0.39367386059E+02 -0.54267899541E+01  0.47787270782E+02  0.19999998806E+02 0.  0.
        -12    1    1    2    0    0  0.17446551587E+02 -0.39367386059E+02  0.54267899541E+01  0.43400729218E+02  0.00000000000E+00 0.  1.
         11    1    3    3    0    0 -0.82433752432E+01  0.90570827505E+01 -0.31932590126E+01  0.12656258797E+02  0.51100000000E-03 0.  1.
        -11    1    3    3    0    0 -0.93790490437E+01  0.28666792845E+02  0.23549685023E+01  0.30253883220E+02  0.51100000000E-03 0. -1.
        -12    1    3    3    0    0  0.17587270020E+00  0.16435104637E+01 -0.45884994437E+01  0.48771287656E+01  0.00000000000E+00 0.  1.
</event>
<event>
 7    1  0.2655656E-009  0.4778727E+02  0.7816164E-02  0.1312668E+00
        -11   -1    0    0    0    0  0.00000000000E+00  0.00000000000E+00  0.45593999997E+02  0.45594000000E+02  0.51100000000E-03 0.  1.
         11   -1    0    0    0    0 -0.00000000000E+00 -0.00000000000E+00 -0.45593999997E+02  0.45594000000E+02  0.51100000000E-03 0. -1.
    9900012    2    1    2    0    0  0.12100266003E+02  0.25413335896E+01 -0.41602269098E+02  0.47787267197E+02  0.19999982457E+02 0.  0.
        -12    1    1    2    0    0 -0.12100266003E+02 -0.25413335896E+01  0.41602269098E+02  0.43400732803E+02  0.00000000000E+00 0.  1.
         11    1    3    3    0    0  0.34610340884E+01  0.40889817651E+01 -0.35388773242E+02  0.35791951619E+02  0.51100000000E-03 0. -1.
        -11    1    3    3    0    0  0.40030833717E+01 -0.33564959593E+01 -0.38288837948E+01  0.64769663408E+01  0.51100000000E-03 0.  1.
         12    1    3    3    0    0  0.46361485432E+01  0.18088477838E+01 -0.23846120607E+01  0.55183492369E+01  0.00000000000E+00 0. -1.
</event>
<event>
 7    1  0.2655656E-009  0.4778728E+02  0.7816164E-02  0.1312668E+00
        -11   -1    0    0    0    0  0.00000000000E+00  0.00000000000E+00  0.45593999997E+02  0.45594000000E+02  0.51100000000E-03 0.  1.
         11   -1    0    0    0    0 -0.00000000000E+00 -0.00000000000E+00 -0.45593999997E+02  0.45594000000E+02  0.51100000000E-03 0. -1.
    9900012    2    1    2    0    0 -0.55952665935E+01 -0.10812634788E+02 -0.41658161166E+02  0.47787280293E+02  0.20000042168E+02 0.  0.
        -12    1    1    2    0    0  0.55952665935E+01  0.10812634788E+02  0.41658161166E+02  0.43400719707E+02  0.00000000000E+00 0.  1.
         11    1    3    3    0    0 -0.25116431268E+01 -0.15076498478E+01 -0.23211796816E+02  0.23395915689E+02  0.51100000000E-03 0. -1.
        -11    1    3    3    0    0 -0.37839704874E+01 -0.41765579338E+01 -0.43672742555E+00  0.56526807737E+01  0.51100000000E-03 0.  1.
        -12    1    3    3    0    0  0.70034702068E+00 -0.51284270068E+01 -0.18009636925E+02  0.18738683830E+02  0.00000000000E+00 0.  1.
</event>
<event>
 7    1  0.2655656E-009  0.4778727E+02  0.7816164E-02  0.1312668E+00
        -11   -1    0    0    0    0  0.00000000000E+00  0.00000000000E+00  0.45593999997E+02  0.45594000000E+02  0.51100000000E-03 0.  1.
         11   -1    0    0    0    0 -0.00000000000E+00 -0.00000000000E+00 -0.45593999997E+02  0.45594000000E+02  0.51100000000E-03 0. -1.
    9900012    2    1    2    0    0  0.44325457002E+01 -0.17108664430E+02 -0.39639237476E+02  0.47787274112E+02  0.20000013986E+02 0.  0.
        -12    1    1    2    0    0 -0.44325457002E+01  0.17108664430E+02  0.39639237476E+02  0.43400725888E+02  0.00000000000E+00 0.  1.
         11    1    3    3    0    0 -0.61570755633E+01 -0.35559074110E+01 -0.12262224254E+02  0.14174491205E+02  0.51100000000E-03 0. -1.
        -11    1    3    3    0    0  0.89667297281E+01 -0.99899816080E+01 -0.12906499622E+02  0.18622022106E+02  0.51100000000E-03 0.  1.
        -12    1    3    3    0    0  0.16228915354E+01 -0.35627754110E+01 -0.14470513600E+02  0.14990760801E+02  0.00000000000E+00 0.  1.
</event>
<event>
 7    1  0.2655656E-009  0.4778727E+02  0.7816164E-02  0.1312668E+00
        -11   -1    0    0    0    0  0.00000000000E+00  0.00000000000E+00  0.45593999997E+02  0.45594000000E+02  0.51100000000E-03 0.  1.
         11   -1    0    0    0    0 -0.00000000000E+00 -0.00000000000E+00 -0.45593999997E+02  0.45594000000E+02  0.51100000000E-03 0. -1.
    9900012    2    1    2    0    0  0.22185538916E+02  0.10048769154E+02 -0.35922799835E+02  0.47787269056E+02  0.19999990935E+02 0.  0.
        -12    1    1    2    0    0 -0.22185538916E+02 -0.10048769154E+02  0.35922799835E+02  0.43400730944E+02  0.00000000000E+00 0.  1.
         11    1    3    3    0    0  0.71482320156E+01  0.65343485420E+01 -0.34202014218E+01  0.10270964407E+02  0.51100000000E-03 0.  1.
        -11    1    3    3    0    0  0.82938271455E+01 -0.34302801979E+01 -0.13899555384E+02  0.16545453487E+02  0.51100000000E-03 0. -1.
        -12    1    3    3    0    0  0.67434797546E+01  0.69447008098E+01 -0.18603043029E+02  0.20970851163E+02  0.00000000000E+00 0.  1.
</event>
<event>
 7    1  0.2655656E-009  0.4778727E+02  0.7816164E-02  0.1312668E+00
        -11   -1    0    0    0    0  0.00000000000E+00  0.00000000000E+00  0.45593999997E+02  0.45594000000E+02  0.51100000000E-03 0. -1.
         11   -1    0    0    0    0 -0.00000000000E+00 -0.00000000000E+00 -0.45593999997E+02  0.45594000000E+02  0.51100000000E-03 0.  1.
    9900012    2    1    2    0    0  0.37423409604E+02 -0.21037018360E+02  0.63683075252E+01  0.47787273410E+02  0.20000010783E+02 0.  0.
        -12    1    1    2    0    0 -0.37423409604E+02  0.21037018360E+02 -0.63683075252E+01  0.43400726590E+02  0.00000000000E+00 0.  1.
         11    1    3    3    0    0  0.65024954611E+01 -0.10107666355E+02  0.72252409307E+01  0.14023247596E+02  0.51100000000E-03 0. -1.
        -11    1    3    3    0    0  0.23906763539E+02 -0.11843176934E+02 -0.73026647919E+00  0.26689463693E+02  0.51100000000E-03 0.  1.
         12    1    3    3    0    0  0.70141506034E+01  0.91382492966E+00 -0.12666692632E+00  0.70745621207E+01  0.00000000000E+00 0. -1.
</event>
<event>
 7    1  0.2655656E-009  0.4778727E+02  0.7816164E-02  0.1312668E+00
        -11   -1    0    0    0    0  0.00000000000E+00  0.00000000000E+00  0.45593999997E+02  0.45594000000E+02  0.51100000000E-03 0. -1.
         11   -1    0    0    0    0 -0.00000000000E+00 -0.00000000000E+00 -0.45593999997E+02  0.45594000000E+02  0.51100000000E-03 0.  1.
    9900012    2    1    2    0    0  0.58245147452E+01  0.34454354844E+02  0.25740942431E+02  0.47787266631E+02  0.19999979878E+02 0.  0.
        -12    1    1    2    0    0 -0.58245147452E+01 -0.34454354844E+02 -0.25740942431E+02  0.43400733369E+02  0.00000000000E+00 0.  1.
         11    1    3    3    0    0 -0.47117566547E+00  0.79890812348E+01  0.81000430805E+01  0.11386752112E+02  0.51100000000E-03 0. -1.
        -11    1    3    3    0    0  0.25675902535E+01  0.84105325455E+01  0.15526783585E+02  0.17844063051E+02  0.51100000000E-03 0.  1.
        -12    1    3    3    0    0  0.37281001572E+01  0.18054741063E+02  0.21141157660E+01  0.18556451469E+02  0.00000000000E+00 0.  1.
</event>
<event>
 7    1  0.2655656E-009  0.4778727E+02  0.7816164E-02  0.1312668E+00
        -11   -1    0    0    0    0  0.00000000000E+00  0.00000000000E+00  0.45593999997E+02  0.45594000000E+02  0.51100000000E-03 0.  1.
         11   -1    0    0    0    0 -0.00000000000E+00 -0.00000000000E+00 -0.45593999997E+02  0.45594000000E+02  0.51100000000E-03 0. -1.
    9900012    2    1    2    0    0  0.25754100743E+02  0.11929546751E+02 -0.32833452259E+02  0.47787269844E+02  0.19999994529E+02 0.  0.
        -12    1    1    2    0    0 -0.25754100743E+02 -0.11929546751E+02  0.32833452259E+02  0.43400730156E+02  0.00000000000E+00 0.  1.
         11    1    3    3    0    0  0.20023259359E+02 -0.43325361749E+00 -0.20760775872E+02  0.28846636531E+02  0.51100000000E-03 0. -1.
        -11    1    3    3    0    0  0.55161425370E+01  0.10221050803E+02 -0.73347400170E+01  0.13736670608E+02  0.51100000000E-03 0.  1.
         12    1    3    3    0    0  0.21469884689E+00  0.21417495652E+01 -0.47379363700E+01  0.52039627056E+01  0.00000000000E+00 0. -1.
</event>
<event>
 7    1  0.2655656E-009  0.4778727E+02  0.7816164E-02  0.1312668E+00
        -11   -1    0    0    0    0  0.00000000000E+00  0.00000000000E+00  0.45593999997E+02  0.45594000000E+02  0.51100000000E-03 0.  1.
         11   -1    0    0    0    0 -0.00000000000E+00 -0.00000000000E+00 -0.45593999997E+02  0.45594000000E+02  0.51100000000E-03 0. -1.
    9900012    2    1    2    0    0  0.93786420646E+01  0.37307251388E+02  0.20095603740E+02  0.47787271633E+02  0.20000002682E+02 0.  0.
        -12    1    1    2    0    0 -0.93786420646E+01 -0.37307251388E+02 -0.20095603740E+02  0.43400728367E+02  0.00000000000E+00 0.  1.
         11    1    3    3    0    0 -0.12428570144E+01  0.15281018933E+01  0.20112295220E+01  0.28151080629E+01  0.51100000000E-03 0.  1.
        -11    1    3    3    0    0  0.48109276364E-02  0.25947656852E+01 -0.32185919885E+01  0.41342673783E+01  0.51100000000E-03 0. -1.
        -12    1    3    3    0    0  0.10616688151E+02  0.33184383810E+02  0.21302966207E+02  0.40837896191E+02  0.00000000000E+00 0.  1.
</event>
<event>
 7    1  0.2655656E-009  0.4778728E+02  0.7816164E-02  0.1312668E+00
        -11   -1    0    0    0    0  0.00000000000E+00  0.00000000000E+00  0.45593999997E+02  0.45594000000E+02  0.51100000000E-03 0. -1.
         11   -1    0    0    0    0 -0.00000000000E+00 -0.00000000000E+00 -0.45593999997E+02  0.45594000000E+02  0.51100000000E-03 0.  1.
    9900012    2    1    2    0    0  0.40433866920E+02  0.14646965299E+02  0.58473536161E+01  0.47787277300E+02  0.20000028520E+02 0.  0.
        -12    1    1    2    0    0 -0.40433866920E+02 -0.14646965299E+02 -0.58473536161E+01  0.43400722700E+02  0.00000000000E+00 0.  1.
         11    1    3    3    0    0  0.25897159961E+02 -0.51654381499E+00  0.21937042827E+01  0.25995038955E+02  0.51100000000E-03 0.  1.
        -11    1    3    3    0    0  0.13871640690E+02  0.12327482661E+02  0.34168925694E+01  0.18869668765E+02  0.51100000000E-03 0. -1.
        -12    1    3    3    0    0  0.66506626975E+00  0.28360264530E+01  0.23675676396E+00  0.29225695802E+01  0.00000000000E+00 0.  1.
</event>
<event>
 7    1  0.2655656E-009  0.4778727E+02  0.7816164E-02  0.1312668E+00
        -11   -1    0    0    0    0  0.00000000000E+00  0.00000000000E+00  0.45593999997E+02  0.45594000000E+02  0.51100000000E-03 0. -1.
         11   -1    0    0    0    0 -0.00000000000E+00 -0.00000000000E+00 -0.45593999997E+02  0.45594000000E+02  0.51100000000E-03 0.  1.
    9900012    2    1    2    0    0 -0.22772877864E+02 -0.47418605620E+01  0.36640602325E+02  0.47787274816E+02  0.20000017196E+02 0.  0.
        -12    1    1    2    0    0  0.22772877864E+02  0.47418605620E+01 -0.36640602325E+02  0.43400725184E+02  0.00000000000E+00 0.  1.
         11    1    3    3    0    0  0.12001920091E+01  0.31458244426E+00  0.13773491756E+02  0.13829262395E+02  0.51100000000E-03 0. -1.
        -11    1    3    3    0    0 -0.18232897668E+02 -0.15623822293E+01  0.15451420621E+02  0.23950490497E+02  0.51100000000E-03 0.  1.
        -12    1    3    3    0    0 -0.57401722052E+01 -0.34940607770E+01  0.74156899478E+01  0.10007521924E+02  0.00000000000E+00 0.  1.
</event>
<event>
 7    1  0.2655656E-009  0.4778727E+02  0.7816164E-02  0.1312668E+00
        -11   -1    0    0    0    0  0.00000000000E+00  0.00000000000E+00  0.45593999997E+02  0.45594000000E+02  0.51100000000E-03 0.  1.
         11   -1    0    0    0    0 -0.00000000000E+00 -0.00000000000E+00 -0.45593999997E+02  0.45594000000E+02  0.51100000000E-03 0. -1.
    9900012    2    1    2    0    0 -0.38365214467E+02 -0.19715021406E+02 -0.48012139208E+01  0.47787269531E+02  0.19999993098E+02 0.  0.
        -12    1    1    2    0    0  0.38365214467E+02  0.19715021406E+02  0.48012139208E+01  0.43400730469E+02  0.00000000000E+00 0.  1.
         11    1    3    3    0    0 -0.23368817733E+02 -0.11663350029E+02 -0.65929288316E+01  0.26937002190E+02  0.51100000000E-03 0. -1.
        -11    1    3    3    0    0 -0.13733235572E+01 -0.68604957253E+01  0.15838706604E+01  0.71736368544E+01  0.51100000000E-03 0.  1.
        -12    1    3    3    0    0 -0.13623073178E+02 -0.11911756517E+01  0.20784425046E+00  0.13676630487E+02  0.00000000000E+00 0.  1.
</event>
<event>
 7    1  0.2655656E-009  0.4778727E+02  0.7816164E-02  0.1312668E+00
        -11   -1    0    0    0    0  0.00000000000E+00  0.00000000000E+00  0.45593999997E+02  0.45594000000E+02  0.51100000000E-03 0. -1.
         11   -1    0    0    0    0 -0.00000000000E+00 -0.00000000000E+00 -0.45593999997E+02  0.45594000000E+02  0.51100000000E-03 0.  1.
    9900012    2    1    2    0    0  0.11016266421E+02  0.34229847503E+02  0.24301908123E+02  0.47787270463E+02  0.19999997348E+02 0.  0.
        -12    1    1    2    0    0 -0.11016266421E+02 -0.34229847503E+02 -0.24301908123E+02  0.43400729537E+02  0.00000000000E+00 0.  1.
         11    1    3    3    0    0 -0.11838962469E+01  0.14043869007E+02  0.47892649809E+01  0.14885191511E+02  0.51100000000E-03 0. -1.
        -11    1    3    3    0    0  0.10053679846E+02  0.10003341724E+02  0.17106593220E+02  0.22221135344E+02  0.51100000000E-03 0.  1.
         12    1    3    3    0    0  0.21464828218E+01  0.10182636771E+02  0.24060499225E+01  0.10680943608E+02  0.00000000000E+00 0. -1.
</event>
<event>
 7    1  0.2655656E-009  0.4778724E+02  0.7816164E-02  0.1312668E+00
        -11   -1    0    0    0    0  0.00000000000E+00  0.00000000000E+00  0.45593999997E+02  0.45594000000E+02  0.51100000000E-03 0.  1.
         11   -1    0    0    0    0 -0.00000000000E+00 -0.00000000000E+00 -0.45593999997E+02  0.45594000000E+02  0.51100000000E-03 0. -1.
    9900012    2    1    2    0    0  0.25962450090E+02  0.20467921263E+02 -0.28118338763E+02  0.47787244358E+02  0.19999878327E+02 0.  0.
        -12    1    1    2    0    0 -0.25962450090E+02 -0.20467921263E+02  0.28118338763E+02  0.43400755642E+02  0.00000000000E+00 0.  1.
         11    1    3    3    0    0  0.13023060400E+01 -0.40455383036E+00 -0.12245166728E+00  0.13691820534E+01  0.51100000000E-03 0. -1.
        -11    1    3    3    0    0 -0.35558343941E+00  0.46034433448E+00  0.21610383989E+01  0.22379552523E+01  0.51100000000E-03 0.  1.
        -12    1    3    3    0    0  0.25015727489E+02  0.20412130759E+02 -0.30156925494E+02  0.44180107053E+02  0.00000000000E+00 0.  1.
</event>
<event>
 7    1  0.2655656E-009  0.4778727E+02  0.7816164E-02  0.1312668E+00
        -11   -1    0    0    0    0  0.00000000000E+00  0.00000000000E+00  0.45593999997E+02  0.45594000000E+02  0.51100000000E-03 0.  1.
         11   -1    0    0    0    0 -0.00000000000E+00 -0.00000000000E+00 -0.45593999997E+02  0.45594000000E+02  0.51100000000E-03 0. -1.
    9900012    2    1    2    0    0  0.33587464062E+02  0.22934628145E+02 -0.15149523420E+02  0.47787274544E+02  0.20000015955E+02 0.  0.
        -12    1    1    2    0    0 -0.33587464062E+02 -0.22934628145E+02  0.15149523420E+02  0.43400725456E+02  0.00000000000E+00 0.  1.
         11    1    3    3    0    0  0.18956994664E+02  0.88925369401E+01 -0.11224960833E+02  0.23758042972E+02  0.51100000000E-03 0. -1.
        -11    1    3    3    0    0  0.76069484026E+01  0.10162643586E+02  0.34250217922E+01  0.13148222815E+02  0.51100000000E-03 0.  1.
        -12    1    3    3    0    0  0.70235209957E+01  0.38794476190E+01 -0.73495843797E+01  0.10881008757E+02  0.00000000000E+00 0.  1.
</event>
<event>
 7    1  0.2655656E-009  0.4778727E+02  0.7816164E-02  0.1312668E+00
        -11   -1    0    0    0    0  0.00000000000E+00  0.00000000000E+00  0.45593999997E+02  0.45594000000E+02  0.51100000000E-03 0.  1.
         11   -1    0    0    0    0 -0.00000000000E+00 -0.00000000000E+00 -0.45593999997E+02  0.45594000000E+02  0.51100000000E-03 0. -1.
    9900012    2    1    2    0    0  0.30644044049E+02 -0.79353088806E+01 -0.29691695363E+02  0.47787270326E+02  0.19999996725E+02 0.  0.
        -12    1    1    2    0    0 -0.30644044049E+02  0.79353088806E+01  0.29691695363E+02  0.43400729674E+02  0.00000000000E+00 0.  1.
         11    1    3    3    0    0  0.92105596765E+01 -0.70427347908E+01 -0.21566580816E+01  0.11793459935E+02  0.51100000000E-03 0. -1.
        -11    1    3    3    0    0  0.58593848949E+01 -0.76523714057E+00 -0.23029478023E+01  0.63420460476E+01  0.51100000000E-03 0.  1.
         12    1    3    3    0    0  0.15574099478E+02 -0.12733694922E+00 -0.25232089479E+02  0.29651764344E+02  0.00000000000E+00 0. -1.
</event>
<event>
 7    1  0.2655656E-009  0.4778727E+02  0.7816164E-02  0.1312668E+00
        -11   -1    0    0    0    0  0.00000000000E+00  0.00000000000E+00  0.45593999997E+02  0.45594000000E+02  0.51100000000E-03 0.  1.
         11   -1    0    0    0    0 -0.00000000000E+00 -0.00000000000E+00 -0.45593999997E+02  0.45594000000E+02  0.51100000000E-03 0. -1.
    9900012    2    1    2    0    0  0.42767617880E+02 -0.35072579372E+01  0.65002594715E+01  0.47787269931E+02  0.19999994922E+02 0.  0.
        -12    1    1    2    0    0 -0.42767617880E+02  0.35072579372E+01 -0.65002594715E+01  0.43400730069E+02  0.00000000000E+00 0.  1.
         11    1    3    3    0    0  0.14067922510E+02  0.31989936852E+01 -0.34659615283E+01  0.14837550132E+02  0.51100000000E-03 0. -1.
        -11    1    3    3    0    0  0.15143722188E+02 -0.90282067288E+01  0.49822954930E+01  0.18321138259E+02  0.51100000000E-03 0.  1.
        -12    1    3    3    0    0  0.13555973182E+02  0.23219551064E+01  0.49839255069E+01  0.14628581540E+02  0.00000000000E+00 0.  1.
</event>
<event>
 7    1  0.2655656E-009  0.4778728E+02  0.7816164E-02  0.1312668E+00
        -11   -1    0    0    0    0  0.00000000000E+00  0.00000000000E+00  0.45593999997E+02  0.45594000000E+02  0.51100000000E-03 0.  1.
         11   -1    0    0    0    0 -0.00000000000E+00 -0.00000000000E+00 -0.45593999997E+02  0.45594000000E+02  0.51100000000E-03 0. -1.
    9900012    2    1    2    0    0 -0.26408675422E+02 -0.12406119876E+02 -0.32129309609E+02  0.47787280146E+02  0.20000041496E+02 0.  0.
        -12    1    1    2    0    0  0.26408675422E+02  0.12406119876E+02  0.32129309609E+02  0.43400719854E+02  0.00000000000E+00 0.  1.
         11    1    3    3    0    0 -0.84559915243E+01 -0.10276682328E+00 -0.52249686820E+01  0.99405559033E+01  0.51100000000E-03 0. -1.
        -11    1    3    3    0    0 -0.32944130767E+01 -0.11414580526E+02 -0.13219692418E+02  0.17773746763E+02  0.51100000000E-03 0.  1.
        -12    1    3    3    0    0 -0.14658270821E+02 -0.88877252651E+00 -0.13684648509E+02  0.20072977479E+02  0.00000000000E+00 0.  1.
</event>
<event>
 7    1  0.2801504E-009  0.4778727E+02  0.7816164E-02  0.1312668E+00
        -11   -1    0    0    0    0  0.00000000000E+00  0.00000000000E+00  0.45593999997E+02  0.45594000000E+02  0.51100000000E-03 0. -1.
         11   -1    0    0    0    0 -0.00000000000E+00 -0.00000000000E+00 -0.45593999997E+02  0.45594000000E+02  0.51100000000E-03 0.  1.
    9900012    2    1    2    0    0 -0.10775071413E+02 -0.28766952925E+02  0.30659154713E+02  0.47787268298E+02  0.19999987480E+02 0.  0.
        -12    1    1    2    0    0  0.10775071413E+02  0.28766952925E+02 -0.30659154713E+02  0.43400731702E+02  0.00000000000E+00 0.  1.
         11    1    3    3    0    0 -0.12891144456E+02 -0.24087409979E+02  0.21826711604E+02  0.34968418102E+02  0.51100000000E-03 0. -1.
        -11    1    3    3    0    0  0.12704484743E+01  0.82281098252E+00 -0.78601092175E+00  0.17055411661E+01  0.51100000000E-03 0.  1.
         12    1    3    3    0    0  0.84562456846E+00 -0.55023539284E+01  0.96184540303E+01  0.11113309030E+02  0.00000000000E+00 0. -1.
</event>
<event>
 7    1  0.2655656E-009  0.4778727E+02  0.7816164E-02  0.1312668E+00
        -11   -1    0    0    0    0  0.00000000000E+00  0.00000000000E+00  0.45593999997E+02  0.45594000000E+02  0.51100000000E-03 0.  1.
         11   -1    0    0    0    0 -0.00000000000E+00 -0.00000000000E+00 -0.45593999997E+02  0.45594000000E+02  0.51100000000E-03 0. -1.
    9900012    2    1    2    0    0  0.16352735444E+02 -0.14296943483E+02 -0.37574043821E+02  0.47787270530E+02  0.19999997653E+02 0.  0.
        -12    1    1    2    0    0 -0.16352735444E+02  0.14296943483E+02  0.37574043821E+02  0.43400729470E+02  0.00000000000E+00 0.  1.
         11    1    3    3    0    0  0.59828941550E+01 -0.47895260385E+01 -0.14285465049E+02  0.16211387790E+02  0.51100000000E-03 0. -1.
        -11    1    3    3    0    0  0.85856314685E+01  0.97368573716E+00 -0.17387481178E+02  0.19416117882E+02  0.51100000000E-03 0.  1.
        -12    1    3    3    0    0  0.17842098207E+01 -0.10481103182E+02 -0.59010975944E+01  0.12159764858E+02  0.00000000000E+00 0.  1.
</event>
<event>
 7    1  0.2655656E-009  0.4778727E+02  0.7816164E-02  0.1312668E+00
        -11   -1    0    0    0    0  0.00000000000E+00  0.00000000000E+00  0.45593999997E+02  0.45594000000E+02  0.51100000000E-03 0. -1.
         11   -1    0    0    0    0 -0.00000000000E+00 -0.00000000000E+00 -0.45593999997E+02  0.45594000000E+02  0.51100000000E-03 0.  1.
    9900012    2    1    2    0    0 -0.36413553868E+02 -0.23572195633E+02  0.14241829417E+01  0.47787267180E+02  0.19999982381E+02 0.  0.
        -12    1    1    2    0    0  0.36413553868E+02  0.23572195633E+02 -0.14241829417E+01  0.43400732820E+02  0.00000000000E+00 0.  1.
         11    1    3    3    0    0 -0.12057050458E+01 -0.59290386429E+01 -0.46284054633E+01  0.76177005245E+01  0.51100000000E-03 0.  1.
        -11    1    3    3    0    0 -0.32068398164E+02 -0.16869340608E+02  0.42924059345E+01  0.36488101654E+02  0.51100000000E-03 0. -1.
        -12    1    3    3    0    0 -0.31394506580E+01 -0.77381638209E+00  0.17601824705E+01  0.36814650015E+01  0.00000000000E+00 0.  1.
</event>
<event>
 7    1  0.2655656E-009  0.4778727E+02  0.7816164E-02  0.1312668E+00
        -11   -1    0    0    0    0  0.00000000000E+00  0.00000000000E+00  0.45593999997E+02  0.45594000000E+02  0.51100000000E-03 0. -1.
         11   -1    0    0    0    0 -0.00000000000E+00 -0.00000000000E+00 -0.45593999997E+02  0.45594000000E+02  0.51100000000E-03 0.  1.
    9900012    2    1    2    0    0 -0.41480576994E+02  0.24483736285E+01  0.12529588376E+02  0.47787269752E+02  0.19999994107E+02 0.  0.
        -12    1    1    2    0    0  0.41480576994E+02 -0.24483736285E+01 -0.12529588376E+02  0.43400730248E+02  0.00000000000E+00 0.  1.
         11    1    3    3    0    0 -0.10506813894E+02  0.36889271125E+01 -0.97236742678E+00  0.11177961358E+02  0.51100000000E-03 0. -1.
        -11    1    3    3    0    0 -0.31895014803E+02 -0.28823410583E+01  0.13425200350E+02  0.34725147429E+02  0.51100000000E-03 0.  1.
        -12    1    3    3    0    0  0.92125170349E+00  0.16417875744E+01  0.76755452178E-01  0.18841609644E+01  0.00000000000E+00 0.  1.
</event>
<event>
 7    1  0.2655656E-009  0.4778727E+02  0.7816164E-02  0.1312668E+00
        -11   -1    0    0    0    0  0.00000000000E+00  0.00000000000E+00  0.45593999997E+02  0.45594000000E+02  0.51100000000E-03 0.  1.
         11   -1    0    0    0    0 -0.00000000000E+00 -0.00000000000E+00 -0.45593999997E+02  0.45594000000E+02  0.51100000000E-03 0. -1.
    9900012    2    1    2    0    0  0.73584810430E+01  0.25890594810E+02 -0.34046339480E+02  0.47787269881E+02  0.19999994696E+02 0.  0.
        -12    1    1    2    0    0 -0.73584810430E+01 -0.25890594810E+02  0.34046339480E+02  0.43400730119E+02  0.00000000000E+00 0.  1.
         11    1    3    3    0    0  0.97028487205E+01  0.15662921560E+02 -0.17889111859E+02  0.25680590111E+02  0.51100000000E-03 0. -1.
        -11    1    3    3    0    0  0.11554418526E+01  0.56272817205E+01 -0.93029978187E+00  0.58195191710E+01  0.51100000000E-03 0.  1.
         12    1    3    3    0    0 -0.34998095301E+01  0.46003915300E+01 -0.15226927839E+02  0.16287160599E+02  0.00000000000E+00 0. -1.
</event>
<event>
 7    1  0.2655656E-009  0.4778727E+02  0.7816164E-02  0.1312668E+00
        -11   -1    0    0    0    0  0.00000000000E+00  0.00000000000E+00  0.45593999997E+02  0.45594000000E+02  0.51100000000E-03 0. -1.
         11   -1    0    0    0    0 -0.00000000000E+00 -0.00000000000E+00 -0.45593999997E+02  0.45594000000E+02  0.51100000000E-03 0.  1.
    9900012    2    1    2    0    0  0.20169145553E+02 -0.13069284695E+02  0.36138933367E+02  0.47787272590E+02  0.20000007048E+02 0.  0.
        -12    1    1    2    0    0 -0.20169145553E+02  0.13069284695E+02 -0.36138933367E+02  0.43400727410E+02  0.00000000000E+00 0.  1.
         11    1    3    3    0    0  0.18662943588E+02 -0.89231013647E+01  0.24323959329E+02  0.31930897247E+02  0.51100000000E-03 0. -1.
        -11    1    3    3    0    0 -0.37644606349E-01  0.28755001589E+01  0.58344984063E+01  0.65047129217E+01  0.51100000000E-03 0.  1.
         12    1    3    3    0    0  0.15438465720E+01 -0.70216834890E+01  0.59804756318E+01  0.93516624212E+01  0.00000000000E+00 0. -1.
</event>
<event>
 7    1  0.2655656E-009  0.4778723E+02  0.7816164E-02  0.1312668E+00
        -11   -1    0    0    0    0  0.00000000000E+00  0.00000000000E+00  0.45593999997E+02  0.45594000000E+02  0.51100000000E-03 0. -1.
         11   -1    0    0    0    0 -0.00000000000E+00 -0.00000000000E+00 -0.45593999997E+02  0.45594000000E+02  0.51100000000E-03 0.  1.
    9900012    2    1    2    0    0 -0.30401133837E+02  0.30972556994E+02  0.31349217233E+00  0.47787233847E+02  0.19999830402E+02 0.  0.
        -12    1    1    2    0    0  0.30401133837E+02 -0.30972556994E+02 -0.31349217233E+00  0.43400766153E+02  0.00000000000E+00 0.  1.
         11    1    3    3    0    0 -0.17910689859E+02  0.12331537355E+02  0.40037847201E+01  0.22110855187E+02  0.51100000000E-03 0. -1.
        -11    1    3    3    0    0 -0.90780544981E+01  0.14500102139E+02 -0.79124444388E+01  0.18848628936E+02  0.51100000000E-03 0.  1.
        -12    1    3    3    0    0 -0.34123894803E+01  0.41409174991E+01  0.42221518911E+01  0.68277497238E+01  0.00000000000E+00 0.  1.
</event>
<event>
 7    1  0.2877714E-009  0.4778727E+02  0.7816164E-02  0.1312668E+00
        -11   -1    0    0    0    0  0.00000000000E+00  0.00000000000E+00  0.45593999997E+02  0.45594000000E+02  0.51100000000E-03 0. -1.
         11   -1    0    0    0    0 -0.00000000000E+00 -0.00000000000E+00 -0.45593999997E+02  0.45594000000E+02  0.51100000000E-03 0.  1.
    9900012    2    1    2    0    0  0.71928872587E+01  0.19190301055E+02  0.38257260249E+02  0.47787271395E+02  0.20000001599E+02 0.  0.
        -12    1    1    2    0    0 -0.71928872587E+01 -0.19190301055E+02 -0.38257260249E+02  0.43400728605E+02  0.00000000000E+00 0.  1.
         11    1    3    3    0    0  0.19599563233E+01  0.19201935330E+02  0.23263752187E+02  0.30228428926E+02  0.51100000000E-03 0. -1.
        -11    1    3    3    0    0  0.17509923513E+01 -0.23005651082E+01  0.11664496322E+01  0.31175597888E+01  0.51100000000E-03 0.  1.
         12    1    3    3    0    0  0.34819385841E+01  0.22889308330E+01  0.13827058429E+02  0.14441282681E+02  0.00000000000E+00 0. -1.
</event>
<event>
 7    1  0.2655656E-009  0.4778728E+02  0.7816164E-02  0.1312668E+00
        -11   -1    0    0    0    0  0.00000000000E+00  0.00000000000E+00  0.45593999997E+02  0.45594000000E+02  0.51100000000E-03 0. -1.
         11   -1    0    0    0    0 -0.00000000000E+00 -0.00000000000E+00 -0.45593999997E+02  0.45594000000E+02  0.51100000000E-03 0.  1.
    9900012    2    1    2    0    0  0.13241213359E+01 -0.31631775804E+02  0.29686702739E+02  0.47787275843E+02  0.20000021879E+02 0.  0.
        -12    1    1    2    0    0 -0.13241213359E+01  0.31631775804E+02 -0.29686702739E+02  0.43400724157E+02  0.00000000000E+00 0.  1.
         11    1    3    3    0    0 -0.36376327815E+01 -0.13384325832E+02  0.17058875051E+02  0.21985853827E+02  0.51100000000E-03 0. -1.
        -11    1    3    3    0    0  0.76978106724E+01 -0.92559587532E+01  0.31287260522E+01  0.12438568590E+02  0.51100000000E-03 0.  1.
        -12    1    3    3    0    0 -0.27360565550E+01 -0.89914912193E+01  0.94991016360E+01  0.13362853427E+02  0.00000000000E+00 0.  1.
</event>
<event>
 7    1  0.2655656E-009  0.4778727E+02  0.7816164E-02  0.1312668E+00
        -11   -1    0    0    0    0  0.00000000000E+00  0.00000000000E+00  0.45593999997E+02  0.45594000000E+02  0.51100000000E-03 0. -1.
         11   -1    0    0    0    0 -0.00000000000E+00 -0.00000000000E+00 -0.45593999997E+02  0.45594000000E+02  0.51100000000E-03 0.  1.
    9900012    2    1    2    0    0  0.41299352188E+02  0.12064013758E+02  0.56961863457E+01  0.47787268923E+02  0.19999990327E+02 0.  0.
        -12    1    1    2    0    0 -0.41299352188E+02 -0.12064013758E+02 -0.56961863457E+01  0.43400731077E+02  0.00000000000E+00 0.  1.
         11    1    3    3    0    0  0.32120877312E+02  0.15068108191E+02  0.46040296436E+00  0.35482539578E+02  0.51100000000E-03 0. -1.
        -11    1    3    3    0    0  0.97016237159E+01 -0.28505445283E+01  0.38575280956E+01  0.10822551922E+02  0.51100000000E-03 0.  1.
         12    1    3    3    0    0 -0.52314883941E+00 -0.15354990399E+00  0.13782552857E+01  0.14821774231E+01  0.00000000000E+00 0. -1.
</event>
<event>
 7    1  0.2655656E-009  0.4778728E+02  0.7816164E-02  0.1312668E+00
        -11   -1    0    0    0    0  0.00000000000E+00  0.00000000000E+00  0.45593999997E+02  0.45594000000E+02  0.51100000000E-03 0. -1.
         11   -1    0    0    0    0 -0.00000000000E+00 -0.00000000000E+00 -0.45593999997E+02  0.45594000000E+02  0.51100000000E-03 0.  1.
    9900012    2    1    2    0    0 -0.10127394057E+02  0.68659257494E+01  0.41640330033E+02  0.47787284199E+02  0.20000059976E+02 0.  0.
        -12    1    1    2    0    0  0.10127394057E+02 -0.68659257494E+01 -0.41640330033E+02  0.43400715801E+02  0.00000000000E+00 0.  1.
         11    1    3    3    0    0  0.11286887818E+00 -0.48306159999E+00  0.73395812001E+01  0.73563265525E+01  0.51100000000E-03 0. -1.
        -11    1    3    3    0    0 -0.93717687152E+01 -0.31558979564E+01  0.22678397772E+02  0.24740644020E+02  0.51100000000E-03 0.  1.
        -12    1    3    3    0    0 -0.86849421986E+00  0.10504885306E+02  0.11622351062E+02  0.15690313627E+02  0.00000000000E+00 0.  1.
</event>
<event>
 7    1  0.2655656E-009  0.4778728E+02  0.7816164E-02  0.1312668E+00
        -11   -1    0    0    0    0  0.00000000000E+00  0.00000000000E+00  0.45593999997E+02  0.45594000000E+02  0.51100000000E-03 0.  1.
         11   -1    0    0    0    0 -0.00000000000E+00 -0.00000000000E+00 -0.45593999997E+02  0.45594000000E+02  0.51100000000E-03 0. -1.
    9900012    2    1    2    0    0  0.38913445280E+02  0.97722727808E+01 -0.16548991409E+02  0.47787278169E+02  0.20000032482E+02 0.  0.
        -12    1    1    2    0    0 -0.38913445280E+02 -0.97722727808E+01  0.16548991409E+02  0.43400721831E+02  0.00000000000E+00 0.  1.
         11    1    3    3    0    0  0.72929200677E+01  0.49250951483E+01 -0.40816943511E+00  0.88096451621E+01  0.51100000000E-03 0. -1.
        -11    1    3    3    0    0  0.15525364439E+02  0.81953610676E+01 -0.13886988567E+02  0.22384131337E+02  0.51100000000E-03 0.  1.
        -12    1    3    3    0    0  0.16095160773E+02 -0.33481834351E+01 -0.22538334068E+01  0.16593501669E+02  0.00000000000E+00 0.  1.
</event>
<event>
 7    1  0.2655656E-009  0.4778727E+02  0.7816164E-02  0.1312668E+00
        -11   -1    0    0    0    0  0.00000000000E+00  0.00000000000E+00  0.45593999997E+02  0.45594000000E+02  0.51100000000E-03 0. -1.
         11   -1    0    0    0    0 -0.00000000000E+00 -0.00000000000E+00 -0.45593999997E+02  0.45594000000E+02  0.51100000000E-03 0.  1.
    9900012    2    1    2    0    0 -0.20757086605E+02  0.30597428225E+02  0.22728048198E+02  0.47787269209E+02  0.19999991632E+02 0.  0.
        -12    1    1    2    0    0  0.20757086605E+02 -0.30597428225E+02 -0.22728048198E+02  0.43400730791E+02  0.00000000000E+00 0.  1.
         11    1    3    3    0    0 -0.15032835769E+02  0.23987178066E+02  0.16567801136E+02  0.32800349046E+02  0.51100000000E-03 0. -1.
        -11    1    3    3    0    0  0.61530961976E-01  0.18581550200E+01  0.71925248822E+01  0.74289259372E+01  0.51100000000E-03 0.  1.
        -12    1    3    3    0    0 -0.57857817978E+01  0.47520951386E+01 -0.10322778197E+01  0.75579942256E+01  0.00000000000E+00 0.  1.
</event>
<event>
 7    1  0.2655656E-009  0.4778727E+02  0.7816164E-02  0.1312668E+00
        -11   -1    0    0    0    0  0.00000000000E+00  0.00000000000E+00  0.45593999997E+02  0.45594000000E+02  0.51100000000E-03 0. -1.
         11   -1    0    0    0    0 -0.00000000000E+00 -0.00000000000E+00 -0.45593999997E+02  0.45594000000E+02  0.51100000000E-03 0.  1.
    9900012    2    1    2    0    0  0.39676611841E+01 -0.28894972879E+02  0.32139725598E+02  0.47787265508E+02  0.19999974757E+02 0.  0.
        -12    1    1    2    0    0 -0.39676611841E+01  0.28894972879E+02 -0.32139725598E+02  0.43400734492E+02  0.00000000000E+00 0.  1.
         11    1    3    3    0    0 -0.24792538673E+01  0.13722670665E+01 -0.36356067540E+00  0.28569202414E+01  0.51100000000E-03 0.  1.
        -11    1    3    3    0    0  0.60746268668E+01 -0.24791980355E+02  0.26375668636E+02  0.36704485799E+02  0.51100000000E-03 0. -1.
        -12    1    3    3    0    0  0.37228818455E+00 -0.54752595908E+01  0.61276176365E+01  0.82258594675E+01  0.00000000000E+00 0.  1.
</event>
<event>
 7    1  0.2655656E-009  0.4778727E+02  0.7816164E-02  0.1312668E+00
        -11   -1    0    0    0    0  0.00000000000E+00  0.00000000000E+00  0.45593999997E+02  0.45594000000E+02  0.51100000000E-03 0.  1.
         11   -1    0    0    0    0 -0.00000000000E+00 -0.00000000000E+00 -0.45593999997E+02  0.45594000000E+02  0.51100000000E-03 0. -1.
    9900012    2    1    2    0    0 -0.14096657950E+02  0.12534200267E+02 -0.39087100127E+02  0.47787270305E+02  0.19999996629E+02 0.  0.
        -12    1    1    2    0    0  0.14096657950E+02 -0.12534200267E+02  0.39087100127E+02  0.43400729695E+02  0.00000000000E+00 0.  1.
         11    1    3    3    0    0 -0.74102976353E+01 -0.32104960986E+01 -0.86200196649E+01  0.11812050437E+02  0.51100000000E-03 0. -1.
        -11    1    3    3    0    0  0.63718658430E+00  0.80100675757E+01 -0.93845198748E+01  0.12354610591E+02  0.51100000000E-03 0.  1.
         12    1    3    3    0    0 -0.73235468993E+01  0.77346287903E+01 -0.21082560587E+02  0.23620609277E+02  0.00000000000E+00 0. -1.
</event>
<event>
 7    1  0.2655656E-009  0.4778727E+02  0.7816164E-02  0.1312668E+00
        -11   -1    0    0    0    0  0.00000000000E+00  0.00000000000E+00  0.45593999997E+02  0.45594000000E+02  0.51100000000E-03 0.  1.
         11   -1    0    0    0    0 -0.00000000000E+00 -0.00000000000E+00 -0.45593999997E+02  0.45594000000E+02  0.51100000000E-03 0. -1.
    9900012    2    1    2    0    0  0.15780545536E+02  0.24966919015E+02 -0.31800171961E+02  0.47787267296E+02  0.19999982911E+02 0.  0.
        -12    1    1    2    0    0 -0.15780545536E+02 -0.24966919015E+02  0.31800171961E+02  0.43400732704E+02  0.00000000000E+00 0.  1.
         11    1    3    3    0    0  0.11755832570E+02  0.12978607018E+02 -0.21545106927E+02  0.27763923935E+02  0.51100000000E-03 0. -1.
        -11    1    3    3    0    0  0.80212862706E+01  0.64197141741E+01 -0.52608918633E+01  0.11542562409E+02  0.51100000000E-03 0.  1.
        -12    1    3    3    0    0 -0.39965733050E+01  0.55685978230E+01 -0.49941731704E+01  0.84807809518E+01  0.00000000000E+00 0.  1.
</event>
<event>
 7    1  0.2655656E-009  0.4778727E+02  0.7816164E-02  0.1312668E+00
        -11   -1    0    0    0    0  0.00000000000E+00  0.00000000000E+00  0.45593999997E+02  0.45594000000E+02  0.51100000000E-03 0.  1.
         11   -1    0    0    0    0 -0.00000000000E+00 -0.00000000000E+00 -0.45593999997E+02  0.45594000000E+02  0.51100000000E-03 0. -1.
    9900012    2    1    2    0    0  0.89102338821E+01  0.31755843876E+01 -0.42357369024E+02  0.47787270575E+02  0.19999997859E+02 0.  0.
        -12    1    1    2    0    0 -0.89102338821E+01 -0.31755843876E+01  0.42357369024E+02  0.43400729425E+02  0.00000000000E+00 0.  1.
         11    1    3    3    0    0  0.73334574445E+01  0.98472779096E+01 -0.26048174028E+02  0.28796802787E+02  0.51100000000E-03 0. -1.
        -11    1    3    3    0    0  0.67918194536E+00 -0.32281312753E+01 -0.12681260199E+01  0.35341566899E+01  0.51100000000E-03 0.  1.
        -12    1    3    3    0    0  0.89759449224E+00 -0.34435622467E+01 -0.15041068976E+02  0.15456311098E+02  0.00000000000E+00 0.  1.
</event>
<event>
 7    1  0.2655656E-009  0.4778724E+02  0.7816164E-02  0.1312668E+00
        -11   -1    0    0    0    0  0.00000000000E+00  0.00000000000E+00  0.45593999997E+02  0.45594000000E+02  0.51100000000E-03 0.  1.
         11   -1    0    0    0    0 -0.00000000000E+00 -0.00000000000E+00 -0.45593999997E+02  0.45594000000E+02  0.51100000000E-03 0. -1.
    9900012    2    1    2    0    0  0.41245122561E+02 -0.49020768640E+01 -0.12587126271E+02  0.47787236868E+02  0.19999844175E+02 0.  0.
        -12    1    1    2    0    0 -0.41245122561E+02  0.49020768640E+01  0.12587126271E+02  0.43400763132E+02  0.00000000000E+00 0.  1.
         11    1    3    3    0    0  0.27403366464E+01 -0.25136605273E+01 -0.41881322864E+01  0.56007487439E+01  0.51100000000E-03 0.  1.
        -11    1    3    3    0    0  0.15387149686E+02  0.13112980164E+01 -0.10509467284E+02  0.18679742525E+02  0.51100000000E-03 0. -1.
        -12    1    3    3    0    0  0.23117636229E+02 -0.36997143530E+01  0.21104732994E+01  0.23506745599E+02  0.00000000000E+00 0.  1.
</event>
<event>
 7    1  0.2655656E-009  0.4778727E+02  0.7816164E-02  0.1312668E+00
        -11   -1    0    0    0    0  0.00000000000E+00  0.00000000000E+00  0.45593999997E+02  0.45594000000E+02  0.51100000000E-03 0. -1.
         11   -1    0    0    0    0 -0.00000000000E+00 -0.00000000000E+00 -0.45593999997E+02  0.45594000000E+02  0.51100000000E-03 0.  1.
    9900012    2    1    2    0    0 -0.81603261187E+01  0.41807531932E+02  0.83164026332E+01  0.47787271880E+02  0.20000003810E+02 0.  0.
        -12    1    1    2    0    0  0.81603261187E+01 -0.41807531932E+02 -0.83164026332E+01  0.43400728120E+02  0.00000000000E+00 0.  1.
         11    1    3    3    0    0 -0.74730429642E+01  0.29815251703E+02  0.10236137694E+02  0.32397131360E+02  0.51100000000E-03 0. -1.
        -11    1    3    3    0    0 -0.11099966708E+01  0.15102710367E+01 -0.42490911798E+01  0.46441131908E+01  0.51100000000E-03 0.  1.
        -12    1    3    3    0    0  0.42271351635E+00  0.10482009192E+02  0.23293561191E+01  0.10746027329E+02  0.00000000000E+00 0.  1.
</event>
<event>
 7    1  0.2655656E-009  0.4778727E+02  0.7816164E-02  0.1312668E+00
        -11   -1    0    0    0    0  0.00000000000E+00  0.00000000000E+00  0.45593999997E+02  0.45594000000E+02  0.51100000000E-03 0. -1.
         11   -1    0    0    0    0 -0.00000000000E+00 -0.00000000000E+00 -0.45593999997E+02  0.45594000000E+02  0.51100000000E-03 0.  1.
    9900012    2    1    2    0    0  0.40958222516E+01  0.38872870490E+02  0.18861264812E+02  0.47787272697E+02  0.20000007537E+02 0.  0.
        -12    1    1    2    0    0 -0.40958222516E+01 -0.38872870490E+02 -0.18861264812E+02  0.43400727303E+02  0.00000000000E+00 0.  1.
         11    1    3    3    0    0  0.37252847362E+01 -0.71297202427E+00  0.32589216033E+01  0.50006645309E+01  0.51100000000E-03 0.  1.
        -11    1    3    3    0    0  0.18456886789E+01  0.32719118146E+02  0.12053452584E+02  0.34917516784E+02  0.51100000000E-03 0. -1.
        -12    1    3    3    0    0 -0.14751511635E+01  0.68667243688E+01  0.35488906250E+01  0.78690913821E+01  0.00000000000E+00 0.  1.
</event>
<event>
 7    1  0.2655656E-009  0.4778727E+02  0.7816164E-02  0.1312668E+00
        -11   -1    0    0    0    0  0.00000000000E+00  0.00000000000E+00  0.45593999997E+02  0.45594000000E+02  0.51100000000E-03 0. -1.
         11   -1    0    0    0    0 -0.00000000000E+00 -0.00000000000E+00 -0.45593999997E+02  0.45594000000E+02  0.51100000000E-03 0.  1.
    9900012    2    1    2    0    0  0.15804348753E+02 -0.25476728035E+02  0.31381239086E+02  0.47787271004E+02  0.19999999815E+02 0.  0.
        -12    1    1    2    0    0 -0.15804348753E+02  0.25476728035E+02 -0.31381239086E+02  0.43400728996E+02  0.00000000000E+00 0.  1.
         11    1    3    3    0    0  0.12310189183E+02 -0.22739653114E+02  0.29800299992E+02  0.39454916821E+02  0.51100000000E-03 0. -1.
        -11    1    3    3    0    0  0.42124667805E+01 -0.24229791149E+01 -0.15530999152E+01  0.51017471297E+01  0.51100000000E-03 0.  1.
        -12    1    3    3    0    0 -0.71830721096E+00 -0.31409580571E+00  0.31340390084E+01  0.32306070529E+01  0.00000000000E+00 0.  1.
</event>
<event>
 7    1  0.2655656E-009  0.4778727E+02  0.7816164E-02  0.1312668E+00
        -11   -1    0    0    0    0  0.00000000000E+00  0.00000000000E+00  0.45593999997E+02  0.45594000000E+02  0.51100000000E-03 0.  1.
         11   -1    0    0    0    0 -0.00000000000E+00 -0.00000000000E+00 -0.45593999997E+02  0.45594000000E+02  0.51100000000E-03 0. -1.
    9900012    2    1    2    0    0  0.37696997745E+02  0.21450210020E+02  0.15647816952E+01  0.47787266244E+02  0.19999978111E+02 0.  0.
        -12    1    1    2    0    0 -0.37696997745E+02 -0.21450210020E+02 -0.15647816952E+01  0.43400733756E+02  0.00000000000E+00 0.  1.
         11    1    3    3    0    0  0.53276504329E+01  0.30494775220E+01  0.17329937903E+00  0.61411078177E+01  0.51100000000E-03 0. -1.
        -11    1    3    3    0    0  0.20268229571E+01  0.96182811251E+01 -0.14275754007E+01  0.99326388682E+01  0.51100000000E-03 0.  1.
        -12    1    3    3    0    0  0.30342524355E+02  0.87824513725E+01  0.28190577168E+01  0.31713519558E+02  0.00000000000E+00 0.  1.
</event>
<event>
 7    1  0.2655656E-009  0.4778730E+02  0.7816164E-02  0.1312668E+00
        -11   -1    0    0    0    0  0.00000000000E+00  0.00000000000E+00  0.45593999997E+02  0.45594000000E+02  0.51100000000E-03 0.  1.
         11   -1    0    0    0    0 -0.00000000000E+00 -0.00000000000E+00 -0.45593999997E+02  0.45594000000E+02  0.51100000000E-03 0. -1.
    9900012    2    1    2    0    0 -0.36611111780E+02 -0.31241869516E+01 -0.23097339549E+02  0.47787295580E+02  0.20000111869E+02 0.  0.
        -12    1    1    2    0    0  0.36611111780E+02  0.31241869516E+01  0.23097339549E+02  0.43400704420E+02  0.00000000000E+00 0.  1.
         11    1    3    3    0    0 -0.22568313958E+02 -0.93318053110E+01 -0.20884753886E+02  0.32133850227E+02  0.51100000000E-03 0. -1.
        -11    1    3    3    0    0 -0.13132157669E+02  0.58835607876E+01 -0.15318861136E+01  0.14471231044E+02  0.51100000000E-03 0.  1.
         12    1    3    3    0    0 -0.91064015296E+00  0.32405757184E+00 -0.68069954970E+00  0.11822143101E+01  0.00000000000E+00 0. -1.
</event>
<event>
 7    1  0.2655656E-009  0.4778727E+02  0.7816164E-02  0.1312668E+00
        -11   -1    0    0    0    0  0.00000000000E+00  0.00000000000E+00  0.45593999997E+02  0.45594000000E+02  0.51100000000E-03 0.  1.
         11   -1    0    0    0    0 -0.00000000000E+00 -0.00000000000E+00 -0.45593999997E+02  0.45594000000E+02  0.51100000000E-03 0. -1.
    9900012    2    1    2    0    0  0.11023659572E+02 -0.63072606033E+01 -0.41500857093E+02  0.47787265604E+02  0.19999975196E+02 0.  0.
        -12    1    1    2    0    0 -0.11023659572E+02  0.63072606033E+01  0.41500857093E+02  0.43400734396E+02  0.00000000000E+00 0.  1.
         11    1    3    3    0    0  0.56707067905E+01  0.20567582162E+01 -0.14630566322E+02  0.15825316459E+02  0.51100000000E-03 0. -1.
        -11    1    3    3    0    0 -0.12987069863E+01 -0.89747517529E+01 -0.21688791736E+02  0.23508221883E+02  0.51100000000E-03 0.  1.
        -12    1    3    3    0    0  0.66516597677E+01  0.61073293341E+00 -0.51814990349E+01  0.84537272626E+01  0.00000000000E+00 0.  1.
</event>
<event>
 7    1  0.2655656E-009  0.4778727E+02  0.7816164E-02  0.1312668E+00
        -11   -1    0    0    0    0  0.00000000000E+00  0.00000000000E+00  0.45593999997E+02  0.45594000000E+02  0.51100000000E-03 0.  1.
         11   -1    0    0    0    0 -0.00000000000E+00 -0.00000000000E+00 -0.45593999997E+02  0.45594000000E+02  0.51100000000E-03 0. -1.
    9900012    2    1    2    0    0  0.39796682613E+01 -0.78038263220E+01 -0.42507479672E+02  0.47787270827E+02  0.19999999008E+02 0.  0.
        -12    1    1    2    0    0 -0.39796682613E+01  0.78038263220E+01  0.42507479672E+02  0.43400729173E+02  0.00000000000E+00 0.  1.
         11    1    3    3    0    0  0.23268360691E+01  0.56195812902E+00 -0.13292264704E+02  0.13506082491E+02  0.51100000000E-03 0. -1.
        -11    1    3    3    0    0  0.38943068225E+01  0.17641869910E+01 -0.19847780828E+02  0.20303014196E+02  0.51100000000E-03 0.  1.
        -12    1    3    3    0    0 -0.22414746303E+01 -0.10129971442E+02 -0.93674341393E+01  0.13978174140E+02  0.00000000000E+00 0.  1.
</event>
<event>
 7    1  0.2655656E-009  0.4778728E+02  0.7816164E-02  0.1312668E+00
        -11   -1    0    0    0    0  0.00000000000E+00  0.00000000000E+00  0.45593999997E+02  0.45594000000E+02  0.51100000000E-03 0.  1.
         11   -1    0    0    0    0 -0.00000000000E+00 -0.00000000000E+00 -0.45593999997E+02  0.45594000000E+02  0.51100000000E-03 0. -1.
    9900012    2    1    2    0    0 -0.35737787473E+02 -0.10387982626E+02 -0.22327633769E+02  0.47787275741E+02  0.20000021414E+02 0.  0.
        -12    1    1    2    0    0  0.35737787473E+02  0.10387982626E+02  0.22327633769E+02  0.43400724259E+02  0.00000000000E+00 0.  1.
         11    1    3    3    0    0 -0.18636808872E+02 -0.71587518495E+01 -0.21236719362E+02  0.29147497706E+02  0.51100000000E-03 0. -1.
        -11    1    3    3    0    0 -0.34102852195E+01 -0.29056162382E+01  0.14550535860E+01  0.47106084746E+01  0.51100000000E-03 0.  1.
         12    1    3    3    0    0 -0.13690693382E+02 -0.32361453785E+00 -0.25459679923E+01  0.13929169561E+02  0.00000000000E+00 0. -1.
</event>
<event>
 7    1  0.2655656E-009  0.4778730E+02  0.7816164E-02  0.1312668E+00
        -11   -1    0    0    0    0  0.00000000000E+00  0.00000000000E+00  0.45593999997E+02  0.45594000000E+02  0.51100000000E-03 0.  1.
         11   -1    0    0    0    0 -0.00000000000E+00 -0.00000000000E+00 -0.45593999997E+02  0.45594000000E+02  0.51100000000E-03 0. -1.
    9900012    2    1    2    0    0  0.22464170411E+02 -0.74689758140E+01 -0.36375765915E+02  0.47787298418E+02  0.20000124805E+02 0.  0.
        -12    1    1    2    0    0 -0.22464170411E+02  0.74689758140E+01  0.36375765915E+02  0.43400701582E+02  0.00000000000E+00 0.  1.
         11    1    3    3    0    0  0.29981259788E+01  0.29138808084E+01 -0.17396986075E+02  0.17892305203E+02  0.51100000000E-03 0. -1.
        -11    1    3    3    0    0  0.62258902398E+01 -0.27917085097E+01 -0.20992771625E+01  0.71387891513E+01  0.51100000000E-03 0.  1.
         12    1    3    3    0    0  0.13240154192E+02 -0.75911481127E+01 -0.16879502678E+02  0.22756204063E+02  0.00000000000E+00 0. -1.
</event>
<event>
 7    1  0.2655656E-009  0.4778727E+02  0.7816164E-02  0.1312668E+00
        -11   -1    0    0    0    0  0.00000000000E+00  0.00000000000E+00  0.45593999997E+02  0.45594000000E+02  0.51100000000E-03 0. -1.
         11   -1    0    0    0    0 -0.00000000000E+00 -0.00000000000E+00 -0.45593999997E+02  0.45594000000E+02  0.51100000000E-03 0.  1.
    9900012    2    1    2    0    0  0.32166344125E+02 -0.13880732356E+02 -0.25617855407E+02  0.47787274883E+02  0.20000017500E+02 0.  0.
        -12    1    1    2    0    0 -0.32166344125E+02  0.13880732356E+02  0.25617855407E+02  0.43400725117E+02  0.00000000000E+00 0.  1.
         11    1    3    3    0    0  0.16700924749E+02 -0.92924695979E+01 -0.16259134806E+02  0.25092435983E+02  0.51100000000E-03 0. -1.
        -11    1    3    3    0    0  0.15144472682E+01  0.32073705651E+01  0.95651678142E+00  0.36736495593E+01  0.51100000000E-03 0.  1.
        -12    1    3    3    0    0  0.13950972108E+02 -0.77956333228E+01 -0.10315237383E+02  0.19021189340E+02  0.00000000000E+00 0.  1.
</event>
<event>
 7    1  0.2655656E-009  0.4778727E+02  0.7816164E-02  0.1312668E+00
        -11   -1    0    0    0    0  0.00000000000E+00  0.00000000000E+00  0.45593999997E+02  0.45594000000E+02  0.51100000000E-03 0. -1.
         11   -1    0    0    0    0 -0.00000000000E+00 -0.00000000000E+00 -0.45593999997E+02  0.45594000000E+02  0.51100000000E-03 0.  1.
    9900012    2    1    2    0    0  0.36841988847E+02  0.20812448032E+02  0.96505369597E+01  0.47787274213E+02  0.20000014445E+02 0.  0.
        -12    1    1    2    0    0 -0.36841988847E+02 -0.20812448032E+02 -0.96505369597E+01  0.43400725787E+02  0.00000000000E+00 0.  1.
         11    1    3    3    0    0  0.11954554118E+02  0.91492567325E+00 -0.25033040622E+01  0.12248060444E+02  0.51100000000E-03 0. -1.
        -11    1    3    3    0    0  0.55267879888E+00  0.80705671075E+00 -0.14509870218E+01  0.17499022794E+01  0.51100000000E-03 0.  1.
         12    1    3    3    0    0  0.24334755930E+02  0.19090465648E+02  0.13604828044E+02  0.33789311489E+02  0.00000000000E+00 0. -1.
</event>
<event>
 7    1  0.2655656E-009  0.4778729E+02  0.7816164E-02  0.1312668E+00
        -11   -1    0    0    0    0  0.00000000000E+00  0.00000000000E+00  0.45593999997E+02  0.45594000000E+02  0.51100000000E-03 0. -1.
         11   -1    0    0    0    0 -0.00000000000E+00 -0.00000000000E+00 -0.45593999997E+02  0.45594000000E+02  0.51100000000E-03 0.  1.
    9900012    2    1    2    0    0  0.24165656182E+02  0.30104015702E+02  0.19834088490E+02  0.47787288412E+02  0.20000079187E+02 0.  0.
        -12    1    1    2    0    0 -0.24165656182E+02 -0.30104015702E+02 -0.19834088490E+02  0.43400711588E+02  0.00000000000E+00 0.  1.
         11    1    3    3    0    0  0.69262182603E+01  0.22811212636E+02  0.10426936407E+02  0.26020086941E+02  0.51100000000E-03 0. -1.
        -11    1    3    3    0    0 -0.43985142315E+00  0.37709473491E+00  0.61929411078E+00  0.84805375437E+00  0.51100000000E-03 0.  1.
         12    1    3    3    0    0  0.17679289345E+02  0.69157083306E+01  0.87878579725E+01  0.20919147717E+02  0.00000000000E+00 0. -1.
</event>
<event>
 7    1  0.2655656E-009  0.4778727E+02  0.7816164E-02  0.1312668E+00
        -11   -1    0    0    0    0  0.00000000000E+00  0.00000000000E+00  0.45593999997E+02  0.45594000000E+02  0.51100000000E-03 0. -1.
         11   -1    0    0    0    0 -0.00000000000E+00 -0.00000000000E+00 -0.45593999997E+02  0.45594000000E+02  0.51100000000E-03 0.  1.
    9900012    2    1    2    0    0  0.29178760337E+02  0.57373457990E+01  0.31611802631E+02  0.47787271236E+02  0.20000000875E+02 0.  0.
        -12    1    1    2    0    0 -0.29178760337E+02 -0.57373457990E+01 -0.31611802631E+02  0.43400728764E+02  0.00000000000E+00 0.  1.
         11    1    3    3    0    0 -0.10734982353E+01 -0.91611935693E+00  0.82483331127E+01  0.83681941025E+01  0.51100000000E-03 0. -1.
        -11    1    3    3    0    0  0.25194428653E+02  0.80789385158E+01  0.18773099566E+02  0.32441605236E+02  0.51100000000E-03 0.  1.
        -12    1    3    3    0    0  0.50578299185E+01 -0.14254733599E+01  0.45903699522E+01  0.69774718977E+01  0.00000000000E+00 0.  1.
</event>
<event>
 7    1  0.2655656E-009  0.4778727E+02  0.7816164E-02  0.1312668E+00
        -11   -1    0    0    0    0  0.00000000000E+00  0.00000000000E+00  0.45593999997E+02  0.45594000000E+02  0.51100000000E-03 0. -1.
         11   -1    0    0    0    0 -0.00000000000E+00 -0.00000000000E+00 -0.45593999997E+02  0.45594000000E+02  0.51100000000E-03 0.  1.
    9900012    2    1    2    0    0  0.27123152746E+02 -0.32966662042E+02  0.78203276020E+01  0.47787265618E+02  0.19999975261E+02 0.  0.
        -12    1    1    2    0    0 -0.27123152746E+02  0.32966662042E+02 -0.78203276020E+01  0.43400734382E+02  0.00000000000E+00 0.  1.
         11    1    3    3    0    0  0.66864415239E+01 -0.14640254889E+02  0.73514508255E+01  0.17694332227E+02  0.51100000000E-03 0. -1.
        -11    1    3    3    0    0  0.15286207060E+02 -0.57584289482E+01 -0.13440905039E+01  0.16390064362E+02  0.51100000000E-03 0.  1.
        -12    1    3    3    0    0  0.51505041613E+01 -0.12567978205E+02  0.18129672805E+01  0.13702869029E+02  0.00000000000E+00 0.  1.
</event>
<event>
 7    1  0.2655656E-009  0.4778727E+02  0.7816164E-02  0.1312668E+00
        -11   -1    0    0    0    0  0.00000000000E+00  0.00000000000E+00  0.45593999997E+02  0.45594000000E+02  0.51100000000E-03 0.  1.
         11   -1    0    0    0    0 -0.00000000000E+00 -0.00000000000E+00 -0.45593999997E+02  0.45594000000E+02  0.51100000000E-03 0. -1.
    9900012    2    1    2    0    0  0.42719516194E+02 -0.44884889738E+01 -0.62064373724E+01  0.47787268877E+02  0.19999990118E+02 0.  0.
        -12    1    1    2    0    0 -0.42719516194E+02  0.44884889738E+01  0.62064373724E+01  0.43400731123E+02  0.00000000000E+00 0.  1.
         11    1    3    3    0    0  0.50864313810E+01  0.12179476616E+01 -0.64079131165E+01  0.82714286233E+01  0.51100000000E-03 0.  1.
        -11    1    3    3    0    0  0.75829852638E+01  0.29857784939E+01 -0.10001569903E+01  0.82107766376E+01  0.51100000000E-03 0. -1.
         12    1    3    3    0    0  0.30050099549E+02 -0.86922151294E+01  0.12016327345E+01  0.31305063616E+02  0.00000000000E+00 0. -1.
</event>
<event>
 7    1  0.2655656E-009  0.4778727E+02  0.7816164E-02  0.1312668E+00
        -11   -1    0    0    0    0  0.00000000000E+00  0.00000000000E+00  0.45593999997E+02  0.45594000000E+02  0.51100000000E-03 0.  1.
         11   -1    0    0    0    0 -0.00000000000E+00 -0.00000000000E+00 -0.45593999997E+02  0.45594000000E+02  0.51100000000E-03 0. -1.
    9900012    2    1    2    0    0 -0.23732668074E+02 -0.86881694540E+01 -0.35283134777E+02  0.47787269338E+02  0.19999992218E+02 0.  0.
        -12    1    1    2    0    0  0.23732668074E+02  0.86881694540E+01  0.35283134777E+02  0.43400730662E+02  0.00000000000E+00 0.  1.
         11    1    3    3    0    0 -0.84095003543E+01 -0.31899924529E+01 -0.20617344654E+01  0.92274859699E+01  0.51100000000E-03 0. -1.
        -11    1    3    3    0    0 -0.49214427395E+00  0.12999022720E+01 -0.10478439448E+02  0.10570224474E+02  0.51100000000E-03 0.  1.
         12    1    3    3    0    0 -0.14831023446E+02 -0.67980792732E+01 -0.22742960863E+02  0.27989558894E+02  0.00000000000E+00 0. -1.
</event>
<event>
 7    1  0.2655656E-009  0.4778727E+02  0.7816164E-02  0.1312668E+00
        -11   -1    0    0    0    0  0.00000000000E+00  0.00000000000E+00  0.45593999997E+02  0.45594000000E+02  0.51100000000E-03 0.  1.
         11   -1    0    0    0    0 -0.00000000000E+00 -0.00000000000E+00 -0.45593999997E+02  0.45594000000E+02  0.51100000000E-03 0. -1.
    9900012    2    1    2    0    0  0.39335314086E+02  0.18339282692E+02 -0.16436715648E+00  0.47787271429E+02  0.20000001753E+02 0.  0.
        -12    1    1    2    0    0 -0.39335314086E+02 -0.18339282692E+02  0.16436715648E+00  0.43400728571E+02  0.00000000000E+00 0.  1.
         11    1    3    3    0    0  0.84155591557E+00  0.68890245836E+01  0.58824302592E+00  0.69651206875E+01  0.51100000000E-03 0. -1.
        -11    1    3    3    0    0  0.22687705839E+01  0.14363559543E+01  0.16672400719E+01  0.31607163917E+01  0.51100000000E-03 0.  1.
         12    1    3    3    0    0  0.36224987587E+02  0.10013902154E+02 -0.24198502543E+01  0.37661434350E+02  0.00000000000E+00 0. -1.
</event>
<event>
 7    1  0.2655656E-009  0.4778727E+02  0.7816164E-02  0.1312668E+00
        -11   -1    0    0    0    0  0.00000000000E+00  0.00000000000E+00  0.45593999997E+02  0.45594000000E+02  0.51100000000E-03 0.  1.
         11   -1    0    0    0    0 -0.00000000000E+00 -0.00000000000E+00 -0.45593999997E+02  0.45594000000E+02  0.51100000000E-03 0. -1.
    9900012    2    1    2    0    0 -0.38301315833E+02  0.20083925394E+02 -0.36426253926E+01  0.47787267592E+02  0.19999984261E+02 0.  0.
        -12    1    1    2    0    0  0.38301315833E+02 -0.20083925394E+02  0.36426253926E+01  0.43400732408E+02  0.00000000000E+00 0.  1.
         11    1    3    3    0    0 -0.93155890695E+01  0.45601851384E+01 -0.23635085279E+01  0.10637746990E+02  0.51100000000E-03 0. -1.
        -11    1    3    3    0    0 -0.27799111576E+02  0.71958682771E+01 -0.94355811242E+00  0.28730844521E+02  0.51100000000E-03 0.  1.
        -12    1    3    3    0    0 -0.11866151874E+01  0.83278719782E+01 -0.33555875223E+00  0.84186760815E+01  0.00000000000E+00 0.  1.
</event>
<event>
 7    1  0.2655656E-009  0.4778727E+02  0.7816164E-02  0.1312668E+00
        -11   -1    0    0    0    0  0.00000000000E+00  0.00000000000E+00  0.45593999997E+02  0.45594000000E+02  0.51100000000E-03 0.  1.
         11   -1    0    0    0    0 -0.00000000000E+00 -0.00000000000E+00 -0.45593999997E+02  0.45594000000E+02  0.51100000000E-03 0. -1.
    9900012    2    1    2    0    0 -0.19630278194E+02 -0.11144098346E+02 -0.37068652394E+02  0.47787265672E+02  0.19999975505E+02 0.  0.
        -12    1    1    2    0    0  0.19630278194E+02  0.11144098346E+02  0.37068652394E+02  0.43400734328E+02  0.00000000000E+00 0.  1.
         11    1    3    3    0    0 -0.15471066646E+01 -0.11298927294E+02 -0.17222637234E+02  0.20656198358E+02  0.51100000000E-03 0.  1.
        -11    1    3    3    0    0 -0.78800102350E+01  0.17658662161E+01 -0.10078998021E+02  0.12915070506E+02  0.51100000000E-03 0. -1.
         12    1    3    3    0    0 -0.10203161294E+02 -0.16110372681E+01 -0.97670171384E+01  0.14215996809E+02  0.00000000000E+00 0. -1.
</event>
<event>
 7    1  0.2655656E-009  0.4778727E+02  0.7816164E-02  0.1312668E+00
        -11   -1    0    0    0    0  0.00000000000E+00  0.00000000000E+00  0.45593999997E+02  0.45594000000E+02  0.51100000000E-03 0.  1.
         11   -1    0    0    0    0 -0.00000000000E+00 -0.00000000000E+00 -0.45593999997E+02  0.45594000000E+02  0.51100000000E-03 0. -1.
    9900012    2    1    2    0    0 -0.29830648897E+01 -0.15729901429E+02 -0.40339743565E+02  0.47787269753E+02  0.19999994113E+02 0.  0.
        -12    1    1    2    0    0  0.29830648897E+01  0.15729901429E+02  0.40339743565E+02  0.43400730247E+02  0.00000000000E+00 0.  1.
         11    1    3    3    0    0  0.13629586841E+01 -0.80539066911E+01 -0.21606048641E+02  0.23098580205E+02  0.51100000000E-03 0. -1.
        -11    1    3    3    0    0 -0.79020788714E+01 -0.62374184376E+01 -0.67872051487E+01  0.12141432916E+02  0.51100000000E-03 0.  1.
        -12    1    3    3    0    0  0.35560552975E+01 -0.14385762999E+01 -0.11946489775E+02  0.12547256632E+02  0.00000000000E+00 0.  1.
</event>
<event>
 7    1  0.2655656E-009  0.4778727E+02  0.7816164E-02  0.1312668E+00
        -11   -1    0    0    0    0  0.00000000000E+00  0.00000000000E+00  0.45593999997E+02  0.45594000000E+02  0.51100000000E-03 0.  1.
         11   -1    0    0    0    0 -0.00000000000E+00 -0.00000000000E+00 -0.45593999997E+02  0.45594000000E+02  0.51100000000E-03 0. -1.
    9900012    2    1    2    0    0 -0.13140345710E+02  0.13252298229E+02 -0.39183302661E+02  0.47787270730E+02  0.19999998567E+02 0.  0.
        -12    1    1    2    0    0  0.13140345710E+02 -0.13252298229E+02  0.39183302661E+02  0.43400729270E+02  0.00000000000E+00 0.  1.
         11    1    3    3    0    0 -0.73520996572E+01 -0.27636373214E+01 -0.12946976199E+02  0.15143158639E+02  0.51100000000E-03 0. -1.
        -11    1    3    3    0    0 -0.17381967254E+00  0.12346283449E+02 -0.19885697575E+02  0.23407304342E+02  0.51100000000E-03 0.  1.
        -12    1    3    3    0    0 -0.56144263799E+01  0.36696521017E+01 -0.63506288870E+01  0.92368077485E+01  0.00000000000E+00 0.  1.
</event>
<event>
 7    1  0.2655656E-009  0.4778727E+02  0.7816164E-02  0.1312668E+00
        -11   -1    0    0    0    0  0.00000000000E+00  0.00000000000E+00  0.45593999997E+02  0.45594000000E+02  0.51100000000E-03 0. -1.
         11   -1    0    0    0    0 -0.00000000000E+00 -0.00000000000E+00 -0.45593999997E+02  0.45594000000E+02  0.51100000000E-03 0.  1.
    9900012    2    1    2    0    0 -0.31168654357E+01  0.43288662461E+02  0.36872603165E-02  0.47787272341E+02  0.20000005910E+02 0.  0.
        -12    1    1    2    0    0  0.31168654357E+01 -0.43288662461E+02 -0.36872603165E-02  0.43400727659E+02  0.00000000000E+00 0.  1.
         11    1    3    3    0    0 -0.18141544326E+01  0.13121912633E+02  0.56038142897E+01  0.14383270919E+02  0.51100000000E-03 0. -1.
        -11    1    3    3    0    0 -0.53617751614E+01  0.14321797438E+02 -0.73256346011E+01  0.16956634021E+02  0.51100000000E-03 0.  1.
        -12    1    3    3    0    0  0.40590641583E+01  0.15844952389E+02  0.17255075717E+01  0.16447367401E+02  0.00000000000E+00 0.  1.
</event>
<event>
 7    1  0.2655656E-009  0.4778725E+02  0.7816164E-02  0.1312668E+00
        -11   -1    0    0    0    0  0.00000000000E+00  0.00000000000E+00  0.45593999997E+02  0.45594000000E+02  0.51100000000E-03 0.  1.
         11   -1    0    0    0    0 -0.00000000000E+00 -0.00000000000E+00 -0.45593999997E+02  0.45594000000E+02  0.51100000000E-03 0. -1.
    9900012    2    1    2    0    0  0.14570222159E+02  0.17936152255E+02 -0.36737282894E+02  0.47787252473E+02  0.19999915323E+02 0.  0.
        -12    1    1    2    0    0 -0.14570222159E+02 -0.17936152255E+02  0.36737282894E+02  0.43400747527E+02  0.00000000000E+00 0.  1.
         11    1    3    3    0    0  0.11145262246E+02  0.13464156604E+01 -0.14823220431E+02  0.18594557534E+02  0.51100000000E-03 0. -1.
        -11    1    3    3    0    0  0.47921391172E+01  0.11324675648E+02 -0.91802699056E+01  0.15345690980E+02  0.51100000000E-03 0.  1.
         12    1    3    3    0    0 -0.13671792040E+01  0.52650609468E+01 -0.12733792557E+02  0.13847003959E+02  0.00000000000E+00 0. -1.
</event>
<event>
 7    1  0.2655656E-009  0.4778732E+02  0.7816164E-02  0.1312668E+00
        -11   -1    0    0    0    0  0.00000000000E+00  0.00000000000E+00  0.45593999997E+02  0.45594000000E+02  0.51100000000E-03 0. -1.
         11   -1    0    0    0    0 -0.00000000000E+00 -0.00000000000E+00 -0.45593999997E+02  0.45594000000E+02  0.51100000000E-03 0.  1.
    9900012    2    1    2    0    0 -0.20801583700E+02  0.38086973293E+02 -0.54367262241E+00  0.47787320293E+02  0.20000224543E+02 0.  0.
        -12    1    1    2    0    0  0.20801583700E+02 -0.38086973293E+02  0.54367262241E+00  0.43400679707E+02  0.00000000000E+00 0.  1.
         11    1    3    3    0    0 -0.54382973332E+01  0.88066686221E+01 -0.88474468066E+00  0.10388227159E+02  0.51100000000E-03 0. -1.
        -11    1    3    3    0    0 -0.93622956465E+01  0.27295120830E+02 -0.47985672144E+01  0.29252392184E+02  0.51100000000E-03 0.  1.
        -12    1    3    3    0    0 -0.60009907205E+01  0.19851838409E+01  0.51396392727E+01  0.81467009496E+01  0.00000000000E+00 0.  1.
</event>
<event>
 7    1  0.2655656E-009  0.4778727E+02  0.7816164E-02  0.1312668E+00
        -11   -1    0    0    0    0  0.00000000000E+00  0.00000000000E+00  0.45593999997E+02  0.45594000000E+02  0.51100000000E-03 0.  1.
         11   -1    0    0    0    0 -0.00000000000E+00 -0.00000000000E+00 -0.45593999997E+02  0.45594000000E+02  0.51100000000E-03 0. -1.
    9900012    2    1    2    0    0  0.41021522713E+02 -0.14077528956E+02  0.16373763533E+01  0.47787272488E+02  0.20000006582E+02 0.  0.
        -12    1    1    2    0    0 -0.41021522713E+02  0.14077528956E+02 -0.16373763533E+01  0.43400727512E+02  0.00000000000E+00 0.  1.
         11    1    3    3    0    0  0.33381187912E+02 -0.80407840920E+01 -0.74345452544E+00  0.34344004428E+02  0.51100000000E-03 0. -1.
        -11    1    3    3    0    0  0.56835511516E+01 -0.74468392335E+01 -0.85563050297E+00  0.94069268138E+01  0.51100000000E-03 0.  1.
         12    1    3    3    0    0  0.19567836496E+01  0.14100943694E+01  0.32364613817E+01  0.40363412464E+01  0.00000000000E+00 0. -1.
</event>
<event>
 7    1  0.2655656E-009  0.4778726E+02  0.7816164E-02  0.1312668E+00
        -11   -1    0    0    0    0  0.00000000000E+00  0.00000000000E+00  0.45593999997E+02  0.45594000000E+02  0.51100000000E-03 0.  1.
         11   -1    0    0    0    0 -0.00000000000E+00 -0.00000000000E+00 -0.45593999997E+02  0.45594000000E+02  0.51100000000E-03 0. -1.
    9900012    2    1    2    0    0 -0.17823860666E+02 -0.16342280676E+02 -0.36039756956E+02  0.47787260050E+02  0.19999949873E+02 0.  0.
        -12    1    1    2    0    0  0.17823860666E+02  0.16342280676E+02  0.36039756956E+02  0.43400739950E+02  0.00000000000E+00 0.  1.
         11    1    3    3    0    0 -0.66816844015E+01 -0.30349369881E+01 -0.16301713473E+02  0.17877405051E+02  0.51100000000E-03 0. -1.
        -11    1    3    3    0    0 -0.39643401003E+01 -0.10476312638E+02 -0.31826587841E+01  0.11644674153E+02  0.51100000000E-03 0.  1.
        -12    1    3    3    0    0 -0.71778361641E+01 -0.28310310499E+01 -0.16555384699E+02  0.18265180846E+02  0.00000000000E+00 0.  1.
</event>
<event>
 7    1  0.2655656E-009  0.4778725E+02  0.7816164E-02  0.1312668E+00
        -11   -1    0    0    0    0  0.00000000000E+00  0.00000000000E+00  0.45593999997E+02  0.45594000000E+02  0.51100000000E-03 0.  1.
         11   -1    0    0    0    0 -0.00000000000E+00 -0.00000000000E+00 -0.45593999997E+02  0.45594000000E+02  0.51100000000E-03 0. -1.
    9900012    2    1    2    0    0 -0.31979266967E+02 -0.10527651174E+02 -0.27388328388E+02  0.47787245549E+02  0.19999883756E+02 0.  0.
        -12    1    1    2    0    0  0.31979266967E+02  0.10527651174E+02  0.27388328388E+02  0.43400754451E+02  0.00000000000E+00 0.  1.
         11    1    3    3    0    0 -0.20997937776E+02 -0.41484596168E-01 -0.14684270628E+02  0.25623093411E+02  0.51100000000E-03 0. -1.
        -11    1    3    3    0    0 -0.74349703920E+01 -0.94275126300E+01 -0.13811835733E+02  0.18300917619E+02  0.51100000000E-03 0.  1.
        -12    1    3    3    0    0 -0.35463587991E+01 -0.10586539475E+01  0.11077779727E+01  0.38632345191E+01  0.00000000000E+00 0.  1.
</event>
<event>
 7    1  0.2655656E-009  0.4778727E+02  0.7816164E-02  0.1312668E+00
        -11   -1    0    0    0    0  0.00000000000E+00  0.00000000000E+00  0.45593999997E+02  0.45594000000E+02  0.51100000000E-03 0.  1.
         11   -1    0    0    0    0 -0.00000000000E+00 -0.00000000000E+00 -0.45593999997E+02  0.45594000000E+02  0.51100000000E-03 0. -1.
    9900012    2    1    2    0    0 -0.95508284203E+01 -0.35546266818E+02  0.22997127336E+02  0.47787271044E+02  0.19999999996E+02 0.  0.
        -12    1    1    2    0    0  0.95508284203E+01  0.35546266818E+02 -0.22997127336E+02  0.43400728956E+02  0.00000000000E+00 0.  1.
         11    1    3    3    0    0 -0.73346387858E-01 -0.10938243578E+02  0.23739619276E+00  0.10941065281E+02  0.51100000000E-03 0. -1.
        -11    1    3    3    0    0 -0.65805660459E+01 -0.14377180547E+02  0.20645981425E+02  0.26005071029E+02  0.51100000000E-03 0.  1.
        -12    1    3    3    0    0 -0.28969159865E+01 -0.10230842693E+02  0.21137497189E+01  0.10841134734E+02  0.00000000000E+00 0.  1.
</event>
<event>
 7    1  0.2655656E-009  0.4778727E+02  0.7816164E-02  0.1312668E+00
        -11   -1    0    0    0    0  0.00000000000E+00  0.00000000000E+00  0.45593999997E+02  0.45594000000E+02  0.51100000000E-03 0.  1.
         11   -1    0    0    0    0 -0.00000000000E+00 -0.00000000000E+00 -0.45593999997E+02  0.45594000000E+02  0.51100000000E-03 0. -1.
    9900012    2    1    2    0    0 -0.86918669996E+01 -0.16880287511E+02 -0.39027306419E+02  0.47787270689E+02  0.19999998380E+02 0.  0.
        -12    1    1    2    0    0  0.86918669996E+01  0.16880287511E+02  0.39027306419E+02  0.43400729311E+02  0.00000000000E+00 0.  1.
         11    1    3    3    0    0 -0.53820729509E+01 -0.83864897618E+00 -0.97984761661E+01  0.11210717051E+02  0.51100000000E-03 0. -1.
        -11    1    3    3    0    0 -0.55637750523E+01 -0.61869215216E+01 -0.36756689376E+01  0.90963802222E+01  0.51100000000E-03 0.  1.
        -12    1    3    3    0    0  0.22539810036E+01 -0.98547170130E+01 -0.25553161315E+02  0.27480173416E+02  0.00000000000E+00 0.  1.
</event>
<event>
 7    1  0.2655656E-009  0.4778727E+02  0.7816164E-02  0.1312668E+00
        -11   -1    0    0    0    0  0.00000000000E+00  0.00000000000E+00  0.45593999997E+02  0.45594000000E+02  0.51100000000E-03 0.  1.
         11   -1    0    0    0    0 -0.00000000000E+00 -0.00000000000E+00 -0.45593999997E+02  0.45594000000E+02  0.51100000000E-03 0. -1.
    9900012    2    1    2    0    0 -0.35485036127E+02 -0.12432389187E+02  0.21676516709E+02  0.47787268826E+02  0.19999989884E+02 0.  0.
        -12    1    1    2    0    0  0.35485036127E+02  0.12432389187E+02 -0.21676516709E+02  0.43400731174E+02  0.00000000000E+00 0.  1.
         11    1    3    3    0    0 -0.78048155432E+01 -0.10648132939E+01  0.13514076479E+02  0.15642226068E+02  0.51100000000E-03 0. -1.
        -11    1    3    3    0    0 -0.13583904336E+02 -0.10893138560E+01  0.30324759947E+01  0.13960837102E+02  0.51100000000E-03 0.  1.
         12    1    3    3    0    0 -0.14096316248E+02 -0.10278262037E+02  0.51299642349E+01  0.18184205655E+02  0.00000000000E+00 0. -1.
</event>
<event>
 7    1  0.2655656E-009  0.4778727E+02  0.7816164E-02  0.1312668E+00
        -11   -1    0    0    0    0  0.00000000000E+00  0.00000000000E+00  0.45593999997E+02  0.45594000000E+02  0.51100000000E-03 0.  1.
         11   -1    0    0    0    0 -0.00000000000E+00 -0.00000000000E+00 -0.45593999997E+02  0.45594000000E+02  0.51100000000E-03 0. -1.
    9900012    2    1    2    0    0  0.71202038562E+01  0.35899968419E+02 -0.23326337090E+02  0.47787273768E+02  0.20000012418E+02 0.  0.
        -12    1    1    2    0    0 -0.71202038562E+01 -0.35899968419E+02  0.23326337090E+02  0.43400726232E+02  0.00000000000E+00 0.  1.
         11    1    3    3    0    0 -0.47763760082E+01  0.11599706068E+02 -0.10262021443E+02  0.16207283332E+02  0.51100000000E-03 0. -1.
        -11    1    3    3    0    0 -0.10754480592E+01  0.31362785502E+01  0.40133362012E+00  0.33397455904E+01  0.51100000000E-03 0.  1.
         12    1    3    3    0    0  0.12972027924E+02  0.21163983801E+02 -0.13465649267E+02  0.28240244846E+02  0.00000000000E+00 0. -1.
</event>
<event>
 7    1  0.2655656E-009  0.4778727E+02  0.7816164E-02  0.1312668E+00
        -11   -1    0    0    0    0  0.00000000000E+00  0.00000000000E+00  0.45593999997E+02  0.45594000000E+02  0.51100000000E-03 0.  1.
         11   -1    0    0    0    0 -0.00000000000E+00 -0.00000000000E+00 -0.45593999997E+02  0.45594000000E+02  0.51100000000E-03 0. -1.
    9900012    2    1    2    0    0 -0.12531408929E+02 -0.76072474563E-01 -0.41552150539E+02  0.47787271767E+02  0.20000003295E+02 0.  0.
        -12    1    1    2    0    0  0.12531408929E+02  0.76072474563E-01  0.41552150539E+02  0.43400728233E+02  0.00000000000E+00 0.  1.
         11    1    3    3    0    0 -0.11136817512E+02  0.79466067425E+01 -0.24931375270E+02  0.28438543144E+02  0.51100000000E-03 0. -1.
        -11    1    3    3    0    0 -0.30231907643E+01 -0.56801864049E+01 -0.79913734979E+01  0.10259934241E+02  0.51100000000E-03 0.  1.
         12    1    3    3    0    0  0.16285993471E+01 -0.23424928121E+01 -0.86294017701E+01  0.90887943820E+01  0.00000000000E+00 0. -1.
</event>
<event>
 7    1  0.2655656E-009  0.4778731E+02  0.7816164E-02  0.1312668E+00
        -11   -1    0    0    0    0  0.00000000000E+00  0.00000000000E+00  0.45593999997E+02  0.45594000000E+02  0.51100000000E-03 0.  1.
         11   -1    0    0    0    0 -0.00000000000E+00 -0.00000000000E+00 -0.45593999997E+02  0.45594000000E+02  0.51100000000E-03 0. -1.
    9900012    2    1    2    0    0  0.25163821090E+01  0.23018279907E+01 -0.43266493001E+02  0.47787308673E+02  0.20000171563E+02 0.  0.
        -12    1    1    2    0    0 -0.25163821090E+01 -0.23018279907E+01  0.43266493001E+02  0.43400691327E+02  0.00000000000E+00 0.  1.
         11    1    3    3    0    0  0.15363779772E+01  0.89266064976E+00 -0.52029821667E+01  0.54980291026E+01  0.51100000000E-03 0. -1.
        -11    1    3    3    0    0  0.74112156082E+01  0.64479944741E+01 -0.16159433801E+02  0.18911109183E+02  0.51100000000E-03 0.  1.
        -12    1    3    3    0    0 -0.64312114764E+01 -0.50388271331E+01 -0.21904077034E+02  0.23378170387E+02  0.00000000000E+00 0.  1.
</event>
<event>
 7    1  0.2655656E-009  0.4778727E+02  0.7816164E-02  0.1312668E+00
        -11   -1    0    0    0    0  0.00000000000E+00  0.00000000000E+00  0.45593999997E+02  0.45594000000E+02  0.51100000000E-03 0. -1.
         11   -1    0    0    0    0 -0.00000000000E+00 -0.00000000000E+00 -0.45593999997E+02  0.45594000000E+02  0.51100000000E-03 0.  1.
    9900012    2    1    2    0    0 -0.32329212393E+02 -0.46327114705E+01  0.28582922273E+02  0.47787269187E+02  0.19999991529E+02 0.  0.
        -12    1    1    2    0    0  0.32329212393E+02  0.46327114705E+01 -0.28582922273E+02  0.43400730813E+02  0.00000000000E+00 0.  1.
         11    1    3    3    0    0 -0.17704414343E+02 -0.10725585846E+02  0.19354743393E+02  0.28338852677E+02  0.51100000000E-03 0. -1.
        -11    1    3    3    0    0 -0.14031696263E+01  0.33237293026E+01  0.21030227880E+01  0.41759749263E+01  0.51100000000E-03 0.  1.
         12    1    3    3    0    0 -0.13221628423E+02  0.27691450727E+01  0.71251560920E+01  0.15272441583E+02  0.00000000000E+00 0. -1.
</event>
<event>
 7    1  0.2655656E-009  0.4778726E+02  0.7816164E-02  0.1312668E+00
        -11   -1    0    0    0    0  0.00000000000E+00  0.00000000000E+00  0.45593999997E+02  0.45594000000E+02  0.51100000000E-03 0.  1.
         11   -1    0    0    0    0 -0.00000000000E+00 -0.00000000000E+00 -0.45593999997E+02  0.45594000000E+02  0.51100000000E-03 0. -1.
    9900012    2    1    2    0    0 -0.61896587481E+01 -0.27208247158E+02 -0.33241891716E+02  0.47787263213E+02  0.19999964293E+02 0.  0.
        -12    1    1    2    0    0  0.61896587481E+01  0.27208247158E+02  0.33241891716E+02  0.43400736787E+02  0.00000000000E+00 0.  1.
         11    1    3    3    0    0 -0.54941706716E+01 -0.24970309515E+02 -0.27684148477E+02  0.37684404544E+02  0.51100000000E-03 0. -1.
        -11    1    3    3    0    0 -0.13842735246E+00  0.20656365359E+01  0.95251944276E+00  0.22788834942E+01  0.51100000000E-03 0.  1.
         12    1    3    3    0    0 -0.55706072403E+00 -0.43035741785E+01 -0.65102626813E+01  0.78239751750E+01  0.00000000000E+00 0. -1.
</event>
<event>
 7    1  0.2655656E-009  0.4778725E+02  0.7816164E-02  0.1312668E+00
        -11   -1    0    0    0    0  0.00000000000E+00  0.00000000000E+00  0.45593999997E+02  0.45594000000E+02  0.51100000000E-03 0. -1.
         11   -1    0    0    0    0 -0.00000000000E+00 -0.00000000000E+00 -0.45593999997E+02  0.45594000000E+02  0.51100000000E-03 0.  1.
    9900012    2    1    2    0    0 -0.42118241632E+02  0.69674003747E+01  0.78188406560E+01  0.47787248677E+02  0.19999898019E+02 0.  0.
        -12    1    1    2    0    0  0.42118241632E+02 -0.69674003747E+01 -0.78188406560E+01  0.43400751323E+02  0.00000000000E+00 0.  1.
         11    1    3    3    0    0 -0.52101408064E+01  0.22792392236E+01  0.32315119163E+01  0.65408843582E+01  0.51100000000E-03 0. -1.
        -11    1    3    3    0    0 -0.33758699552E+02 -0.10866473007E+01  0.65004487889E+01  0.34396023498E+02  0.51100000000E-03 0.  1.
        -12    1    3    3    0    0 -0.31494012741E+01  0.57748084518E+01 -0.19131200492E+01  0.68503408209E+01  0.00000000000E+00 0.  1.
</event>
<event>
 7    1  0.2655656E-009  0.4778727E+02  0.7816164E-02  0.1312668E+00
        -11   -1    0    0    0    0  0.00000000000E+00  0.00000000000E+00  0.45593999997E+02  0.45594000000E+02  0.51100000000E-03 0.  1.
         11   -1    0    0    0    0 -0.00000000000E+00 -0.00000000000E+00 -0.45593999997E+02  0.45594000000E+02  0.51100000000E-03 0. -1.
    9900012    2    1    2    0    0 -0.21925575044E+02  0.16810077036E+02 -0.33471087782E+02  0.47787271340E+02  0.20000001346E+02 0.  0.
        -12    1    1    2    0    0  0.21925575044E+02 -0.16810077036E+02  0.33471087782E+02  0.43400728660E+02  0.00000000000E+00 0.  1.
         11    1    3    3    0    0  0.20426452211E+01  0.30298732309E+01 -0.74624142708E+01  0.83090407572E+01  0.51100000000E-03 0. -1.
        -11    1    3    3    0    0 -0.52958315126E+01  0.69729131501E+01 -0.13178486593E+02  0.15822131915E+02  0.51100000000E-03 0.  1.
        -12    1    3    3    0    0 -0.18672388753E+02  0.68072906549E+01 -0.12830186918E+02  0.23656098667E+02  0.00000000000E+00 0.  1.
</event>
<event>
 7    1  0.2655656E-009  0.4778727E+02  0.7816164E-02  0.1312668E+00
        -11   -1    0    0    0    0  0.00000000000E+00  0.00000000000E+00  0.45593999997E+02  0.45594000000E+02  0.51100000000E-03 0. -1.
         11   -1    0    0    0    0 -0.00000000000E+00 -0.00000000000E+00 -0.45593999997E+02  0.45594000000E+02  0.51100000000E-03 0.  1.
    9900012    2    1    2    0    0 -0.35004896721E+02  0.22658698544E+02  0.12035940573E+02  0.47787270978E+02  0.19999999697E+02 0.  0.
        -12    1    1    2    0    0  0.35004896721E+02 -0.22658698544E+02 -0.12035940573E+02  0.43400729022E+02  0.00000000000E+00 0.  1.
         11    1    3    3    0    0 -0.95760736068E+00  0.44654560813E+01 -0.13351306354E+01  0.47581387060E+01  0.51100000000E-03 0. -1.
        -11    1    3    3    0    0 -0.24325003623E+02  0.19034543026E+02  0.80718007922E+01  0.31924498395E+02  0.51100000000E-03 0.  1.
        -12    1    3    3    0    0 -0.97222857374E+01 -0.84130056364E+00  0.52992704160E+01  0.11104633877E+02  0.00000000000E+00 0.  1.
</event>
<event>
 7    1  0.2655656E-009  0.4778727E+02  0.7816164E-02  0.1312668E+00
        -11   -1    0    0    0    0  0.00000000000E+00  0.00000000000E+00  0.45593999997E+02  0.45594000000E+02  0.51100000000E-03 0.  1.
         11   -1    0    0    0    0 -0.00000000000E+00 -0.00000000000E+00 -0.45593999997E+02  0.45594000000E+02  0.51100000000E-03 0. -1.
    9900012    2    1    2    0    0  0.25352101806E+02  0.24644863325E+02 -0.25169926662E+02  0.47787267720E+02  0.19999984841E+02 0.  0.
        -12    1    1    2    0    0 -0.25352101806E+02 -0.24644863325E+02  0.25169926662E+02  0.43400732280E+02  0.00000000000E+00 0.  1.
         11    1    3    3    0    0  0.57336717343E+01 -0.88020518304E-02  0.22988916145E-01  0.57337245996E+01  0.51100000000E-03 0.  1.
        -11    1    3    3    0    0  0.39565055808E+01  0.28106788567E+01  0.49006824731E+00  0.48779113557E+01  0.51100000000E-03 0. -1.
         12    1    3    3    0    0  0.15661924491E+02  0.21842986521E+02 -0.25682983825E+02  0.37175631764E+02  0.00000000000E+00 0. -1.
</event>
<event>
 7    1  0.2655656E-009  0.4778727E+02  0.7816164E-02  0.1312668E+00
        -11   -1    0    0    0    0  0.00000000000E+00  0.00000000000E+00  0.45593999997E+02  0.45594000000E+02  0.51100000000E-03 0.  1.
         11   -1    0    0    0    0 -0.00000000000E+00 -0.00000000000E+00 -0.45593999997E+02  0.45594000000E+02  0.51100000000E-03 0. -1.
    9900012    2    1    2    0    0  0.33833209032E+02  0.33669787552E+01 -0.26974077437E+02  0.47787269212E+02  0.19999991645E+02 0.  0.
        -12    1    1    2    0    0 -0.33833209032E+02 -0.33669787552E+01  0.26974077437E+02  0.43400730788E+02  0.00000000000E+00 0.  1.
         11    1    3    3    0    0 -0.19379755213E+01 -0.64081913649E+00  0.19906273684E+00  0.20508594591E+01  0.51100000000E-03 0.  1.
        -11    1    3    3    0    0  0.28600648895E+02  0.59555254879E+00 -0.23331682227E+02  0.36915026694E+02  0.51100000000E-03 0. -1.
         12    1    3    3    0    0  0.71705356580E+01  0.34122453429E+01 -0.38414579476E+01  0.88213830586E+01  0.00000000000E+00 0. -1.
</event>
<event>
 7    1  0.2655656E-009  0.4778727E+02  0.7816164E-02  0.1312668E+00
        -11   -1    0    0    0    0  0.00000000000E+00  0.00000000000E+00  0.45593999997E+02  0.45594000000E+02  0.51100000000E-03 0. -1.
         11   -1    0    0    0    0 -0.00000000000E+00 -0.00000000000E+00 -0.45593999997E+02  0.45594000000E+02  0.51100000000E-03 0.  1.
    9900012    2    1    2    0    0  0.41131489635E+02 -0.13850045910E+02  0.87730907721E-02  0.47787270879E+02  0.19999999244E+02 0.  0.
        -12    1    1    2    0    0 -0.41131489635E+02  0.13850045910E+02 -0.87730907721E-02  0.43400729121E+02  0.00000000000E+00 0.  1.
         11    1    3    3    0    0  0.82632716906E+01  0.11934152585E+01  0.13706445471E+00  0.83501308934E+01  0.51100000000E-03 0. -1.
        -11    1    3    3    0    0  0.31745009349E+02 -0.10321932351E+02  0.32275518562E+01  0.33536621733E+02  0.51100000000E-03 0.  1.
        -12    1    3    3    0    0  0.11232085954E+01 -0.47215288181E+01 -0.33558432201E+01  0.59005182524E+01  0.00000000000E+00 0.  1.
</event>
<event>
 7    1  0.2655656E-009  0.4778728E+02  0.7816164E-02  0.1312668E+00
        -11   -1    0    0    0    0  0.00000000000E+00  0.00000000000E+00  0.45593999997E+02  0.45594000000E+02  0.51100000000E-03 0. -1.
         11   -1    0    0    0    0 -0.00000000000E+00 -0.00000000000E+00 -0.45593999997E+02  0.45594000000E+02  0.51100000000E-03 0.  1.
    9900012    2    1    2    0    0  0.19065485600E+02 -0.34154355117E+02  0.18804516119E+02  0.47787279487E+02  0.20000038492E+02 0.  0.
        -12    1    1    2    0    0 -0.19065485600E+02  0.34154355117E+02 -0.18804516119E+02  0.43400720513E+02  0.00000000000E+00 0.  1.
         11    1    3    3    0    0  0.15287715760E+01 -0.61412569842E+01 -0.86213931896E+00  0.63871327170E+01  0.51100000000E-03 0. -1.
        -11    1    3    3    0    0  0.19769106037E+02 -0.21107609904E+02  0.17600130491E+02  0.33854295782E+02  0.51100000000E-03 0.  1.
        -12    1    3    3    0    0 -0.22323920128E+01 -0.69054882286E+01  0.20665249466E+01  0.75458509877E+01  0.00000000000E+00 0.  1.
</event>
<event>
 7    1  0.2655656E-009  0.4778727E+02  0.7816164E-02  0.1312668E+00
        -11   -1    0    0    0    0  0.00000000000E+00  0.00000000000E+00  0.45593999997E+02  0.45594000000E+02  0.51100000000E-03 0. -1.
         11   -1    0    0    0    0 -0.00000000000E+00 -0.00000000000E+00 -0.45593999997E+02  0.45594000000E+02  0.51100000000E-03 0.  1.
    9900012    2    1    2    0    0 -0.12651544467E+02  0.40412173824E+02  0.95088227411E+01  0.47787273272E+02  0.20000010157E+02 0.  0.
        -12    1    1    2    0    0  0.12651544467E+02 -0.40412173824E+02 -0.95088227411E+01  0.43400726728E+02  0.00000000000E+00 0.  1.
         11    1    3    3    0    0  0.21178572015E+01  0.16357057306E+02  0.13587652384E+01  0.16549467848E+02  0.51100000000E-03 0. -1.
        -11    1    3    3    0    0 -0.87102895565E+01  0.86904549567E+01  0.80825576685E+01  0.14721443212E+02  0.51100000000E-03 0.  1.
         12    1    3    3    0    0 -0.60591121119E+01  0.15364661562E+02  0.67499834149E-01  0.16516362212E+02  0.00000000000E+00 0. -1.
</event>
<event>
 7    1  0.2655656E-009  0.4778726E+02  0.7816164E-02  0.1312668E+00
        -11   -1    0    0    0    0  0.00000000000E+00  0.00000000000E+00  0.45593999997E+02  0.45594000000E+02  0.51100000000E-03 0.  1.
         11   -1    0    0    0    0 -0.00000000000E+00 -0.00000000000E+00 -0.45593999997E+02  0.45594000000E+02  0.51100000000E-03 0. -1.
    9900012    2    1    2    0    0  0.38026743469E+02 -0.17023345811E+02 -0.12157166753E+02  0.47787260087E+02  0.19999950043E+02 0.  0.
        -12    1    1    2    0    0 -0.38026743469E+02  0.17023345811E+02  0.12157166753E+02  0.43400739913E+02  0.00000000000E+00 0.  1.
         11    1    3    3    0    0  0.32011315708E+02 -0.81486050633E+01 -0.31081294837E+01  0.33178073588E+02  0.51100000000E-03 0. -1.
        -11    1    3    3    0    0  0.55097754969E+00  0.85686950606E-01  0.22720285738E+00  0.60211287421E+00  0.51100000000E-03 0.  1.
         12    1    3    3    0    0  0.54644502114E+01 -0.89604276987E+01 -0.92762401271E+01  0.14007073626E+02  0.00000000000E+00 0. -1.
</event>
<event>
 7    1  0.2655656E-009  0.4778727E+02  0.7816164E-02  0.1312668E+00
        -11   -1    0    0    0    0  0.00000000000E+00  0.00000000000E+00  0.45593999997E+02  0.45594000000E+02  0.51100000000E-03 0. -1.
         11   -1    0    0    0    0 -0.00000000000E+00 -0.00000000000E+00 -0.45593999997E+02  0.45594000000E+02  0.51100000000E-03 0.  1.
    9900012    2    1    2    0    0  0.24595207516E+02  0.17204795523E+02  0.31347953843E+02  0.47787269224E+02  0.19999991699E+02 0.  0.
        -12    1    1    2    0    0 -0.24595207516E+02 -0.17204795523E+02 -0.31347953843E+02  0.43400730776E+02  0.00000000000E+00 0.  1.
         11    1    3    3    0    0 -0.10741811615E+01  0.66854199397E+01  0.33245785002E+01  0.75433101091E+01  0.51100000000E-03 0. -1.
        -11    1    3    3    0    0  0.15097960003E+02  0.76132659530E+01  0.11630164996E+02  0.20522449971E+02  0.51100000000E-03 0.  1.
         12    1    3    3    0    0  0.10571428675E+02  0.29061096303E+01  0.16393210347E+02  0.19721509144E+02  0.00000000000E+00 0. -1.
</event>
<event>
 7    1  0.2655656E-009  0.4778727E+02  0.7816164E-02  0.1312668E+00
        -11   -1    0    0    0    0  0.00000000000E+00  0.00000000000E+00  0.45593999997E+02  0.45594000000E+02  0.51100000000E-03 0. -1.
         11   -1    0    0    0    0 -0.00000000000E+00 -0.00000000000E+00 -0.45593999997E+02  0.45594000000E+02  0.51100000000E-03 0.  1.
    9900012    2    1    2    0    0 -0.17917336473E+02  0.15487344562E+02  0.36369422587E+02  0.47787266283E+02  0.19999978290E+02 0.  0.
        -12    1    1    2    0    0  0.17917336473E+02 -0.15487344562E+02 -0.36369422587E+02  0.43400733717E+02  0.00000000000E+00 0.  1.
         11    1    3    3    0    0 -0.15260817139E+02  0.12753741870E+02  0.35995080564E+02  0.41124157092E+02  0.51100000000E-03 0. -1.
        -11    1    3    3    0    0 -0.30105497332E+01 -0.74268276419E+00 -0.26017245220E+00  0.31117000740E+01  0.51100000000E-03 0.  1.
         12    1    3    3    0    0  0.35403039967E+00  0.34762854564E+01  0.63451447573E+00  0.35514091173E+01  0.00000000000E+00 0. -1.
</event>
<event>
 7    1  0.2655656E-009  0.4778727E+02  0.7816164E-02  0.1312668E+00
        -11   -1    0    0    0    0  0.00000000000E+00  0.00000000000E+00  0.45593999997E+02  0.45594000000E+02  0.51100000000E-03 0.  1.
         11   -1    0    0    0    0 -0.00000000000E+00 -0.00000000000E+00 -0.45593999997E+02  0.45594000000E+02  0.51100000000E-03 0. -1.
    9900012    2    1    2    0    0  0.22283020375E+02 -0.28677795794E+01 -0.37133087332E+02  0.47787270380E+02  0.19999996970E+02 0.  0.
        -12    1    1    2    0    0 -0.22283020375E+02  0.28677795794E+01  0.37133087332E+02  0.43400729620E+02  0.00000000000E+00 0.  1.
         11    1    3    3    0    0  0.89013334105E+01 -0.55883023025E+01 -0.15884823750E+02  0.19047059745E+02  0.51100000000E-03 0. -1.
        -11    1    3    3    0    0  0.20200819109E+01  0.42146349602E+01 -0.14951038260E+02  0.15664527574E+02  0.51100000000E-03 0.  1.
        -12    1    3    3    0    0  0.11361605053E+02 -0.14941122370E+01 -0.62972253222E+01  0.13075683061E+02  0.00000000000E+00 0.  1.
</event>
<event>
 7    1  0.2655656E-009  0.4778729E+02  0.7816164E-02  0.1312668E+00
        -11   -1    0    0    0    0  0.00000000000E+00  0.00000000000E+00  0.45593999997E+02  0.45594000000E+02  0.51100000000E-03 0.  1.
         11   -1    0    0    0    0 -0.00000000000E+00 -0.00000000000E+00 -0.45593999997E+02  0.45594000000E+02  0.51100000000E-03 0. -1.
    9900012    2    1    2    0    0 -0.39329297432E+01 -0.24240120153E+02 -0.35785058377E+02  0.47787288434E+02  0.20000079287E+02 0.  0.
        -12    1    1    2    0    0  0.39329297432E+01  0.24240120153E+02  0.35785058377E+02  0.43400711566E+02  0.00000000000E+00 0.  1.
         11    1    3    3    0    0 -0.10002192465E+02 -0.92980198666E+01 -0.13753181349E+02  0.19381615646E+02  0.51100000000E-03 0.  1.
        -11    1    3    3    0    0  0.20429373013E+01 -0.13298799174E+02 -0.18020638987E+02  0.22489443792E+02  0.51100000000E-03 0. -1.
         12    1    3    3    0    0  0.40263254201E+01 -0.16433011121E+01 -0.40112380397E+01  0.59162289970E+01  0.00000000000E+00 0. -1.
</event>
<event>
 7    1  0.2655656E-009  0.4778727E+02  0.7816164E-02  0.1312668E+00
        -11   -1    0    0    0    0  0.00000000000E+00  0.00000000000E+00  0.45593999997E+02  0.45594000000E+02  0.51100000000E-03 0. -1.
         11   -1    0    0    0    0 -0.00000000000E+00 -0.00000000000E+00 -0.45593999997E+02  0.45594000000E+02  0.51100000000E-03 0.  1.
    9900012    2    1    2    0    0  0.16928247370E+02 -0.37560628094E+02  0.13647606316E+02  0.47787268439E+02  0.19999988120E+02 0.  0.
        -12    1    1    2    0    0 -0.16928247370E+02  0.37560628094E+02 -0.13647606316E+02  0.43400731561E+02  0.00000000000E+00 0.  1.
         11    1    3    3    0    0  0.11032178649E+02 -0.82141287259E+01  0.80346882294E+01  0.15929127147E+02  0.51100000000E-03 0. -1.
        -11    1    3    3    0    0  0.32361509392E+01 -0.28322421451E+02  0.49790809687E+01  0.28938270116E+02  0.51100000000E-03 0.  1.
        -12    1    3    3    0    0  0.26599177826E+01 -0.10240779173E+01  0.63383711774E+00  0.29198711757E+01  0.00000000000E+00 0.  1.
</event>
<event>
 7    1  0.2655656E-009  0.4778726E+02  0.7816164E-02  0.1312668E+00
        -11   -1    0    0    0    0  0.00000000000E+00  0.00000000000E+00  0.45593999997E+02  0.45594000000E+02  0.51100000000E-03 0.  1.
         11   -1    0    0    0    0 -0.00000000000E+00 -0.00000000000E+00 -0.45593999997E+02  0.45594000000E+02  0.51100000000E-03 0. -1.
    9900012    2    1    2    0    0 -0.39202013095E+02 -0.70756575703E+01 -0.17226756509E+02  0.47787263825E+02  0.19999967082E+02 0.  0.
        -12    1    1    2    0    0  0.39202013095E+02  0.70756575703E+01  0.17226756509E+02  0.43400736175E+02  0.00000000000E+00 0.  1.
         11    1    3    3    0    0 -0.39862925880E+01  0.31077015440E+01  0.19563402422E+01  0.54199266497E+01  0.51100000000E-03 0. -1.
        -11    1    3    3    0    0 -0.30275554510E+02 -0.70772332057E+01 -0.12540446027E+02  0.33525501004E+02  0.51100000000E-03 0.  1.
        -12    1    3    3    0    0 -0.49401659971E+01 -0.31061259086E+01 -0.66426507236E+01  0.88418361710E+01  0.00000000000E+00 0.  1.
</event>
<event>
 7    1  0.2655656E-009  0.4778727E+02  0.7816164E-02  0.1312668E+00
        -11   -1    0    0    0    0  0.00000000000E+00  0.00000000000E+00  0.45593999997E+02  0.45594000000E+02  0.51100000000E-03 0.  1.
         11   -1    0    0    0    0 -0.00000000000E+00 -0.00000000000E+00 -0.45593999997E+02  0.45594000000E+02  0.51100000000E-03 0. -1.
    9900012    2    1    2    0    0 -0.26102331061E+02  0.28143095233E+02 -0.20254819184E+02  0.47787271938E+02  0.20000004075E+02 0.  0.
        -12    1    1    2    0    0  0.26102331061E+02 -0.28143095233E+02  0.20254819184E+02  0.43400728062E+02  0.00000000000E+00 0.  1.
         11    1    3    3    0    0 -0.19241702439E+02  0.20720597050E+02 -0.11044043403E+02  0.30357159778E+02  0.51100000000E-03 0.  1.
        -11    1    3    3    0    0 -0.25853568398E+01 -0.22847910127E+01 -0.48720120199E+01  0.59699950874E+01  0.51100000000E-03 0. -1.
         12    1    3    3    0    0 -0.42752717824E+01  0.97072891963E+01 -0.43387637603E+01  0.11460117073E+02  0.00000000000E+00 0. -1.
</event>
<event>
 7    1  0.2655656E-009  0.4778728E+02  0.7816164E-02  0.1312668E+00
        -11   -1    0    0    0    0  0.00000000000E+00  0.00000000000E+00  0.45593999997E+02  0.45594000000E+02  0.51100000000E-03 0.  1.
         11   -1    0    0    0    0 -0.00000000000E+00 -0.00000000000E+00 -0.45593999997E+02  0.45594000000E+02  0.51100000000E-03 0. -1.
    9900012    2    1    2    0    0  0.16461442425E+02 -0.38488649604E+02 -0.11457210369E+02  0.47787275300E+02  0.20000019402E+02 0.  0.
        -12    1    1    2    0    0 -0.16461442425E+02  0.38488649604E+02  0.11457210369E+02  0.43400724700E+02  0.00000000000E+00 0.  1.
         11    1    3    3    0    0  0.67940995918E+01 -0.15319029102E+02  0.38998828057E+01  0.17205857376E+02  0.51100000000E-03 0. -1.
        -11    1    3    3    0    0  0.15792354050E+01 -0.94289896471E+01 -0.19675284355E+01  0.97606863813E+01  0.51100000000E-03 0.  1.
         12    1    3    3    0    0  0.80881074285E+01 -0.13740630855E+02 -0.13389564739E+02  0.20820731543E+02  0.00000000000E+00 0. -1.
</event>
<event>
 7    1  0.2655656E-009  0.4778727E+02  0.7816164E-02  0.1312668E+00
        -11   -1    0    0    0    0  0.00000000000E+00  0.00000000000E+00  0.45593999997E+02  0.45594000000E+02  0.51100000000E-03 0.  1.
         11   -1    0    0    0    0 -0.00000000000E+00 -0.00000000000E+00 -0.45593999997E+02  0.45594000000E+02  0.51100000000E-03 0. -1.
    9900012    2    1    2    0    0  0.17949524463E+02 -0.32610658280E+02 -0.22315522858E+02  0.47787273942E+02  0.20000013212E+02 0.  0.
        -12    1    1    2    0    0 -0.17949524463E+02  0.32610658280E+02  0.22315522858E+02  0.43400726058E+02  0.00000000000E+00 0.  1.
         11    1    3    3    0    0  0.10863232343E+01 -0.77377208087E+01 -0.18353877535E+01  0.80262737275E+01  0.51100000000E-03 0. -1.
        -11    1    3    3    0    0 -0.20919437676E+01 -0.82183968885E+01 -0.27237249926E+01  0.89071294051E+01  0.51100000000E-03 0.  1.
         12    1    3    3    0    0  0.18955144996E+02 -0.16654540583E+02 -0.17756410112E+02  0.30853870809E+02  0.00000000000E+00 0. -1.
</event>
<event>
 7    1  0.2655656E-009  0.4778729E+02  0.7816164E-02  0.1312668E+00
        -11   -1    0    0    0    0  0.00000000000E+00  0.00000000000E+00  0.45593999997E+02  0.45594000000E+02  0.51100000000E-03 0.  1.
         11   -1    0    0    0    0 -0.00000000000E+00 -0.00000000000E+00 -0.45593999997E+02  0.45594000000E+02  0.51100000000E-03 0. -1.
    9900012    2    1    2    0    0  0.19140862335E+02  0.23314558981E+02 -0.31203854294E+02  0.47787288091E+02  0.20000077720E+02 0.  0.
        -12    1    1    2    0    0 -0.19140862335E+02 -0.23314558981E+02  0.31203854294E+02  0.43400711909E+02  0.00000000000E+00 0.  1.
         11    1    3    3    0    0  0.57419211795E+01  0.17875857677E+02 -0.24941423156E+02  0.31218432629E+02  0.51100000000E-03 0. -1.
        -11    1    3    3    0    0  0.10799552603E+02  0.63555927825E+01 -0.45917865995E+01  0.13345725925E+02  0.51100000000E-03 0.  1.
         12    1    3    3    0    0  0.25993885528E+01 -0.91689147797E+00 -0.16706445389E+01  0.32231295360E+01  0.00000000000E+00 0. -1.
</event>
<event>
 7    1  0.2655656E-009  0.4778727E+02  0.7816164E-02  0.1312668E+00
        -11   -1    0    0    0    0  0.00000000000E+00  0.00000000000E+00  0.45593999997E+02  0.45594000000E+02  0.51100000000E-03 0.  1.
         11   -1    0    0    0    0 -0.00000000000E+00 -0.00000000000E+00 -0.45593999997E+02  0.45594000000E+02  0.51100000000E-03 0. -1.
    9900012    2    1    2    0    0 -0.33423236979E+02  0.27401238262E+02  0.39600944356E+01  0.47787274472E+02  0.20000015627E+02 0.  0.
        -12    1    1    2    0    0  0.33423236979E+02 -0.27401238262E+02 -0.39600944356E+01  0.43400725528E+02  0.00000000000E+00 0.  1.
         11    1    3    3    0    0 -0.21385930636E+02  0.23942596732E+02  0.34609684595E+01  0.32289073545E+02  0.51100000000E-03 0. -1.
        -11    1    3    3    0    0 -0.61723694319E+01 -0.51828855573E+00 -0.37450741330E+01  0.72382558640E+01  0.51100000000E-03 0.  1.
        -12    1    3    3    0    0 -0.58649369112E+01  0.39769300853E+01  0.42442001092E+01  0.82599450629E+01  0.00000000000E+00 0.  1.
</event>
<event>
 7    1  0.2655656E-009  0.4778727E+02  0.7816164E-02  0.1312668E+00
        -11   -1    0    0    0    0  0.00000000000E+00  0.00000000000E+00  0.45593999997E+02  0.45594000000E+02  0.51100000000E-03 0. -1.
         11   -1    0    0    0    0 -0.00000000000E+00 -0.00000000000E+00 -0.45593999997E+02  0.45594000000E+02  0.51100000000E-03 0.  1.
    9900012    2    1    2    0    0 -0.42559852248E+02 -0.46797186836E+01  0.70980611924E+01  0.47787271170E+02  0.20000000571E+02 0.  0.
        -12    1    1    2    0    0  0.42559852248E+02  0.46797186836E+01 -0.70980611924E+01  0.43400728830E+02  0.00000000000E+00 0.  1.
         11    1    3    3    0    0 -0.57678428415E+00  0.13578259693E+01  0.32247343898E+01  0.35461646351E+01  0.51100000000E-03 0. -1.
        -11    1    3    3    0    0 -0.40466867316E+02 -0.55948542017E+01  0.63110338487E+01  0.41336411218E+02  0.51100000000E-03 0.  1.
        -12    1    3    3    0    0 -0.15162006480E+01 -0.44269045123E+00 -0.24377070461E+01  0.29046953167E+01  0.00000000000E+00 0.  1.
</event>
<event>
 7    1  0.2655656E-009  0.4778727E+02  0.7816164E-02  0.1312668E+00
        -11   -1    0    0    0    0  0.00000000000E+00  0.00000000000E+00  0.45593999997E+02  0.45594000000E+02  0.51100000000E-03 0.  1.
         11   -1    0    0    0    0 -0.00000000000E+00 -0.00000000000E+00 -0.45593999997E+02  0.45594000000E+02  0.51100000000E-03 0. -1.
    9900012    2    1    2    0    0  0.13294429014E+02 -0.12951075033E+02 -0.39232016209E+02  0.47787270937E+02  0.19999999512E+02 0.  0.
        -12    1    1    2    0    0 -0.13294429014E+02  0.12951075033E+02  0.39232016209E+02  0.43400729063E+02  0.00000000000E+00 0.  1.
         11    1    3    3    0    0  0.52430940896E+01 -0.13579453958E+01 -0.28922451045E+02  0.29425197128E+02  0.51100000000E-03 0. -1.
        -11    1    3    3    0    0  0.74243189153E+01 -0.83809316579E+01 -0.53229053305E+01  0.12397332303E+02  0.51100000000E-03 0.  1.
        -12    1    3    3    0    0  0.62701600899E+00 -0.32121979795E+01 -0.49866598341E+01  0.59647415063E+01  0.00000000000E+00 0.  1.
</event>
<event>
 7    1  0.2655656E-009  0.4778727E+02  0.7816164E-02  0.1312668E+00
        -11   -1    0    0    0    0  0.00000000000E+00  0.00000000000E+00  0.45593999997E+02  0.45594000000E+02  0.51100000000E-03 0.  1.
         11   -1    0    0    0    0 -0.00000000000E+00 -0.00000000000E+00 -0.45593999997E+02  0.45594000000E+02  0.51100000000E-03 0. -1.
    9900012    2    1    2    0    0 -0.27134264343E+01 -0.41286664007E+02  0.13102370606E+02  0.47787269322E+02  0.19999992149E+02 0.  0.
        -12    1    1    2    0    0  0.27134264343E+01  0.41286664007E+02 -0.13102370606E+02  0.43400730678E+02  0.00000000000E+00 0.  1.
         11    1    3    3    0    0 -0.10135373107E+02 -0.13703964642E+02  0.47570572326E+01  0.17696158586E+02  0.51100000000E-03 0. -1.
        -11    1    3    3    0    0  0.40357687536E+01 -0.19322850224E+02  0.75288816251E+01  0.21126855634E+02  0.51100000000E-03 0.  1.
         12    1    3    3    0    0  0.33861779190E+01 -0.82598491409E+01  0.81643174843E+00  0.89642551018E+01  0.00000000000E+00 0. -1.
</event>
<event>
 7    1  0.2655656E-009  0.4778727E+02  0.7816164E-02  0.1312668E+00
        -11   -1    0    0    0    0  0.00000000000E+00  0.00000000000E+00  0.45593999997E+02  0.45594000000E+02  0.51100000000E-03 0. -1.
         11   -1    0    0    0    0 -0.00000000000E+00 -0.00000000000E+00 -0.45593999997E+02  0.45594000000E+02  0.51100000000E-03 0.  1.
    9900012    2    1    2    0    0 -0.39838424888E+01 -0.26933806033E+02  0.33798259804E+02  0.47787271041E+02  0.19999999985E+02 0.  0.
        -12    1    1    2    0    0  0.39838424888E+01  0.26933806033E+02 -0.33798259804E+02  0.43400728959E+02  0.00000000000E+00 0.  1.
         11    1    3    3    0    0 -0.29151783851E+01 -0.49329758307E+01  0.22036173319E+02  0.22768958044E+02  0.51100000000E-03 0. -1.
        -11    1    3    3    0    0 -0.82100043031E+00 -0.15810954348E+02  0.92274282143E+01  0.18325003433E+02  0.51100000000E-03 0.  1.
         12    1    3    3    0    0 -0.24766367346E+00 -0.61898758538E+01  0.25346582701E+01  0.66933095645E+01  0.00000000000E+00 0. -1.
</event>
<event>
 7    1  0.2655656E-009  0.4778727E+02  0.7816164E-02  0.1312668E+00
        -11   -1    0    0    0    0  0.00000000000E+00  0.00000000000E+00  0.45593999997E+02  0.45594000000E+02  0.51100000000E-03 0.  1.
         11   -1    0    0    0    0 -0.00000000000E+00 -0.00000000000E+00 -0.45593999997E+02  0.45594000000E+02  0.51100000000E-03 0. -1.
    9900012    2    1    2    0    0  0.42757791040E+02 -0.62750601622E+00 -0.74162421687E+01  0.47787272974E+02  0.20000008799E+02 0.  0.
        -12    1    1    2    0    0 -0.42757791040E+02  0.62750601622E+00  0.74162421687E+01  0.43400727026E+02  0.00000000000E+00 0.  1.
         11    1    3    3    0    0  0.37154865335E+01  0.76297230730E+00 -0.13860052872E+01  0.40383137372E+01  0.51100000000E-03 0. -1.
        -11    1    3    3    0    0  0.18136229490E+02 -0.21040525566E+01 -0.12177299216E+02  0.21946217754E+02  0.51100000000E-03 0.  1.
        -12    1    3    3    0    0  0.20906075017E+02  0.71357423312E+00  0.61470623347E+01  0.21802741483E+02  0.00000000000E+00 0.  1.
</event>
<event>
 7    1  0.2655656E-009  0.4778727E+02  0.7816164E-02  0.1312668E+00
        -11   -1    0    0    0    0  0.00000000000E+00  0.00000000000E+00  0.45593999997E+02  0.45594000000E+02  0.51100000000E-03 0.  1.
         11   -1    0    0    0    0 -0.00000000000E+00 -0.00000000000E+00 -0.45593999997E+02  0.45594000000E+02  0.51100000000E-03 0. -1.
    9900012    2    1    2    0    0  0.32716084355E+02  0.13514772843E+02 -0.25112389313E+02  0.47787270080E+02  0.19999995604E+02 0.  0.
        -12    1    1    2    0    0 -0.32716084355E+02 -0.13514772843E+02  0.25112389313E+02  0.43400729920E+02  0.00000000000E+00 0.  1.
         11    1    3    3    0    0  0.21631004043E+02  0.14520539684E+02 -0.22098555467E+02  0.34162736463E+02  0.51100000000E-03 0. -1.
        -11    1    3    3    0    0  0.12004903413E+01 -0.27269313786E+01  0.44335670820E+00  0.30122910276E+01  0.51100000000E-03 0.  1.
        -12    1    3    3    0    0  0.98845899706E+01  0.17211645377E+01 -0.34571905541E+01  0.10612242590E+02  0.00000000000E+00 0.  1.
</event>
<event>
 7    1  0.3045610E-009  0.4778727E+02  0.7816164E-02  0.1312668E+00
        -11   -1    0    0    0    0  0.00000000000E+00  0.00000000000E+00  0.45593999997E+02  0.45594000000E+02  0.51100000000E-03 0.  1.
         11   -1    0    0    0    0 -0.00000000000E+00 -0.00000000000E+00 -0.45593999997E+02  0.45594000000E+02  0.51100000000E-03 0. -1.
    9900012    2    1    2    0    0  0.26951246376E+02  0.33580780634E+02  0.54391927296E+01  0.47787270435E+02  0.19999997220E+02 0.  0.
        -12    1    1    2    0    0 -0.26951246376E+02 -0.33580780634E+02 -0.54391927296E+01  0.43400729565E+02  0.00000000000E+00 0.  1.
         11    1    3    3    0    0  0.21212200662E+02  0.16405950993E+02  0.55310189145E+01  0.27380738766E+02  0.51100000000E-03 0. -1.
        -11    1    3    3    0    0 -0.15294821498E+01  0.32247842750E+01  0.26421094484E+01  0.44406409296E+01  0.51100000000E-03 0.  1.
         12    1    3    3    0    0  0.72685278644E+01  0.13950045366E+02 -0.27339356333E+01  0.15965890739E+02  0.00000000000E+00 0. -1.
</event>
<event>
 7    1  0.2655656E-009  0.4778727E+02  0.7816164E-02  0.1312668E+00
        -11   -1    0    0    0    0  0.00000000000E+00  0.00000000000E+00  0.45593999997E+02  0.45594000000E+02  0.51100000000E-03 0.  1.
         11   -1    0    0    0    0 -0.00000000000E+00 -0.00000000000E+00 -0.45593999997E+02  0.45594000000E+02  0.51100000000E-03 0. -1.
    9900012    2    1    2    0    0 -0.70798330719E+01 -0.47216694168E+01 -0.42558260420E+02  0.47787265808E+02  0.19999976126E+02 0.  0.
        -12    1    1    2    0    0  0.70798330719E+01  0.47216694168E+01  0.42558260420E+02  0.43400734192E+02  0.00000000000E+00 0.  1.
         11    1    3    3    0    0  0.17006505542E+01  0.40068476138E+01 -0.99832645637E+01  0.10890941728E+02  0.51100000000E-03 0. -1.
        -11    1    3    3    0    0 -0.92908790673E+01 -0.62747608453E+01 -0.32510383364E+02  0.34389214650E+02  0.51100000000E-03 0.  1.
        -12    1    3    3    0    0  0.51039544113E+00 -0.24537561854E+01 -0.64612492701E-01  0.25071094307E+01  0.00000000000E+00 0.  1.
</event>
<event>
 7    1  0.2655656E-009  0.4778728E+02  0.7816164E-02  0.1312668E+00
        -11   -1    0    0    0    0  0.00000000000E+00  0.00000000000E+00  0.45593999997E+02  0.45594000000E+02  0.51100000000E-03 0.  1.
         11   -1    0    0    0    0 -0.00000000000E+00 -0.00000000000E+00 -0.45593999997E+02  0.45594000000E+02  0.51100000000E-03 0. -1.
    9900012    2    1    2    0    0  0.32272404521E+01 -0.36165220429E+02 -0.23775712315E+02  0.47787277130E+02  0.20000027745E+02 0.  0.
        -12    1    1    2    0    0 -0.32272404521E+01  0.36165220429E+02  0.23775712315E+02  0.43400722870E+02  0.00000000000E+00 0.  1.
         11    1    3    3    0    0 -0.52987113487E+01 -0.42449337336E+01 -0.22257524893E+01  0.71449127891E+01  0.51100000000E-03 0. -1.
        -11    1    3    3    0    0  0.18041117256E+01 -0.67455739344E+01 -0.24908637859E+00  0.69871046298E+01  0.51100000000E-03 0.  1.
         12    1    3    3    0    0  0.67218400752E+01 -0.25174712761E+02 -0.21300873447E+02  0.33655259711E+02  0.00000000000E+00 0. -1.
</event>
<event>
 7    1  0.2655656E-009  0.4778726E+02  0.7816164E-02  0.1312668E+00
        -11   -1    0    0    0    0  0.00000000000E+00  0.00000000000E+00  0.45593999997E+02  0.45594000000E+02  0.51100000000E-03 0. -1.
         11   -1    0    0    0    0 -0.00000000000E+00 -0.00000000000E+00 -0.45593999997E+02  0.45594000000E+02  0.51100000000E-03 0.  1.
    9900012    2    1    2    0    0 -0.42943328019E+02  0.24997437666E+01 -0.57659061996E+01  0.47787264815E+02  0.19999971598E+02 0.  0.
        -12    1    1    2    0    0  0.42943328019E+02 -0.24997437666E+01  0.57659061996E+01  0.43400735185E+02  0.00000000000E+00 0.  1.
         11    1    3    3    0    0 -0.18620362549E+02  0.27885662239E+01  0.64515511673E+01  0.19902676096E+02  0.51100000000E-03 0. -1.
        -11    1    3    3    0    0 -0.10243080908E+02 -0.37920940499E+00 -0.85155981912E+01  0.13325911566E+02  0.51100000000E-03 0.  1.
         12    1    3    3    0    0 -0.14079884562E+02  0.90386947643E-01 -0.37018591757E+01  0.14558677153E+02  0.00000000000E+00 0. -1.
</event>
<event>
 7    1  0.2655656E-009  0.4778727E+02  0.7816164E-02  0.1312668E+00
        -11   -1    0    0    0    0  0.00000000000E+00  0.00000000000E+00  0.45593999997E+02  0.45594000000E+02  0.51100000000E-03 0.  1.
         11   -1    0    0    0    0 -0.00000000000E+00 -0.00000000000E+00 -0.45593999997E+02  0.45594000000E+02  0.51100000000E-03 0. -1.
    9900012    2    1    2    0    0  0.53325608230E+00 -0.14453095334E+02 -0.40920005357E+02  0.47787272296E+02  0.20000005709E+02 0.  0.
        -12    1    1    2    0    0 -0.53325608230E+00  0.14453095334E+02  0.40920005357E+02  0.43400727704E+02  0.00000000000E+00 0.  1.
         11    1    3    3    0    0  0.26976323446E+01 -0.18608702394E+02 -0.27845930667E+02  0.33599953572E+02  0.51100000000E-03 0. -1.
        -11    1    3    3    0    0 -0.17155937336E+01  0.65450070240E+00 -0.30515858208E+01  0.35614336033E+01  0.51100000000E-03 0.  1.
         12    1    3    3    0    0 -0.44878252873E+00  0.35011063575E+01 -0.10022488869E+02  0.10625885121E+02  0.00000000000E+00 0. -1.
</event>
<event>
 7    1  0.2655656E-009  0.4778731E+02  0.7816164E-02  0.1312668E+00
        -11   -1    0    0    0    0  0.00000000000E+00  0.00000000000E+00  0.45593999997E+02  0.45594000000E+02  0.51100000000E-03 0.  1.
         11   -1    0    0    0    0 -0.00000000000E+00 -0.00000000000E+00 -0.45593999997E+02  0.45594000000E+02  0.51100000000E-03 0. -1.
    9900012    2    1    2    0    0 -0.20259978663E+02 -0.30201185101E+01 -0.38262676234E+02  0.47787305952E+02  0.20000159157E+02 0.  0.
        -12    1    1    2    0    0  0.20259978663E+02  0.30201185101E+01  0.38262676234E+02  0.43400694048E+02  0.00000000000E+00 0.  1.
         11    1    3    3    0    0 -0.11865397341E+02 -0.30079870367E+01 -0.32244138122E+02  0.34489419879E+02  0.51100000000E-03 0. -1.
        -11    1    3    3    0    0 -0.46383141858E+00  0.14833593182E+00  0.19763878217E+01  0.20354980267E+01  0.51100000000E-03 0.  1.
         12    1    3    3    0    0 -0.79307499038E+01 -0.16046740520E+00 -0.79949259335E+01  0.11262388046E+02  0.00000000000E+00 0. -1.
</event>
<event>
 7    1  0.2655656E-009  0.4778728E+02  0.7816164E-02  0.1312668E+00
        -11   -1    0    0    0    0  0.00000000000E+00  0.00000000000E+00  0.45593999997E+02  0.45594000000E+02  0.51100000000E-03 0. -1.
         11   -1    0    0    0    0 -0.00000000000E+00 -0.00000000000E+00 -0.45593999997E+02  0.45594000000E+02  0.51100000000E-03 0.  1.
    9900012    2    1    2    0    0 -0.11430425586E+02  0.39140162378E+02 -0.14866605834E+02  0.47787275248E+02  0.20000019164E+02 0.  0.
        -12    1    1    2    0    0  0.11430425586E+02 -0.39140162378E+02  0.14866605834E+02  0.43400724752E+02  0.00000000000E+00 0.  1.
         11    1    3    3    0    0  0.22597212165E+01  0.12748422366E+02 -0.52956526667E+01  0.13988300477E+02  0.51100000000E-03 0. -1.
        -11    1    3    3    0    0 -0.14332675675E+02  0.18901281752E+02 -0.31829452143E+01  0.23933557704E+02  0.51100000000E-03 0.  1.
         12    1    3    3    0    0  0.64252887338E+00  0.74904582597E+01 -0.63880079531E+01  0.98654170668E+01  0.00000000000E+00 0. -1.
</event>
<event>
 7    1  0.2655656E-009  0.4778727E+02  0.7816164E-02  0.1312668E+00
        -11   -1    0    0    0    0  0.00000000000E+00  0.00000000000E+00  0.45593999997E+02  0.45594000000E+02  0.51100000000E-03 0. -1.
         11   -1    0    0    0    0 -0.00000000000E+00 -0.00000000000E+00 -0.45593999997E+02  0.45594000000E+02  0.51100000000E-03 0.  1.
    9900012    2    1    2    0    0 -0.13017346764E+02 -0.15845206660E+02  0.38250509299E+02  0.47787270139E+02  0.19999995872E+02 0.  0.
        -12    1    1    2    0    0  0.13017346764E+02  0.15845206660E+02 -0.38250509299E+02  0.43400729861E+02  0.00000000000E+00 0.  1.
         11    1    3    3    0    0 -0.95684455436E+01 -0.44777315468E+01  0.15198145901E+02  0.18509156356E+02  0.51100000000E-03 0. -1.
        -11    1    3    3    0    0  0.28803941747E+01  0.18142355923E+01  0.49529040055E+01  0.60099400775E+01  0.51100000000E-03 0.  1.
        -12    1    3    3    0    0 -0.63292953948E+01 -0.13181710705E+02  0.18099459392E+02  0.23268173705E+02  0.00000000000E+00 0.  1.
</event>
<event>
 7    1  0.2655656E-009  0.4778727E+02  0.7816164E-02  0.1312668E+00
        -11   -1    0    0    0    0  0.00000000000E+00  0.00000000000E+00  0.45593999997E+02  0.45594000000E+02  0.51100000000E-03 0.  1.
         11   -1    0    0    0    0 -0.00000000000E+00 -0.00000000000E+00 -0.45593999997E+02  0.45594000000E+02  0.51100000000E-03 0. -1.
    9900012    2    1    2    0    0  0.35823023836E+02 -0.31405486112E+01 -0.24299612235E+02  0.47787271468E+02  0.20000001932E+02 0.  0.
        -12    1    1    2    0    0 -0.35823023836E+02  0.31405486112E+01  0.24299612235E+02  0.43400728532E+02  0.00000000000E+00 0.  1.
         11    1    3    3    0    0  0.10888512107E+02  0.62298421651E+01 -0.63879510043E+01  0.14077519228E+02  0.51100000000E-03 0. -1.
        -11    1    3    3    0    0  0.17564215925E+02 -0.11364157421E+02 -0.12940088178E+02  0.24598610474E+02  0.51100000000E-03 0.  1.
        -12    1    3    3    0    0  0.73702958041E+01  0.19937666445E+01 -0.49715730525E+01  0.91111417665E+01  0.00000000000E+00 0.  1.
</event>
<event>
 7    1  0.2655656E-009  0.4778727E+02  0.7816164E-02  0.1312668E+00
        -11   -1    0    0    0    0  0.00000000000E+00  0.00000000000E+00  0.45593999997E+02  0.45594000000E+02  0.51100000000E-03 0.  1.
         11   -1    0    0    0    0 -0.00000000000E+00 -0.00000000000E+00 -0.45593999997E+02  0.45594000000E+02  0.51100000000E-03 0. -1.
    9900012    2    1    2    0    0 -0.33558011894E+02 -0.22035046970E+02 -0.16490593389E+02  0.47787272730E+02  0.20000007686E+02 0.  0.
        -12    1    1    2    0    0  0.33558011894E+02  0.22035046970E+02  0.16490593389E+02  0.43400727270E+02  0.00000000000E+00 0.  1.
         11    1    3    3    0    0 -0.51240740687E+01  0.17092658021E+01  0.19928688411E+01  0.57575386341E+01  0.51100000000E-03 0. -1.
        -11    1    3    3    0    0 -0.56046182454E+00 -0.11678012576E+01  0.56825953198E+00  0.14144951010E+01  0.51100000000E-03 0.  1.
         12    1    3    3    0    0 -0.27873476001E+02 -0.22576511515E+02 -0.19051721762E+02  0.40615238995E+02  0.00000000000E+00 0. -1.
</event>
<event>
 7    1  0.2655656E-009  0.4778727E+02  0.7816164E-02  0.1312668E+00
        -11   -1    0    0    0    0  0.00000000000E+00  0.00000000000E+00  0.45593999997E+02  0.45594000000E+02  0.51100000000E-03 0.  1.
         11   -1    0    0    0    0 -0.00000000000E+00 -0.00000000000E+00 -0.45593999997E+02  0.45594000000E+02  0.51100000000E-03 0. -1.
    9900012    2    1    2    0    0 -0.14353125791E+02  0.40573627768E+02 -0.56028728354E+01  0.47787266432E+02  0.19999978971E+02 0.  0.
        -12    1    1    2    0    0  0.14353125791E+02 -0.40573627768E+02  0.56028728354E+01  0.43400733568E+02  0.00000000000E+00 0.  1.
         11    1    3    3    0    0 -0.10392715682E+02  0.23565524522E+02 -0.63276790216E+00  0.25763207889E+02  0.51100000000E-03 0. -1.
        -11    1    3    3    0    0  0.35819910149E+00  0.16041038577E+00  0.29053259800E+01  0.29317157774E+01  0.51100000000E-03 0.  1.
         12    1    3    3    0    0 -0.43186092103E+01  0.16847692860E+02 -0.78754309132E+01  0.19092342766E+02  0.00000000000E+00 0. -1.
</event>
<event>
 7    1  0.2655656E-009  0.4778727E+02  0.7816164E-02  0.1312668E+00
        -11   -1    0    0    0    0  0.00000000000E+00  0.00000000000E+00  0.45593999997E+02  0.45594000000E+02  0.51100000000E-03 0.  1.
         11   -1    0    0    0    0 -0.00000000000E+00 -0.00000000000E+00 -0.45593999997E+02  0.45594000000E+02  0.51100000000E-03 0. -1.
    9900012    2    1    2    0    0  0.30726770802E+02  0.33677032377E+01 -0.30465510158E+02  0.47787272146E+02  0.20000005025E+02 0.  0.
        -12    1    1    2    0    0 -0.30726770802E+02 -0.33677032377E+01  0.30465510158E+02  0.43400727854E+02  0.00000000000E+00 0.  1.
         11    1    3    3    0    0  0.14886134260E+02 -0.56725681186E+01 -0.14411978589E+02  0.21482089036E+02  0.51100000000E-03 0. -1.
        -11    1    3    3    0    0  0.15171135695E+02  0.10793116171E+02 -0.15785533905E+02  0.24409788936E+02  0.51100000000E-03 0.  1.
        -12    1    3    3    0    0  0.66950084778E+00 -0.17528448147E+01 -0.26799766407E+00  0.18953941747E+01  0.00000000000E+00 0.  1.
</event>
<event>
 7    1  0.2655656E-009  0.4778728E+02  0.7816164E-02  0.1312668E+00
        -11   -1    0    0    0    0  0.00000000000E+00  0.00000000000E+00  0.45593999997E+02  0.45594000000E+02  0.51100000000E-03 0.  1.
         11   -1    0    0    0    0 -0.00000000000E+00 -0.00000000000E+00 -0.45593999997E+02  0.45594000000E+02  0.51100000000E-03 0. -1.
    9900012    2    1    2    0    0  0.23954244527E+01 -0.23524472610E+02 -0.36393461506E+02  0.47787275233E+02  0.20000019097E+02 0.  0.
        -12    1    1    2    0    0 -0.23954244527E+01  0.23524472610E+02  0.36393461506E+02  0.43400724767E+02  0.00000000000E+00 0.  1.
         11    1    3    3    0    0  0.53049637121E+00 -0.22582386360E+02 -0.27842829334E+02  0.35853434225E+02  0.51100000000E-03 0. -1.
        -11    1    3    3    0    0  0.51010206529E+00  0.34267100257E+01 -0.21874299787E+01  0.40972424739E+01  0.51100000000E-03 0.  1.
        -12    1    3    3    0    0  0.13548260162E+01 -0.43687962754E+01 -0.63632021937E+01  0.78365985343E+01  0.00000000000E+00 0.  1.
</event>
<event>
 7    1  0.2655656E-009  0.4778726E+02  0.7816164E-02  0.1312668E+00
        -11   -1    0    0    0    0  0.00000000000E+00  0.00000000000E+00  0.45593999997E+02  0.45594000000E+02  0.51100000000E-03 0. -1.
         11   -1    0    0    0    0 -0.00000000000E+00 -0.00000000000E+00 -0.45593999997E+02  0.45594000000E+02  0.51100000000E-03 0.  1.
    9900012    2    1    2    0    0  0.30937326929E+02  0.10083432819E+01  0.30421849395E+02  0.47787264127E+02  0.19999968461E+02 0.  0.
        -12    1    1    2    0    0 -0.30937326929E+02 -0.10083432819E+01 -0.30421849395E+02  0.43400735873E+02  0.00000000000E+00 0.  1.
         11    1    3    3    0    0  0.86578290670E+01  0.83073150874E+01  0.16146537623E+02  0.20116663878E+02  0.51100000000E-03 0. -1.
        -11    1    3    3    0    0  0.21289019009E+02 -0.73410344242E+01  0.12828906259E+02  0.25917059109E+02  0.51100000000E-03 0.  1.
        -12    1    3    3    0    0  0.99047885269E+00  0.42062618689E-01  0.14464055131E+01  0.17535411401E+01  0.00000000000E+00 0.  1.
</event>
<event>
 7    1  0.2655656E-009  0.4778727E+02  0.7816164E-02  0.1312668E+00
        -11   -1    0    0    0    0  0.00000000000E+00  0.00000000000E+00  0.45593999997E+02  0.45594000000E+02  0.51100000000E-03 0. -1.
         11   -1    0    0    0    0 -0.00000000000E+00 -0.00000000000E+00 -0.45593999997E+02  0.45594000000E+02  0.51100000000E-03 0.  1.
    9900012    2    1    2    0    0  0.43383397745E+02 -0.10498850357E+01 -0.63386300369E+00  0.47787271425E+02  0.20000001737E+02 0.  0.
        -12    1    1    2    0    0 -0.43383397745E+02  0.10498850357E+01  0.63386300369E+00  0.43400728575E+02  0.00000000000E+00 0.  1.
         11    1    3    3    0    0  0.99444959145E+01  0.42715276096E+01 -0.39991981770E+01  0.11538307217E+02  0.51100000000E-03 0.  1.
        -11    1    3    3    0    0  0.18174528382E+02 -0.80990350519E+01  0.53587151602E+01  0.20606398985E+02  0.51100000000E-03 0. -1.
         12    1    3    3    0    0  0.15264373448E+02  0.27776224067E+01 -0.19933799869E+01  0.15642565224E+02  0.00000000000E+00 0. -1.
</event>
<event>
 7    1  0.2655656E-009  0.4778727E+02  0.7816164E-02  0.1312668E+00
        -11   -1    0    0    0    0  0.00000000000E+00  0.00000000000E+00  0.45593999997E+02  0.45594000000E+02  0.51100000000E-03 0.  1.
         11   -1    0    0    0    0 -0.00000000000E+00 -0.00000000000E+00 -0.45593999997E+02  0.45594000000E+02  0.51100000000E-03 0. -1.
    9900012    2    1    2    0    0 -0.49027879669E+01  0.33331493434E+01 -0.42993912118E+02  0.47787266209E+02  0.19999977952E+02 0.  0.
        -12    1    1    2    0    0  0.49027879669E+01 -0.33331493434E+01  0.42993912118E+02  0.43400733791E+02  0.00000000000E+00 0.  1.
         11    1    3    3    0    0 -0.79468479131E+01 -0.23035563520E+01 -0.11682158228E+02  0.14315431700E+02  0.51100000000E-03 0. -1.
        -11    1    3    3    0    0  0.14813784197E+00 -0.27973400016E+01 -0.56803720985E+01  0.63335364011E+01  0.51100000000E-03 0.  1.
         12    1    3    3    0    0  0.28959221042E+01  0.84340456971E+01 -0.25631381791E+02  0.27138298108E+02  0.00000000000E+00 0. -1.
</event>
<event>
 7    1  0.2655656E-009  0.4778727E+02  0.7816164E-02  0.1312668E+00
        -11   -1    0    0    0    0  0.00000000000E+00  0.00000000000E+00  0.45593999997E+02  0.45594000000E+02  0.51100000000E-03 0.  1.
         11   -1    0    0    0    0 -0.00000000000E+00 -0.00000000000E+00 -0.45593999997E+02  0.45594000000E+02  0.51100000000E-03 0. -1.
    9900012    2    1    2    0    0  0.13157404758E+02  0.11768672605E+02 -0.39648508791E+02  0.47787271847E+02  0.20000003659E+02 0.  0.
        -12    1    1    2    0    0 -0.13157404758E+02 -0.11768672605E+02  0.39648508791E+02  0.43400728153E+02  0.00000000000E+00 0.  1.
         11    1    3    3    0    0  0.80148536228E+01  0.51973511401E+01 -0.24717251332E+02  0.26498921697E+02  0.51100000000E-03 0. -1.
        -11    1    3    3    0    0  0.48298889624E+01  0.20849785708E+01  0.43390524512E+00  0.52785639196E+01  0.51100000000E-03 0.  1.
        -12    1    3    3    0    0  0.31266217310E+00  0.44863428937E+01 -0.15365162705E+02  0.16009786230E+02  0.00000000000E+00 0.  1.
</event>
<event>
 7    1  0.2655656E-009  0.4778727E+02  0.7816164E-02  0.1312668E+00
        -11   -1    0    0    0    0  0.00000000000E+00  0.00000000000E+00  0.45593999997E+02  0.45594000000E+02  0.51100000000E-03 0. -1.
         11   -1    0    0    0    0 -0.00000000000E+00 -0.00000000000E+00 -0.45593999997E+02  0.45594000000E+02  0.51100000000E-03 0.  1.
    9900012    2    1    2    0    0 -0.78445541421E+01 -0.42636713857E+02 -0.20486736501E+01  0.47787268878E+02  0.19999990121E+02 0.  0.
        -12    1    1    2    0    0  0.78445541421E+01  0.42636713857E+02  0.20486736501E+01  0.43400731122E+02  0.00000000000E+00 0.  1.
         11    1    3    3    0    0 -0.10260897642E+02 -0.34839229003E+02  0.56958067464E+00  0.36323302718E+02  0.51100000000E-03 0. -1.
        -11    1    3    3    0    0 -0.72436145525E-02  0.78361308142E+00  0.14613795261E+01  0.16582316822E+01  0.51100000000E-03 0.  1.
         12    1    3    3    0    0  0.24235871147E+01 -0.85810979358E+01 -0.40796338509E+01  0.98057344775E+01  0.00000000000E+00 0. -1.
</event>
<event>
 7    1  0.2655656E-009  0.4778727E+02  0.7816164E-02  0.1312668E+00
        -11   -1    0    0    0    0  0.00000000000E+00  0.00000000000E+00  0.45593999997E+02  0.45594000000E+02  0.51100000000E-03 0.  1.
         11   -1    0    0    0    0 -0.00000000000E+00 -0.00000000000E+00 -0.45593999997E+02  0.45594000000E+02  0.51100000000E-03 0. -1.
    9900012    2    1    2    0    0 -0.16595698712E+02 -0.10872404187E+02 -0.38600477320E+02  0.47787271459E+02  0.20000001890E+02 0.  0.
        -12    1    1    2    0    0  0.16595698712E+02  0.10872404187E+02  0.38600477320E+02  0.43400728541E+02  0.00000000000E+00 0.  1.
         11    1    3    3    0    0 -0.52227930521E+01 -0.12039936113E+02 -0.29351110490E+02  0.32151598967E+02  0.51100000000E-03 0. -1.
        -11    1    3    3    0    0 -0.10416907976E+02 -0.36601970091E+00 -0.63078313586E+01  0.12183377155E+02  0.51100000000E-03 0.  1.
         12    1    3    3    0    0 -0.95599768421E+00  0.15335516267E+01 -0.29415354714E+01  0.34522953369E+01  0.00000000000E+00 0. -1.
</event>
<event>
 7    1  0.2655656E-009  0.4778727E+02  0.7816164E-02  0.1312668E+00
        -11   -1    0    0    0    0  0.00000000000E+00  0.00000000000E+00  0.45593999997E+02  0.45594000000E+02  0.51100000000E-03 0. -1.
         11   -1    0    0    0    0 -0.00000000000E+00 -0.00000000000E+00 -0.45593999997E+02  0.45594000000E+02  0.51100000000E-03 0.  1.
    9900012    2    1    2    0    0 -0.33130086932E+02 -0.10596806599E+02  0.25956279268E+02  0.47787269549E+02  0.19999993182E+02 0.  0.
        -12    1    1    2    0    0  0.33130086932E+02  0.10596806599E+02 -0.25956279268E+02  0.43400730451E+02  0.00000000000E+00 0.  1.
         11    1    3    3    0    0 -0.10789548259E+02 -0.16303628488E+01  0.51441211582E+01  0.12063764645E+02  0.51100000000E-03 0. -1.
        -11    1    3    3    0    0 -0.12263842704E+02 -0.58563282751E+01  0.21186936153E+02  0.25171108091E+02  0.51100000000E-03 0.  1.
        -12    1    3    3    0    0 -0.10076695969E+02 -0.31101154755E+01 -0.37477804229E+00  0.10552396813E+02  0.00000000000E+00 0.  1.
</event>
<event>
 7    1  0.2655656E-009  0.4778727E+02  0.7816164E-02  0.1312668E+00
        -11   -1    0    0    0    0  0.00000000000E+00  0.00000000000E+00  0.45593999997E+02  0.45594000000E+02  0.51100000000E-03 0.  1.
         11   -1    0    0    0    0 -0.00000000000E+00 -0.00000000000E+00 -0.45593999997E+02  0.45594000000E+02  0.51100000000E-03 0. -1.
    9900012    2    1    2    0    0  0.36222296956E+01  0.30430585515E+02 -0.30732426956E+02  0.47787272478E+02  0.20000006538E+02 0.  0.
        -12    1    1    2    0    0 -0.36222296956E+01 -0.30430585515E+02  0.30732426956E+02  0.43400727522E+02  0.00000000000E+00 0.  1.
         11    1    3    3    0    0 -0.28450725014E+01  0.10219022619E+02 -0.54181930059E+01  0.11911325557E+02  0.51100000000E-03 0. -1.
        -11    1    3    3    0    0  0.48266026104E+01  0.16218618046E+02 -0.26461325303E+02  0.31409256616E+02  0.51100000000E-03 0.  1.
        -12    1    3    3    0    0  0.16406995867E+01  0.39929448508E+01  0.11470913527E+01  0.44666903056E+01  0.00000000000E+00 0.  1.
</event>
<event>
 7    1  0.2655656E-009  0.4778726E+02  0.7816164E-02  0.1312668E+00
        -11   -1    0    0    0    0  0.00000000000E+00  0.00000000000E+00  0.45593999997E+02  0.45594000000E+02  0.51100000000E-03 0. -1.
         11   -1    0    0    0    0 -0.00000000000E+00 -0.00000000000E+00 -0.45593999997E+02  0.45594000000E+02  0.51100000000E-03 0.  1.
    9900012    2    1    2    0    0  0.30581368145E+02  0.27961380835E+02  0.12906025310E+02  0.47787258243E+02  0.19999941632E+02 0.  0.
        -12    1    1    2    0    0 -0.30581368145E+02 -0.27961380835E+02 -0.12906025310E+02  0.43400741757E+02  0.00000000000E+00 0.  1.
         11    1    3    3    0    0  0.10138190906E+02  0.53425255862E+01  0.12103308839E+00  0.11460372759E+02  0.51100000000E-03 0. -1.
        -11    1    3    3    0    0  0.33992576557E+00  0.98528975322E+01  0.60960148961E+01  0.11591226733E+02  0.51100000000E-03 0.  1.
        -12    1    3    3    0    0  0.20103251473E+02  0.12765957716E+02  0.66889773258E+01  0.24735658751E+02  0.00000000000E+00 0.  1.
</event>
<event>
 7    1  0.2655656E-009  0.4778727E+02  0.7816164E-02  0.1312668E+00
        -11   -1    0    0    0    0  0.00000000000E+00  0.00000000000E+00  0.45593999997E+02  0.45594000000E+02  0.51100000000E-03 0.  1.
         11   -1    0    0    0    0 -0.00000000000E+00 -0.00000000000E+00 -0.45593999997E+02  0.45594000000E+02  0.51100000000E-03 0. -1.
    9900012    2    1    2    0    0 -0.34575579058E+02 -0.70349229626E+01 -0.25271770131E+02  0.47787272197E+02  0.20000005255E+02 0.  0.
        -12    1    1    2    0    0  0.34575579058E+02  0.70349229626E+01  0.25271770131E+02  0.43400727803E+02  0.00000000000E+00 0.  1.
         11    1    3    3    0    0 -0.14328996686E+02 -0.35829183212E+01 -0.12083441141E+02  0.19083160110E+02  0.51100000000E-03 0. -1.
        -11    1    3    3    0    0 -0.27726365262E+01 -0.44819329292E+01 -0.94271764509E+01  0.10800319078E+02  0.51100000000E-03 0.  1.
        -12    1    3    3    0    0 -0.17473945845E+02  0.10299282878E+01 -0.37611525394E+01  0.17903793009E+02  0.00000000000E+00 0.  1.
</event>
<event>
 7    1  0.2655656E-009  0.4778727E+02  0.7816164E-02  0.1312668E+00
        -11   -1    0    0    0    0  0.00000000000E+00  0.00000000000E+00  0.45593999997E+02  0.45594000000E+02  0.51100000000E-03 0. -1.
         11   -1    0    0    0    0 -0.00000000000E+00 -0.00000000000E+00 -0.45593999997E+02  0.45594000000E+02  0.51100000000E-03 0.  1.
    9900012    2    1    2    0    0 -0.42982076950E+02 -0.42747601783E+01 -0.42297246696E+01  0.47787273229E+02  0.20000009959E+02 0.  0.
        -12    1    1    2    0    0  0.42982076950E+02  0.42747601783E+01  0.42297246696E+01  0.43400726771E+02  0.00000000000E+00 0.  1.
         11    1    3    3    0    0 -0.22980125219E+02 -0.10248573155E+02 -0.41788483920E+01  0.25506512520E+02  0.51100000000E-03 0. -1.
        -11    1    3    3    0    0 -0.19761015444E+02  0.54637232907E+01  0.15720145701E+01  0.20562617383E+02  0.51100000000E-03 0.  1.
        -12    1    3    3    0    0 -0.24093628645E+00  0.51008968629E+00 -0.16228908478E+01  0.17181433252E+01  0.00000000000E+00 0.  1.
</event>
<event>
 7    1  0.2655656E-009  0.4778727E+02  0.7816164E-02  0.1312668E+00
        -11   -1    0    0    0    0  0.00000000000E+00  0.00000000000E+00  0.45593999997E+02  0.45594000000E+02  0.51100000000E-03 0. -1.
         11   -1    0    0    0    0 -0.00000000000E+00 -0.00000000000E+00 -0.45593999997E+02  0.45594000000E+02  0.51100000000E-03 0.  1.
    9900012    2    1    2    0    0 -0.20120513974E+02  0.36757089677E+02  0.11300642458E+02  0.47787271388E+02  0.20000001566E+02 0.  0.
        -12    1    1    2    0    0  0.20120513974E+02 -0.36757089677E+02 -0.11300642458E+02  0.43400728612E+02  0.00000000000E+00 0.  1.
         11    1    3    3    0    0 -0.17355160156E+02  0.33239485738E+02  0.10189198140E+02  0.38857235557E+02  0.51100000000E-03 0. -1.
        -11    1    3    3    0    0 -0.20690008850E+01 -0.17855227557E+01  0.21552191085E+01  0.34804921836E+01  0.51100000000E-03 0.  1.
        -12    1    3    3    0    0 -0.69635293318E+00  0.53031266948E+01 -0.10437747902E+01  0.54495436471E+01  0.00000000000E+00 0.  1.
</event>
<event>
 7    1  0.2655656E-009  0.4778727E+02  0.7816164E-02  0.1312668E+00
        -11   -1    0    0    0    0  0.00000000000E+00  0.00000000000E+00  0.45593999997E+02  0.45594000000E+02  0.51100000000E-03 0. -1.
         11   -1    0    0    0    0 -0.00000000000E+00 -0.00000000000E+00 -0.45593999997E+02  0.45594000000E+02  0.51100000000E-03 0.  1.
    9900012    2    1    2    0    0 -0.20839550214E+02 -0.10639974800E+02  0.36553075563E+02  0.47787271320E+02  0.20000001258E+02 0.  0.
        -12    1    1    2    0    0  0.20839550214E+02  0.10639974800E+02 -0.36553075563E+02  0.43400728680E+02  0.00000000000E+00 0.  1.
         11    1    3    3    0    0 -0.82344071093E+01  0.21984849676E+01  0.20206001909E+02  0.21929918149E+02  0.51100000000E-03 0. -1.
        -11    1    3    3    0    0 -0.46469124755E+01 -0.67577430993E+01  0.21417201829E+01  0.84763112823E+01  0.51100000000E-03 0.  1.
         12    1    3    3    0    0 -0.79582306289E+01 -0.60807166680E+01  0.14205353470E+02  0.17381041889E+02  0.00000000000E+00 0. -1.
</event>
<event>
 7    1  0.2655656E-009  0.4778727E+02  0.7816164E-02  0.1312668E+00
        -11   -1    0    0    0    0  0.00000000000E+00  0.00000000000E+00  0.45593999997E+02  0.45594000000E+02  0.51100000000E-03 0. -1.
         11   -1    0    0    0    0 -0.00000000000E+00 -0.00000000000E+00 -0.45593999997E+02  0.45594000000E+02  0.51100000000E-03 0.  1.
    9900012    2    1    2    0    0 -0.36029373050E+02  0.60592984008E+01  0.23426315066E+02  0.47787273542E+02  0.20000011387E+02 0.  0.
        -12    1    1    2    0    0  0.36029373050E+02 -0.60592984008E+01 -0.23426315066E+02  0.43400726458E+02  0.00000000000E+00 0.  1.
         11    1    3    3    0    0 -0.11092812886E+02 -0.20380296512E+01  0.64993271788E+01  0.13017116294E+02  0.51100000000E-03 0. -1.
        -11    1    3    3    0    0 -0.43241696947E+00 -0.13418953803E+01 -0.19669242259E+01  0.24200121526E+01  0.51100000000E-03 0.  1.
        -12    1    3    3    0    0 -0.24504143195E+02  0.94392234323E+01  0.18893912113E+02  0.32350145095E+02  0.00000000000E+00 0.  1.
</event>
<event>
 7    1  0.2655656E-009  0.4778727E+02  0.7816164E-02  0.1312668E+00
        -11   -1    0    0    0    0  0.00000000000E+00  0.00000000000E+00  0.45593999997E+02  0.45594000000E+02  0.51100000000E-03 0.  1.
         11   -1    0    0    0    0 -0.00000000000E+00 -0.00000000000E+00 -0.45593999997E+02  0.45594000000E+02  0.51100000000E-03 0. -1.
    9900012    2    1    2    0    0 -0.87740859245E+00 -0.14846834874E+02 -0.40772843000E+02  0.47787273301E+02  0.20000010291E+02 0.  0.
        -12    1    1    2    0    0  0.87740859245E+00  0.14846834874E+02  0.40772843000E+02  0.43400726699E+02  0.00000000000E+00 0.  1.
         11    1    3    3    0    0 -0.21235292547E+01 -0.44272283417E+01 -0.28468513448E+02  0.28888855732E+02  0.51100000000E-03 0. -1.
        -11    1    3    3    0    0  0.32864681676E+00 -0.11471540601E+02 -0.12998338671E+02  0.17339580760E+02  0.51100000000E-03 0.  1.
         12    1    3    3    0    0  0.91747384547E+00  0.10519340682E+01  0.69400911847E+00  0.15588368092E+01  0.00000000000E+00 0. -1.
</event>
<event>
 7    1  0.2655656E-009  0.4778727E+02  0.7816164E-02  0.1312668E+00
        -11   -1    0    0    0    0  0.00000000000E+00  0.00000000000E+00  0.45593999997E+02  0.45594000000E+02  0.51100000000E-03 0.  1.
         11   -1    0    0    0    0 -0.00000000000E+00 -0.00000000000E+00 -0.45593999997E+02  0.45594000000E+02  0.51100000000E-03 0. -1.
    9900012    2    1    2    0    0  0.29885654323E+02 -0.49927636728E+01 -0.31073195415E+02  0.47787268477E+02  0.19999988296E+02 0.  0.
        -12    1    1    2    0    0 -0.29885654323E+02  0.49927636728E+01  0.31073195415E+02  0.43400731523E+02  0.00000000000E+00 0.  1.
         11    1    3    3    0    0  0.11075926323E+02 -0.43429516313E+01 -0.22778984447E+02  0.25698628475E+02  0.51100000000E-03 0.  1.
        -11    1    3    3    0    0  0.13628607893E+02 -0.30302359607E+01 -0.29412817282E+01  0.14267880766E+02  0.51100000000E-03 0. -1.
         12    1    3    3    0    0  0.51811201077E+01  0.23804239192E+01 -0.53529292389E+01  0.78207592369E+01  0.00000000000E+00 0. -1.
</event>
<event>
 7    1  0.2655656E-009  0.4778727E+02  0.7816164E-02  0.1312668E+00
        -11   -1    0    0    0    0  0.00000000000E+00  0.00000000000E+00  0.45593999997E+02  0.45594000000E+02  0.51100000000E-03 0.  1.
         11   -1    0    0    0    0 -0.00000000000E+00 -0.00000000000E+00 -0.45593999997E+02  0.45594000000E+02  0.51100000000E-03 0. -1.
    9900012    2    1    2    0    0 -0.32391902636E+02 -0.61289846299E+01 -0.28228060048E+02  0.47787272091E+02  0.20000004770E+02 0.  0.
        -12    1    1    2    0    0  0.32391902636E+02  0.61289846299E+01  0.28228060048E+02  0.43400727909E+02  0.00000000000E+00 0.  1.
         11    1    3    3    0    0 -0.18338974950E+02 -0.76137006435E+01 -0.25438171433E+02  0.32270528440E+02  0.51100000000E-03 0. -1.
        -11    1    3    3    0    0 -0.95114677540E+01  0.33857097710E+01 -0.31613643078E+01  0.10579474185E+02  0.51100000000E-03 0.  1.
         12    1    3    3    0    0 -0.45414599323E+01 -0.19009937573E+01  0.37147569243E+00  0.49372694652E+01  0.00000000000E+00 0. -1.
</event>
<event>
 7    1  0.2655656E-009  0.4778726E+02  0.7816164E-02  0.1312668E+00
        -11   -1    0    0    0    0  0.00000000000E+00  0.00000000000E+00  0.45593999997E+02  0.45594000000E+02  0.51100000000E-03 0.  1.
         11   -1    0    0    0    0 -0.00000000000E+00 -0.00000000000E+00 -0.45593999997E+02  0.45594000000E+02  0.51100000000E-03 0. -1.
    9900012    2    1    2    0    0  0.41407015707E+02 -0.12911279943E+02  0.15432855762E+01  0.47787264639E+02  0.19999970795E+02 0.  0.
        -12    1    1    2    0    0 -0.41407015707E+02  0.12911279943E+02 -0.15432855762E+01  0.43400735361E+02  0.00000000000E+00 0.  1.
         11    1    3    3    0    0  0.23875922367E+02 -0.84119082301E+01  0.31835675344E+01  0.25513819225E+02  0.51100000000E-03 0. -1.
        -11    1    3    3    0    0  0.63704256361E+00 -0.51673372873E+01 -0.12839660811E+01  0.53624403984E+01  0.51100000000E-03 0.  1.
        -12    1    3    3    0    0  0.16894050776E+02  0.66796557406E+00 -0.35631587719E+00  0.16911005016E+02  0.00000000000E+00 0.  1.
</event>
<event>
 7    1  0.2655656E-009  0.4778727E+02  0.7816164E-02  0.1312668E+00
        -11   -1    0    0    0    0  0.00000000000E+00  0.00000000000E+00  0.45593999997E+02  0.45594000000E+02  0.51100000000E-03 0.  1.
         11   -1    0    0    0    0 -0.00000000000E+00 -0.00000000000E+00 -0.45593999997E+02  0.45594000000E+02  0.51100000000E-03 0. -1.
    9900012    2    1    2    0    0  0.32376894673E+02  0.19455252508E+02 -0.21374122569E+02  0.47787271039E+02  0.19999999975E+02 0.  0.
        -12    1    1    2    0    0 -0.32376894673E+02 -0.19455252508E+02  0.21374122569E+02  0.43400728961E+02  0.00000000000E+00 0.  1.
         11    1    3    3    0    0  0.55556680189E+01  0.12426867794E+02 -0.69498286125E+01  0.15283736726E+02  0.51100000000E-03 0.  1.
        -11    1    3    3    0    0  0.23261716146E+02  0.37135359252E+01 -0.89978622383E+01  0.25216250955E+02  0.51100000000E-03 0. -1.
         12    1    3    3    0    0  0.35595105080E+01  0.33148487885E+01 -0.54264317178E+01  0.72872833576E+01  0.00000000000E+00 0. -1.
</event>
<event>
 7    1  0.2655656E-009  0.4778727E+02  0.7816164E-02  0.1312668E+00
        -11   -1    0    0    0    0  0.00000000000E+00  0.00000000000E+00  0.45593999997E+02  0.45594000000E+02  0.51100000000E-03 0.  1.
         11   -1    0    0    0    0 -0.00000000000E+00 -0.00000000000E+00 -0.45593999997E+02  0.45594000000E+02  0.51100000000E-03 0. -1.
    9900012    2    1    2    0    0 -0.40083802107E+02 -0.33307625998E+01 -0.16303926841E+02  0.47787271881E+02  0.20000003813E+02 0.  0.
        -12    1    1    2    0    0  0.40083802107E+02  0.33307625998E+01  0.16303926841E+02  0.43400728119E+02  0.00000000000E+00 0.  1.
         11    1    3    3    0    0 -0.13688794532E+02  0.58556780373E+01 -0.11616427236E+02  0.18884211474E+02  0.51100000000E-03 0. -1.
        -11    1    3    3    0    0 -0.20292665268E+02 -0.92927020300E+01 -0.46562140420E+01  0.22799712809E+02  0.51100000000E-03 0.  1.
         12    1    3    3    0    0 -0.61023423064E+01  0.10626139287E+00 -0.31285562825E-01  0.61033475974E+01  0.00000000000E+00 0. -1.
</event>
<event>
 7    1  0.2655656E-009  0.4778727E+02  0.7816164E-02  0.1312668E+00
        -11   -1    0    0    0    0  0.00000000000E+00  0.00000000000E+00  0.45593999997E+02  0.45594000000E+02  0.51100000000E-03 0.  1.
         11   -1    0    0    0    0 -0.00000000000E+00 -0.00000000000E+00 -0.45593999997E+02  0.45594000000E+02  0.51100000000E-03 0. -1.
    9900012    2    1    2    0    0 -0.39002290872E+02  0.13784063172E+02  0.13131792946E+02  0.47787273315E+02  0.20000010351E+02 0.  0.
        -12    1    1    2    0    0  0.39002290872E+02 -0.13784063172E+02 -0.13131792946E+02  0.43400726685E+02  0.00000000000E+00 0.  1.
         11    1    3    3    0    0 -0.20058694881E+02  0.29497269568E+01  0.87571013573E+00  0.20293323975E+02  0.51100000000E-03 0. -1.
        -11    1    3    3    0    0 -0.81956230998E+01 -0.11772586733E+01  0.24820229994E+01  0.86437615890E+01  0.51100000000E-03 0.  1.
         12    1    3    3    0    0 -0.10747972892E+02  0.12011594889E+02  0.97740598108E+01  0.18850187751E+02  0.00000000000E+00 0. -1.
</event>
<event>
 7    1  0.2655656E-009  0.4778727E+02  0.7816164E-02  0.1312668E+00
        -11   -1    0    0    0    0  0.00000000000E+00  0.00000000000E+00  0.45593999997E+02  0.45594000000E+02  0.51100000000E-03 0. -1.
         11   -1    0    0    0    0 -0.00000000000E+00 -0.00000000000E+00 -0.45593999997E+02  0.45594000000E+02  0.51100000000E-03 0.  1.
    9900012    2    1    2    0    0  0.28125078867E+02  0.32878259514E+02  0.34092824646E+01  0.47787271701E+02  0.20000002992E+02 0.  0.
        -12    1    1    2    0    0 -0.28125078867E+02 -0.32878259514E+02 -0.34092824646E+01  0.43400728299E+02  0.00000000000E+00 0.  1.
         11    1    3    3    0    0  0.10089454939E+02  0.96976372228E+01  0.76055825635E+01  0.15927528216E+02  0.51100000000E-03 0. -1.
        -11    1    3    3    0    0  0.93653517178E+01  0.15775005731E+02 -0.77513291003E+01  0.19915916291E+02  0.51100000000E-03 0.  1.
        -12    1    3    3    0    0  0.86702722104E+01  0.74056165603E+01  0.35550290014E+01  0.11943827194E+02  0.00000000000E+00 0.  1.
</event>
<event>
 7    1  0.2655656E-009  0.4778727E+02  0.7816164E-02  0.1312668E+00
        -11   -1    0    0    0    0  0.00000000000E+00  0.00000000000E+00  0.45593999997E+02  0.45594000000E+02  0.51100000000E-03 0.  1.
         11   -1    0    0    0    0 -0.00000000000E+00 -0.00000000000E+00 -0.45593999997E+02  0.45594000000E+02  0.51100000000E-03 0. -1.
    9900012    2    1    2    0    0 -0.20532000657E+02  0.98501931046E+01 -0.36946361964E+02  0.47787273997E+02  0.20000013464E+02 0.  0.
        -12    1    1    2    0    0  0.20532000657E+02 -0.98501931046E+01  0.36946361964E+02  0.43400726003E+02  0.00000000000E+00 0.  1.
         11    1    3    3    0    0 -0.14717962228E+02  0.47756337923E+01 -0.29534932241E+02  0.33342725038E+02  0.51100000000E-03 0. -1.
        -11    1    3    3    0    0 -0.29107705513E+01 -0.22201564016E+01 -0.19159375303E-01  0.36608806308E+01  0.51100000000E-03 0.  1.
         12    1    3    3    0    0 -0.29032678780E+01  0.72947157140E+01 -0.73922703478E+01  0.10783668328E+02  0.00000000000E+00 0. -1.
</event>
<event>
 7    1  0.2655656E-009  0.4778727E+02  0.7816164E-02  0.1312668E+00
        -11   -1    0    0    0    0  0.00000000000E+00  0.00000000000E+00  0.45593999997E+02  0.45594000000E+02  0.51100000000E-03 0.  1.
         11   -1    0    0    0    0 -0.00000000000E+00 -0.00000000000E+00 -0.45593999997E+02  0.45594000000E+02  0.51100000000E-03 0. -1.
    9900012    2    1    2    0    0  0.28391700570E+02  0.28110851958E+01 -0.32705234329E+02  0.47787271737E+02  0.20000003159E+02 0.  0.
        -12    1    1    2    0    0 -0.28391700570E+02 -0.28110851958E+01  0.32705234329E+02  0.43400728263E+02  0.00000000000E+00 0.  1.
         11    1    3    3    0    0  0.12126226027E+02 -0.15991189995E+01 -0.20519148646E+01  0.12402132644E+02  0.51100000000E-03 0. -1.
        -11    1    3    3    0    0  0.78979356944E+01  0.36397952715E+01 -0.20059141133E+02  0.21863088554E+02  0.51100000000E-03 0.  1.
         12    1    3    3    0    0  0.83675388486E+01  0.77040892379E+00 -0.10594178331E+02  0.13522050540E+02  0.00000000000E+00 0. -1.
</event>
<event>
 7    1  0.2655656E-009  0.4778728E+02  0.7816164E-02  0.1312668E+00
        -11   -1    0    0    0    0  0.00000000000E+00  0.00000000000E+00  0.45593999997E+02  0.45594000000E+02  0.51100000000E-03 0.  1.
         11   -1    0    0    0    0 -0.00000000000E+00 -0.00000000000E+00 -0.45593999997E+02  0.45594000000E+02  0.51100000000E-03 0. -1.
    9900012    2    1    2    0    0 -0.41778350112E+02  0.79994683903E+01  0.86139712081E+01  0.47787279585E+02  0.20000038939E+02 0.  0.
        -12    1    1    2    0    0  0.41778350112E+02 -0.79994683903E+01 -0.86139712081E+01  0.43400720415E+02  0.00000000000E+00 0.  1.
         11    1    3    3    0    0 -0.25152785854E+02  0.64465881392E-01 -0.15730913547E+00  0.25153360382E+02  0.51100000000E-03 0. -1.
        -11    1    3    3    0    0 -0.10284537734E+02  0.22423524441E+01  0.93686923302E+01  0.14091566879E+02  0.51100000000E-03 0.  1.
         12    1    3    3    0    0 -0.63410265243E+01  0.56926500648E+01 -0.59741198663E+00  0.85423523238E+01  0.00000000000E+00 0. -1.
</event>
<event>
 7    1  0.2655656E-009  0.4778725E+02  0.7816164E-02  0.1312668E+00
        -11   -1    0    0    0    0  0.00000000000E+00  0.00000000000E+00  0.45593999997E+02  0.45594000000E+02  0.51100000000E-03 0.  1.
         11   -1    0    0    0    0 -0.00000000000E+00 -0.00000000000E+00 -0.45593999997E+02  0.45594000000E+02  0.51100000000E-03 0. -1.
    9900012    2    1    2    0    0  0.27260753196E+02 -0.16659529536E+02 -0.29375775917E+02  0.47787253464E+02  0.19999919843E+02 0.  0.
        -12    1    1    2    0    0 -0.27260753196E+02  0.16659529536E+02  0.29375775917E+02  0.43400746536E+02  0.00000000000E+00 0.  1.
         11    1    3    3    0    0  0.64881800312E+01 -0.76754904882E+01  0.18923586834E+00  0.10052136331E+02  0.51100000000E-03 0. -1.
        -11    1    3    3    0    0  0.39444397851E+01 -0.38168101223E+01 -0.44550777097E+01  0.70692547265E+01  0.51100000000E-03 0.  1.
         12    1    3    3    0    0  0.16828133380E+02 -0.51672289258E+01 -0.25109934076E+02  0.30665862406E+02  0.00000000000E+00 0. -1.
</event>
<event>
 7    1  0.2655656E-009  0.4778727E+02  0.7816164E-02  0.1312668E+00
        -11   -1    0    0    0    0  0.00000000000E+00  0.00000000000E+00  0.45593999997E+02  0.45594000000E+02  0.51100000000E-03 0. -1.
         11   -1    0    0    0    0 -0.00000000000E+00 -0.00000000000E+00 -0.45593999997E+02  0.45594000000E+02  0.51100000000E-03 0.  1.
    9900012    2    1    2    0    0 -0.88931715004E+01 -0.41962763613E+02 -0.66076787149E+01  0.47787269046E+02  0.19999990887E+02 0.  0.
        -12    1    1    2    0    0  0.88931715004E+01  0.41962763613E+02  0.66076787149E+01  0.43400730954E+02  0.00000000000E+00 0.  1.
         11    1    3    3    0    0  0.32718263566E+01 -0.21700297793E+02 -0.56875635982E+01  0.22670601050E+02  0.51100000000E-03 0. -1.
        -11    1    3    3    0    0 -0.85380709432E+01 -0.14115098870E+02  0.33021583653E+01  0.16823760628E+02  0.51100000000E-03 0.  1.
         12    1    3    3    0    0 -0.36269269138E+01 -0.61473669493E+01 -0.42222734820E+01  0.82929073674E+01  0.00000000000E+00 0. -1.
</event>
<event>
 7    1  0.2655656E-009  0.4778727E+02  0.7816164E-02  0.1312668E+00
        -11   -1    0    0    0    0  0.00000000000E+00  0.00000000000E+00  0.45593999997E+02  0.45594000000E+02  0.51100000000E-03 0.  1.
         11   -1    0    0    0    0 -0.00000000000E+00 -0.00000000000E+00 -0.45593999997E+02  0.45594000000E+02  0.51100000000E-03 0. -1.
    9900012    2    1    2    0    0  0.10260421909E+02 -0.54593805130E+01 -0.41815574485E+02  0.47787270020E+02  0.19999995328E+02 0.  0.
        -12    1    1    2    0    0 -0.10260421909E+02  0.54593805130E+01  0.41815574485E+02  0.43400729980E+02  0.00000000000E+00 0.  1.
         11    1    3    3    0    0  0.97666895879E+01  0.32415880297E+01 -0.35214771092E+02  0.36687548593E+02  0.51100000000E-03 0. -1.
        -11    1    3    3    0    0 -0.24772230294E+00 -0.73676667912E+01 -0.57780037687E+01  0.93663871422E+01  0.51100000000E-03 0.  1.
        -12    1    3    3    0    0  0.74145462445E+00 -0.13333017515E+01 -0.82279962408E+00  0.17333342846E+01  0.00000000000E+00 0.  1.
</event>
<event>
 7    1  0.2655656E-009  0.4778727E+02  0.7816164E-02  0.1312668E+00
        -11   -1    0    0    0    0  0.00000000000E+00  0.00000000000E+00  0.45593999997E+02  0.45594000000E+02  0.51100000000E-03 0.  1.
         11   -1    0    0    0    0 -0.00000000000E+00 -0.00000000000E+00 -0.45593999997E+02  0.45594000000E+02  0.51100000000E-03 0. -1.
    9900012    2    1    2    0    0  0.91010995559E+01  0.20709430245E+02 -0.37039338696E+02  0.47787272757E+02  0.20000007809E+02 0.  0.
        -12    1    1    2    0    0 -0.91010995559E+01 -0.20709430245E+02  0.37039338696E+02  0.43400727243E+02  0.00000000000E+00 0.  1.
         11    1    3    3    0    0 -0.60731998970E+00  0.16321626735E+02 -0.21186413472E+02  0.26751232736E+02  0.51100000000E-03 0. -1.
        -11    1    3    3    0    0  0.66573553877E+01  0.70302601200E+01 -0.99341142702E+01  0.13871970470E+02  0.51100000000E-03 0.  1.
         12    1    3    3    0    0  0.30510641579E+01 -0.26424566102E+01 -0.59188109533E+01  0.71640695512E+01  0.00000000000E+00 0. -1.
</event>
<event>
 7    1  0.2655656E-009  0.4778727E+02  0.7816164E-02  0.1312668E+00
        -11   -1    0    0    0    0  0.00000000000E+00  0.00000000000E+00  0.45593999997E+02  0.45594000000E+02  0.51100000000E-03 0.  1.
         11   -1    0    0    0    0 -0.00000000000E+00 -0.00000000000E+00 -0.45593999997E+02  0.45594000000E+02  0.51100000000E-03 0. -1.
    9900012    2    1    2    0    0 -0.35414635995E+02  0.68142367155E+01 -0.24145247164E+02  0.47787271604E+02  0.20000002552E+02 0.  0.
        -12    1    1    2    0    0  0.35414635995E+02 -0.68142367155E+01  0.24145247164E+02  0.43400728396E+02  0.00000000000E+00 0.  1.
         11    1    3    3    0    0 -0.17761897569E+02 -0.28268362080E+01 -0.52487274066E+01  0.18735665130E+02  0.51100000000E-03 0. -1.
        -11    1    3    3    0    0 -0.15978774775E+02  0.11193890449E+02 -0.15308453600E+02  0.24798652757E+02  0.51100000000E-03 0.  1.
        -12    1    3    3    0    0 -0.16739636505E+01 -0.15528175250E+01 -0.35880661579E+01  0.42529537174E+01  0.00000000000E+00 0.  1.
</event>
<event>
 7    1  0.2655656E-009  0.4778727E+02  0.7816164E-02  0.1312668E+00
        -11   -1    0    0    0    0  0.00000000000E+00  0.00000000000E+00  0.45593999997E+02  0.45594000000E+02  0.51100000000E-03 0.  1.
         11   -1    0    0    0    0 -0.00000000000E+00 -0.00000000000E+00 -0.45593999997E+02  0.45594000000E+02  0.51100000000E-03 0. -1.
    9900012    2    1    2    0    0 -0.29606109417E+02 -0.44427242551E+01 -0.31422344421E+02  0.47787271405E+02  0.20000001644E+02 0.  0.
        -12    1    1    2    0    0  0.29606109417E+02  0.44427242551E+01  0.31422344421E+02  0.43400728595E+02  0.00000000000E+00 0.  1.
         11    1    3    3    0    0 -0.14373752645E+01 -0.26072884328E+01 -0.21324470624E+01  0.36621484620E+01  0.51100000000E-03 0. -1.
        -11    1    3    3    0    0 -0.10761309705E+02 -0.78252950106E+01 -0.64404911464E+01  0.14782454297E+02  0.51100000000E-03 0.  1.
        -12    1    3    3    0    0 -0.17407424448E+02  0.59898591883E+01 -0.22849406213E+02  0.29342668646E+02  0.00000000000E+00 0.  1.
</event>
<event>
 7    1  0.2655656E-009  0.4778727E+02  0.7816164E-02  0.1312668E+00
        -11   -1    0    0    0    0  0.00000000000E+00  0.00000000000E+00  0.45593999997E+02  0.45594000000E+02  0.51100000000E-03 0.  1.
         11   -1    0    0    0    0 -0.00000000000E+00 -0.00000000000E+00 -0.45593999997E+02  0.45594000000E+02  0.51100000000E-03 0. -1.
    9900012    2    1    2    0    0  0.42622682813E+02 -0.52597902382E+01 -0.62661678808E+01  0.47787270243E+02  0.19999996347E+02 0.  0.
        -12    1    1    2    0    0 -0.42622682813E+02  0.52597902382E+01  0.62661678808E+01  0.43400729757E+02  0.00000000000E+00 0.  1.
         11    1    3    3    0    0  0.15007346436E+01 -0.20103466561E+01 -0.37768030101E+01  0.45340863894E+01  0.51100000000E-03 0. -1.
        -11    1    3    3    0    0  0.31369610115E+02  0.18795801712E+00 -0.67181906705E+01  0.32081487701E+02  0.51100000000E-03 0.  1.
        -12    1    3    3    0    0  0.97523380545E+01 -0.34374015992E+01  0.42288257998E+01  0.11171696153E+02  0.00000000000E+00 0.  1.
</event>
<event>
 7    1  0.2655656E-009  0.4778726E+02  0.7816164E-02  0.1312668E+00
        -11   -1    0    0    0    0  0.00000000000E+00  0.00000000000E+00  0.45593999997E+02  0.45594000000E+02  0.51100000000E-03 0. -1.
         11   -1    0    0    0    0 -0.00000000000E+00 -0.00000000000E+00 -0.45593999997E+02  0.45594000000E+02  0.51100000000E-03 0.  1.
    9900012    2    1    2    0    0  0.92346777620E+01  0.18669732389E+02  0.38076053525E+02  0.47787262300E+02  0.19999960133E+02 0.  0.
        -12    1    1    2    0    0 -0.92346777620E+01 -0.18669732389E+02 -0.38076053525E+02  0.43400737700E+02  0.00000000000E+00 0.  1.
         11    1    3    3    0    0 -0.29292281983E+01  0.36735848563E+01  0.85519277846E+00  0.47756631459E+01  0.51100000000E-03 0. -1.
        -11    1    3    3    0    0  0.83272229650E+01  0.32089164261E+01  0.18768904801E+02  0.20782482398E+02  0.51100000000E-03 0.  1.
        -12    1    3    3    0    0  0.38366829953E+01  0.11787231106E+02  0.18451955946E+02  0.22229116757E+02  0.00000000000E+00 0.  1.
</event>
<event>
 7    1  0.2655656E-009  0.4778727E+02  0.7816164E-02  0.1312668E+00
        -11   -1    0    0    0    0  0.00000000000E+00  0.00000000000E+00  0.45593999997E+02  0.45594000000E+02  0.51100000000E-03 0.  1.
         11   -1    0    0    0    0 -0.00000000000E+00 -0.00000000000E+00 -0.45593999997E+02  0.45594000000E+02  0.51100000000E-03 0. -1.
    9900012    2    1    2    0    0 -0.24535285477E+02  0.65375451202E+01 -0.35198064006E+02  0.47787269138E+02  0.19999991307E+02 0.  0.
        -12    1    1    2    0    0  0.24535285477E+02 -0.65375451202E+01  0.35198064006E+02  0.43400730862E+02  0.00000000000E+00 0.  1.
         11    1    3    3    0    0 -0.49546667661E+01  0.32560603763E+01 -0.58743466112E+01  0.83461727939E+01  0.51100000000E-03 0. -1.
        -11    1    3    3    0    0 -0.14241287378E+02  0.82834271461E+01 -0.11269378958E+02  0.19960669674E+02  0.51100000000E-03 0.  1.
        -12    1    3    3    0    0 -0.53393313328E+01 -0.50019424022E+01 -0.18054338436E+02  0.19480426670E+02  0.00000000000E+00 0.  1.
</event>
<event>
 7    1  0.2655656E-009  0.4778727E+02  0.7816164E-02  0.1312668E+00
        -11   -1    0    0    0    0  0.00000000000E+00  0.00000000000E+00  0.45593999997E+02  0.45594000000E+02  0.51100000000E-03 0.  1.
         11   -1    0    0    0    0 -0.00000000000E+00 -0.00000000000E+00 -0.45593999997E+02  0.45594000000E+02  0.51100000000E-03 0. -1.
    9900012    2    1    2    0    0  0.17157039719E+02 -0.18533460831E+02 -0.35295467854E+02  0.47787271512E+02  0.20000002130E+02 0.  0.
        -12    1    1    2    0    0 -0.17157039719E+02  0.18533460831E+02  0.35295467854E+02  0.43400728488E+02  0.00000000000E+00 0.  1.
         11    1    3    3    0    0  0.15729616251E+02 -0.47643739798E+01 -0.13020841229E+02  0.20968128037E+02  0.51100000000E-03 0. -1.
        -11    1    3    3    0    0 -0.92398087955E+00 -0.75718785873E+01 -0.78565749863E+01  0.10950472902E+02  0.51100000000E-03 0.  1.
         12    1    3    3    0    0  0.23514043483E+01 -0.61972082640E+01 -0.14418051639E+02  0.15868670572E+02  0.00000000000E+00 0. -1.
</event>
<event>
 7    1  0.2655656E-009  0.4778728E+02  0.7816164E-02  0.1312668E+00
        -11   -1    0    0    0    0  0.00000000000E+00  0.00000000000E+00  0.45593999997E+02  0.45594000000E+02  0.51100000000E-03 0.  1.
         11   -1    0    0    0    0 -0.00000000000E+00 -0.00000000000E+00 -0.45593999997E+02  0.45594000000E+02  0.51100000000E-03 0. -1.
    9900012    2    1    2    0    0  0.10111665483E+02 -0.38768575029E+02 -0.16684559094E+02  0.47787277647E+02  0.20000030103E+02 0.  0.
        -12    1    1    2    0    0 -0.10111665483E+02  0.38768575029E+02  0.16684559094E+02  0.43400722353E+02  0.00000000000E+00 0.  1.
         11    1    3    3    0    0 -0.25900499941E+01 -0.13103375920E+01  0.13777461206E+01  0.32130247759E+01  0.51100000000E-03 0. -1.
        -11    1    3    3    0    0  0.10617845965E+01 -0.27860958321E+01 -0.48381388497E+01  0.56830717315E+01  0.51100000000E-03 0.  1.
         12    1    3    3    0    0  0.11639930881E+02 -0.34672141605E+02 -0.13224166365E+02  0.38891181139E+02  0.00000000000E+00 0. -1.
</event>
<event>
 7    1  0.2655656E-009  0.4778727E+02  0.7816164E-02  0.1312668E+00
        -11   -1    0    0    0    0  0.00000000000E+00  0.00000000000E+00  0.45593999997E+02  0.45594000000E+02  0.51100000000E-03 0. -1.
         11   -1    0    0    0    0 -0.00000000000E+00 -0.00000000000E+00 -0.45593999997E+02  0.45594000000E+02  0.51100000000E-03 0.  1.
    9900012    2    1    2    0    0  0.25030731854E+02  0.33777161222E+02  0.10779105145E+02  0.47787271146E+02  0.20000000464E+02 0.  0.
        -12    1    1    2    0    0 -0.25030731854E+02 -0.33777161222E+02 -0.10779105145E+02  0.43400728854E+02  0.00000000000E+00 0.  1.
         11    1    3    3    0    0  0.18661397675E+02  0.14680227653E+02  0.69652377408E+01  0.24744118173E+02  0.51100000000E-03 0. -1.
        -11    1    3    3    0    0 -0.13544038795E+01  0.11748791725E+02  0.34280248683E+00  0.11831569240E+02  0.51100000000E-03 0.  1.
        -12    1    3    3    0    0  0.77237380585E+01  0.73481418434E+01  0.34710649175E+01  0.11211583733E+02  0.00000000000E+00 0.  1.
</event>
<event>
 7    1  0.2655656E-009  0.4778728E+02  0.7816164E-02  0.1312668E+00
        -11   -1    0    0    0    0  0.00000000000E+00  0.00000000000E+00  0.45593999997E+02  0.45594000000E+02  0.51100000000E-03 0.  1.
         11   -1    0    0    0    0 -0.00000000000E+00 -0.00000000000E+00 -0.45593999997E+02  0.45594000000E+02  0.51100000000E-03 0. -1.
    9900012    2    1    2    0    0 -0.17070885235E+02 -0.72360328372E+01 -0.39240888030E+02  0.47787278954E+02  0.20000036062E+02 0.  0.
        -12    1    1    2    0    0  0.17070885235E+02  0.72360328372E+01  0.39240888030E+02  0.43400721046E+02  0.00000000000E+00 0.  1.
         11    1    3    3    0    0 -0.19144280983E+01 -0.65112018512E+01 -0.15060041660E+01  0.69518942238E+01  0.51100000000E-03 0. -1.
        -11    1    3    3    0    0 -0.81033038221E+01  0.95012482847E+00 -0.23203779980E+02  0.24596375255E+02  0.51100000000E-03 0.  1.
        -12    1    3    3    0    0 -0.70531533148E+01 -0.16749558145E+01 -0.14531103884E+02  0.16239009475E+02  0.00000000000E+00 0.  1.
</event>
<event>
 7    1  0.2655656E-009  0.4778727E+02  0.7816164E-02  0.1312668E+00
        -11   -1    0    0    0    0  0.00000000000E+00  0.00000000000E+00  0.45593999997E+02  0.45594000000E+02  0.51100000000E-03 0. -1.
         11   -1    0    0    0    0 -0.00000000000E+00 -0.00000000000E+00 -0.45593999997E+02  0.45594000000E+02  0.51100000000E-03 0.  1.
    9900012    2    1    2    0    0 -0.42225396409E+01 -0.22625665629E+02  0.36795009242E+02  0.47787270843E+02  0.19999999083E+02 0.  0.
        -12    1    1    2    0    0  0.42225396409E+01  0.22625665629E+02 -0.36795009242E+02  0.43400729157E+02  0.00000000000E+00 0.  1.
         11    1    3    3    0    0 -0.59843005059E+01 -0.23094397448E+02  0.34659901772E+02  0.42076975143E+02  0.51100000000E-03 0. -1.
        -11    1    3    3    0    0  0.78814612997E-01  0.25520622163E+00 -0.15925376149E+01  0.16147811848E+01  0.51100000000E-03 0.  1.
         12    1    3    3    0    0  0.16829462520E+01  0.21352559731E+00  0.37276450852E+01  0.40955145158E+01  0.00000000000E+00 0. -1.
</event>
<event>
 7    1  0.2655656E-009  0.4778727E+02  0.7816164E-02  0.1312668E+00
        -11   -1    0    0    0    0  0.00000000000E+00  0.00000000000E+00  0.45593999997E+02  0.45594000000E+02  0.51100000000E-03 0.  1.
         11   -1    0    0    0    0 -0.00000000000E+00 -0.00000000000E+00 -0.45593999997E+02  0.45594000000E+02  0.51100000000E-03 0. -1.
    9900012    2    1    2    0    0 -0.34178520792E+02  0.24313725270E+02 -0.11148762485E+02  0.47787269304E+02  0.19999992062E+02 0.  0.
        -12    1    1    2    0    0  0.34178520792E+02 -0.24313725270E+02  0.11148762485E+02  0.43400730696E+02  0.00000000000E+00 0.  1.
         11    1    3    3    0    0 -0.20986714085E+01  0.29462968739E+01 -0.28523814666E+01  0.46066438155E+01  0.51100000000E-03 0. -1.
        -11    1    3    3    0    0 -0.21007967158E+02  0.16054592838E+02 -0.13682614178E+02  0.29770766976E+02  0.51100000000E-03 0.  1.
        -12    1    3    3    0    0 -0.11071882225E+02  0.53128355580E+01  0.53862331593E+01  0.13409858512E+02  0.00000000000E+00 0.  1.
</event>
<event>
 7    1  0.2655656E-009  0.4778727E+02  0.7816164E-02  0.1312668E+00
        -11   -1    0    0    0    0  0.00000000000E+00  0.00000000000E+00  0.45593999997E+02  0.45594000000E+02  0.51100000000E-03 0. -1.
         11   -1    0    0    0    0 -0.00000000000E+00 -0.00000000000E+00 -0.45593999997E+02  0.45594000000E+02  0.51100000000E-03 0.  1.
    9900012    2    1    2    0    0 -0.97131603191E+01 -0.42011630746E+02  0.49295576856E+01  0.47787272583E+02  0.20000007015E+02 0.  0.
        -12    1    1    2    0    0  0.97131603191E+01  0.42011630746E+02 -0.49295576856E+01  0.43400727417E+02  0.00000000000E+00 0.  1.
         11    1    3    3    0    0 -0.28790990487E+01 -0.27975362958E+02  0.79940161667E+01  0.29237209831E+02  0.51100000000E-03 0. -1.
        -11    1    3    3    0    0 -0.64323276001E+01 -0.28844834629E+01 -0.20685147009E+01  0.73466888141E+01  0.51100000000E-03 0.  1.
         12    1    3    3    0    0 -0.40173367035E+00 -0.11151784325E+02 -0.99594378022E+00  0.11203373938E+02  0.00000000000E+00 0. -1.
</event>
<event>
 7    1  0.2655656E-009  0.4778727E+02  0.7816164E-02  0.1312668E+00
        -11   -1    0    0    0    0  0.00000000000E+00  0.00000000000E+00  0.45593999997E+02  0.45594000000E+02  0.51100000000E-03 0.  1.
         11   -1    0    0    0    0 -0.00000000000E+00 -0.00000000000E+00 -0.45593999997E+02  0.45594000000E+02  0.51100000000E-03 0. -1.
    9900012    2    1    2    0    0 -0.42004515873E+02  0.92901899083E+01  0.57389871094E+01  0.47787274714E+02  0.20000016732E+02 0.  0.
        -12    1    1    2    0    0  0.42004515873E+02 -0.92901899083E+01 -0.57389871094E+01  0.43400725286E+02  0.00000000000E+00 0.  1.
         11    1    3    3    0    0 -0.17036614661E+02  0.85449176221E+01  0.62393795440E+01  0.20054717989E+02  0.51100000000E-03 0. -1.
        -11    1    3    3    0    0 -0.19309727106E+02 -0.46694327584E+01 -0.94115609222E+00  0.19888563001E+02  0.51100000000E-03 0.  1.
        -12    1    3    3    0    0 -0.56581741061E+01  0.54147050446E+01  0.44076365766E+00  0.78439937236E+01  0.00000000000E+00 0.  1.
</event>
<event>
 7    1  0.2655656E-009  0.4778727E+02  0.7816164E-02  0.1312668E+00
        -11   -1    0    0    0    0  0.00000000000E+00  0.00000000000E+00  0.45593999997E+02  0.45594000000E+02  0.51100000000E-03 0. -1.
         11   -1    0    0    0    0 -0.00000000000E+00 -0.00000000000E+00 -0.45593999997E+02  0.45594000000E+02  0.51100000000E-03 0.  1.
    9900012    2    1    2    0    0  0.37859844287E+02 -0.13092692342E+02  0.16698423120E+02  0.47787265710E+02  0.19999975678E+02 0.  0.
        -12    1    1    2    0    0 -0.37859844287E+02  0.13092692342E+02 -0.16698423120E+02  0.43400734290E+02  0.00000000000E+00 0.  1.
         11    1    3    3    0    0  0.27168045091E+02 -0.14343497971E+02  0.37990102018E+01  0.30955953981E+02  0.51100000000E-03 0. -1.
        -11    1    3    3    0    0  0.37210350000E+01  0.48477334226E+00  0.52585398690E+01  0.64601353298E+01  0.51100000000E-03 0.  1.
         12    1    3    3    0    0  0.69707641968E+01  0.76603228703E+00  0.76408730492E+01  0.10371176399E+02  0.00000000000E+00 0. -1.
</event>
<event>
 7    1  0.2655656E-009  0.4778727E+02  0.7816164E-02  0.1312668E+00
        -11   -1    0    0    0    0  0.00000000000E+00  0.00000000000E+00  0.45593999997E+02  0.45594000000E+02  0.51100000000E-03 0.  1.
         11   -1    0    0    0    0 -0.00000000000E+00 -0.00000000000E+00 -0.45593999997E+02  0.45594000000E+02  0.51100000000E-03 0. -1.
    9900012    2    1    2    0    0  0.25965697791E+01 -0.16724407629E+02 -0.39964676086E+02  0.47787270515E+02  0.19999997584E+02 0.  0.
        -12    1    1    2    0    0 -0.25965697791E+01  0.16724407629E+02  0.39964676086E+02  0.43400729485E+02  0.00000000000E+00 0.  1.
         11    1    3    3    0    0  0.14311177445E+01 -0.17617434473E+02 -0.28394888320E+02  0.33446850052E+02  0.51100000000E-03 0. -1.
        -11    1    3    3    0    0  0.26302757901E+01  0.69292753561E+00 -0.12365731228E+02  0.12661350970E+02  0.51100000000E-03 0.  1.
         12    1    3    3    0    0 -0.14648237555E+01  0.20009930824E+00  0.79594346214E+00  0.16790694931E+01  0.00000000000E+00 0. -1.
</event>
<event>
 7    1  0.2655656E-009  0.4778728E+02  0.7816164E-02  0.1312668E+00
        -11   -1    0    0    0    0  0.00000000000E+00  0.00000000000E+00  0.45593999997E+02  0.45594000000E+02  0.51100000000E-03 0. -1.
         11   -1    0    0    0    0 -0.00000000000E+00 -0.00000000000E+00 -0.45593999997E+02  0.45594000000E+02  0.51100000000E-03 0.  1.
    9900012    2    1    2    0    0 -0.30109678449E+02  0.67867601164E+01  0.30511796513E+02  0.47787279089E+02  0.20000036678E+02 0.  0.
        -12    1    1    2    0    0  0.30109678449E+02 -0.67867601164E+01 -0.30511796513E+02  0.43400720911E+02  0.00000000000E+00 0.  1.
         11    1    3    3    0    0 -0.22366486905E+02  0.32524365551E+01  0.16816687372E+02  0.28171600140E+02  0.51100000000E-03 0. -1.
        -11    1    3    3    0    0  0.23528781676E+01  0.31592820032E+01  0.39601412861E+01  0.55856797004E+01  0.51100000000E-03 0.  1.
        -12    1    3    3    0    0 -0.10096069712E+02  0.37504155802E+00  0.97349678548E+01  0.14029999249E+02  0.00000000000E+00 0.  1.
</event>
<event>
 7    1  0.2655656E-009  0.4778728E+02  0.7816164E-02  0.1312668E+00
        -11   -1    0    0    0    0  0.00000000000E+00  0.00000000000E+00  0.45593999997E+02  0.45594000000E+02  0.51100000000E-03 0.  1.
         11   -1    0    0    0    0 -0.00000000000E+00 -0.00000000000E+00 -0.45593999997E+02  0.45594000000E+02  0.51100000000E-03 0. -1.
    9900012    2    1    2    0    0 -0.32734264538E+02 -0.24134574313E+02 -0.15152988793E+02  0.47787276256E+02  0.20000023763E+02 0.  0.
        -12    1    1    2    0    0  0.32734264538E+02  0.24134574313E+02  0.15152988793E+02  0.43400723744E+02  0.00000000000E+00 0.  1.
         11    1    3    3    0    0 -0.15154204933E+01 -0.85582263940E+01  0.57151486525E+00  0.87101301819E+01  0.51100000000E-03 0. -1.
        -11    1    3    3    0    0  0.44329556534E+00 -0.13651270820E+00  0.75417149394E-01  0.46993051113E+00  0.51100000000E-03 0.  1.
         12    1    3    3    0    0 -0.31662139610E+02 -0.15439835211E+02 -0.15799920808E+02  0.38607215563E+02  0.00000000000E+00 0. -1.
</event>
<event>
 7    1  0.2655656E-009  0.4778727E+02  0.7816164E-02  0.1312668E+00
        -11   -1    0    0    0    0  0.00000000000E+00  0.00000000000E+00  0.45593999997E+02  0.45594000000E+02  0.51100000000E-03 0. -1.
         11   -1    0    0    0    0 -0.00000000000E+00 -0.00000000000E+00 -0.45593999997E+02  0.45594000000E+02  0.51100000000E-03 0.  1.
    9900012    2    1    2    0    0 -0.11619794447E+02 -0.37686248076E+02  0.18120444250E+02  0.47787269398E+02  0.19999992493E+02 0.  0.
        -12    1    1    2    0    0  0.11619794447E+02  0.37686248076E+02 -0.18120444250E+02  0.43400730602E+02  0.00000000000E+00 0.  1.
         11    1    3    3    0    0 -0.96888489844E+01 -0.22182841101E+02  0.33877526503E+01  0.24442362861E+02  0.51100000000E-03 0. -1.
        -11    1    3    3    0    0 -0.48527511452E+01 -0.72605511683E+01  0.43081075110E+01  0.97377917174E+01  0.51100000000E-03 0.  1.
         12    1    3    3    0    0  0.29218056830E+01 -0.82428558066E+01  0.10424584088E+02  0.13607114820E+02  0.00000000000E+00 0. -1.
</event>
<event>
 7    1  0.2655656E-009  0.4778727E+02  0.7816164E-02  0.1312668E+00
        -11   -1    0    0    0    0  0.00000000000E+00  0.00000000000E+00  0.45593999997E+02  0.45594000000E+02  0.51100000000E-03 0.  1.
         11   -1    0    0    0    0 -0.00000000000E+00 -0.00000000000E+00 -0.45593999997E+02  0.45594000000E+02  0.51100000000E-03 0. -1.
    9900012    2    1    2    0    0  0.36903796153E+02  0.12459712961E+02 -0.19143885483E+02  0.47787274557E+02  0.20000016017E+02 0.  0.
        -12    1    1    2    0    0 -0.36903796153E+02 -0.12459712961E+02  0.19143885483E+02  0.43400725443E+02  0.00000000000E+00 0.  1.
         11    1    3    3    0    0  0.21485674843E+01  0.65772210688E+01  0.37690463283E+00  0.69295192175E+01  0.51100000000E-03 0. -1.
        -11    1    3    3    0    0 -0.97936308653E-01  0.63931900358E+00 -0.31797225093E+00  0.72071278771E+00  0.51100000000E-03 0.  1.
         12    1    3    3    0    0  0.34853164977E+02  0.52431728885E+01 -0.19202817865E+02  0.40137042552E+02  0.00000000000E+00 0. -1.
</event>
<event>
 7    1  0.2655656E-009  0.4778727E+02  0.7816164E-02  0.1312668E+00
        -11   -1    0    0    0    0  0.00000000000E+00  0.00000000000E+00  0.45593999997E+02  0.45594000000E+02  0.51100000000E-03 0.  1.
         11   -1    0    0    0    0 -0.00000000000E+00 -0.00000000000E+00 -0.45593999997E+02  0.45594000000E+02  0.51100000000E-03 0. -1.
    9900012    2    1    2    0    0 -0.16798327231E+02  0.37325629136E+02 -0.14430404365E+02  0.47787274680E+02  0.20000016575E+02 0.  0.
        -12    1    1    2    0    0  0.16798327231E+02 -0.37325629136E+02  0.14430404365E+02  0.43400725320E+02  0.00000000000E+00 0.  1.
         11    1    3    3    0    0 -0.38336668237E+01  0.10915006393E+02 -0.47662805884E+01  0.12512066048E+02  0.51100000000E-03 0. -1.
        -11    1    3    3    0    0 -0.11723561907E+01  0.17719314880E+02 -0.59442975829E-01  0.17758155101E+02  0.51100000000E-03 0.  1.
        -12    1    3    3    0    0 -0.11792304217E+02  0.86913078625E+01 -0.96046808004E+01  0.17517053530E+02  0.00000000000E+00 0.  1.
</event>
<event>
 7    1  0.2655656E-009  0.4778727E+02  0.7816164E-02  0.1312668E+00
        -11   -1    0    0    0    0  0.00000000000E+00  0.00000000000E+00  0.45593999997E+02  0.45594000000E+02  0.51100000000E-03 0.  1.
         11   -1    0    0    0    0 -0.00000000000E+00 -0.00000000000E+00 -0.45593999997E+02  0.45594000000E+02  0.51100000000E-03 0. -1.
    9900012    2    1    2    0    0  0.17387772161E+01  0.39274988991E+02  0.18386828473E+02  0.47787267658E+02  0.19999984562E+02 0.  0.
        -12    1    1    2    0    0 -0.17387772161E+01 -0.39274988991E+02 -0.18386828473E+02  0.43400732342E+02  0.00000000000E+00 0.  1.
         11    1    3    3    0    0  0.25274636110E+01  0.84622247953E+01  0.24667164458E+01  0.91696243694E+01  0.51100000000E-03 0. -1.
        -11    1    3    3    0    0  0.75549547281E+01  0.10138791542E+02  0.79802971685E+01  0.14951841961E+02  0.51100000000E-03 0.  1.
        -12    1    3    3    0    0 -0.83436411230E+01  0.20673972654E+02  0.79398148588E+01  0.23665801328E+02  0.00000000000E+00 0.  1.
</event>
<event>
 7    1  0.2655656E-009  0.4778728E+02  0.7816164E-02  0.1312668E+00
        -11   -1    0    0    0    0  0.00000000000E+00  0.00000000000E+00  0.45593999997E+02  0.45594000000E+02  0.51100000000E-03 0.  1.
         11   -1    0    0    0    0 -0.00000000000E+00 -0.00000000000E+00 -0.45593999997E+02  0.45594000000E+02  0.51100000000E-03 0. -1.
    9900012    2    1    2    0    0  0.30991816185E+02  0.13475484574E+02 -0.27231257893E+02  0.47787276949E+02  0.20000026920E+02 0.  0.
        -12    1    1    2    0    0 -0.30991816185E+02 -0.13475484574E+02  0.27231257893E+02  0.43400723051E+02  0.00000000000E+00 0.  1.
         11    1    3    3    0    0  0.21754040726E+02  0.27605168854E+01 -0.11619281143E+02  0.24816656421E+02  0.51100000000E-03 0. -1.
        -11    1    3    3    0    0  0.89926086898E+01  0.57912800078E+01 -0.14321221511E+02  0.17874655829E+02  0.51100000000E-03 0.  1.
         12    1    3    3    0    0  0.24516676925E+00  0.49236876811E+01 -0.12907552389E+01  0.50959646989E+01  0.00000000000E+00 0. -1.
</event>
<event>
 7    1  0.2655656E-009  0.4778727E+02  0.7816164E-02  0.1312668E+00
        -11   -1    0    0    0    0  0.00000000000E+00  0.00000000000E+00  0.45593999997E+02  0.45594000000E+02  0.51100000000E-03 0.  1.
         11   -1    0    0    0    0 -0.00000000000E+00 -0.00000000000E+00 -0.45593999997E+02  0.45594000000E+02  0.51100000000E-03 0. -1.
    9900012    2    1    2    0    0 -0.25909612276E+02 -0.11071155272E+02 -0.33011283924E+02  0.47787270126E+02  0.19999995811E+02 0.  0.
        -12    1    1    2    0    0  0.25909612276E+02  0.11071155272E+02  0.33011283924E+02  0.43400729874E+02  0.00000000000E+00 0.  1.
         11    1    3    3    0    0 -0.14650633130E+02 -0.29911165195E+01 -0.24783064109E+02  0.28944569371E+02  0.51100000000E-03 0. -1.
        -11    1    3    3    0    0 -0.33176305613E+01 -0.57319726228E+01  0.70650368783E+00  0.66604301972E+01  0.51100000000E-03 0.  1.
         12    1    3    3    0    0 -0.79413485846E+01 -0.23480661296E+01 -0.89347235020E+01  0.12182270558E+02  0.00000000000E+00 0. -1.
</event>
<event>
 7    1  0.2655656E-009  0.4778728E+02  0.7816164E-02  0.1312668E+00
        -11   -1    0    0    0    0  0.00000000000E+00  0.00000000000E+00  0.45593999997E+02  0.45594000000E+02  0.51100000000E-03 0. -1.
         11   -1    0    0    0    0 -0.00000000000E+00 -0.00000000000E+00 -0.45593999997E+02  0.45594000000E+02  0.51100000000E-03 0.  1.
    9900012    2    1    2    0    0 -0.12788805950E+02  0.30007271787E+02  0.28629230027E+02  0.47787277314E+02  0.20000028585E+02 0.  0.
        -12    1    1    2    0    0  0.12788805950E+02 -0.30007271787E+02 -0.28629230027E+02  0.43400722686E+02  0.00000000000E+00 0.  1.
         11    1    3    3    0    0 -0.17276457302E+02  0.17804904189E+02  0.15877413724E+02  0.29454759495E+02  0.51100000000E-03 0. -1.
        -11    1    3    3    0    0  0.32781004200E+01  0.10158901133E+02  0.93920044222E+01  0.14218261565E+02  0.51100000000E-03 0.  1.
         12    1    3    3    0    0  0.12095509321E+01  0.20434664651E+01  0.33598118814E+01  0.41142562548E+01  0.00000000000E+00 0. -1.
</event>
<event>
 7    1  0.2655656E-009  0.4778728E+02  0.7816164E-02  0.1312668E+00
        -11   -1    0    0    0    0  0.00000000000E+00  0.00000000000E+00  0.45593999997E+02  0.45594000000E+02  0.51100000000E-03 0.  1.
         11   -1    0    0    0    0 -0.00000000000E+00 -0.00000000000E+00 -0.45593999997E+02  0.45594000000E+02  0.51100000000E-03 0. -1.
    9900012    2    1    2    0    0 -0.40263600308E+02 -0.15193542078E+02  0.56233057762E+01  0.47787276521E+02  0.20000024971E+02 0.  0.
        -12    1    1    2    0    0  0.40263600308E+02  0.15193542078E+02 -0.56233057762E+01  0.43400723479E+02  0.00000000000E+00 0.  1.
         11    1    3    3    0    0 -0.25948706302E+02 -0.13142246547E+02 -0.27179720900E+01  0.29213718962E+02  0.51100000000E-03 0. -1.
        -11    1    3    3    0    0 -0.10103524624E+02  0.52613368166E+00  0.90638272686E+01  0.13583482303E+02  0.51100000000E-03 0.  1.
        -12    1    3    3    0    0 -0.42113693821E+01 -0.25774292128E+01 -0.72254940228E+00  0.49900752558E+01  0.00000000000E+00 0.  1.
</event>
<event>
 7    1  0.2655656E-009  0.4778727E+02  0.7816164E-02  0.1312668E+00
        -11   -1    0    0    0    0  0.00000000000E+00  0.00000000000E+00  0.45593999997E+02  0.45594000000E+02  0.51100000000E-03 0. -1.
         11   -1    0    0    0    0 -0.00000000000E+00 -0.00000000000E+00 -0.45593999997E+02  0.45594000000E+02  0.51100000000E-03 0.  1.
    9900012    2    1    2    0    0  0.11671950860E+02 -0.39340920265E+02  0.14130849034E+02  0.47787270299E+02  0.19999996601E+02 0.  0.
        -12    1    1    2    0    0 -0.11671950860E+02  0.39340920265E+02 -0.14130849034E+02  0.43400729701E+02  0.00000000000E+00 0.  1.
         11    1    3    3    0    0 -0.88708826325E+00 -0.18940633500E+02 -0.13594691741E+01  0.19010067850E+02  0.51100000000E-03 0. -1.
        -11    1    3    3    0    0  0.89334180714E+01 -0.16434539531E+02  0.10537503784E+02  0.21469490779E+02  0.51100000000E-03 0.  1.
         12    1    3    3    0    0  0.36256210521E+01 -0.39657472337E+01  0.49528144243E+01  0.73077116703E+01  0.00000000000E+00 0. -1.
</event>
<event>
 7    1  0.2655656E-009  0.4778727E+02  0.7816164E-02  0.1312668E+00
        -11   -1    0    0    0    0  0.00000000000E+00  0.00000000000E+00  0.45593999997E+02  0.45594000000E+02  0.51100000000E-03 0.  1.
         11   -1    0    0    0    0 -0.00000000000E+00 -0.00000000000E+00 -0.45593999997E+02  0.45594000000E+02  0.51100000000E-03 0. -1.
    9900012    2    1    2    0    0 -0.28554023784E+02 -0.72336846785E+01 -0.31874199371E+02  0.47787273580E+02  0.20000011560E+02 0.  0.
        -12    1    1    2    0    0  0.28554023784E+02  0.72336846785E+01  0.31874199371E+02  0.43400726420E+02  0.00000000000E+00 0.  1.
         11    1    3    3    0    0 -0.20614080519E+02 -0.38031544700E+01 -0.32276088312E+02  0.38485713928E+02  0.51100000000E-03 0. -1.
        -11    1    3    3    0    0 -0.72552727308E+01 -0.40798101543E+01  0.15042850419E+00  0.83250502875E+01  0.51100000000E-03 0.  1.
        -12    1    3    3    0    0 -0.68467053383E+00  0.64927994578E+00  0.25146043676E+00  0.97650936459E+00  0.00000000000E+00 0.  1.
</event>
<event>
 7    1  0.2655656E-009  0.4778731E+02  0.7816164E-02  0.1312668E+00
        -11   -1    0    0    0    0  0.00000000000E+00  0.00000000000E+00  0.45593999997E+02  0.45594000000E+02  0.51100000000E-03 0.  1.
         11   -1    0    0    0    0 -0.00000000000E+00 -0.00000000000E+00 -0.45593999997E+02  0.45594000000E+02  0.51100000000E-03 0. -1.
    9900012    2    1    2    0    0 -0.31210067905E+02 -0.20690715013E+02 -0.21941869081E+02  0.47787312849E+02  0.20000190603E+02 0.  0.
        -12    1    1    2    0    0  0.31210067905E+02  0.20690715013E+02  0.21941869081E+02  0.43400687151E+02  0.00000000000E+00 0.  1.
         11    1    3    3    0    0 -0.50093528903E+01 -0.50701890883E+01 -0.51693996581E+00  0.71461640731E+01  0.51100000000E-03 0. -1.
        -11    1    3    3    0    0 -0.47834475469E+01 -0.11088831888E+02 -0.42017538825E+01  0.12786645339E+02  0.51100000000E-03 0.  1.
        -12    1    3    3    0    0 -0.21417267468E+02 -0.45316940372E+01 -0.17223175232E+02  0.27854503437E+02  0.00000000000E+00 0.  1.
</event>
<event>
 7    1  0.2655656E-009  0.4778727E+02  0.7816164E-02  0.1312668E+00
        -11   -1    0    0    0    0  0.00000000000E+00  0.00000000000E+00  0.45593999997E+02  0.45594000000E+02  0.51100000000E-03 0.  1.
         11   -1    0    0    0    0 -0.00000000000E+00 -0.00000000000E+00 -0.45593999997E+02  0.45594000000E+02  0.51100000000E-03 0. -1.
    9900012    2    1    2    0    0  0.29974876161E+02 -0.29995954203E+02 -0.92397449504E+01  0.47787270096E+02  0.19999995677E+02 0.  0.
        -12    1    1    2    0    0 -0.29974876161E+02  0.29995954203E+02  0.92397449504E+01  0.43400729904E+02  0.00000000000E+00 0.  1.
         11    1    3    3    0    0  0.13105188276E+02 -0.17124626077E+02 -0.41509775098E+01  0.21959722051E+02  0.51100000000E-03 0. -1.
        -11    1    3    3    0    0  0.17016540673E+02 -0.85054061836E+01  0.12683685431E+00  0.19024212958E+02  0.51100000000E-03 0.  1.
        -12    1    3    3    0    0 -0.14685278742E+00 -0.43659219426E+01 -0.52156042949E+01  0.68033350874E+01  0.00000000000E+00 0.  1.
</event>
<event>
 7    1  0.2655656E-009  0.4778727E+02  0.7816164E-02  0.1312668E+00
        -11   -1    0    0    0    0  0.00000000000E+00  0.00000000000E+00  0.45593999997E+02  0.45594000000E+02  0.51100000000E-03 0. -1.
         11   -1    0    0    0    0 -0.00000000000E+00 -0.00000000000E+00 -0.45593999997E+02  0.45594000000E+02  0.51100000000E-03 0.  1.
    9900012    2    1    2    0    0  0.17815296196E+02 -0.26580968162E+02  0.29320478474E+02  0.47787272991E+02  0.20000008875E+02 0.  0.
        -12    1    1    2    0    0 -0.17815296196E+02  0.26580968162E+02 -0.29320478474E+02  0.43400727009E+02  0.00000000000E+00 0.  1.
         11    1    3    3    0    0  0.13558407500E+02 -0.11144066330E+02  0.12569745245E+02  0.21587476093E+02  0.51100000000E-03 0. -1.
        -11    1    3    3    0    0 -0.13235978922E+01  0.15940287512E+01  0.28259376662E+01  0.35041065900E+01  0.51100000000E-03 0.  1.
        -12    1    3    3    0    0  0.55804865887E+01 -0.17030930583E+02  0.13924795563E+02  0.22695690308E+02  0.00000000000E+00 0.  1.
</event>
<event>
 7    1  0.2655656E-009  0.4778727E+02  0.7816164E-02  0.1312668E+00
        -11   -1    0    0    0    0  0.00000000000E+00  0.00000000000E+00  0.45593999997E+02  0.45594000000E+02  0.51100000000E-03 0.  1.
         11   -1    0    0    0    0 -0.00000000000E+00 -0.00000000000E+00 -0.45593999997E+02  0.45594000000E+02  0.51100000000E-03 0. -1.
    9900012    2    1    2    0    0 -0.30879670969E+01  0.21626322746E+02 -0.37501867565E+02  0.47787269048E+02  0.19999990898E+02 0.  0.
        -12    1    1    2    0    0  0.30879670969E+01 -0.21626322746E+02  0.37501867565E+02  0.43400730952E+02  0.00000000000E+00 0.  1.
         11    1    3    3    0    0 -0.32274207106E+01  0.20809346217E+02 -0.33992338316E+02  0.39986550225E+02  0.51100000000E-03 0. -1.
        -11    1    3    3    0    0  0.15648270564E+01 -0.24753851559E+01 -0.29730640686E+01  0.41731673348E+01  0.51100000000E-03 0.  1.
        -12    1    3    3    0    0 -0.14253734428E+01  0.32923616847E+01 -0.53646518052E+00  0.36275514888E+01  0.00000000000E+00 0.  1.
</event>
<event>
 7    1  0.2655656E-009  0.4778727E+02  0.7816164E-02  0.1312668E+00
        -11   -1    0    0    0    0  0.00000000000E+00  0.00000000000E+00  0.45593999997E+02  0.45594000000E+02  0.51100000000E-03 0.  1.
         11   -1    0    0    0    0 -0.00000000000E+00 -0.00000000000E+00 -0.45593999997E+02  0.45594000000E+02  0.51100000000E-03 0. -1.
    9900012    2    1    2    0    0 -0.30289193961E+02  0.27674829848E+02 -0.14152454359E+02  0.47787269104E+02  0.19999991151E+02 0.  0.
        -12    1    1    2    0    0  0.30289193961E+02 -0.27674829848E+02  0.14152454359E+02  0.43400730896E+02  0.00000000000E+00 0.  1.
         11    1    3    3    0    0 -0.13417635284E+02  0.88466700241E+01 -0.49142856251E+01  0.16806150975E+02  0.51100000000E-03 0. -1.
        -11    1    3    3    0    0 -0.22627283367E+01 -0.26019545099E+01  0.26974642657E-02  0.34482045088E+01  0.51100000000E-03 0.  1.
        -12    1    3    3    0    0 -0.14608830340E+02  0.21430114334E+02 -0.92408661981E+01  0.27532913620E+02  0.00000000000E+00 0.  1.
</event>
<event>
 7    1  0.2655656E-009  0.4778728E+02  0.7816164E-02  0.1312668E+00
        -11   -1    0    0    0    0  0.00000000000E+00  0.00000000000E+00  0.45593999997E+02  0.45594000000E+02  0.51100000000E-03 0.  1.
         11   -1    0    0    0    0 -0.00000000000E+00 -0.00000000000E+00 -0.45593999997E+02  0.45594000000E+02  0.51100000000E-03 0. -1.
    9900012    2    1    2    0    0 -0.63129892435E+01  0.17023852799E+01 -0.42905370379E+02  0.47787277008E+02  0.20000027193E+02 0.  0.
        -12    1    1    2    0    0  0.63129892435E+01 -0.17023852799E+01  0.42905370379E+02  0.43400722992E+02  0.00000000000E+00 0.  1.
         11    1    3    3    0    0  0.40048141502E+01  0.12116583305E+01 -0.81953453011E+01  0.92016486106E+01  0.51100000000E-03 0. -1.
        -11    1    3    3    0    0 -0.91276353196E+01  0.57860619463E+01 -0.17778310803E+02  0.20805301599E+02  0.51100000000E-03 0.  1.
        -12    1    3    3    0    0 -0.11901680741E+01 -0.52953349969E+01 -0.16931714275E+02  0.17780326799E+02  0.00000000000E+00 0.  1.
</event>
<event>
 7    1  0.2655656E-009  0.4778727E+02  0.7816164E-02  0.1312668E+00
        -11   -1    0    0    0    0  0.00000000000E+00  0.00000000000E+00  0.45593999997E+02  0.45594000000E+02  0.51100000000E-03 0.  1.
         11   -1    0    0    0    0 -0.00000000000E+00 -0.00000000000E+00 -0.45593999997E+02  0.45594000000E+02  0.51100000000E-03 0. -1.
    9900012    2    1    2    0    0  0.24776040410E+02 -0.34221462057E+01 -0.35469140229E+02  0.47787272222E+02  0.20000005370E+02 0.  0.
        -12    1    1    2    0    0 -0.24776040410E+02  0.34221462057E+01  0.35469140229E+02  0.43400727778E+02  0.00000000000E+00 0.  1.
         11    1    3    3    0    0  0.43932764102E+01  0.37532417378E+01 -0.11667496567E+02  0.13019914653E+02  0.51100000000E-03 0. -1.
        -11    1    3    3    0    0 -0.17645190554E+01  0.27316972402E-01 -0.32897859782E+01  0.37332245790E+01  0.51100000000E-03 0.  1.
         12    1    3    3    0    0  0.22147283055E+02 -0.72027049159E+01 -0.20511857683E+02  0.31034132990E+02  0.00000000000E+00 0. -1.
</event>
<event>
 7    1  0.2655656E-009  0.4778727E+02  0.7816164E-02  0.1312668E+00
        -11   -1    0    0    0    0  0.00000000000E+00  0.00000000000E+00  0.45593999997E+02  0.45594000000E+02  0.51100000000E-03 0. -1.
         11   -1    0    0    0    0 -0.00000000000E+00 -0.00000000000E+00 -0.45593999997E+02  0.45594000000E+02  0.51100000000E-03 0.  1.
    9900012    2    1    2    0    0  0.15730452352E+02 -0.30179777042E+02  0.26932452355E+02  0.47787273470E+02  0.20000011057E+02 0.  0.
        -12    1    1    2    0    0 -0.15730452352E+02  0.30179777042E+02 -0.26932452355E+02  0.43400726530E+02  0.00000000000E+00 0.  1.
         11    1    3    3    0    0  0.28165918252E+01 -0.82156102996E+01  0.35027853940E+01  0.93647716407E+01  0.51100000000E-03 0.  1.
        -11    1    3    3    0    0  0.43331366027E+01 -0.19007495579E+02  0.92289860118E+01  0.21569310236E+02  0.51100000000E-03 0. -1.
        -12    1    3    3    0    0  0.85807239240E+01 -0.29566711636E+01  0.14200680949E+02  0.16853191592E+02  0.00000000000E+00 0.  1.
</event>
<event>
 7    1  0.2655656E-009  0.4778727E+02  0.7816164E-02  0.1312668E+00
        -11   -1    0    0    0    0  0.00000000000E+00  0.00000000000E+00  0.45593999997E+02  0.45594000000E+02  0.51100000000E-03 0. -1.
         11   -1    0    0    0    0 -0.00000000000E+00 -0.00000000000E+00 -0.45593999997E+02  0.45594000000E+02  0.51100000000E-03 0.  1.
    9900012    2    1    2    0    0  0.33910676667E+02 -0.16139901490E+02  0.21752996232E+02  0.47787271237E+02  0.20000000877E+02 0.  0.
        -12    1    1    2    0    0 -0.33910676667E+02  0.16139901490E+02 -0.21752996232E+02  0.43400728763E+02  0.00000000000E+00 0.  1.
         11    1    3    3    0    0  0.11426819943E+02 -0.95054447247E+01  0.18787353199E+00  0.14864756646E+02  0.51100000000E-03 0. -1.
        -11    1    3    3    0    0  0.49088874181E+01 -0.32386424873E+01  0.10032138565E+02  0.11628834219E+02  0.51100000000E-03 0.  1.
         12    1    3    3    0    0  0.17574969306E+02 -0.33958142781E+01  0.11532984135E+02  0.21293680372E+02  0.00000000000E+00 0. -1.
</event>
<event>
 7    1  0.2655656E-009  0.4778727E+02  0.7816164E-02  0.1312668E+00
        -11   -1    0    0    0    0  0.00000000000E+00  0.00000000000E+00  0.45593999997E+02  0.45594000000E+02  0.51100000000E-03 0. -1.
         11   -1    0    0    0    0 -0.00000000000E+00 -0.00000000000E+00 -0.45593999997E+02  0.45594000000E+02  0.51100000000E-03 0.  1.
    9900012    2    1    2    0    0 -0.39579311301E+02 -0.12516302422E+02 -0.12666642135E+02  0.47787268067E+02  0.19999986425E+02 0.  0.
        -12    1    1    2    0    0  0.39579311301E+02  0.12516302422E+02  0.12666642135E+02  0.43400731933E+02  0.00000000000E+00 0.  1.
         11    1    3    3    0    0 -0.29819447593E+01 -0.85191267147E+01 -0.26892237148E+01  0.94180379580E+01  0.51100000000E-03 0. -1.
        -11    1    3    3    0    0 -0.33298671656E+02 -0.48170397646E+01 -0.88799996049E+01  0.34797410814E+02  0.51100000000E-03 0.  1.
         12    1    3    3    0    0 -0.32986948855E+01  0.81986405705E+00 -0.10974188150E+01  0.35718192948E+01  0.00000000000E+00 0. -1.
</event>
<event>
 7    1  0.2655656E-009  0.4778728E+02  0.7816164E-02  0.1312668E+00
        -11   -1    0    0    0    0  0.00000000000E+00  0.00000000000E+00  0.45593999997E+02  0.45594000000E+02  0.51100000000E-03 0.  1.
         11   -1    0    0    0    0 -0.00000000000E+00 -0.00000000000E+00 -0.45593999997E+02  0.45594000000E+02  0.51100000000E-03 0. -1.
    9900012    2    1    2    0    0 -0.64172254616E+01  0.19491565037E+02 -0.38242920811E+02  0.47787275555E+02  0.20000020565E+02 0.  0.
        -12    1    1    2    0    0  0.64172254616E+01 -0.19491565037E+02  0.38242920811E+02  0.43400724445E+02  0.00000000000E+00 0.  1.
         11    1    3    3    0    0 -0.55274169223E+01  0.33523446858E+01 -0.39192359257E+01  0.75598256083E+01  0.51100000000E-03 0. -1.
        -11    1    3    3    0    0  0.52691248552E+01  0.44827998251E+01 -0.17745477269E+02  0.19046289266E+02  0.51100000000E-03 0.  1.
        -12    1    3    3    0    0 -0.61589333945E+01  0.11656420526E+02 -0.16578207616E+02  0.21181160681E+02  0.00000000000E+00 0.  1.
</event>
<event>
 7    1  0.2655656E-009  0.4778728E+02  0.7816164E-02  0.1312668E+00
        -11   -1    0    0    0    0  0.00000000000E+00  0.00000000000E+00  0.45593999997E+02  0.45594000000E+02  0.51100000000E-03 0. -1.
         11   -1    0    0    0    0 -0.00000000000E+00 -0.00000000000E+00 -0.45593999997E+02  0.45594000000E+02  0.51100000000E-03 0.  1.
    9900012    2    1    2    0    0  0.32070461683E+02 -0.26770758081E+02  0.11765834602E+02  0.47787275759E+02  0.20000021494E+02 0.  0.
        -12    1    1    2    0    0 -0.32070461683E+02  0.26770758081E+02 -0.11765834602E+02  0.43400724241E+02  0.00000000000E+00 0.  1.
         11    1    3    3    0    0  0.34882306708E+01 -0.10014949278E+02  0.21602598586E+01  0.10822831662E+02  0.51100000000E-03 0. -1.
        -11    1    3    3    0    0  0.18293941437E+02 -0.92055812627E+01 -0.80483803023E+00  0.20495335670E+02  0.51100000000E-03 0.  1.
        -12    1    3    3    0    0  0.10288289575E+02 -0.75502275402E+01  0.10410412773E+02  0.16469108427E+02  0.00000000000E+00 0.  1.
</event>
<event>
 7    1  0.2655656E-009  0.4778727E+02  0.7816164E-02  0.1312668E+00
        -11   -1    0    0    0    0  0.00000000000E+00  0.00000000000E+00  0.45593999997E+02  0.45594000000E+02  0.51100000000E-03 0. -1.
         11   -1    0    0    0    0 -0.00000000000E+00 -0.00000000000E+00 -0.45593999997E+02  0.45594000000E+02  0.51100000000E-03 0.  1.
    9900012    2    1    2    0    0 -0.28302896113E+02 -0.32638738310E+02 -0.41571609291E+01  0.47787272427E+02  0.20000006304E+02 0.  0.
        -12    1    1    2    0    0  0.28302896113E+02  0.32638738310E+02  0.41571609291E+01  0.43400727573E+02  0.00000000000E+00 0.  1.
         11    1    3    3    0    0 -0.10531826116E+02 -0.14375913251E+02 -0.65502688724E+01  0.18986633870E+02  0.51100000000E-03 0. -1.
        -11    1    3    3    0    0 -0.10359390517E+02 -0.66411321013E+01  0.71345131985E+01  0.14224024969E+02  0.51100000000E-03 0.  1.
         12    1    3    3    0    0 -0.74116794797E+01 -0.11621692958E+02 -0.47414052552E+01  0.14576613589E+02  0.00000000000E+00 0. -1.
</event>
<event>
 7    1  0.2655656E-009  0.4778728E+02  0.7816164E-02  0.1312668E+00
        -11   -1    0    0    0    0  0.00000000000E+00  0.00000000000E+00  0.45593999997E+02  0.45594000000E+02  0.51100000000E-03 0.  1.
         11   -1    0    0    0    0 -0.00000000000E+00 -0.00000000000E+00 -0.45593999997E+02  0.45594000000E+02  0.51100000000E-03 0. -1.
    9900012    2    1    2    0    0 -0.18261380782E+02 -0.37733313797E+02  0.11240174178E+02  0.47787279802E+02  0.20000039927E+02 0.  0.
        -12    1    1    2    0    0  0.18261380782E+02  0.37733313797E+02 -0.11240174178E+02  0.43400720198E+02  0.00000000000E+00 0.  1.
         11    1    3    3    0    0 -0.51955464928E+00 -0.14570199181E+02 -0.21969306082E+01  0.14744054583E+02  0.51100000000E-03 0. -1.
        -11    1    3    3    0    0 -0.91418647827E+01 -0.12275180830E+02  0.11254739419E+02  0.18997971359E+02  0.51100000000E-03 0.  1.
         12    1    3    3    0    0 -0.85999613498E+01 -0.10887933787E+02  0.21823653666E+01  0.14045253859E+02  0.00000000000E+00 0. -1.
</event>
<event>
 7    1  0.2655656E-009  0.4778727E+02  0.7816164E-02  0.1312668E+00
        -11   -1    0    0    0    0  0.00000000000E+00  0.00000000000E+00  0.45593999997E+02  0.45594000000E+02  0.51100000000E-03 0.  1.
         11   -1    0    0    0    0 -0.00000000000E+00 -0.00000000000E+00 -0.45593999997E+02  0.45594000000E+02  0.51100000000E-03 0. -1.
    9900012    2    1    2    0    0 -0.20973937698E+02 -0.90905747640E+01  0.36892801151E+02  0.47787269720E+02  0.19999993960E+02 0.  0.
        -12    1    1    2    0    0  0.20973937698E+02  0.90905747640E+01 -0.36892801151E+02  0.43400730280E+02  0.00000000000E+00 0.  1.
         11    1    3    3    0    0 -0.97829058055E+01 -0.76479306701E+01  0.47358068912E+01  0.13289994609E+02  0.51100000000E-03 0. -1.
        -11    1    3    3    0    0  0.23608458891E+00 -0.10101763537E+01  0.32076153647E+01  0.33711999033E+01  0.51100000000E-03 0.  1.
         12    1    3    3    0    0 -0.11427116482E+02 -0.43246774017E+00  0.28949378895E+02  0.31126075208E+02  0.00000000000E+00 0. -1.
</event>
<event>
 7    1  0.2655656E-009  0.4778727E+02  0.7816164E-02  0.1312668E+00
        -11   -1    0    0    0    0  0.00000000000E+00  0.00000000000E+00  0.45593999997E+02  0.45594000000E+02  0.51100000000E-03 0.  1.
         11   -1    0    0    0    0 -0.00000000000E+00 -0.00000000000E+00 -0.45593999997E+02  0.45594000000E+02  0.51100000000E-03 0. -1.
    9900012    2    1    2    0    0 -0.41813555645E+02  0.91273268335E+01  0.72070679999E+01  0.47787270052E+02  0.19999995477E+02 0.  0.
        -12    1    1    2    0    0  0.41813555645E+02 -0.91273268335E+01 -0.72070679999E+01  0.43400729948E+02  0.00000000000E+00 0.  1.
         11    1    3    3    0    0 -0.18654894896E+01 -0.13995164708E-01  0.50283422087E+01  0.53632520479E+01  0.51100000000E-03 0. -1.
        -11    1    3    3    0    0 -0.78100540086E+01 -0.24454574286E+01 -0.10770020254E+00  0.81846689149E+01  0.51100000000E-03 0.  1.
         12    1    3    3    0    0 -0.32138012147E+02  0.11586779427E+02  0.22864259938E+01  0.34239349090E+02  0.00000000000E+00 0. -1.
</event>
<event>
 7    1  0.2655656E-009  0.4778728E+02  0.7816164E-02  0.1312668E+00
        -11   -1    0    0    0    0  0.00000000000E+00  0.00000000000E+00  0.45593999997E+02  0.45594000000E+02  0.51100000000E-03 0.  1.
         11   -1    0    0    0    0 -0.00000000000E+00 -0.00000000000E+00 -0.45593999997E+02  0.45594000000E+02  0.51100000000E-03 0. -1.
    9900012    2    1    2    0    0 -0.20828774331E+02  0.26654720792E+02  0.27190272171E+02  0.47787275567E+02  0.20000020620E+02 0.  0.
        -12    1    1    2    0    0  0.20828774331E+02 -0.26654720792E+02 -0.27190272171E+02  0.43400724433E+02  0.00000000000E+00 0.  1.
         11    1    3    3    0    0 -0.46100383347E+01  0.97452977721E+01  0.40352999132E+01  0.11511165352E+02  0.51100000000E-03 0. -1.
        -11    1    3    3    0    0 -0.99986738366E+01  0.14564867172E+02  0.23752328436E+02  0.29602059736E+02  0.51100000000E-03 0.  1.
        -12    1    3    3    0    0 -0.62200621596E+01  0.23445558476E+01 -0.59735617838E+00  0.66740504790E+01  0.00000000000E+00 0.  1.
</event>
<event>
 7    1  0.2655656E-009  0.4778727E+02  0.7816164E-02  0.1312668E+00
        -11   -1    0    0    0    0  0.00000000000E+00  0.00000000000E+00  0.45593999997E+02  0.45594000000E+02  0.51100000000E-03 0. -1.
         11   -1    0    0    0    0 -0.00000000000E+00 -0.00000000000E+00 -0.45593999997E+02  0.45594000000E+02  0.51100000000E-03 0.  1.
    9900012    2    1    2    0    0  0.19572239581E+02  0.80769485375E+01  0.37885532765E+02  0.47787271287E+02  0.20000001107E+02 0.  0.
        -12    1    1    2    0    0 -0.19572239581E+02 -0.80769485375E+01 -0.37885532765E+02  0.43400728713E+02  0.00000000000E+00 0.  1.
         11    1    3    3    0    0  0.92034558096E+01  0.65786297115E+01  0.50004446168E+01  0.12368767697E+02  0.51100000000E-03 0. -1.
        -11    1    3    3    0    0  0.11358354304E+02  0.51551993324E-02  0.28726687354E+02  0.30890691246E+02  0.51100000000E-03 0.  1.
         12    1    3    3    0    0 -0.98957053217E+00  0.14931636267E+01  0.41584007945E+01  0.45278123439E+01  0.00000000000E+00 0. -1.
</event>
<event>
 7    1  0.2655656E-009  0.4778728E+02  0.7816164E-02  0.1312668E+00
        -11   -1    0    0    0    0  0.00000000000E+00  0.00000000000E+00  0.45593999997E+02  0.45594000000E+02  0.51100000000E-03 0. -1.
         11   -1    0    0    0    0 -0.00000000000E+00 -0.00000000000E+00 -0.45593999997E+02  0.45594000000E+02  0.51100000000E-03 0.  1.
    9900012    2    1    2    0    0 -0.79955928249E+01 -0.35353608828E+02  0.23870807972E+02  0.47787278404E+02  0.20000033557E+02 0.  0.
        -12    1    1    2    0    0  0.79955928249E+01  0.35353608828E+02 -0.23870807972E+02  0.43400721596E+02  0.00000000000E+00 0.  1.
         11    1    3    3    0    0 -0.96802401631E+01 -0.25783131881E+02  0.16617767596E+02  0.32165620457E+02  0.51100000000E-03 0. -1.
        -11    1    3    3    0    0  0.53713012717E+01 -0.49367467997E+01  0.62693800280E+01  0.96191201527E+01  0.51100000000E-03 0.  1.
        -12    1    3    3    0    0 -0.36866539335E+01 -0.46337301469E+01  0.98366034758E+00  0.60025377949E+01  0.00000000000E+00 0.  1.
</event>
<event>
 7    1  0.1439565E-008  0.4778727E+02  0.7816164E-02  0.1312668E+00
        -11   -1    0    0    0    0  0.00000000000E+00  0.00000000000E+00  0.45593999997E+02  0.45594000000E+02  0.51100000000E-03 0. -1.
         11   -1    0    0    0    0 -0.00000000000E+00 -0.00000000000E+00 -0.45593999997E+02  0.45594000000E+02  0.51100000000E-03 0.  1.
    9900012    2    1    2    0    0  0.20285701648E+02  0.12214159729E+02  0.36372076333E+02  0.47787270444E+02  0.19999997262E+02 0.  0.
        -12    1    1    2    0    0 -0.20285701648E+02 -0.12214159729E+02 -0.36372076333E+02  0.43400729556E+02  0.00000000000E+00 0.  1.
         11    1    3    3    0    0  0.85871467249E+01  0.27436864094E+01  0.15187146145E+02  0.17661152632E+02  0.51100000000E-03 0. -1.
        -11    1    3    3    0    0  0.15858283964E+01 -0.41372579957E+01  0.37166729743E+01  0.57832009895E+01  0.51100000000E-03 0.  1.
        -12    1    3    3    0    0  0.10112726527E+02  0.13607731316E+02  0.17468257213E+02  0.24342916823E+02  0.00000000000E+00 0.  1.
</event>
<event>
 7    1  0.2655656E-009  0.4778727E+02  0.7816164E-02  0.1312668E+00
        -11   -1    0    0    0    0  0.00000000000E+00  0.00000000000E+00  0.45593999997E+02  0.45594000000E+02  0.51100000000E-03 0.  1.
         11   -1    0    0    0    0 -0.00000000000E+00 -0.00000000000E+00 -0.45593999997E+02  0.45594000000E+02  0.51100000000E-03 0. -1.
    9900012    2    1    2    0    0  0.14488235540E+02  0.39204683019E+01 -0.40722778018E+02  0.47787266247E+02  0.19999978126E+02 0.  0.
        -12    1    1    2    0    0 -0.14488235540E+02 -0.39204683019E+01  0.40722778018E+02  0.43400733753E+02  0.00000000000E+00 0.  1.
         11    1    3    3    0    0  0.11544890921E+02 -0.41934452120E+00 -0.22548254448E+02  0.25335432405E+02  0.51100000000E-03 0. -1.
        -11    1    3    3    0    0 -0.31561079497E+01  0.60109920331E+01 -0.10550859005E+02  0.12546460402E+02  0.51100000000E-03 0.  1.
        -12    1    3    3    0    0  0.60994525689E+01 -0.16711792100E+01 -0.76236645653E+01  0.99053734405E+01  0.00000000000E+00 0.  1.
</event>
<event>
 7    1  0.2655656E-009  0.4778727E+02  0.7816164E-02  0.1312668E+00
        -11   -1    0    0    0    0  0.00000000000E+00  0.00000000000E+00  0.45593999997E+02  0.45594000000E+02  0.51100000000E-03 0. -1.
         11   -1    0    0    0    0 -0.00000000000E+00 -0.00000000000E+00 -0.45593999997E+02  0.45594000000E+02  0.51100000000E-03 0.  1.
    9900012    2    1    2    0    0 -0.57717522189E+01  0.28906106716E+02  0.31855099714E+02  0.47787268359E+02  0.19999987758E+02 0.  0.
        -12    1    1    2    0    0  0.57717522189E+01 -0.28906106716E+02 -0.31855099714E+02  0.43400731641E+02  0.00000000000E+00 0.  1.
         11    1    3    3    0    0 -0.52354105976E+01  0.92337853121E+01  0.12904311147E+02  0.16709086204E+02  0.51100000000E-03 0. -1.
        -11    1    3    3    0    0  0.24578353486E+01  0.17014511303E+02  0.20527535876E+02  0.26775254973E+02  0.51100000000E-03 0.  1.
        -12    1    3    3    0    0 -0.29941769699E+01  0.26578101015E+01 -0.15767473094E+01  0.43029271828E+01  0.00000000000E+00 0.  1.
</event>
<event>
 7    1  0.2655656E-009  0.4778728E+02  0.7816164E-02  0.1312668E+00
        -11   -1    0    0    0    0  0.00000000000E+00  0.00000000000E+00  0.45593999997E+02  0.45594000000E+02  0.51100000000E-03 0.  1.
         11   -1    0    0    0    0 -0.00000000000E+00 -0.00000000000E+00 -0.45593999997E+02  0.45594000000E+02  0.51100000000E-03 0. -1.
    9900012    2    1    2    0    0 -0.61368811048E+01 -0.28052105391E+02 -0.32542910030E+02  0.47787275124E+02  0.20000018599E+02 0.  0.
        -12    1    1    2    0    0  0.61368811048E+01  0.28052105391E+02  0.32542910030E+02  0.43400724876E+02  0.00000000000E+00 0.  1.
         11    1    3    3    0    0  0.40262121529E+00 -0.15342041606E+01 -0.99554389845E+01  0.10081004508E+02  0.51100000000E-03 0. -1.
        -11    1    3    3    0    0 -0.98465500121E+01 -0.17973046542E+02 -0.18735704068E+02  0.27767094849E+02  0.51100000000E-03 0.  1.
        -12    1    3    3    0    0  0.33070476920E+01 -0.85448546886E+01 -0.38517669766E+01  0.99391757671E+01  0.00000000000E+00 0.  1.
</event>
<event>
 7    1  0.2655656E-009  0.4778727E+02  0.7816164E-02  0.1312668E+00
        -11   -1    0    0    0    0  0.00000000000E+00  0.00000000000E+00  0.45593999997E+02  0.45594000000E+02  0.51100000000E-03 0.  1.
         11   -1    0    0    0    0 -0.00000000000E+00 -0.00000000000E+00 -0.45593999997E+02  0.45594000000E+02  0.51100000000E-03 0. -1.
    9900012    2    1    2    0    0 -0.23800998541E+01  0.40662653745E+02 -0.14983558999E+02  0.47787270454E+02  0.19999997307E+02 0.  0.
        -12    1    1    2    0    0  0.23800998541E+01 -0.40662653745E+02  0.14983558999E+02  0.43400729546E+02  0.00000000000E+00 0.  1.
         11    1    3    3    0    0 -0.91321629592E+01  0.10932590546E+02 -0.48208542190E+01  0.15038569481E+02  0.51100000000E-03 0. -1.
        -11    1    3    3    0    0  0.76507418997E+01  0.20927719493E+02 -0.71303296880E+01  0.23395403320E+02  0.51100000000E-03 0.  1.
         12    1    3    3    0    0 -0.89867879467E+00  0.88023437057E+01 -0.30323750919E+01  0.93532976531E+01  0.00000000000E+00 0. -1.
</event>
<event>
 7    1  0.2655656E-009  0.4778727E+02  0.7816164E-02  0.1312668E+00
        -11   -1    0    0    0    0  0.00000000000E+00  0.00000000000E+00  0.45593999997E+02  0.45594000000E+02  0.51100000000E-03 0.  1.
         11   -1    0    0    0    0 -0.00000000000E+00 -0.00000000000E+00 -0.45593999997E+02  0.45594000000E+02  0.51100000000E-03 0. -1.
    9900012    2    1    2    0    0 -0.24618396346E+02 -0.59331041619E+01 -0.35247073865E+02  0.47787269825E+02  0.19999994439E+02 0.  0.
        -12    1    1    2    0    0  0.24618396346E+02  0.59331041619E+01  0.35247073865E+02  0.43400730175E+02  0.00000000000E+00 0.  1.
         11    1    3    3    0    0  0.52890914753E+00  0.41192675434E+01 -0.42259424545E+01  0.59250907056E+01  0.51100000000E-03 0. -1.
        -11    1    3    3    0    0 -0.11467478364E+02 -0.32155087234E+01 -0.84698217256E+01  0.14614391425E+02  0.51100000000E-03 0.  1.
         12    1    3    3    0    0 -0.13679827130E+02 -0.68368629818E+01 -0.22551309685E+02  0.27247787695E+02  0.00000000000E+00 0. -1.
</event>
<event>
 7    1  0.2655656E-009  0.4778729E+02  0.7816164E-02  0.1312668E+00
        -11   -1    0    0    0    0  0.00000000000E+00  0.00000000000E+00  0.45593999997E+02  0.45594000000E+02  0.51100000000E-03 0.  1.
         11   -1    0    0    0    0 -0.00000000000E+00 -0.00000000000E+00 -0.45593999997E+02  0.45594000000E+02  0.51100000000E-03 0. -1.
    9900012    2    1    2    0    0  0.34839605381E+02 -0.23437436271E+02 -0.10977715180E+02  0.47787288570E+02  0.20000079905E+02 0.  0.
        -12    1    1    2    0    0 -0.34839605381E+02  0.23437436271E+02  0.10977715180E+02  0.43400711430E+02  0.00000000000E+00 0.  1.
         11    1    3    3    0    0  0.23726705454E+02 -0.13566599296E+02 -0.10766989555E+02  0.29375793308E+02  0.51100000000E-03 0. -1.
        -11    1    3    3    0    0  0.15800368641E+01 -0.81348409523E+01 -0.20783268254E+01  0.85435119515E+01  0.51100000000E-03 0.  1.
        -12    1    3    3    0    0  0.95328630626E+01 -0.17359960231E+01  0.18676012002E+01  0.98679833100E+01  0.00000000000E+00 0.  1.
</event>
<event>
 7    1  0.2655656E-009  0.4778727E+02  0.7816164E-02  0.1312668E+00
        -11   -1    0    0    0    0  0.00000000000E+00  0.00000000000E+00  0.45593999997E+02  0.45594000000E+02  0.51100000000E-03 0.  1.
         11   -1    0    0    0    0 -0.00000000000E+00 -0.00000000000E+00 -0.45593999997E+02  0.45594000000E+02  0.51100000000E-03 0. -1.
    9900012    2    1    2    0    0 -0.16393091690E+02  0.32264061524E+02 -0.23956630716E+02  0.47787271015E+02  0.19999999866E+02 0.  0.
        -12    1    1    2    0    0  0.16393091690E+02 -0.32264061524E+02  0.23956630716E+02  0.43400728985E+02  0.00000000000E+00 0.  1.
         11    1    3    3    0    0 -0.16826296635E+02  0.33361551195E+02 -0.21577096249E+02  0.43147287741E+02  0.51100000000E-03 0. -1.
        -11    1    3    3    0    0  0.17720984749E+01  0.53694476936E+00 -0.13373343516E+01  0.22840985354E+01  0.51100000000E-03 0.  1.
         12    1    3    3    0    0 -0.13388935293E+01 -0.16344344401E+01 -0.10422001145E+01  0.23558847384E+01  0.00000000000E+00 0. -1.
</event>
<event>
 7    1  0.2655656E-009  0.4778723E+02  0.7816164E-02  0.1312668E+00
        -11   -1    0    0    0    0  0.00000000000E+00  0.00000000000E+00  0.45593999997E+02  0.45594000000E+02  0.51100000000E-03 0. -1.
         11   -1    0    0    0    0 -0.00000000000E+00 -0.00000000000E+00 -0.45593999997E+02  0.45594000000E+02  0.51100000000E-03 0.  1.
    9900012    2    1    2    0    0 -0.21121435402E+02 -0.20607996954E+02  0.31824862410E+02  0.47787234577E+02  0.19999833731E+02 0.  0.
        -12    1    1    2    0    0  0.21121435402E+02  0.20607996954E+02 -0.31824862410E+02  0.43400765423E+02  0.00000000000E+00 0.  1.
         11    1    3    3    0    0 -0.18913243805E+02 -0.12179078771E+02  0.16749503025E+02  0.28046151300E+02  0.51100000000E-03 0. -1.
        -11    1    3    3    0    0  0.62408067114E+00 -0.33059198213E+00  0.94625099308E+01  0.94888282835E+01  0.51100000000E-03 0.  1.
        -12    1    3    3    0    0 -0.28322722683E+01 -0.80983262005E+01  0.56128494544E+01  0.10252254993E+02  0.00000000000E+00 0.  1.
</event>
<event>
 7    1  0.2655656E-009  0.4778727E+02  0.7816164E-02  0.1312668E+00
        -11   -1    0    0    0    0  0.00000000000E+00  0.00000000000E+00  0.45593999997E+02  0.45594000000E+02  0.51100000000E-03 0.  1.
         11   -1    0    0    0    0 -0.00000000000E+00 -0.00000000000E+00 -0.45593999997E+02  0.45594000000E+02  0.51100000000E-03 0. -1.
    9900012    2    1    2    0    0  0.22923858766E+02  0.27195653168E+02 -0.24869984166E+02  0.47787274611E+02  0.20000016260E+02 0.  0.
        -12    1    1    2    0    0 -0.22923858766E+02 -0.27195653168E+02  0.24869984166E+02  0.43400725389E+02  0.00000000000E+00 0.  1.
         11    1    3    3    0    0  0.48201448710E+01  0.13122132251E+02 -0.16851466773E+02  0.21895115530E+02  0.51100000000E-03 0.  1.
        -11    1    3    3    0    0  0.13447588316E+02  0.77416843616E+01 -0.90533798684E+01  0.17964826623E+02  0.51100000000E-03 0. -1.
         12    1    3    3    0    0  0.46561255781E+01  0.63318365549E+01  0.10348624757E+01  0.79273324581E+01  0.00000000000E+00 0. -1.
</event>
<event>
 7    1  0.2655656E-009  0.4778727E+02  0.7816164E-02  0.1312668E+00
        -11   -1    0    0    0    0  0.00000000000E+00  0.00000000000E+00  0.45593999997E+02  0.45594000000E+02  0.51100000000E-03 0.  1.
         11   -1    0    0    0    0 -0.00000000000E+00 -0.00000000000E+00 -0.45593999997E+02  0.45594000000E+02  0.51100000000E-03 0. -1.
    9900012    2    1    2    0    0 -0.32599400585E+02 -0.11363854541E+02 -0.26301429932E+02  0.47787270456E+02  0.19999997316E+02 0.  0.
        -12    1    1    2    0    0  0.32599400585E+02  0.11363854541E+02  0.26301429932E+02  0.43400729544E+02  0.00000000000E+00 0.  1.
         11    1    3    3    0    0 -0.31720364749E+02 -0.11827185989E+02 -0.25592151757E+02  0.42438450727E+02  0.51100000000E-03 0. -1.
        -11    1    3    3    0    0 -0.27931076433E+00  0.24500349325E+01  0.99932315151E+00  0.26607015420E+01  0.51100000000E-03 0.  1.
         12    1    3    3    0    0 -0.59972507105E+00 -0.19867034847E+01 -0.17086013261E+01  0.26881181872E+01  0.00000000000E+00 0. -1.
</event>
<event>
 7    1  0.2655656E-009  0.4778727E+02  0.7816164E-02  0.1312668E+00
        -11   -1    0    0    0    0  0.00000000000E+00  0.00000000000E+00  0.45593999997E+02  0.45594000000E+02  0.51100000000E-03 0. -1.
         11   -1    0    0    0    0 -0.00000000000E+00 -0.00000000000E+00 -0.45593999997E+02  0.45594000000E+02  0.51100000000E-03 0.  1.
    9900012    2    1    2    0    0 -0.39522391097E+02  0.97508699063E+00  0.17906784354E+02  0.47787272834E+02  0.20000008159E+02 0.  0.
        -12    1    1    2    0    0  0.39522391097E+02 -0.97508699063E+00 -0.17906784354E+02  0.43400727166E+02  0.00000000000E+00 0.  1.
         11    1    3    3    0    0 -0.98591166035E+01 -0.34243308528E+01  0.50841009337E+01  0.11609319728E+02  0.51100000000E-03 0. -1.
        -11    1    3    3    0    0 -0.58517765541E+01 -0.31674549001E+01  0.85438982792E+01  0.10829323961E+02  0.51100000000E-03 0.  1.
        -12    1    3    3    0    0 -0.23811497939E+02  0.75668727436E+01  0.42787851411E+01  0.25348629145E+02  0.00000000000E+00 0.  1.
</event>
<event>
 7    1  0.2655656E-009  0.4778727E+02  0.7816164E-02  0.1312668E+00
        -11   -1    0    0    0    0  0.00000000000E+00  0.00000000000E+00  0.45593999997E+02  0.45594000000E+02  0.51100000000E-03 0.  1.
         11   -1    0    0    0    0 -0.00000000000E+00 -0.00000000000E+00 -0.45593999997E+02  0.45594000000E+02  0.51100000000E-03 0. -1.
    9900012    2    1    2    0    0 -0.42547774899E+02 -0.71321748707E+01  0.47373618827E+01  0.47787266540E+02  0.19999979463E+02 0.  0.
        -12    1    1    2    0    0  0.42547774899E+02  0.71321748707E+01 -0.47373618827E+01  0.43400733460E+02  0.00000000000E+00 0.  1.
         11    1    3    3    0    0 -0.14563093677E+02  0.50424154094E+01  0.50590675937E+01  0.16220475202E+02  0.51100000000E-03 0.  1.
        -11    1    3    3    0    0 -0.13257441127E+02 -0.72346638532E+01  0.36409609706E+01  0.15535659090E+02  0.51100000000E-03 0. -1.
         12    1    3    3    0    0 -0.14727240095E+02 -0.49399264270E+01 -0.39626666816E+01  0.16031132248E+02  0.00000000000E+00 0. -1.
</event>
<event>
 7    1  0.2655656E-009  0.4778727E+02  0.7816164E-02  0.1312668E+00
        -11   -1    0    0    0    0  0.00000000000E+00  0.00000000000E+00  0.45593999997E+02  0.45594000000E+02  0.51100000000E-03 0.  1.
         11   -1    0    0    0    0 -0.00000000000E+00 -0.00000000000E+00 -0.45593999997E+02  0.45594000000E+02  0.51100000000E-03 0. -1.
    9900012    2    1    2    0    0  0.12471991525E+02 -0.88661865175E+01 -0.40613583982E+02  0.47787273741E+02  0.20000012295E+02 0.  0.
        -12    1    1    2    0    0 -0.12471991525E+02  0.88661865175E+01  0.40613583982E+02  0.43400726259E+02  0.00000000000E+00 0.  1.
         11    1    3    3    0    0  0.11428715133E+02 -0.15556181567E+01 -0.15596528071E+02  0.19398122733E+02  0.51100000000E-03 0. -1.
        -11    1    3    3    0    0 -0.43112822394E+01 -0.30044574246E+00 -0.56986716098E+01  0.71520822541E+01  0.51100000000E-03 0.  1.
        -12    1    3    3    0    0  0.53545586313E+01 -0.70101226183E+01 -0.19318384301E+02  0.21237068754E+02  0.00000000000E+00 0.  1.
</event>
<event>
 7    1  0.2655656E-009  0.4778727E+02  0.7816164E-02  0.1312668E+00
        -11   -1    0    0    0    0  0.00000000000E+00  0.00000000000E+00  0.45593999997E+02  0.45594000000E+02  0.51100000000E-03 0. -1.
         11   -1    0    0    0    0 -0.00000000000E+00 -0.00000000000E+00 -0.45593999997E+02  0.45594000000E+02  0.51100000000E-03 0.  1.
    9900012    2    1    2    0    0 -0.41496103163E+02 -0.64914590180E+01  0.10934241402E+02  0.47787271286E+02  0.20000001102E+02 0.  0.
        -12    1    1    2    0    0  0.41496103163E+02  0.64914590180E+01 -0.10934241402E+02  0.43400728714E+02  0.00000000000E+00 0.  1.
         11    1    3    3    0    0 -0.23453325478E+01 -0.79942177408E+00  0.47992454995E+01  0.54011496515E+01  0.51100000000E-03 0. -1.
        -11    1    3    3    0    0 -0.24831290441E+02 -0.99449158324E+01  0.16942656325E+01  0.26802329604E+02  0.51100000000E-03 0.  1.
        -12    1    3    3    0    0 -0.14319480174E+02  0.42528785885E+01  0.44407302697E+01  0.15583792031E+02  0.00000000000E+00 0.  1.
</event>
<event>
 7    1  0.2655656E-009  0.4778727E+02  0.7816164E-02  0.1312668E+00
        -11   -1    0    0    0    0  0.00000000000E+00  0.00000000000E+00  0.45593999997E+02  0.45594000000E+02  0.51100000000E-03 0.  1.
         11   -1    0    0    0    0 -0.00000000000E+00 -0.00000000000E+00 -0.45593999997E+02  0.45594000000E+02  0.51100000000E-03 0. -1.
    9900012    2    1    2    0    0 -0.21673284269E+02 -0.39070033256E+01 -0.37398225226E+02  0.47787272172E+02  0.20000005139E+02 0.  0.
        -12    1    1    2    0    0  0.21673284269E+02  0.39070033256E+01  0.37398225226E+02  0.43400727828E+02  0.00000000000E+00 0.  1.
         11    1    3    3    0    0 -0.63254071608E+01 -0.28572000537E+00 -0.20404252821E+02  0.21364127530E+02  0.51100000000E-03 0. -1.
        -11    1    3    3    0    0 -0.16911307502E+02 -0.76576790865E+00 -0.14903700338E+02  0.22554356695E+02  0.51100000000E-03 0.  1.
        -12    1    3    3    0    0  0.15634303934E+01 -0.28555154116E+01 -0.20902720670E+01  0.38687879465E+01  0.00000000000E+00 0.  1.
</event>
<event>
 7    1  0.2655656E-009  0.4778726E+02  0.7816164E-02  0.1312668E+00
        -11   -1    0    0    0    0  0.00000000000E+00  0.00000000000E+00  0.45593999997E+02  0.45594000000E+02  0.51100000000E-03 0.  1.
         11   -1    0    0    0    0 -0.00000000000E+00 -0.00000000000E+00 -0.45593999997E+02  0.45594000000E+02  0.51100000000E-03 0. -1.
    9900012    2    1    2    0    0  0.29966033180E+02  0.21348846782E+02 -0.23019283257E+02  0.47787264924E+02  0.19999972094E+02 0.  0.
        -12    1    1    2    0    0 -0.29966033180E+02 -0.21348846782E+02  0.23019283257E+02  0.43400735076E+02  0.00000000000E+00 0.  1.
         11    1    3    3    0    0  0.10970515790E+02  0.77168991830E+01 -0.28523508715E+01  0.13712718748E+02  0.51100000000E-03 0. -1.
        -11    1    3    3    0    0  0.19167471921E+02  0.15134997659E+02 -0.14932457527E+02  0.28625834870E+02  0.51100000000E-03 0.  1.
        -12    1    3    3    0    0 -0.17195453109E+00 -0.15030500598E+01 -0.52344748592E+01  0.54487113058E+01  0.00000000000E+00 0.  1.
</event>
<event>
 7    1  0.2655656E-009  0.4778727E+02  0.7816164E-02  0.1312668E+00
        -11   -1    0    0    0    0  0.00000000000E+00  0.00000000000E+00  0.45593999997E+02  0.45594000000E+02  0.51100000000E-03 0. -1.
         11   -1    0    0    0    0 -0.00000000000E+00 -0.00000000000E+00 -0.45593999997E+02  0.45594000000E+02  0.51100000000E-03 0.  1.
    9900012    2    1    2    0    0 -0.33266474768E+02 -0.24281952939E+02  0.13687663678E+02  0.47787265917E+02  0.19999976620E+02 0.  0.
        -12    1    1    2    0    0  0.33266474768E+02  0.24281952939E+02 -0.13687663678E+02  0.43400734083E+02  0.00000000000E+00 0.  1.
         11    1    3    3    0    0 -0.19889656729E+02 -0.23415750182E+02  0.63520633514E+01  0.31372671395E+02  0.51100000000E-03 0. -1.
        -11    1    3    3    0    0 -0.84601452262E+01 -0.64023684280E+00  0.12313023059E+01  0.85732179543E+01  0.51100000000E-03 0.  1.
         12    1    3    3    0    0 -0.49166728124E+01 -0.22596591448E+00  0.61042980209E+01  0.78413765671E+01  0.00000000000E+00 0. -1.
</event>
<event>
 7    1  0.2655656E-009  0.4778727E+02  0.7816164E-02  0.1312668E+00
        -11   -1    0    0    0    0  0.00000000000E+00  0.00000000000E+00  0.45593999997E+02  0.45594000000E+02  0.51100000000E-03 0. -1.
         11   -1    0    0    0    0 -0.00000000000E+00 -0.00000000000E+00 -0.45593999997E+02  0.45594000000E+02  0.51100000000E-03 0.  1.
    9900012    2    1    2    0    0  0.12397876472E+02  0.40382927367E+02  0.99566654180E+01  0.47787270168E+02  0.19999996004E+02 0.  0.
        -12    1    1    2    0    0 -0.12397876472E+02 -0.40382927367E+02 -0.99566654180E+01  0.43400729832E+02  0.00000000000E+00 0.  1.
         11    1    3    3    0    0  0.13399699983E+02  0.38558224813E+02  0.39151327237E+01  0.41007522784E+02  0.51100000000E-03 0. -1.
        -11    1    3    3    0    0 -0.14203577837E+01  0.14989592553E+01  0.58695343010E+01  0.62221964172E+01  0.51100000000E-03 0.  1.
         12    1    3    3    0    0  0.41853427235E+00  0.32574329854E+00  0.17199839327E+00  0.55755096715E+00  0.00000000000E+00 0. -1.
</event>
<event>
 7    1  0.2655656E-009  0.4778727E+02  0.7816164E-02  0.1312668E+00
        -11   -1    0    0    0    0  0.00000000000E+00  0.00000000000E+00  0.45593999997E+02  0.45594000000E+02  0.51100000000E-03 0. -1.
         11   -1    0    0    0    0 -0.00000000000E+00 -0.00000000000E+00 -0.45593999997E+02  0.45594000000E+02  0.51100000000E-03 0.  1.
    9900012    2    1    2    0    0 -0.12389469826E+02  0.41276224697E+02  0.51379016076E+01  0.47787265896E+02  0.19999976528E+02 0.  0.
        -12    1    1    2    0    0  0.12389469826E+02 -0.41276224697E+02 -0.51379016076E+01  0.43400734104E+02  0.00000000000E+00 0.  1.
         11    1    3    3    0    0 -0.93337248859E+01  0.25445135923E+02  0.83637473661E+01  0.28364161060E+02  0.51100000000E-03 0. -1.
        -11    1    3    3    0    0 -0.58346035307E+01  0.86191076550E+01 -0.49172931777E+01  0.11511359068E+02  0.51100000000E-03 0.  1.
        -12    1    3    3    0    0  0.27788585910E+01  0.72119811194E+01  0.16914474191E+01  0.79117457686E+01  0.00000000000E+00 0.  1.
</event>
<event>
 7    1  0.2655656E-009  0.4778728E+02  0.7816164E-02  0.1312668E+00
        -11   -1    0    0    0    0  0.00000000000E+00  0.00000000000E+00  0.45593999997E+02  0.45594000000E+02  0.51100000000E-03 0. -1.
         11   -1    0    0    0    0 -0.00000000000E+00 -0.00000000000E+00 -0.45593999997E+02  0.45594000000E+02  0.51100000000E-03 0.  1.
    9900012    2    1    2    0    0  0.14066035936E+02 -0.38511223038E+02 -0.14235703677E+02  0.47787275052E+02  0.20000018271E+02 0.  0.
        -12    1    1    2    0    0 -0.14066035936E+02  0.38511223038E+02  0.14235703677E+02  0.43400724948E+02  0.00000000000E+00 0.  1.
         11    1    3    3    0    0  0.70473867538E+01 -0.15709972198E+02 -0.38563959026E+01  0.17644848431E+02  0.51100000000E-03 0. -1.
        -11    1    3    3    0    0  0.11398364001E+02 -0.12242793421E+02 -0.46813031520E+01  0.17370183998E+02  0.51100000000E-03 0.  1.
        -12    1    3    3    0    0 -0.43797148183E+01 -0.10558457418E+02 -0.56980046228E+01  0.12772242623E+02  0.00000000000E+00 0.  1.
</event>
<event>
 7    1  0.2655656E-009  0.4778728E+02  0.7816164E-02  0.1312668E+00
        -11   -1    0    0    0    0  0.00000000000E+00  0.00000000000E+00  0.45593999997E+02  0.45594000000E+02  0.51100000000E-03 0. -1.
         11   -1    0    0    0    0 -0.00000000000E+00 -0.00000000000E+00 -0.45593999997E+02  0.45594000000E+02  0.51100000000E-03 0.  1.
    9900012    2    1    2    0    0 -0.17163011659E+02 -0.16501684972E+01  0.39828768637E+02  0.47787276084E+02  0.20000022977E+02 0.  0.
        -12    1    1    2    0    0  0.17163011659E+02  0.16501684972E+01 -0.39828768637E+02  0.43400723916E+02  0.00000000000E+00 0.  1.
         11    1    3    3    0    0 -0.31601006506E+01  0.16721060364E+01  0.15290617731E+02  0.15703030459E+02  0.51100000000E-03 0. -1.
        -11    1    3    3    0    0 -0.13536536877E+02 -0.69489113901E+01  0.13107888027E+02  0.20083374440E+02  0.51100000000E-03 0.  1.
        -12    1    3    3    0    0 -0.46637413196E+00  0.36266368565E+01  0.11430262879E+02  0.12000871185E+02  0.00000000000E+00 0.  1.
</event>
<event>
 7    1  0.2655656E-009  0.4778727E+02  0.7816164E-02  0.1312668E+00
        -11   -1    0    0    0    0  0.00000000000E+00  0.00000000000E+00  0.45593999997E+02  0.45594000000E+02  0.51100000000E-03 0.  1.
         11   -1    0    0    0    0 -0.00000000000E+00 -0.00000000000E+00 -0.45593999997E+02  0.45594000000E+02  0.51100000000E-03 0. -1.
    9900012    2    1    2    0    0 -0.22416521605E+02  0.26720165189E+02 -0.25829353453E+02  0.47787272259E+02  0.20000005538E+02 0.  0.
        -12    1    1    2    0    0  0.22416521605E+02 -0.26720165189E+02  0.25829353453E+02  0.43400727741E+02  0.00000000000E+00 0.  1.
         11    1    3    3    0    0 -0.44461322012E+01 -0.76991826590E+00  0.10606839350E+01  0.46352903207E+01  0.51100000000E-03 0.  1.
        -11    1    3    3    0    0 -0.95957000072E+01  0.17838206176E+02 -0.20669397975E+02  0.28939645318E+02  0.51100000000E-03 0. -1.
        -12    1    3    3    0    0 -0.83746893971E+01  0.96518772789E+01 -0.62206394131E+01  0.14212336620E+02  0.00000000000E+00 0.  1.
</event>
<event>
 7    1  0.2655656E-009  0.4778727E+02  0.7816164E-02  0.1312668E+00
        -11   -1    0    0    0    0  0.00000000000E+00  0.00000000000E+00  0.45593999997E+02  0.45594000000E+02  0.51100000000E-03 0. -1.
         11   -1    0    0    0    0 -0.00000000000E+00 -0.00000000000E+00 -0.45593999997E+02  0.45594000000E+02  0.51100000000E-03 0.  1.
    9900012    2    1    2    0    0 -0.15848373061E+02  0.38156194666E+02  0.13287476367E+02  0.47787272491E+02  0.20000006597E+02 0.  0.
        -12    1    1    2    0    0  0.15848373061E+02 -0.38156194666E+02 -0.13287476367E+02  0.43400727509E+02  0.00000000000E+00 0.  1.
         11    1    3    3    0    0  0.84139971598E+00  0.57601154407E+01 -0.33428358254E+01  0.67127814644E+01  0.51100000000E-03 0.  1.
        -11    1    3    3    0    0  0.86278960742E+00  0.21868887820E+01 -0.65653868928E-01  0.23518501532E+01  0.51100000000E-03 0. -1.
         12    1    3    3    0    0 -0.17552562384E+02  0.30209190443E+02  0.16695966061E+02  0.38722640874E+02  0.00000000000E+00 0. -1.
</event>
<event>
 7    1  0.2655656E-009  0.4778726E+02  0.7816164E-02  0.1312668E+00
        -11   -1    0    0    0    0  0.00000000000E+00  0.00000000000E+00  0.45593999997E+02  0.45594000000E+02  0.51100000000E-03 0.  1.
         11   -1    0    0    0    0 -0.00000000000E+00 -0.00000000000E+00 -0.45593999997E+02  0.45594000000E+02  0.51100000000E-03 0. -1.
    9900012    2    1    2    0    0  0.32148436778E+02 -0.28845058223E+02 -0.42502365165E+01  0.47787264043E+02  0.19999968076E+02 0.  0.
        -12    1    1    2    0    0 -0.32148436778E+02  0.28845058223E+02  0.42502365165E+01  0.43400735957E+02  0.00000000000E+00 0.  1.
         11    1    3    3    0    0 -0.78174271074E-01 -0.54326581457E+00 -0.34754626555E+01  0.35185351914E+01  0.51100000000E-03 0. -1.
        -11    1    3    3    0    0  0.67443077080E+01 -0.87429988033E+00 -0.63493526938E+00  0.68303169618E+01  0.51100000000E-03 0.  1.
         12    1    3    3    0    0  0.25482303341E+02 -0.27427492528E+02 -0.13983859156E+00  0.37438411889E+02  0.00000000000E+00 0. -1.
</event>
<event>
 7    1  0.2655656E-009  0.4778727E+02  0.7816164E-02  0.1312668E+00
        -11   -1    0    0    0    0  0.00000000000E+00  0.00000000000E+00  0.45593999997E+02  0.45594000000E+02  0.51100000000E-03 0. -1.
         11   -1    0    0    0    0 -0.00000000000E+00 -0.00000000000E+00 -0.45593999997E+02  0.45594000000E+02  0.51100000000E-03 0.  1.
    9900012    2    1    2    0    0  0.33876180353E+02  0.16909030394E+02  0.21215851699E+02  0.47787271118E+02  0.20000000338E+02 0.  0.
        -12    1    1    2    0    0 -0.33876180353E+02 -0.16909030394E+02 -0.21215851699E+02  0.43400728882E+02  0.00000000000E+00 0.  1.
         11    1    3    3    0    0  0.13605686151E+02  0.61459936360E+01  0.29512794705E+01  0.15218343674E+02  0.51100000000E-03 0. -1.
        -11    1    3    3    0    0  0.20467967144E+02  0.56825130262E+01  0.11653223103E+02  0.24228624440E+02  0.51100000000E-03 0.  1.
        -12    1    3    3    0    0 -0.19747294211E+00  0.50805237313E+01  0.66113491259E+01  0.83403030048E+01  0.00000000000E+00 0.  1.
</event>
<event>
 7    1  0.2655656E-009  0.4778727E+02  0.7816164E-02  0.1312668E+00
        -11   -1    0    0    0    0  0.00000000000E+00  0.00000000000E+00  0.45593999997E+02  0.45594000000E+02  0.51100000000E-03 0.  1.
         11   -1    0    0    0    0 -0.00000000000E+00 -0.00000000000E+00 -0.45593999997E+02  0.45594000000E+02  0.51100000000E-03 0. -1.
    9900012    2    1    2    0    0  0.19575732475E+02 -0.38512958410E+02  0.41431626211E+01  0.47787273463E+02  0.20000011028E+02 0.  0.
        -12    1    1    2    0    0 -0.19575732475E+02  0.38512958410E+02 -0.41431626211E+01  0.43400726537E+02  0.00000000000E+00 0.  1.
         11    1    3    3    0    0  0.12963974952E+02 -0.18591423334E+02 -0.11064115975E+01  0.22692065023E+02  0.51100000000E-03 0. -1.
        -11    1    3    3    0    0 -0.22204104091E+01 -0.13323546070E+02  0.25685282076E+01  0.13749343245E+02  0.51100000000E-03 0.  1.
        -12    1    3    3    0    0  0.88321679322E+01 -0.65979890069E+01  0.26810460110E+01  0.11345865195E+02  0.00000000000E+00 0.  1.
</event>
<event>
 7    1  0.2655656E-009  0.4778727E+02  0.7816164E-02  0.1312668E+00
        -11   -1    0    0    0    0  0.00000000000E+00  0.00000000000E+00  0.45593999997E+02  0.45594000000E+02  0.51100000000E-03 0. -1.
         11   -1    0    0    0    0 -0.00000000000E+00 -0.00000000000E+00 -0.45593999997E+02  0.45594000000E+02  0.51100000000E-03 0.  1.
    9900012    2    1    2    0    0 -0.12713796457E+02  0.18462416416E+02  0.37163446735E+02  0.47787271740E+02  0.20000003172E+02 0.  0.
        -12    1    1    2    0    0  0.12713796457E+02 -0.18462416416E+02 -0.37163446735E+02  0.43400728260E+02  0.00000000000E+00 0.  1.
         11    1    3    3    0    0  0.35557738863E+00  0.64130611223E+01  0.13426981802E+02  0.14884140177E+02  0.51100000000E-03 0.  1.
        -11    1    3    3    0    0 -0.59646695862E+01 -0.17067612080E+01  0.11879506094E+02  0.13401976809E+02  0.51100000000E-03 0. -1.
        -12    1    3    3    0    0 -0.71047042597E+01  0.13756116502E+02  0.11856958838E+02  0.19501154754E+02  0.00000000000E+00 0.  1.
</event>
<event>
 7    1  0.2655656E-009  0.4778727E+02  0.7816164E-02  0.1312668E+00
        -11   -1    0    0    0    0  0.00000000000E+00  0.00000000000E+00  0.45593999997E+02  0.45594000000E+02  0.51100000000E-03 0.  1.
         11   -1    0    0    0    0 -0.00000000000E+00 -0.00000000000E+00 -0.45593999997E+02  0.45594000000E+02  0.51100000000E-03 0. -1.
    9900012    2    1    2    0    0  0.99209990975E+01 -0.24336370455E+02 -0.34538933206E+02  0.47787273543E+02  0.20000011391E+02 0.  0.
        -12    1    1    2    0    0 -0.99209990975E+01  0.24336370455E+02  0.34538933206E+02  0.43400726457E+02  0.00000000000E+00 0.  1.
         11    1    3    3    0    0  0.82539569368E+00 -0.65690176467E+01 -0.19302819227E+02  0.20406668059E+02  0.51100000000E-03 0. -1.
        -11    1    3    3    0    0  0.24791990346E+01 -0.82380281941E+00  0.11910403732E+01  0.28711768267E+01  0.51100000000E-03 0.  1.
         12    1    3    3    0    0  0.66164043693E+01 -0.16943549989E+02 -0.16427154352E+02  0.24509428657E+02  0.00000000000E+00 0. -1.
</event>
<event>
 7    1  0.2655656E-009  0.4778728E+02  0.7816164E-02  0.1312668E+00
        -11   -1    0    0    0    0  0.00000000000E+00  0.00000000000E+00  0.45593999997E+02  0.45594000000E+02  0.51100000000E-03 0.  1.
         11   -1    0    0    0    0 -0.00000000000E+00 -0.00000000000E+00 -0.45593999997E+02  0.45594000000E+02  0.51100000000E-03 0. -1.
    9900012    2    1    2    0    0 -0.18357053569E+02 -0.72918937749E+01 -0.38645432981E+02  0.47787278567E+02  0.20000034298E+02 0.  0.
        -12    1    1    2    0    0  0.18357053569E+02  0.72918937749E+01  0.38645432981E+02  0.43400721433E+02  0.00000000000E+00 0.  1.
         11    1    3    3    0    0 -0.47398380144E+01  0.11868774888E+01 -0.23764399989E+00  0.48919543649E+01  0.51100000000E-03 0. -1.
        -11    1    3    3    0    0 -0.15087189153E+01  0.23009749282E+01 -0.75941254514E+01  0.80772185819E+01  0.51100000000E-03 0.  1.
         12    1    3    3    0    0 -0.12108496640E+02 -0.10779746192E+02 -0.30813663530E+02  0.34818105620E+02  0.00000000000E+00 0. -1.
</event>
<event>
 7    1  0.2655656E-009  0.4778727E+02  0.7816164E-02  0.1312668E+00
        -11   -1    0    0    0    0  0.00000000000E+00  0.00000000000E+00  0.45593999997E+02  0.45594000000E+02  0.51100000000E-03 0.  1.
         11   -1    0    0    0    0 -0.00000000000E+00 -0.00000000000E+00 -0.45593999997E+02  0.45594000000E+02  0.51100000000E-03 0. -1.
    9900012    2    1    2    0    0  0.81415253713E+01 -0.64278923906E+01 -0.42142863983E+02  0.47787271658E+02  0.20000002795E+02 0.  0.
        -12    1    1    2    0    0 -0.81415253713E+01  0.64278923906E+01  0.42142863983E+02  0.43400728342E+02  0.00000000000E+00 0.  1.
         11    1    3    3    0    0  0.47331963006E+01 -0.35746489222E+01 -0.30453994695E+02  0.31026231728E+02  0.51100000000E-03 0. -1.
        -11    1    3    3    0    0  0.66469369933E+01 -0.21744836233E-01 -0.35027587044E+01  0.75134255193E+01  0.51100000000E-03 0.  1.
         12    1    3    3    0    0 -0.32386079226E+01 -0.28314986322E+01 -0.81861105840E+01  0.92476144099E+01  0.00000000000E+00 0. -1.
</event>
<event>
 7    1  0.2655656E-009  0.4778726E+02  0.7816164E-02  0.1312668E+00
        -11   -1    0    0    0    0  0.00000000000E+00  0.00000000000E+00  0.45593999997E+02  0.45594000000E+02  0.51100000000E-03 0.  1.
         11   -1    0    0    0    0 -0.00000000000E+00 -0.00000000000E+00 -0.45593999997E+02  0.45594000000E+02  0.51100000000E-03 0. -1.
    9900012    2    1    2    0    0 -0.22488669685E+02 -0.22427003451E+02 -0.29578929859E+02  0.47787264527E+02  0.19999970285E+02 0.  0.
        -12    1    1    2    0    0  0.22488669685E+02  0.22427003451E+02  0.29578929859E+02  0.43400735473E+02  0.00000000000E+00 0.  1.
         11    1    3    3    0    0 -0.18033597048E+00 -0.30119067603E+01 -0.81889832540E+01  0.87271731041E+01  0.51100000000E-03 0. -1.
        -11    1    3    3    0    0 -0.21128335009E+02 -0.21396246960E+02 -0.18286661876E+02  0.35193862065E+02  0.51100000000E-03 0.  1.
        -12    1    3    3    0    0 -0.11799987055E+01  0.19811502698E+01 -0.31032847293E+01  0.38662293579E+01  0.00000000000E+00 0.  1.
</event>
<event>
 7    1  0.2655656E-009  0.4778727E+02  0.7816164E-02  0.1312668E+00
        -11   -1    0    0    0    0  0.00000000000E+00  0.00000000000E+00  0.45593999997E+02  0.45594000000E+02  0.51100000000E-03 0.  1.
         11   -1    0    0    0    0 -0.00000000000E+00 -0.00000000000E+00 -0.45593999997E+02  0.45594000000E+02  0.51100000000E-03 0. -1.
    9900012    2    1    2    0    0 -0.16778282389E+02  0.18200021811E+02 -0.35649283946E+02  0.47787274203E+02  0.20000014401E+02 0.  0.
        -12    1    1    2    0    0  0.16778282389E+02 -0.18200021811E+02  0.35649283946E+02  0.43400725797E+02  0.00000000000E+00 0.  1.
         11    1    3    3    0    0 -0.20585761305E+01  0.68659231308E+01 -0.49561188070E+01  0.87144563809E+01  0.51100000000E-03 0. -1.
        -11    1    3    3    0    0  0.23565333777E+01  0.42693924208E+01 -0.28297144638E+01  0.56381065449E+01  0.51100000000E-03 0.  1.
        -12    1    3    3    0    0 -0.17076239637E+02  0.70647062589E+01 -0.27863450675E+02  0.33434711277E+02  0.00000000000E+00 0.  1.
</event>
<event>
 7    1  0.2655656E-009  0.4778727E+02  0.7816164E-02  0.1312668E+00
        -11   -1    0    0    0    0  0.00000000000E+00  0.00000000000E+00  0.45593999997E+02  0.45594000000E+02  0.51100000000E-03 0.  1.
         11   -1    0    0    0    0 -0.00000000000E+00 -0.00000000000E+00 -0.45593999997E+02  0.45594000000E+02  0.51100000000E-03 0. -1.
    9900012    2    1    2    0    0  0.16972330368E+02  0.33668670018E+02 -0.21493815483E+02  0.47787269096E+02  0.19999991118E+02 0.  0.
        -12    1    1    2    0    0 -0.16972330368E+02 -0.33668670018E+02  0.21493815483E+02  0.43400730904E+02  0.00000000000E+00 0.  1.
         11    1    3    3    0    0 -0.16843840024E+00  0.33440987647E+01 -0.85722256198E+01  0.92029571541E+01  0.51100000000E-03 0. -1.
        -11    1    3    3    0    0 -0.97670503648E+00  0.16574184184E+01  0.68779508853E+00  0.20430494088E+01  0.51100000000E-03 0.  1.
         12    1    3    3    0    0  0.18117473805E+02  0.28667152835E+02 -0.13609384952E+02  0.36541262533E+02  0.00000000000E+00 0. -1.
</event>
<event>
 7    1  0.2655656E-009  0.4778728E+02  0.7816164E-02  0.1312668E+00
        -11   -1    0    0    0    0  0.00000000000E+00  0.00000000000E+00  0.45593999997E+02  0.45594000000E+02  0.51100000000E-03 0.  1.
         11   -1    0    0    0    0 -0.00000000000E+00 -0.00000000000E+00 -0.45593999997E+02  0.45594000000E+02  0.51100000000E-03 0. -1.
    9900012    2    1    2    0    0  0.31016221971E+02  0.18987924409E+02 -0.23687032905E+02  0.47787276198E+02  0.20000023496E+02 0.  0.
        -12    1    1    2    0    0 -0.31016221971E+02 -0.18987924409E+02  0.23687032905E+02  0.43400723802E+02  0.00000000000E+00 0.  1.
         11    1    3    3    0    0  0.27404091135E+02  0.18259726338E+02 -0.14286264179E+02  0.35895670510E+02  0.51100000000E-03 0. -1.
        -11    1    3    3    0    0  0.16466939463E+01 -0.27231559372E+01 -0.30943987601E+01  0.44387479270E+01  0.51100000000E-03 0.  1.
         12    1    3    3    0    0  0.19654368893E+01  0.34513540086E+01 -0.63063699661E+01  0.74528577611E+01  0.00000000000E+00 0. -1.
</event>
<event>
 7    1  0.2655656E-009  0.4778727E+02  0.7816164E-02  0.1312668E+00
        -11   -1    0    0    0    0  0.00000000000E+00  0.00000000000E+00  0.45593999997E+02  0.45594000000E+02  0.51100000000E-03 0.  1.
         11   -1    0    0    0    0 -0.00000000000E+00 -0.00000000000E+00 -0.45593999997E+02  0.45594000000E+02  0.51100000000E-03 0. -1.
    9900012    2    1    2    0    0  0.29401818781E+02  0.31122368543E+02  0.71101631161E+01  0.47787272000E+02  0.20000004359E+02 0.  0.
        -12    1    1    2    0    0 -0.29401818781E+02 -0.31122368543E+02 -0.71101631161E+01  0.43400728000E+02  0.00000000000E+00 0.  1.
         11    1    3    3    0    0  0.44244117849E+00  0.29871590005E+01 -0.31825297044E+01  0.43871823157E+01  0.51100000000E-03 0.  1.
        -11    1    3    3    0    0  0.15077591865E+02  0.18027660942E+02  0.11542102292E+02  0.26183018563E+02  0.51100000000E-03 0. -1.
        -12    1    3    3    0    0  0.13881785738E+02  0.10107548600E+02 -0.12494094719E+01  0.17217071121E+02  0.00000000000E+00 0.  1.
</event>
<event>
 7    1  0.2655656E-009  0.4778727E+02  0.7816164E-02  0.1312668E+00
        -11   -1    0    0    0    0  0.00000000000E+00  0.00000000000E+00  0.45593999997E+02  0.45594000000E+02  0.51100000000E-03 0. -1.
         11   -1    0    0    0    0 -0.00000000000E+00 -0.00000000000E+00 -0.45593999997E+02  0.45594000000E+02  0.51100000000E-03 0.  1.
    9900012    2    1    2    0    0 -0.35513859487E+02 -0.23292752313E+02  0.89351393128E+01  0.47787271429E+02  0.20000001753E+02 0.  0.
        -12    1    1    2    0    0  0.35513859487E+02  0.23292752313E+02 -0.89351393128E+01  0.43400728571E+02  0.00000000000E+00 0.  1.
         11    1    3    3    0    0 -0.82281484134E+01 -0.14669164910E+02  0.96223526799E-01  0.16819514996E+02  0.51100000000E-03 0.  1.
        -11    1    3    3    0    0 -0.16806487892E+02 -0.13233688202E+01  0.41399620163E+01  0.17359395901E+02  0.51100000000E-03 0. -1.
         12    1    3    3    0    0 -0.10479223182E+02 -0.73002185833E+01  0.46989537696E+01  0.13608360533E+02  0.00000000000E+00 0. -1.
</event>
<event>
 7    1  0.2655656E-009  0.4778727E+02  0.7816164E-02  0.1312668E+00
        -11   -1    0    0    0    0  0.00000000000E+00  0.00000000000E+00  0.45593999997E+02  0.45594000000E+02  0.51100000000E-03 0.  1.
         11   -1    0    0    0    0 -0.00000000000E+00 -0.00000000000E+00 -0.45593999997E+02  0.45594000000E+02  0.51100000000E-03 0. -1.
    9900012    2    1    2    0    0 -0.23769738349E+02 -0.27004084414E+02 -0.24277607572E+02  0.47787271139E+02  0.20000000433E+02 0.  0.
        -12    1    1    2    0    0  0.23769738349E+02  0.27004084414E+02  0.24277607572E+02  0.43400728861E+02  0.00000000000E+00 0.  1.
         11    1    3    3    0    0 -0.25885484720E+02 -0.21013741432E+02 -0.24494718301E+02  0.41371812542E+02  0.51100000000E-03 0. -1.
        -11    1    3    3    0    0  0.17635608156E+01 -0.51686419666E+01  0.48357993153E+00  0.54825957666E+01  0.51100000000E-03 0.  1.
         12    1    3    3    0    0  0.35218555508E+00 -0.82170101562E+00 -0.26646920257E+00  0.93286283032E+00  0.00000000000E+00 0. -1.
</event>
<event>
 7    1  0.2655656E-009  0.4778727E+02  0.7816164E-02  0.1312668E+00
        -11   -1    0    0    0    0  0.00000000000E+00  0.00000000000E+00  0.45593999997E+02  0.45594000000E+02  0.51100000000E-03 0. -1.
         11   -1    0    0    0    0 -0.00000000000E+00 -0.00000000000E+00 -0.45593999997E+02  0.45594000000E+02  0.51100000000E-03 0.  1.
    9900012    2    1    2    0    0  0.14271612899E+02 -0.40945411883E+02 -0.18487222460E+01  0.47787268866E+02  0.19999990067E+02 0.  0.
        -12    1    1    2    0    0 -0.14271612899E+02  0.40945411883E+02  0.18487222460E+01  0.43400731134E+02  0.00000000000E+00 0.  1.
         11    1    3    3    0    0  0.13568019890E+02 -0.16781828911E+02 -0.66307148040E+01  0.22576255766E+02  0.51100000000E-03 0. -1.
        -11    1    3    3    0    0 -0.22122472209E+01 -0.10429067807E+02  0.12593883379E+01  0.10735248127E+02  0.51100000000E-03 0.  1.
         12    1    3    3    0    0  0.29158402298E+01 -0.13734515165E+02  0.35226042201E+01  0.14475764973E+02  0.00000000000E+00 0. -1.
</event>
<event>
 7    1  0.2655656E-009  0.4778727E+02  0.7816164E-02  0.1312668E+00
        -11   -1    0    0    0    0  0.00000000000E+00  0.00000000000E+00  0.45593999997E+02  0.45594000000E+02  0.51100000000E-03 0.  1.
         11   -1    0    0    0    0 -0.00000000000E+00 -0.00000000000E+00 -0.45593999997E+02  0.45594000000E+02  0.51100000000E-03 0. -1.
    9900012    2    1    2    0    0 -0.14560679405E+02 -0.19836068396E+02 -0.35751086667E+02  0.47787271987E+02  0.20000004299E+02 0.  0.
        -12    1    1    2    0    0  0.14560679405E+02  0.19836068396E+02  0.35751086667E+02  0.43400728013E+02  0.00000000000E+00 0.  1.
         11    1    3    3    0    0 -0.18039830226E+01 -0.44864089418E+01 -0.30599850012E+01  0.57223883482E+01  0.51100000000E-03 0. -1.
        -11    1    3    3    0    0 -0.42390909270E+01  0.17206872003E+01 -0.44298664983E+00  0.45964000872E+01  0.51100000000E-03 0.  1.
        -12    1    3    3    0    0 -0.85176054551E+01 -0.17070346654E+02 -0.32248115016E+02  0.37468483552E+02  0.00000000000E+00 0.  1.
</event>
<event>
 7    1  0.2655656E-009  0.4778726E+02  0.7816164E-02  0.1312668E+00
        -11   -1    0    0    0    0  0.00000000000E+00  0.00000000000E+00  0.45593999997E+02  0.45594000000E+02  0.51100000000E-03 0.  1.
         11   -1    0    0    0    0 -0.00000000000E+00 -0.00000000000E+00 -0.45593999997E+02  0.45594000000E+02  0.51100000000E-03 0. -1.
    9900012    2    1    2    0    0 -0.38685777560E+02  0.12332430699E+02 -0.15327936410E+02  0.47787264212E+02  0.19999968849E+02 0.  0.
        -12    1    1    2    0    0  0.38685777560E+02 -0.12332430699E+02  0.15327936410E+02  0.43400735788E+02  0.00000000000E+00 0.  1.
         11    1    3    3    0    0 -0.16214441499E+02  0.14724903553E+02 -0.32209324786E+01  0.22138322070E+02  0.51100000000E-03 0. -1.
        -11    1    3    3    0    0 -0.11165986155E+02 -0.15160404715E+01 -0.62753764216E+01  0.12897983370E+02  0.51100000000E-03 0.  1.
         12    1    3    3    0    0 -0.11305349905E+02 -0.87643238252E+00 -0.58316275094E+01  0.12750958772E+02  0.00000000000E+00 0. -1.
</event>
<event>
 7    1  0.2655656E-009  0.4778727E+02  0.7816164E-02  0.1312668E+00
        -11   -1    0    0    0    0  0.00000000000E+00  0.00000000000E+00  0.45593999997E+02  0.45594000000E+02  0.51100000000E-03 0. -1.
         11   -1    0    0    0    0 -0.00000000000E+00 -0.00000000000E+00 -0.45593999997E+02  0.45594000000E+02  0.51100000000E-03 0.  1.
    9900012    2    1    2    0    0 -0.18974209737E+01  0.22551321577E+02  0.37033241999E+02  0.47787270465E+02  0.19999997359E+02 0.  0.
        -12    1    1    2    0    0  0.18974209737E+01 -0.22551321577E+02 -0.37033241999E+02  0.43400729535E+02  0.00000000000E+00 0.  1.
         11    1    3    3    0    0 -0.98291784077E+00  0.19591136410E+02  0.30983504114E+02  0.36670918734E+02  0.51100000000E-03 0. -1.
        -11    1    3    3    0    0  0.26503395603E+01  0.38245855328E+01  0.58054309837E+01  0.74400795325E+01  0.51100000000E-03 0.  1.
         12    1    3    3    0    0 -0.35648426932E+01 -0.86440036638E+00  0.24430690118E+00  0.36762721992E+01  0.00000000000E+00 0. -1.
</event>
<event>
 7    1  0.2655656E-009  0.4778727E+02  0.7816164E-02  0.1312668E+00
        -11   -1    0    0    0    0  0.00000000000E+00  0.00000000000E+00  0.45593999997E+02  0.45594000000E+02  0.51100000000E-03 0.  1.
         11   -1    0    0    0    0 -0.00000000000E+00 -0.00000000000E+00 -0.45593999997E+02  0.45594000000E+02  0.51100000000E-03 0. -1.
    9900012    2    1    2    0    0 -0.19608602208E+01  0.84774921507E+01 -0.42519531137E+02  0.47787269890E+02  0.19999994738E+02 0.  0.
        -12    1    1    2    0    0  0.19608602208E+01 -0.84774921507E+01  0.42519531137E+02  0.43400730110E+02  0.00000000000E+00 0.  1.
         11    1    3    3    0    0 -0.16273440145E+01  0.64475573243E+01 -0.26771389301E+02  0.27584896762E+02  0.51100000000E-03 0. -1.
        -11    1    3    3    0    0  0.42675156408E+01 -0.26962968899E+01 -0.30622174401E+01  0.59041411377E+01  0.51100000000E-03 0.  1.
        -12    1    3    3    0    0 -0.46010318471E+01  0.47262317163E+01 -0.12685924395E+02  0.14298231990E+02  0.00000000000E+00 0.  1.
</event>
<event>
 7    1  0.2655656E-009  0.4778723E+02  0.7816164E-02  0.1312668E+00
        -11   -1    0    0    0    0  0.00000000000E+00  0.00000000000E+00  0.45593999997E+02  0.45594000000E+02  0.51100000000E-03 0. -1.
         11   -1    0    0    0    0 -0.00000000000E+00 -0.00000000000E+00 -0.45593999997E+02  0.45594000000E+02  0.51100000000E-03 0.  1.
    9900012    2    1    2    0    0  0.25810154142E+02 -0.22438337910E+02  0.26720473667E+02  0.47787230675E+02  0.19999815938E+02 0.  0.
        -12    1    1    2    0    0 -0.25810154142E+02  0.22438337910E+02 -0.26720473667E+02  0.43400769325E+02  0.00000000000E+00 0.  1.
         11    1    3    3    0    0  0.22883637468E+02 -0.25244632911E+02  0.21262277799E+02  0.40162629546E+02  0.51100000000E-03 0. -1.
        -11    1    3    3    0    0 -0.24251583553E+00  0.19936459474E+01  0.16124219567E+01  0.25755276977E+01  0.51100000000E-03 0.  1.
        -12    1    3    3    0    0  0.31690325101E+01  0.81264905361E+00  0.38457739115E+01  0.50490734311E+01  0.00000000000E+00 0.  1.
</event>
<event>
 7    1  0.2655656E-009  0.4778727E+02  0.7816164E-02  0.1312668E+00
        -11   -1    0    0    0    0  0.00000000000E+00  0.00000000000E+00  0.45593999997E+02  0.45594000000E+02  0.51100000000E-03 0.  1.
         11   -1    0    0    0    0 -0.00000000000E+00 -0.00000000000E+00 -0.45593999997E+02  0.45594000000E+02  0.51100000000E-03 0. -1.
    9900012    2    1    2    0    0  0.32996324354E+02  0.21825337871E+02 -0.17847144575E+02  0.47787270011E+02  0.19999995289E+02 0.  0.
        -12    1    1    2    0    0 -0.32996324354E+02 -0.21825337871E+02  0.17847144575E+02  0.43400729989E+02  0.00000000000E+00 0.  1.
         11    1    3    3    0    0  0.54926527483E+01  0.10537056648E+02 -0.29581362272E+01  0.12245381465E+02  0.51100000000E-03 0. -1.
        -11    1    3    3    0    0  0.24105376035E+02  0.46953860020E+01 -0.13401321471E+02  0.27976976622E+02  0.51100000000E-03 0.  1.
        -12    1    3    3    0    0  0.33982955716E+01  0.65928952206E+01 -0.14876868772E+01  0.75649119245E+01  0.00000000000E+00 0.  1.
</event>
<event>
 7    1  0.2655656E-009  0.4778727E+02  0.7816164E-02  0.1312668E+00
        -11   -1    0    0    0    0  0.00000000000E+00  0.00000000000E+00  0.45593999997E+02  0.45594000000E+02  0.51100000000E-03 0. -1.
         11   -1    0    0    0    0 -0.00000000000E+00 -0.00000000000E+00 -0.45593999997E+02  0.45594000000E+02  0.51100000000E-03 0.  1.
    9900012    2    1    2    0    0 -0.25415396890E+02  0.34003811548E+02 -0.90233883706E+01  0.47787272627E+02  0.20000007215E+02 0.  0.
        -12    1    1    2    0    0  0.25415396890E+02 -0.34003811548E+02  0.90233883706E+01  0.43400727373E+02  0.00000000000E+00 0.  1.
         11    1    3    3    0    0 -0.53432386260E+01  0.39076825605E+01 -0.21670159377E+01  0.69653528513E+01  0.51100000000E-03 0. -1.
        -11    1    3    3    0    0 -0.19450360297E+02  0.15018173400E+02 -0.87558178356E+00  0.24589198679E+02  0.51100000000E-03 0.  1.
        -12    1    3    3    0    0 -0.62179796651E+00  0.15077955587E+02 -0.59807906494E+01  0.16232721096E+02  0.00000000000E+00 0.  1.
</event>
<event>
 7    1  0.2655656E-009  0.4778727E+02  0.7816164E-02  0.1312668E+00
        -11   -1    0    0    0    0  0.00000000000E+00  0.00000000000E+00  0.45593999997E+02  0.45594000000E+02  0.51100000000E-03 0. -1.
         11   -1    0    0    0    0 -0.00000000000E+00 -0.00000000000E+00 -0.45593999997E+02  0.45594000000E+02  0.51100000000E-03 0.  1.
    9900012    2    1    2    0    0 -0.32738026302E+02  0.92295199440E+01  0.26956649247E+02  0.47787270246E+02  0.19999996359E+02 0.  0.
        -12    1    1    2    0    0  0.32738026302E+02 -0.92295199440E+01 -0.26956649247E+02  0.43400729754E+02  0.00000000000E+00 0.  1.
         11    1    3    3    0    0 -0.21765256764E+02  0.30332081382E+01  0.22275480352E+02  0.31290953625E+02  0.51100000000E-03 0. -1.
        -11    1    3    3    0    0 -0.12750739280E+02  0.52551517483E+01  0.38401771535E+01  0.14315897908E+02  0.51100000000E-03 0.  1.
         12    1    3    3    0    0  0.17779697412E+01  0.94116005756E+00  0.84099174144E+00  0.21804187129E+01  0.00000000000E+00 0. -1.
</event>
<event>
 7    1  0.2655656E-009  0.4778727E+02  0.7816164E-02  0.1312668E+00
        -11   -1    0    0    0    0  0.00000000000E+00  0.00000000000E+00  0.45593999997E+02  0.45594000000E+02  0.51100000000E-03 0. -1.
         11   -1    0    0    0    0 -0.00000000000E+00 -0.00000000000E+00 -0.45593999997E+02  0.45594000000E+02  0.51100000000E-03 0.  1.
    9900012    2    1    2    0    0  0.17193030955E+02  0.72164411130E+01  0.39191148863E+02  0.47787268613E+02  0.19999988913E+02 0.  0.
        -12    1    1    2    0    0 -0.17193030955E+02 -0.72164411130E+01 -0.39191148863E+02  0.43400731387E+02  0.00000000000E+00 0.  1.
         11    1    3    3    0    0  0.70180553864E+01 -0.42046335889E+01  0.91621619019E+01  0.12283210330E+02  0.51100000000E-03 0. -1.
        -11    1    3    3    0    0  0.55514098783E+01  0.12413293997E+02  0.17851827095E+02  0.22440939160E+02  0.51100000000E-03 0.  1.
        -12    1    3    3    0    0  0.46235656903E+01 -0.99221929502E+00  0.12177159866E+02  0.13063119123E+02  0.00000000000E+00 0.  1.
</event>
<event>
 7    1  0.2655656E-009  0.4778730E+02  0.7816164E-02  0.1312668E+00
        -11   -1    0    0    0    0  0.00000000000E+00  0.00000000000E+00  0.45593999997E+02  0.45594000000E+02  0.51100000000E-03 0. -1.
         11   -1    0    0    0    0 -0.00000000000E+00 -0.00000000000E+00 -0.45593999997E+02  0.45594000000E+02  0.51100000000E-03 0.  1.
    9900012    2    1    2    0    0  0.29521515249E+02 -0.11275591439E+02  0.29748316656E+02  0.47787295296E+02  0.20000110573E+02 0.  0.
        -12    1    1    2    0    0 -0.29521515249E+02  0.11275591439E+02 -0.29748316656E+02  0.43400704704E+02  0.00000000000E+00 0.  1.
         11    1    3    3    0    0  0.54002264143E+01  0.29364204782E+01  0.43578747220E+00  0.61623795349E+01  0.51100000000E-03 0. -1.
        -11    1    3    3    0    0  0.66544533355E+01 -0.69397030282E+01  0.15341886082E+02  0.18105653706E+02  0.51100000000E-03 0.  1.
         12    1    3    3    0    0  0.17466835499E+02 -0.72723088888E+01  0.13970643103E+02  0.23519262055E+02  0.00000000000E+00 0. -1.
</event>
<event>
 7    1  0.2655656E-009  0.4778727E+02  0.7816164E-02  0.1312668E+00
        -11   -1    0    0    0    0  0.00000000000E+00  0.00000000000E+00  0.45593999997E+02  0.45594000000E+02  0.51100000000E-03 0. -1.
         11   -1    0    0    0    0 -0.00000000000E+00 -0.00000000000E+00 -0.45593999997E+02  0.45594000000E+02  0.51100000000E-03 0.  1.
    9900012    2    1    2    0    0  0.32916923454E+02  0.49239978051E+00  0.28281741230E+02  0.47787271962E+02  0.20000004184E+02 0.  0.
        -12    1    1    2    0    0 -0.32916923454E+02 -0.49239978051E+00 -0.28281741230E+02  0.43400728038E+02  0.00000000000E+00 0.  1.
         11    1    3    3    0    0  0.42268312665E+01  0.65794697414E+00  0.11627848744E+02  0.12389748321E+02  0.51100000000E-03 0. -1.
        -11    1    3    3    0    0  0.98229975072E+01  0.24878422752E+01  0.62590735765E-01  0.10133338891E+02  0.51100000000E-03 0.  1.
        -12    1    3    3    0    0  0.18867094680E+02 -0.26533894688E+01  0.16591301751E+02  0.25264184751E+02  0.00000000000E+00 0.  1.
</event>
<event>
 7    1  0.2655656E-009  0.4778726E+02  0.7816164E-02  0.1312668E+00
        -11   -1    0    0    0    0  0.00000000000E+00  0.00000000000E+00  0.45593999997E+02  0.45594000000E+02  0.51100000000E-03 0.  1.
         11   -1    0    0    0    0 -0.00000000000E+00 -0.00000000000E+00 -0.45593999997E+02  0.45594000000E+02  0.51100000000E-03 0. -1.
    9900012    2    1    2    0    0  0.51898495134E+00  0.43392104298E+02 -0.69310420069E+00  0.47787257446E+02  0.19999937999E+02 0.  0.
        -12    1    1    2    0    0 -0.51898495134E+00 -0.43392104298E+02  0.69310420069E+00  0.43400742554E+02  0.00000000000E+00 0.  1.
         11    1    3    3    0    0  0.13481709650E-01  0.33325265180E+02  0.56009989508E+01  0.33792671847E+02  0.51100000000E-03 0. -1.
        -11    1    3    3    0    0 -0.12186756988E+01  0.83857261597E+01 -0.74866989045E+01  0.11307353113E+02  0.51100000000E-03 0.  1.
         12    1    3    3    0    0  0.17241789405E+01  0.16811129585E+01  0.11925957530E+01  0.26872324850E+01  0.00000000000E+00 0. -1.
</event>
<event>
 7    1  0.2655656E-009  0.4778727E+02  0.7816164E-02  0.1312668E+00
        -11   -1    0    0    0    0  0.00000000000E+00  0.00000000000E+00  0.45593999997E+02  0.45594000000E+02  0.51100000000E-03 0. -1.
         11   -1    0    0    0    0 -0.00000000000E+00 -0.00000000000E+00 -0.45593999997E+02  0.45594000000E+02  0.51100000000E-03 0.  1.
    9900012    2    1    2    0    0 -0.22096187642E+02 -0.27635697956E+02 -0.25132646977E+02  0.47787271275E+02  0.20000001052E+02 0.  0.
        -12    1    1    2    0    0  0.22096187642E+02  0.27635697956E+02  0.25132646977E+02  0.43400728725E+02  0.00000000000E+00 0.  1.
         11    1    3    3    0    0 -0.23771375567E+02 -0.18617605677E+02 -0.17108606526E+02  0.34704437109E+02  0.51100000000E-03 0. -1.
        -11    1    3    3    0    0  0.23949117441E+01 -0.85049232139E+01 -0.54979983721E+01  0.10406599228E+02  0.51100000000E-03 0.  1.
         12    1    3    3    0    0 -0.71972381932E+00 -0.51316906451E+00 -0.25260420780E+01  0.26762349382E+01  0.00000000000E+00 0. -1.
</event>
<event>
 7    1  0.2655656E-009  0.4778731E+02  0.7816164E-02  0.1312668E+00
        -11   -1    0    0    0    0  0.00000000000E+00  0.00000000000E+00  0.45593999997E+02  0.45594000000E+02  0.51100000000E-03 0.  1.
         11   -1    0    0    0    0 -0.00000000000E+00 -0.00000000000E+00 -0.45593999997E+02  0.45594000000E+02  0.51100000000E-03 0. -1.
    9900012    2    1    2    0    0  0.37418080534E+02  0.58264035202E+01 -0.21202843995E+02  0.47787305048E+02  0.20000155036E+02 0.  0.
        -12    1    1    2    0    0 -0.37418080534E+02 -0.58264035202E+01  0.21202843995E+02  0.43400694952E+02  0.00000000000E+00 0.  1.
         11    1    3    3    0    0  0.32105595641E+02 -0.13801521663E+01 -0.19022486832E+02  0.37343394289E+02  0.51100000000E-03 0. -1.
        -11    1    3    3    0    0  0.27250207139E+01  0.13496402345E+01  0.11196979090E+01  0.32405231557E+01  0.51100000000E-03 0.  1.
         12    1    3    3    0    0  0.25874641784E+01  0.58569154519E+01 -0.33000550723E+01  0.72033876035E+01  0.00000000000E+00 0. -1.
</event>
<event>
 7    1  0.2655656E-009  0.4778726E+02  0.7816164E-02  0.1312668E+00
        -11   -1    0    0    0    0  0.00000000000E+00  0.00000000000E+00  0.45593999997E+02  0.45594000000E+02  0.51100000000E-03 0.  1.
         11   -1    0    0    0    0 -0.00000000000E+00 -0.00000000000E+00 -0.45593999997E+02  0.45594000000E+02  0.51100000000E-03 0. -1.
    9900012    2    1    2    0    0 -0.31609377199E+02  0.28647900696E+02 -0.79855406490E+01  0.47787264976E+02  0.19999972331E+02 0.  0.
        -12    1    1    2    0    0  0.31609377199E+02 -0.28647900696E+02  0.79855406490E+01  0.43400735024E+02  0.00000000000E+00 0.  1.
         11    1    3    3    0    0 -0.16362985136E+02  0.17622421662E+02  0.18714142429E+01  0.24120514492E+02  0.51100000000E-03 0. -1.
        -11    1    3    3    0    0 -0.53985079635E+00 -0.18366399713E+01 -0.14291250447E+01  0.23889503806E+01  0.51100000000E-03 0.  1.
         12    1    3    3    0    0 -0.14706541267E+02  0.12862119005E+02 -0.84278298473E+01  0.21277800104E+02  0.00000000000E+00 0. -1.
</event>
<event>
 7    1  0.2655656E-009  0.4778728E+02  0.7816164E-02  0.1312668E+00
        -11   -1    0    0    0    0  0.00000000000E+00  0.00000000000E+00  0.45593999997E+02  0.45594000000E+02  0.51100000000E-03 0.  1.
         11   -1    0    0    0    0 -0.00000000000E+00 -0.00000000000E+00 -0.45593999997E+02  0.45594000000E+02  0.51100000000E-03 0. -1.
    9900012    2    1    2    0    0 -0.22591330683E+02 -0.28894676054E+02 -0.23202414274E+02  0.47787279332E+02  0.20000037788E+02 0.  0.
        -12    1    1    2    0    0  0.22591330683E+02  0.28894676054E+02  0.23202414274E+02  0.43400720668E+02  0.00000000000E+00 0.  1.
         11    1    3    3    0    0 -0.40039934219E+01 -0.60348845424E+01 -0.52273994415E+01  0.89318251183E+01  0.51100000000E-03 0. -1.
        -11    1    3    3    0    0 -0.12383973474E+02 -0.12981610481E+02 -0.20160922590E+02  0.26987919698E+02  0.51100000000E-03 0.  1.
        -12    1    3    3    0    0 -0.62033637872E+01 -0.98781810308E+01  0.21859077579E+01  0.11867534516E+02  0.00000000000E+00 0.  1.
</event>
<event>
 7    1  0.2655656E-009  0.4778727E+02  0.7816164E-02  0.1312668E+00
        -11   -1    0    0    0    0  0.00000000000E+00  0.00000000000E+00  0.45593999997E+02  0.45594000000E+02  0.51100000000E-03 0. -1.
         11   -1    0    0    0    0 -0.00000000000E+00 -0.00000000000E+00 -0.45593999997E+02  0.45594000000E+02  0.51100000000E-03 0.  1.
    9900012    2    1    2    0    0 -0.20088375033E+02 -0.89491981814E+01  0.37416468559E+02  0.47787273290E+02  0.20000010239E+02 0.  0.
        -12    1    1    2    0    0  0.20088375033E+02  0.89491981814E+01 -0.37416468559E+02  0.43400726710E+02  0.00000000000E+00 0.  1.
         11    1    3    3    0    0 -0.18313153957E+02 -0.14714165085E+01  0.17804108515E+02  0.25583646235E+02  0.51100000000E-03 0. -1.
        -11    1    3    3    0    0 -0.49278793597E+00 -0.51011984165E+01  0.18642696897E+02  0.19334301464E+02  0.51100000000E-03 0.  1.
         12    1    3    3    0    0 -0.12824331393E+01 -0.23765832565E+01  0.96966314705E+00  0.28693255916E+01  0.00000000000E+00 0. -1.
</event>
<event>
 7    1  0.2655656E-009  0.4778727E+02  0.7816164E-02  0.1312668E+00
        -11   -1    0    0    0    0  0.00000000000E+00  0.00000000000E+00  0.45593999997E+02  0.45594000000E+02  0.51100000000E-03 0.  1.
         11   -1    0    0    0    0 -0.00000000000E+00 -0.00000000000E+00 -0.45593999997E+02  0.45594000000E+02  0.51100000000E-03 0. -1.
    9900012    2    1    2    0    0 -0.86473849434E+01  0.29894262775E+02 -0.30251922934E+02  0.47787273573E+02  0.20000011529E+02 0.  0.
        -12    1    1    2    0    0  0.86473849434E+01 -0.29894262775E+02  0.30251922934E+02  0.43400726427E+02  0.00000000000E+00 0.  1.
         11    1    3    3    0    0 -0.78140325952E+01  0.17830469722E+02 -0.25017733150E+02  0.31699711799E+02  0.51100000000E-03 0. -1.
        -11    1    3    3    0    0 -0.30770386477E+01  0.43572648251E+01  0.15750066698E+01  0.55618854597E+01  0.51100000000E-03 0.  1.
        -12    1    3    3    0    0  0.22436862995E+01  0.77065282273E+01 -0.68091964537E+01  0.10525676314E+02  0.00000000000E+00 0.  1.
</event>
<event>
 7    1  0.2655656E-009  0.4778727E+02  0.7816164E-02  0.1312668E+00
        -11   -1    0    0    0    0  0.00000000000E+00  0.00000000000E+00  0.45593999997E+02  0.45594000000E+02  0.51100000000E-03 0. -1.
         11   -1    0    0    0    0 -0.00000000000E+00 -0.00000000000E+00 -0.45593999997E+02  0.45594000000E+02  0.51100000000E-03 0.  1.
    9900012    2    1    2    0    0 -0.14657366225E+02 -0.16098615355E+02  0.37544900042E+02  0.47787270511E+02  0.19999997567E+02 0.  0.
        -12    1    1    2    0    0  0.14657366225E+02  0.16098615355E+02 -0.37544900042E+02  0.43400729489E+02  0.00000000000E+00 0.  1.
         11    1    3    3    0    0 -0.20504053827E+01 -0.27357759838E+00  0.19247606827E+02  0.19358444560E+02  0.51100000000E-03 0. -1.
        -11    1    3    3    0    0  0.82066863935E+00 -0.16074641090E+01  0.33838985269E+01  0.38351280786E+01  0.51100000000E-03 0.  1.
         12    1    3    3    0    0 -0.13427629482E+02 -0.14217573648E+02  0.14913394688E+02  0.24593697873E+02  0.00000000000E+00 0. -1.
</event>
<event>
 7    1  0.2655656E-009  0.4778726E+02  0.7816164E-02  0.1312668E+00
        -11   -1    0    0    0    0  0.00000000000E+00  0.00000000000E+00  0.45593999997E+02  0.45594000000E+02  0.51100000000E-03 0.  1.
         11   -1    0    0    0    0 -0.00000000000E+00 -0.00000000000E+00 -0.45593999997E+02  0.45594000000E+02  0.51100000000E-03 0. -1.
    9900012    2    1    2    0    0 -0.40115628501E+02 -0.96340406060E+01 -0.13473879525E+02  0.47787264777E+02  0.19999971424E+02 0.  0.
        -12    1    1    2    0    0  0.40115628501E+02  0.96340406060E+01  0.13473879525E+02  0.43400735223E+02  0.00000000000E+00 0.  1.
         11    1    3    3    0    0 -0.30936248210E+02 -0.88846881359E+01 -0.35757874259E+01  0.32384801876E+02  0.51100000000E-03 0. -1.
        -11    1    3    3    0    0 -0.91756499039E+01  0.17164250989E+01 -0.77773373483E+01  0.12150129331E+02  0.51100000000E-03 0.  1.
         12    1    3    3    0    0 -0.37303875484E-02 -0.24657775690E+01 -0.21207547509E+01  0.32523335698E+01  0.00000000000E+00 0. -1.
</event>
<event>
 7    1  0.2655656E-009  0.4778726E+02  0.7816164E-02  0.1312668E+00
        -11   -1    0    0    0    0  0.00000000000E+00  0.00000000000E+00  0.45593999997E+02  0.45594000000E+02  0.51100000000E-03 0. -1.
         11   -1    0    0    0    0 -0.00000000000E+00 -0.00000000000E+00 -0.45593999997E+02  0.45594000000E+02  0.51100000000E-03 0.  1.
    9900012    2    1    2    0    0 -0.20224337610E+00  0.27899078327E+02  0.33244915305E+02  0.47787264205E+02  0.19999968818E+02 0.  0.
        -12    1    1    2    0    0  0.20224337610E+00 -0.27899078327E+02 -0.33244915305E+02  0.43400735795E+02  0.00000000000E+00 0.  1.
         11    1    3    3    0    0 -0.38971943606E+01  0.13268455760E+02  0.14201387925E+02  0.19822196180E+02  0.51100000000E-03 0. -1.
        -11    1    3    3    0    0 -0.19266857134E+01  0.42698082404E+01  0.14657506668E+02  0.15387848525E+02  0.51100000000E-03 0.  1.
        -12    1    3    3    0    0  0.56216366979E+01  0.10360814326E+02  0.43860207121E+01  0.12577219500E+02  0.00000000000E+00 0.  1.
</event>
<event>
 7    1  0.2655656E-009  0.4778728E+02  0.7816164E-02  0.1312668E+00
        -11   -1    0    0    0    0  0.00000000000E+00  0.00000000000E+00  0.45593999997E+02  0.45594000000E+02  0.51100000000E-03 0.  1.
         11   -1    0    0    0    0 -0.00000000000E+00 -0.00000000000E+00 -0.45593999997E+02  0.45594000000E+02  0.51100000000E-03 0. -1.
    9900012    2    1    2    0    0 -0.12653148924E+02 -0.40495305058E+02  0.91460877828E+01  0.47787276145E+02  0.20000023256E+02 0.  0.
        -12    1    1    2    0    0  0.12653148924E+02  0.40495305058E+02 -0.91460877828E+01  0.43400723855E+02  0.00000000000E+00 0.  1.
         11    1    3    3    0    0 -0.16399783324E+01 -0.24307556674E+01 -0.37985583778E+01  0.47986610691E+01  0.51100000000E-03 0. -1.
        -11    1    3    3    0    0 -0.12580854527E+02 -0.33739912107E+02  0.94983146116E+01  0.37240804910E+02  0.51100000000E-03 0.  1.
        -12    1    3    3    0    0  0.15676839363E+01 -0.43246372838E+01  0.34463315490E+01  0.57478101661E+01  0.00000000000E+00 0.  1.
</event>
<event>
 7    1  0.2655656E-009  0.4778726E+02  0.7816164E-02  0.1312668E+00
        -11   -1    0    0    0    0  0.00000000000E+00  0.00000000000E+00  0.45593999997E+02  0.45594000000E+02  0.51100000000E-03 0.  1.
         11   -1    0    0    0    0 -0.00000000000E+00 -0.00000000000E+00 -0.45593999997E+02  0.45594000000E+02  0.51100000000E-03 0. -1.
    9900012    2    1    2    0    0 -0.42768473122E+02 -0.72612498619E+01 -0.13251996818E+01  0.47787260410E+02  0.19999951515E+02 0.  0.
        -12    1    1    2    0    0  0.42768473122E+02  0.72612498619E+01  0.13251996818E+01  0.43400739590E+02  0.00000000000E+00 0.  1.
         11    1    3    3    0    0 -0.19965933589E+02 -0.23049408942E+00 -0.88422318754E+01  0.21837506644E+02  0.51100000000E-03 0. -1.
        -11    1    3    3    0    0 -0.14734920170E+02 -0.32932289746E+01  0.79193788254E+01  0.17049334026E+02  0.51100000000E-03 0.  1.
        -12    1    3    3    0    0 -0.80676193623E+01 -0.37375267979E+01 -0.40234663183E+00  0.89004197402E+01  0.00000000000E+00 0.  1.
</event>
<event>
 7    1  0.2655656E-009  0.4778727E+02  0.7816164E-02  0.1312668E+00
        -11   -1    0    0    0    0  0.00000000000E+00  0.00000000000E+00  0.45593999997E+02  0.45594000000E+02  0.51100000000E-03 0.  1.
         11   -1    0    0    0    0 -0.00000000000E+00 -0.00000000000E+00 -0.45593999997E+02  0.45594000000E+02  0.51100000000E-03 0. -1.
    9900012    2    1    2    0    0  0.10522225880E+02 -0.26133173147E+02 -0.33014592882E+02  0.47787270521E+02  0.19999997612E+02 0.  0.
        -12    1    1    2    0    0 -0.10522225880E+02  0.26133173147E+02  0.33014592882E+02  0.43400729479E+02  0.00000000000E+00 0.  1.
         11    1    3    3    0    0  0.58670648735E+01 -0.22533692724E+02 -0.18931426760E+02  0.30009809687E+02  0.51100000000E-03 0. -1.
        -11    1    3    3    0    0  0.16820187557E+01 -0.25720500215E+01  0.26866945796E+00  0.30849330538E+01  0.51100000000E-03 0.  1.
         12    1    3    3    0    0  0.29731422508E+01 -0.10274304020E+01 -0.14351835579E+02  0.14692527780E+02  0.00000000000E+00 0. -1.
</event>
<event>
 7    1  0.2655656E-009  0.4778727E+02  0.7816164E-02  0.1312668E+00
        -11   -1    0    0    0    0  0.00000000000E+00  0.00000000000E+00  0.45593999997E+02  0.45594000000E+02  0.51100000000E-03 0.  1.
         11   -1    0    0    0    0 -0.00000000000E+00 -0.00000000000E+00 -0.45593999997E+02  0.45594000000E+02  0.51100000000E-03 0. -1.
    9900012    2    1    2    0    0  0.13688572983E+02  0.26898776775E+02 -0.31188170476E+02  0.47787271897E+02  0.20000003886E+02 0.  0.
        -12    1    1    2    0    0 -0.13688572983E+02 -0.26898776775E+02  0.31188170476E+02  0.43400728103E+02  0.00000000000E+00 0.  1.
         11    1    3    3    0    0  0.14478853175E+02  0.20378716666E+02 -0.13431540202E+02  0.28378434676E+02  0.51100000000E-03 0. -1.
        -11    1    3    3    0    0 -0.16329903240E+01  0.48946427959E+01 -0.82739408472E+01  0.97510144550E+01  0.51100000000E-03 0.  1.
         12    1    3    3    0    0  0.84271013155E+00  0.16254173131E+01 -0.94826894267E+01  0.96578227655E+01  0.00000000000E+00 0. -1.
</event>
<event>
 7    1  0.2655656E-009  0.4778724E+02  0.7816164E-02  0.1312668E+00
        -11   -1    0    0    0    0  0.00000000000E+00  0.00000000000E+00  0.45593999997E+02  0.45594000000E+02  0.51100000000E-03 0. -1.
         11   -1    0    0    0    0 -0.00000000000E+00 -0.00000000000E+00 -0.45593999997E+02  0.45594000000E+02  0.51100000000E-03 0.  1.
    9900012    2    1    2    0    0  0.60505535530E+00 -0.17326464066E+02  0.39787610466E+02  0.47787235081E+02  0.19999836026E+02 0.  0.
        -12    1    1    2    0    0 -0.60505535530E+00  0.17326464066E+02 -0.39787610466E+02  0.43400764919E+02  0.00000000000E+00 0.  1.
         11    1    3    3    0    0 -0.12974491064E+01 -0.64006630081E+01  0.17382611856E+01  0.67582108089E+01  0.51100000000E-03 0. -1.
        -11    1    3    3    0    0  0.93701778711E-01  0.78344019520E+00  0.15816892600E+02  0.15836560560E+02  0.51100000000E-03 0.  1.
         12    1    3    3    0    0  0.18088026830E+01 -0.11709241253E+02  0.22232456680E+02  0.25192463712E+02  0.00000000000E+00 0. -1.
</event>
<event>
 7    1  0.2655656E-009  0.4778727E+02  0.7816164E-02  0.1312668E+00
        -11   -1    0    0    0    0  0.00000000000E+00  0.00000000000E+00  0.45593999997E+02  0.45594000000E+02  0.51100000000E-03 0.  1.
         11   -1    0    0    0    0 -0.00000000000E+00 -0.00000000000E+00 -0.45593999997E+02  0.45594000000E+02  0.51100000000E-03 0. -1.
    9900012    2    1    2    0    0  0.19581341799E+02  0.18604642738E+02 -0.33971478529E+02  0.47787273836E+02  0.20000012729E+02 0.  0.
        -12    1    1    2    0    0 -0.19581341799E+02 -0.18604642738E+02  0.33971478529E+02  0.43400726164E+02  0.00000000000E+00 0.  1.
         11    1    3    3    0    0  0.12257841628E+02  0.40823725488E+01 -0.21587212569E+02  0.25158064189E+02  0.51100000000E-03 0. -1.
        -11    1    3    3    0    0 -0.22751617316E+01  0.31570738923E+01 -0.38727090736E+01  0.54901140513E+01  0.51100000000E-03 0.  1.
         12    1    3    3    0    0  0.95986619029E+01  0.11365196297E+02 -0.85115568864E+01  0.17139095596E+02  0.00000000000E+00 0. -1.
</event>
<event>
 7    1  0.2655656E-009  0.4778727E+02  0.7816164E-02  0.1312668E+00
        -11   -1    0    0    0    0  0.00000000000E+00  0.00000000000E+00  0.45593999997E+02  0.45594000000E+02  0.51100000000E-03 0. -1.
         11   -1    0    0    0    0 -0.00000000000E+00 -0.00000000000E+00 -0.45593999997E+02  0.45594000000E+02  0.51100000000E-03 0.  1.
    9900012    2    1    2    0    0  0.32767766188E+02 -0.28346404479E+02 -0.25254743125E+01  0.47787272260E+02  0.20000005541E+02 0.  0.
        -12    1    1    2    0    0 -0.32767766188E+02  0.28346404479E+02  0.25254743125E+01  0.43400727740E+02  0.00000000000E+00 0.  1.
         11    1    3    3    0    0  0.23920368889E+01 -0.10110823336E+02 -0.55649924801E+00  0.10404820069E+02  0.51100000000E-03 0. -1.
        -11    1    3    3    0    0  0.12777061199E+02 -0.30148835381E+01 -0.47245621546E+01  0.13952215001E+02  0.51100000000E-03 0.  1.
        -12    1    3    3    0    0  0.17598668101E+02 -0.15220697606E+02  0.27555870901E+01  0.23430237189E+02  0.00000000000E+00 0.  1.
</event>
<event>
 7    1  0.2655656E-009  0.4778727E+02  0.7816164E-02  0.1312668E+00
        -11   -1    0    0    0    0  0.00000000000E+00  0.00000000000E+00  0.45593999997E+02  0.45594000000E+02  0.51100000000E-03 0. -1.
         11   -1    0    0    0    0 -0.00000000000E+00 -0.00000000000E+00 -0.45593999997E+02  0.45594000000E+02  0.51100000000E-03 0.  1.
    9900012    2    1    2    0    0 -0.14625040258E+01 -0.38350316078E+02  0.20266662916E+02  0.47787270892E+02  0.19999999306E+02 0.  0.
        -12    1    1    2    0    0  0.14625040258E+01  0.38350316078E+02 -0.20266662916E+02  0.43400729108E+02  0.00000000000E+00 0.  1.
         11    1    3    3    0    0  0.48288460975E+01 -0.30990150860E+02  0.16497495643E+02  0.35438320611E+02  0.51100000000E-03 0. -1.
        -11    1    3    3    0    0 -0.29771019646E+01 -0.10270011146E+01 -0.14809281079E+01  0.34800884642E+01  0.51100000000E-03 0.  1.
        -12    1    3    3    0    0 -0.33142481588E+01 -0.63331641034E+01  0.52500953809E+01  0.88688618169E+01  0.00000000000E+00 0.  1.
</event>
<event>
 7    1  0.2655656E-009  0.4778730E+02  0.7816164E-02  0.1312668E+00
        -11   -1    0    0    0    0  0.00000000000E+00  0.00000000000E+00  0.45593999997E+02  0.45594000000E+02  0.51100000000E-03 0.  1.
         11   -1    0    0    0    0 -0.00000000000E+00 -0.00000000000E+00 -0.45593999997E+02  0.45594000000E+02  0.51100000000E-03 0. -1.
    9900012    2    1    2    0    0  0.61528681513E+00  0.72732791256E+01 -0.42782489074E+02  0.47787302558E+02  0.20000143683E+02 0.  0.
        -12    1    1    2    0    0 -0.61528681513E+00 -0.72732791256E+01  0.42782489074E+02  0.43400697442E+02  0.00000000000E+00 0.  1.
         11    1    3    3    0    0 -0.64044718613E+00  0.75059192814E+01 -0.24793646839E+02  0.25912813832E+02  0.51100000000E-03 0. -1.
        -11    1    3    3    0    0 -0.57255322360E+00 -0.40504307607E+01 -0.79498077050E+00  0.41672294427E+01  0.51100000000E-03 0.  1.
        -12    1    3    3    0    0  0.18282872249E+01  0.38177906049E+01 -0.17193861464E+02  0.17707259283E+02  0.00000000000E+00 0.  1.
</event>
<event>
 7    1  0.2655656E-009  0.4778727E+02  0.7816164E-02  0.1312668E+00
        -11   -1    0    0    0    0  0.00000000000E+00  0.00000000000E+00  0.45593999997E+02  0.45594000000E+02  0.51100000000E-03 0. -1.
         11   -1    0    0    0    0 -0.00000000000E+00 -0.00000000000E+00 -0.45593999997E+02  0.45594000000E+02  0.51100000000E-03 0.  1.
    9900012    2    1    2    0    0 -0.21837591555E+02 -0.37506532512E+02 -0.54483053725E-01  0.47787270117E+02  0.19999995770E+02 0.  0.
        -12    1    1    2    0    0  0.21837591555E+02  0.37506532512E+02  0.54483053725E-01  0.43400729883E+02  0.00000000000E+00 0.  1.
         11    1    3    3    0    0 -0.15661992414E+02 -0.15976384142E+02  0.32944866109E+01  0.22614077450E+02  0.51100000000E-03 0. -1.
        -11    1    3    3    0    0 -0.62443036862E+00 -0.18057690664E+02 -0.61895764101E+00  0.18079082228E+02  0.51100000000E-03 0.  1.
        -12    1    3    3    0    0 -0.55511687718E+01 -0.34724577063E+01 -0.27300120236E+01  0.70941104379E+01  0.00000000000E+00 0.  1.
</event>
<event>
 7    1  0.2655656E-009  0.4778727E+02  0.7816164E-02  0.1312668E+00
        -11   -1    0    0    0    0  0.00000000000E+00  0.00000000000E+00  0.45593999997E+02  0.45594000000E+02  0.51100000000E-03 0. -1.
         11   -1    0    0    0    0 -0.00000000000E+00 -0.00000000000E+00 -0.45593999997E+02  0.45594000000E+02  0.51100000000E-03 0.  1.
    9900012    2    1    2    0    0 -0.27921874787E+02 -0.27703901052E+02  0.18343568130E+02  0.47787265940E+02  0.19999976728E+02 0.  0.
        -12    1    1    2    0    0  0.27921874787E+02  0.27703901052E+02 -0.18343568130E+02  0.43400734060E+02  0.00000000000E+00 0.  1.
         11    1    3    3    0    0 -0.18722154977E+02 -0.20025645199E+02  0.21956466559E+02  0.35123097481E+02  0.51100000000E-03 0. -1.
        -11    1    3    3    0    0 -0.52515453454E+01 -0.50404268219E+01 -0.30135514407E+01  0.78782056085E+01  0.51100000000E-03 0.  1.
         12    1    3    3    0    0 -0.39481744647E+01 -0.26378290311E+01 -0.59934698738E+00  0.47859628511E+01  0.00000000000E+00 0. -1.
</event>
<event>
 7    1  0.2655656E-009  0.4778727E+02  0.7816164E-02  0.1312668E+00
        -11   -1    0    0    0    0  0.00000000000E+00  0.00000000000E+00  0.45593999997E+02  0.45594000000E+02  0.51100000000E-03 0.  1.
         11   -1    0    0    0    0 -0.00000000000E+00 -0.00000000000E+00 -0.45593999997E+02  0.45594000000E+02  0.51100000000E-03 0. -1.
    9900012    2    1    2    0    0  0.17603578353E+01  0.33479946514E+02 -0.27561165203E+02  0.47787268374E+02  0.19999987826E+02 0.  0.
        -12    1    1    2    0    0 -0.17603578353E+01 -0.33479946514E+02  0.27561165203E+02  0.43400731626E+02  0.00000000000E+00 0.  1.
         11    1    3    3    0    0 -0.30603949894E+00  0.34144278995E+02 -0.25169610215E+02  0.42419744541E+02  0.51100000000E-03 0. -1.
        -11    1    3    3    0    0  0.20664472393E+01 -0.11495521867E+01  0.51553589987E+00  0.24202173349E+01  0.51100000000E-03 0.  1.
        -12    1    3    3    0    0 -0.49905111750E-04  0.48521970558E+00 -0.29070908878E+01  0.29473064983E+01  0.00000000000E+00 0.  1.
</event>
<event>
 7    1  0.2655656E-009  0.4778728E+02  0.7816164E-02  0.1312668E+00
        -11   -1    0    0    0    0  0.00000000000E+00  0.00000000000E+00  0.45593999997E+02  0.45594000000E+02  0.51100000000E-03 0.  1.
         11   -1    0    0    0    0 -0.00000000000E+00 -0.00000000000E+00 -0.45593999997E+02  0.45594000000E+02  0.51100000000E-03 0. -1.
    9900012    2    1    2    0    0  0.36523232437E+02 -0.20564685335E+02 -0.11259209074E+02  0.47787279044E+02  0.20000036472E+02 0.  0.
        -12    1    1    2    0    0 -0.36523232437E+02  0.20564685335E+02  0.11259209074E+02  0.43400720956E+02  0.00000000000E+00 0.  1.
         11    1    3    3    0    0  0.13505209868E+02 -0.11680993593E+02 -0.13849134636E+01  0.17909614469E+02  0.51100000000E-03 0. -1.
        -11    1    3    3    0    0  0.10295945398E+02  0.29990501541E+01 -0.27725633606E+01  0.11076457074E+02  0.51100000000E-03 0.  1.
        -12    1    3    3    0    0  0.12722077171E+02 -0.11882741896E+02 -0.71017322496E+01  0.18801207500E+02  0.00000000000E+00 0.  1.
</event>
<event>
 7    1  0.2655656E-009  0.4778728E+02  0.7816164E-02  0.1312668E+00
        -11   -1    0    0    0    0  0.00000000000E+00  0.00000000000E+00  0.45593999997E+02  0.45594000000E+02  0.51100000000E-03 0.  1.
         11   -1    0    0    0    0 -0.00000000000E+00 -0.00000000000E+00 -0.45593999997E+02  0.45594000000E+02  0.51100000000E-03 0. -1.
    9900012    2    1    2    0    0  0.35483052934E+00  0.35116872875E+02 -0.25501020360E+02  0.47787277602E+02  0.20000029899E+02 0.  0.
        -12    1    1    2    0    0 -0.35483052934E+00 -0.35116872875E+02  0.25501020360E+02  0.43400722398E+02  0.00000000000E+00 0.  1.
         11    1    3    3    0    0  0.25951531191E+01  0.73028055425E+01 -0.73652021379E+01  0.10691678601E+02  0.51100000000E-03 0. -1.
        -11    1    3    3    0    0  0.72115739908E+00 -0.21209460677E+01 -0.81317975764E+00  0.23832208869E+01  0.51100000000E-03 0.  1.
        -12    1    3    3    0    0 -0.29614799889E+01  0.29935013401E+02 -0.17322638464E+02  0.34712378115E+02  0.00000000000E+00 0.  1.
</event>
<event>
 7    1  0.2655656E-009  0.4778727E+02  0.7816164E-02  0.1312668E+00
        -11   -1    0    0    0    0  0.00000000000E+00  0.00000000000E+00  0.45593999997E+02  0.45594000000E+02  0.51100000000E-03 0.  1.
         11   -1    0    0    0    0 -0.00000000000E+00 -0.00000000000E+00 -0.45593999997E+02  0.45594000000E+02  0.51100000000E-03 0. -1.
    9900012    2    1    2    0    0 -0.19042474182E+02  0.33118284289E+02 -0.20595790706E+02  0.47787272218E+02  0.20000005350E+02 0.  0.
        -12    1    1    2    0    0  0.19042474182E+02 -0.33118284289E+02  0.20595790706E+02  0.43400727782E+02  0.00000000000E+00 0.  1.
         11    1    3    3    0    0 -0.63984947247E+01  0.40638693810E+01 -0.84149023697E+01  0.11325473555E+02  0.51100000000E-03 0. -1.
        -11    1    3    3    0    0 -0.11676221715E+02  0.16847907856E+02 -0.21085604770E+01  0.20606605257E+02  0.51100000000E-03 0.  1.
        -12    1    3    3    0    0 -0.96775774307E+00  0.12206507051E+02 -0.10072327859E+02  0.15855193406E+02  0.00000000000E+00 0.  1.
</event>
<event>
 7    1  0.2655656E-009  0.4778727E+02  0.7816164E-02  0.1312668E+00
        -11   -1    0    0    0    0  0.00000000000E+00  0.00000000000E+00  0.45593999997E+02  0.45594000000E+02  0.51100000000E-03 0.  1.
         11   -1    0    0    0    0 -0.00000000000E+00 -0.00000000000E+00 -0.45593999997E+02  0.45594000000E+02  0.51100000000E-03 0. -1.
    9900012    2    1    2    0    0  0.53559697908E+01  0.15474949981E+02 -0.40192819540E+02  0.47787271528E+02  0.20000002207E+02 0.  0.
        -12    1    1    2    0    0 -0.53559697908E+01 -0.15474949981E+02  0.40192819540E+02  0.43400728472E+02  0.00000000000E+00 0.  1.
         11    1    3    3    0    0  0.47085447580E-01 -0.18521157938E+00 -0.21120923053E+02  0.21121787596E+02  0.51100000000E-03 0. -1.
        -11    1    3    3    0    0  0.74326706039E+01  0.12468387637E+02 -0.16826962944E+02  0.22222780311E+02  0.51100000000E-03 0.  1.
        -12    1    3    3    0    0 -0.21237862607E+01  0.31917739235E+01 -0.22449335426E+01  0.44427036217E+01  0.00000000000E+00 0.  1.
</event>
<event>
 7    1  0.2655656E-009  0.4778727E+02  0.7816164E-02  0.1312668E+00
        -11   -1    0    0    0    0  0.00000000000E+00  0.00000000000E+00  0.45593999997E+02  0.45594000000E+02  0.51100000000E-03 0.  1.
         11   -1    0    0    0    0 -0.00000000000E+00 -0.00000000000E+00 -0.45593999997E+02  0.45594000000E+02  0.51100000000E-03 0. -1.
    9900012    2    1    2    0    0 -0.21324523264E+01 -0.41927166653E+02 -0.11008567901E+02  0.47787271623E+02  0.20000002638E+02 0.  0.
        -12    1    1    2    0    0  0.21324523264E+01  0.41927166653E+02  0.11008567901E+02  0.43400728377E+02  0.00000000000E+00 0.  1.
         11    1    3    3    0    0 -0.11508188686E+01 -0.11254715200E+02 -0.90725908460E+01  0.14501893091E+02  0.51100000000E-03 0. -1.
        -11    1    3    3    0    0  0.33694833456E+01 -0.26065891385E+02  0.99967926012E+00  0.26301776948E+02  0.51100000000E-03 0.  1.
        -12    1    3    3    0    0 -0.43511168034E+01 -0.46065600675E+01 -0.29356563146E+01  0.69836015844E+01  0.00000000000E+00 0.  1.
</event>
<event>
 7    1  0.2655656E-009  0.4778727E+02  0.7816164E-02  0.1312668E+00
        -11   -1    0    0    0    0  0.00000000000E+00  0.00000000000E+00  0.45593999997E+02  0.45594000000E+02  0.51100000000E-03 0.  1.
         11   -1    0    0    0    0 -0.00000000000E+00 -0.00000000000E+00 -0.45593999997E+02  0.45594000000E+02  0.51100000000E-03 0. -1.
    9900012    2    1    2    0    0  0.41324577569E+02  0.28243407221E+01  0.12958621472E+02  0.47787268644E+02  0.19999989058E+02 0.  0.
        -12    1    1    2    0    0 -0.41324577569E+02 -0.28243407221E+01 -0.12958621472E+02  0.43400731356E+02  0.00000000000E+00 0.  1.
         11    1    3    3    0    0  0.20976274218E+02 -0.22754505996E+01  0.58427379651E+01  0.21893362982E+02  0.51100000000E-03 0. -1.
        -11    1    3    3    0    0  0.83823276231E+01  0.89995272159E+01  0.30990429190E+01  0.12683019111E+02  0.51100000000E-03 0.  1.
        -12    1    3    3    0    0  0.11965975728E+02 -0.38997358942E+01  0.40168405875E+01  0.13210886551E+02  0.00000000000E+00 0.  1.
</event>
<event>
 7    1  0.2655656E-009  0.4778724E+02  0.7816164E-02  0.1312668E+00
        -11   -1    0    0    0    0  0.00000000000E+00  0.00000000000E+00  0.45593999997E+02  0.45594000000E+02  0.51100000000E-03 0.  1.
         11   -1    0    0    0    0 -0.00000000000E+00 -0.00000000000E+00 -0.45593999997E+02  0.45594000000E+02  0.51100000000E-03 0. -1.
    9900012    2    1    2    0    0  0.34259630640E+02  0.23280664628E+02 -0.12958183858E+02  0.47787237725E+02  0.19999848085E+02 0.  0.
        -12    1    1    2    0    0 -0.34259630640E+02 -0.23280664628E+02  0.12958183858E+02  0.43400762275E+02  0.00000000000E+00 0.  1.
         11    1    3    3    0    0  0.20878323317E+02  0.14822149521E+02 -0.12399309547E+02  0.28448960938E+02  0.51100000000E-03 0. -1.
        -11    1    3    3    0    0  0.69329048384E+01  0.77267574313E+01  0.42945616024E+01  0.11234376241E+02  0.51100000000E-03 0.  1.
         12    1    3    3    0    0  0.64484024847E+01  0.73175767550E+00 -0.48534359138E+01  0.81039005467E+01  0.00000000000E+00 0. -1.
</event>
<event>
 7    1  0.2655656E-009  0.4778728E+02  0.7816164E-02  0.1312668E+00
        -11   -1    0    0    0    0  0.00000000000E+00  0.00000000000E+00  0.45593999997E+02  0.45594000000E+02  0.51100000000E-03 0. -1.
         11   -1    0    0    0    0 -0.00000000000E+00 -0.00000000000E+00 -0.45593999997E+02  0.45594000000E+02  0.51100000000E-03 0.  1.
    9900012    2    1    2    0    0  0.15641656352E+02  0.16200808374E+02  0.37101149348E+02  0.47787275486E+02  0.20000020250E+02 0.  0.
        -12    1    1    2    0    0 -0.15641656352E+02 -0.16200808374E+02 -0.37101149348E+02  0.43400724514E+02  0.00000000000E+00 0.  1.
         11    1    3    3    0    0  0.78511324126E+01 -0.32449955159E+00  0.13058872366E+02  0.15240725962E+02  0.51100000000E-03 0. -1.
        -11    1    3    3    0    0  0.36717880766E+01 -0.98354748181E+00  0.28548143389E+01  0.47538782588E+01  0.51100000000E-03 0.  1.
         12    1    3    3    0    0  0.41187358629E+01  0.17508855407E+02  0.21187462643E+02  0.27792671265E+02  0.00000000000E+00 0. -1.
</event>
<event>
 7    1  0.2655656E-009  0.4778727E+02  0.7816164E-02  0.1312668E+00
        -11   -1    0    0    0    0  0.00000000000E+00  0.00000000000E+00  0.45593999997E+02  0.45594000000E+02  0.51100000000E-03 0. -1.
         11   -1    0    0    0    0 -0.00000000000E+00 -0.00000000000E+00 -0.45593999997E+02  0.45594000000E+02  0.51100000000E-03 0.  1.
    9900012    2    1    2    0    0  0.20620483890E+02 -0.20747818610E+02  0.32061612055E+02  0.47787270738E+02  0.19999998603E+02 0.  0.
        -12    1    1    2    0    0 -0.20620483890E+02  0.20747818610E+02 -0.32061612055E+02  0.43400729262E+02  0.00000000000E+00 0.  1.
         11    1    3    3    0    0  0.93126944495E+01 -0.20015107000E+02  0.15219424141E+02  0.26813460381E+02  0.51100000000E-03 0. -1.
        -11    1    3    3    0    0  0.41305393818E+00 -0.63201948338E+00  0.42757055330E+01  0.43418567744E+01  0.51100000000E-03 0.  1.
         12    1    3    3    0    0  0.10894735502E+02 -0.10069212635E+00  0.12566482381E+02  0.16631953583E+02  0.00000000000E+00 0. -1.
</event>
<event>
 7    1  0.2655656E-009  0.4778727E+02  0.7816164E-02  0.1312668E+00
        -11   -1    0    0    0    0  0.00000000000E+00  0.00000000000E+00  0.45593999997E+02  0.45594000000E+02  0.51100000000E-03 0. -1.
         11   -1    0    0    0    0 -0.00000000000E+00 -0.00000000000E+00 -0.45593999997E+02  0.45594000000E+02  0.51100000000E-03 0.  1.
    9900012    2    1    2    0    0  0.23244190114E+01 -0.43215878018E+02  0.32570388794E+01  0.47787270296E+02  0.19999996588E+02 0.  0.
        -12    1    1    2    0    0 -0.23244190114E+01  0.43215878018E+02 -0.32570388794E+01  0.43400729704E+02  0.00000000000E+00 0.  1.
         11    1    3    3    0    0  0.49053873591E+01 -0.31916841295E+02  0.25930079735E+01  0.32395544045E+02  0.51100000000E-03 0. -1.
        -11    1    3    3    0    0 -0.84077879746E+00  0.33149847882E-01 -0.31877862937E+01  0.32969667293E+01  0.51100000000E-03 0.  1.
         12    1    3    3    0    0 -0.17401895502E+01 -0.11332186571E+02  0.38518171996E+01  0.12094759522E+02  0.00000000000E+00 0. -1.
</event>
<event>
 7    1  0.2655656E-009  0.4778727E+02  0.7816164E-02  0.1312668E+00
        -11   -1    0    0    0    0  0.00000000000E+00  0.00000000000E+00  0.45593999997E+02  0.45594000000E+02  0.51100000000E-03 0. -1.
         11   -1    0    0    0    0 -0.00000000000E+00 -0.00000000000E+00 -0.45593999997E+02  0.45594000000E+02  0.51100000000E-03 0.  1.
    9900012    2    1    2    0    0  0.35628378146E+01 -0.64063697973E+01  0.42777186989E+02  0.47787272886E+02  0.20000008398E+02 0.  0.
        -12    1    1    2    0    0 -0.35628378146E+01  0.64063697973E+01 -0.42777186989E+02  0.43400727114E+02  0.00000000000E+00 0.  1.
         11    1    3    3    0    0  0.80321218538E+01  0.36391785149E+00  0.30227330566E+02  0.31278409983E+02  0.51100000000E-03 0. -1.
        -11    1    3    3    0    0 -0.53311468010E+01 -0.72203179782E+01  0.12672485849E+02  0.15528876835E+02  0.51100000000E-03 0.  1.
         12    1    3    3    0    0  0.86186276182E+00  0.45003032941E+00 -0.12262942493E+00  0.97998606800E+00  0.00000000000E+00 0. -1.
</event>
<event>
 7    1  0.2655656E-009  0.4778727E+02  0.7816164E-02  0.1312668E+00
        -11   -1    0    0    0    0  0.00000000000E+00  0.00000000000E+00  0.45593999997E+02  0.45594000000E+02  0.51100000000E-03 0.  1.
         11   -1    0    0    0    0 -0.00000000000E+00 -0.00000000000E+00 -0.45593999997E+02  0.45594000000E+02  0.51100000000E-03 0. -1.
    9900012    2    1    2    0    0 -0.24518925990E+02 -0.18198235507E+02 -0.30842660342E+02  0.47787271846E+02  0.20000003657E+02 0.  0.
        -12    1    1    2    0    0  0.24518925990E+02  0.18198235507E+02  0.30842660342E+02  0.43400728154E+02  0.00000000000E+00 0.  1.
         11    1    3    3    0    0 -0.14197842717E+02 -0.50731409362E+01 -0.18357993742E+02  0.23755661036E+02  0.51100000000E-03 0. -1.
        -11    1    3    3    0    0 -0.61363717349E+01 -0.71917757543E+01  0.15479146693E+00  0.94551920778E+01  0.51100000000E-03 0.  1.
        -12    1    3    3    0    0 -0.41847115385E+01 -0.59333188169E+01 -0.12639458067E+02  0.14576418732E+02  0.00000000000E+00 0.  1.
</event>
<event>
 7    1  0.2655656E-009  0.4778727E+02  0.7816164E-02  0.1312668E+00
        -11   -1    0    0    0    0  0.00000000000E+00  0.00000000000E+00  0.45593999997E+02  0.45594000000E+02  0.51100000000E-03 0.  1.
         11   -1    0    0    0    0 -0.00000000000E+00 -0.00000000000E+00 -0.45593999997E+02  0.45594000000E+02  0.51100000000E-03 0. -1.
    9900012    2    1    2    0    0  0.14723906960E+02 -0.30185211275E+02 -0.27489688484E+02  0.47787269720E+02  0.19999993961E+02 0.  0.
        -12    1    1    2    0    0 -0.14723906960E+02  0.30185211275E+02  0.27489688484E+02  0.43400730280E+02  0.00000000000E+00 0.  1.
         11    1    3    3    0    0  0.81958994202E+01 -0.11862049057E+02 -0.17699345726E+02  0.22828662128E+02  0.51100000000E-03 0. -1.
        -11    1    3    3    0    0 -0.56061318511E+00 -0.11773091821E+02 -0.87389877551E+00  0.11818784942E+02  0.51100000000E-03 0.  1.
         12    1    3    3    0    0  0.70886207252E+01 -0.65500703969E+01 -0.89164439823E+01  0.13139822650E+02  0.00000000000E+00 0. -1.
</event>
<event>
 7    1  0.2655656E-009  0.4778727E+02  0.7816164E-02  0.1312668E+00
        -11   -1    0    0    0    0  0.00000000000E+00  0.00000000000E+00  0.45593999997E+02  0.45594000000E+02  0.51100000000E-03 0.  1.
         11   -1    0    0    0    0 -0.00000000000E+00 -0.00000000000E+00 -0.45593999997E+02  0.45594000000E+02  0.51100000000E-03 0. -1.
    9900012    2    1    2    0    0  0.11533396306E+02  0.66899274912E+01 -0.41301925839E+02  0.47787269151E+02  0.19999991368E+02 0.  0.
        -12    1    1    2    0    0 -0.11533396306E+02 -0.66899274912E+01  0.41301925839E+02  0.43400730849E+02  0.00000000000E+00 0.  1.
         11    1    3    3    0    0  0.16602069230E+01  0.55763407495E+00 -0.23275532697E+02  0.23341329554E+02  0.51100000000E-03 0. -1.
        -11    1    3    3    0    0  0.95325118359E+00  0.33078551742E+01  0.69936314675E+00  0.35127913039E+01  0.51100000000E-03 0.  1.
        -12    1    3    3    0    0  0.89199381991E+01  0.28244382421E+01 -0.18725756289E+02  0.20933148293E+02  0.00000000000E+00 0.  1.
</event>
<event>
 7    1  0.2655656E-009  0.4778727E+02  0.7816164E-02  0.1312668E+00
        -11   -1    0    0    0    0  0.00000000000E+00  0.00000000000E+00  0.45593999997E+02  0.45594000000E+02  0.51100000000E-03 0. -1.
         11   -1    0    0    0    0 -0.00000000000E+00 -0.00000000000E+00 -0.45593999997E+02  0.45594000000E+02  0.51100000000E-03 0.  1.
    9900012    2    1    2    0    0  0.27825635760E+02 -0.11531233793E+02  0.31247205114E+02  0.47787272061E+02  0.20000004633E+02 0.  0.
        -12    1    1    2    0    0 -0.27825635760E+02  0.11531233793E+02 -0.31247205114E+02  0.43400727939E+02  0.00000000000E+00 0.  1.
         11    1    3    3    0    0  0.69452139699E+01 -0.11774742810E+02  0.17550857103E+02  0.22246643581E+02  0.51100000000E-03 0. -1.
        -11    1    3    3    0    0  0.14737579093E+02 -0.14604171671E+01  0.11658418287E+02  0.18848017749E+02  0.51100000000E-03 0.  1.
         12    1    3    3    0    0  0.61428426968E+01  0.17039261837E+01  0.20379297241E+01  0.66926107311E+01  0.00000000000E+00 0. -1.
</event>
<event>
 7    1  0.2655656E-009  0.4778727E+02  0.7816164E-02  0.1312668E+00
        -11   -1    0    0    0    0  0.00000000000E+00  0.00000000000E+00  0.45593999997E+02  0.45594000000E+02  0.51100000000E-03 0.  1.
         11   -1    0    0    0    0 -0.00000000000E+00 -0.00000000000E+00 -0.45593999997E+02  0.45594000000E+02  0.51100000000E-03 0. -1.
    9900012    2    1    2    0    0  0.63035800070E+01 -0.67885758387E+01 -0.42400513695E+02  0.47787269079E+02  0.19999991041E+02 0.  0.
        -12    1    1    2    0    0 -0.63035800070E+01  0.67885758387E+01  0.42400513695E+02  0.43400730921E+02  0.00000000000E+00 0.  1.
         11    1    3    3    0    0  0.40776918620E+01  0.42318209711E+01 -0.45869747779E+01  0.74549458433E+01  0.51100000000E-03 0. -1.
        -11    1    3    3    0    0  0.32662766341E+01 -0.81284359365E+01 -0.15467555584E+02  0.17775975636E+02  0.51100000000E-03 0.  1.
         12    1    3    3    0    0 -0.10403884891E+01 -0.28919608734E+01 -0.22345983333E+02  0.22556347600E+02  0.00000000000E+00 0. -1.
</event>
<event>
 7    1  0.2655656E-009  0.4778727E+02  0.7816164E-02  0.1312668E+00
        -11   -1    0    0    0    0  0.00000000000E+00  0.00000000000E+00  0.45593999997E+02  0.45594000000E+02  0.51100000000E-03 0.  1.
         11   -1    0    0    0    0 -0.00000000000E+00 -0.00000000000E+00 -0.45593999997E+02  0.45594000000E+02  0.51100000000E-03 0. -1.
    9900012    2    1    2    0    0  0.11254267239E+02  0.19490590916E+01 -0.41870823410E+02  0.47787271718E+02  0.20000003069E+02 0.  0.
        -12    1    1    2    0    0 -0.11254267239E+02 -0.19490590916E+01  0.41870823410E+02  0.43400728282E+02  0.00000000000E+00 0.  1.
         11    1    3    3    0    0  0.52529223315E+01 -0.45090446151E+01 -0.40848653477E+01  0.80380844442E+01  0.51100000000E-03 0. -1.
        -11    1    3    3    0    0  0.95240907577E+00 -0.91284006518E+00 -0.50493689316E+00  0.14125585154E+01  0.51100000000E-03 0.  1.
         12    1    3    3    0    0  0.50489358320E+01  0.73709437719E+01 -0.37281021169E+02  0.38336628758E+02  0.00000000000E+00 0. -1.
</event>
<event>
 7    1  0.2655656E-009  0.4778727E+02  0.7816164E-02  0.1312668E+00
        -11   -1    0    0    0    0  0.00000000000E+00  0.00000000000E+00  0.45593999997E+02  0.45594000000E+02  0.51100000000E-03 0.  1.
         11   -1    0    0    0    0 -0.00000000000E+00 -0.00000000000E+00 -0.45593999997E+02  0.45594000000E+02  0.51100000000E-03 0. -1.
    9900012    2    1    2    0    0  0.35176733419E+02  0.27360649038E+01  0.25273202267E+02  0.47787269844E+02  0.19999994529E+02 0.  0.
        -12    1    1    2    0    0 -0.35176733419E+02 -0.27360649038E+01 -0.25273202267E+02  0.43400730156E+02  0.00000000000E+00 0.  1.
         11    1    3    3    0    0  0.61587912181E+01  0.24983736869E+01 -0.41146792583E+00  0.66589703756E+01  0.51100000000E-03 0. -1.
        -11    1    3    3    0    0  0.71323242326E+01  0.58921061198E+01  0.99528531296E+01  0.13588460147E+02  0.51100000000E-03 0.  1.
         12    1    3    3    0    0  0.21885617968E+02 -0.56544149030E+01  0.15731817063E+02  0.27539839322E+02  0.00000000000E+00 0. -1.
</event>
<event>
 7    1  0.2655656E-009  0.4778727E+02  0.7816164E-02  0.1312668E+00
        -11   -1    0    0    0    0  0.00000000000E+00  0.00000000000E+00  0.45593999997E+02  0.45594000000E+02  0.51100000000E-03 0. -1.
         11   -1    0    0    0    0 -0.00000000000E+00 -0.00000000000E+00 -0.45593999997E+02  0.45594000000E+02  0.51100000000E-03 0.  1.
    9900012    2    1    2    0    0 -0.19902802613E+02 -0.74248382493E+01  0.37846706641E+02  0.47787274448E+02  0.20000015518E+02 0.  0.
        -12    1    1    2    0    0  0.19902802613E+02  0.74248382493E+01 -0.37846706641E+02  0.43400725552E+02  0.00000000000E+00 0.  1.
         11    1    3    3    0    0 -0.41154592871E+01  0.24593933508E+01  0.17063829298E+02  0.17724556168E+02  0.51100000000E-03 0. -1.
        -11    1    3    3    0    0 -0.16288399808E+02 -0.53732061939E+01  0.15759735425E+02  0.23292757974E+02  0.51100000000E-03 0.  1.
         12    1    3    3    0    0  0.50105648202E+00 -0.45110254062E+01  0.50231419182E+01  0.67699603060E+01  0.00000000000E+00 0. -1.
</event>
<event>
 7    1  0.2655656E-009  0.4778727E+02  0.7816164E-02  0.1312668E+00
        -11   -1    0    0    0    0  0.00000000000E+00  0.00000000000E+00  0.45593999997E+02  0.45594000000E+02  0.51100000000E-03 0.  1.
         11   -1    0    0    0    0 -0.00000000000E+00 -0.00000000000E+00 -0.45593999997E+02  0.45594000000E+02  0.51100000000E-03 0. -1.
    9900012    2    1    2    0    0  0.68288591935E+01  0.35294819315E+02 -0.24315958376E+02  0.47787269359E+02  0.19999992317E+02 0.  0.
        -12    1    1    2    0    0 -0.68288591935E+01 -0.35294819315E+02  0.24315958376E+02  0.43400730641E+02  0.00000000000E+00 0.  1.
         11    1    3    3    0    0  0.24403632412E+01  0.27079601258E+02 -0.15439529735E+02  0.31267223345E+02  0.51100000000E-03 0. -1.
        -11    1    3    3    0    0  0.54529599625E+01  0.34661772551E-01 -0.20974492942E+01  0.58425394816E+01  0.51100000000E-03 0.  1.
        -12    1    3    3    0    0 -0.10644640103E+01  0.81805562850E+01 -0.67789793472E+01  0.10677506533E+02  0.00000000000E+00 0.  1.
</event>
<event>
 7    1  0.2655656E-009  0.4778727E+02  0.7816164E-02  0.1312668E+00
        -11   -1    0    0    0    0  0.00000000000E+00  0.00000000000E+00  0.45593999997E+02  0.45594000000E+02  0.51100000000E-03 0.  1.
         11   -1    0    0    0    0 -0.00000000000E+00 -0.00000000000E+00 -0.45593999997E+02  0.45594000000E+02  0.51100000000E-03 0. -1.
    9900012    2    1    2    0    0  0.27693005697E+01  0.28793278262E+02  0.32355851191E+02  0.47787274142E+02  0.20000014122E+02 0.  0.
        -12    1    1    2    0    0 -0.27693005697E+01 -0.28793278262E+02 -0.32355851191E+02  0.43400725858E+02  0.00000000000E+00 0.  1.
         11    1    3    3    0    0  0.31734510737E+01  0.85987895442E+00 -0.59653157901E+00  0.33415615690E+01  0.51100000000E-03 0. -1.
        -11    1    3    3    0    0  0.40041109918E+00 -0.83157552492E+00  0.18853877218E+01  0.20991746056E+01  0.51100000000E-03 0.  1.
         12    1    3    3    0    0 -0.80456160323E+00  0.28764974833E+02  0.31066995048E+02  0.42346537967E+02  0.00000000000E+00 0. -1.
</event>
<event>
 7    1  0.2655656E-009  0.4778727E+02  0.7816164E-02  0.1312668E+00
        -11   -1    0    0    0    0  0.00000000000E+00  0.00000000000E+00  0.45593999997E+02  0.45594000000E+02  0.51100000000E-03 0.  1.
         11   -1    0    0    0    0 -0.00000000000E+00 -0.00000000000E+00 -0.45593999997E+02  0.45594000000E+02  0.51100000000E-03 0. -1.
    9900012    2    1    2    0    0  0.13069751062E+02  0.13078756690E+02 -0.39265137718E+02  0.47787270635E+02  0.19999998133E+02 0.  0.
        -12    1    1    2    0    0 -0.13069751062E+02 -0.13078756690E+02  0.39265137718E+02  0.43400729365E+02  0.00000000000E+00 0.  1.
         11    1    3    3    0    0  0.10044581771E+02  0.41590997587E+01 -0.13325185648E+02  0.17197450583E+02  0.51100000000E-03 0. -1.
        -11    1    3    3    0    0 -0.20759145627E+01  0.20151321005E+00 -0.16919160703E+02  0.17047229335E+02  0.51100000000E-03 0.  1.
        -12    1    3    3    0    0  0.51010838542E+01  0.87181437212E+01 -0.90207913675E+01  0.13542590717E+02  0.00000000000E+00 0.  1.
</event>
<event>
 7    1  0.2655656E-009  0.4778727E+02  0.7816164E-02  0.1312668E+00
        -11   -1    0    0    0    0  0.00000000000E+00  0.00000000000E+00  0.45593999997E+02  0.45594000000E+02  0.51100000000E-03 0.  1.
         11   -1    0    0    0    0 -0.00000000000E+00 -0.00000000000E+00 -0.45593999997E+02  0.45594000000E+02  0.51100000000E-03 0. -1.
    9900012    2    1    2    0    0  0.32655036022E+02  0.86757205355E+00  0.28574801580E+02  0.47787270234E+02  0.19999996304E+02 0.  0.
        -12    1    1    2    0    0 -0.32655036022E+02 -0.86757205355E+00 -0.28574801580E+02  0.43400729766E+02  0.00000000000E+00 0.  1.
         11    1    3    3    0    0  0.24024090857E+02  0.25586483840E+01  0.16415743569E+02  0.29209249567E+02  0.51100000000E-03 0. -1.
        -11    1    3    3    0    0  0.63549183972E-01  0.35225208999E+01  0.11981464216E+01  0.37212561183E+01  0.51100000000E-03 0.  1.
         12    1    3    3    0    0  0.85673959811E+01 -0.52135972304E+01  0.10960911590E+02  0.14856764549E+02  0.00000000000E+00 0. -1.
</event>
<event>
 7    1  0.2655656E-009  0.4778727E+02  0.7816164E-02  0.1312668E+00
        -11   -1    0    0    0    0  0.00000000000E+00  0.00000000000E+00  0.45593999997E+02  0.45594000000E+02  0.51100000000E-03 0.  1.
         11   -1    0    0    0    0 -0.00000000000E+00 -0.00000000000E+00 -0.45593999997E+02  0.45594000000E+02  0.51100000000E-03 0. -1.
    9900012    2    1    2    0    0 -0.39394962573E+02  0.17232439515E+02 -0.58909771356E+01  0.47787266603E+02  0.19999979750E+02 0.  0.
        -12    1    1    2    0    0  0.39394962573E+02 -0.17232439515E+02  0.58909771356E+01  0.43400733397E+02  0.00000000000E+00 0.  1.
         11    1    3    3    0    0 -0.36138182334E+02  0.15174570979E+02 -0.56859521106E+01  0.39605124397E+02  0.51100000000E-03 0. -1.
        -11    1    3    3    0    0 -0.19364972345E+01  0.86225756098E+00  0.34882211607E+01  0.40818129266E+01  0.51100000000E-03 0.  1.
        -12    1    3    3    0    0 -0.13202830045E+01  0.11956109751E+01 -0.36932461857E+01  0.41003292799E+01  0.00000000000E+00 0.  1.
</event>
<event>
 7    1  0.2655656E-009  0.4778727E+02  0.7816164E-02  0.1312668E+00
        -11   -1    0    0    0    0  0.00000000000E+00  0.00000000000E+00  0.45593999997E+02  0.45594000000E+02  0.51100000000E-03 0. -1.
         11   -1    0    0    0    0 -0.00000000000E+00 -0.00000000000E+00 -0.45593999997E+02  0.45594000000E+02  0.51100000000E-03 0.  1.
    9900012    2    1    2    0    0  0.26820648109E+02  0.29316354777E+02  0.17459312247E+02  0.47787269516E+02  0.19999993030E+02 0.  0.
        -12    1    1    2    0    0 -0.26820648109E+02 -0.29316354777E+02 -0.17459312247E+02  0.43400730484E+02  0.00000000000E+00 0.  1.
         11    1    3    3    0    0  0.26049676535E+02  0.28814774878E+02  0.18095824496E+02  0.42852488415E+02  0.51100000000E-03 0. -1.
        -11    1    3    3    0    0 -0.77550814677E+00 -0.17503129462E+01 -0.10314462165E+01  0.21746010793E+01  0.51100000000E-03 0.  1.
         12    1    3    3    0    0  0.15464797208E+01  0.22518928451E+01  0.39493396781E+00  0.27601800216E+01  0.00000000000E+00 0. -1.
</event>
<event>
 7    1  0.2655656E-009  0.4778727E+02  0.7816164E-02  0.1312668E+00
        -11   -1    0    0    0    0  0.00000000000E+00  0.00000000000E+00  0.45593999997E+02  0.45594000000E+02  0.51100000000E-03 0.  1.
         11   -1    0    0    0    0 -0.00000000000E+00 -0.00000000000E+00 -0.45593999997E+02  0.45594000000E+02  0.51100000000E-03 0. -1.
    9900012    2    1    2    0    0  0.27624248264E+02 -0.20034270443E+02 -0.26817014682E+02  0.47787270043E+02  0.19999995435E+02 0.  0.
        -12    1    1    2    0    0 -0.27624248264E+02  0.20034270443E+02  0.26817014682E+02  0.43400729957E+02  0.00000000000E+00 0.  1.
         11    1    3    3    0    0  0.11200906597E+02 -0.67107662806E+01 -0.53767361786E+01  0.14121047584E+02  0.51100000000E-03 0. -1.
        -11    1    3    3    0    0 -0.44230251851E-01 -0.18506475910E+00 -0.93995203947E+01  0.94014461223E+01  0.51100000000E-03 0.  1.
        -12    1    3    3    0    0  0.16467571919E+02 -0.13138439403E+02 -0.12040758109E+02  0.24264776337E+02  0.00000000000E+00 0.  1.
</event>
<event>
 7    1  0.2655656E-009  0.4778727E+02  0.7816164E-02  0.1312668E+00
        -11   -1    0    0    0    0  0.00000000000E+00  0.00000000000E+00  0.45593999997E+02  0.45594000000E+02  0.51100000000E-03 0. -1.
         11   -1    0    0    0    0 -0.00000000000E+00 -0.00000000000E+00 -0.45593999997E+02  0.45594000000E+02  0.51100000000E-03 0.  1.
    9900012    2    1    2    0    0 -0.41697591766E+02  0.12037494503E+02  0.18031993929E+00  0.47787274796E+02  0.20000017103E+02 0.  0.
        -12    1    1    2    0    0  0.41697591766E+02 -0.12037494503E+02 -0.18031993929E+00  0.43400725204E+02  0.00000000000E+00 0.  1.
         11    1    3    3    0    0 -0.21237400594E+02  0.13435614719E+02  0.29845302957E+01  0.25307120504E+02  0.51100000000E-03 0. -1.
        -11    1    3    3    0    0 -0.15275379992E+02 -0.36839288204E+01 -0.48673588483E+01  0.16449916348E+02  0.51100000000E-03 0.  1.
        -12    1    3    3    0    0 -0.51848111804E+01  0.22858086043E+01  0.20631484919E+01  0.60302379432E+01  0.00000000000E+00 0.  1.
</event>
<event>
 7    1  0.2655656E-009  0.4778727E+02  0.7816164E-02  0.1312668E+00
        -11   -1    0    0    0    0  0.00000000000E+00  0.00000000000E+00  0.45593999997E+02  0.45594000000E+02  0.51100000000E-03 0.  1.
         11   -1    0    0    0    0 -0.00000000000E+00 -0.00000000000E+00 -0.45593999997E+02  0.45594000000E+02  0.51100000000E-03 0. -1.
    9900012    2    1    2    0    0 -0.37282523883E+02 -0.19606245399E+02 -0.10451387453E+02  0.47787274829E+02  0.20000017255E+02 0.  0.
        -12    1    1    2    0    0  0.37282523883E+02  0.19606245399E+02  0.10451387453E+02  0.43400725171E+02  0.00000000000E+00 0.  1.
         11    1    3    3    0    0 -0.18730996471E+02 -0.18044773186E+02 -0.12538350807E+02  0.28873418733E+02  0.51100000000E-03 0. -1.
        -11    1    3    3    0    0 -0.10874848398E+02  0.37136436183E+00  0.11160443584E+01  0.10938272004E+02  0.51100000000E-03 0.  1.
         12    1    3    3    0    0 -0.76766790130E+01 -0.19328365750E+01  0.97091899609E+00  0.79755840909E+01  0.00000000000E+00 0. -1.
</event>
<event>
 7    1  0.2655656E-009  0.4778727E+02  0.7816164E-02  0.1312668E+00
        -11   -1    0    0    0    0  0.00000000000E+00  0.00000000000E+00  0.45593999997E+02  0.45594000000E+02  0.51100000000E-03 0. -1.
         11   -1    0    0    0    0 -0.00000000000E+00 -0.00000000000E+00 -0.45593999997E+02  0.45594000000E+02  0.51100000000E-03 0.  1.
    9900012    2    1    2    0    0 -0.10846785380E+02  0.38649799687E+02  0.16497378645E+02  0.47787271076E+02  0.20000000146E+02 0.  0.
        -12    1    1    2    0    0  0.10846785380E+02 -0.38649799687E+02 -0.16497378645E+02  0.43400728924E+02  0.00000000000E+00 0.  1.
         11    1    3    3    0    0 -0.44805968961E+00  0.23860477026E+02  0.15932717933E+02  0.28694505090E+02  0.51100000000E-03 0. -1.
        -11    1    3    3    0    0 -0.62029490699E+01  0.40001127778E+01 -0.85272082521E+00  0.74299806504E+01  0.51100000000E-03 0.  1.
         12    1    3    3    0    0 -0.41957766209E+01  0.10789209884E+02  0.14173815369E+01  0.11662785336E+02  0.00000000000E+00 0. -1.
</event>
<event>
 7    1  0.2655656E-009  0.4778727E+02  0.7816164E-02  0.1312668E+00
        -11   -1    0    0    0    0  0.00000000000E+00  0.00000000000E+00  0.45593999997E+02  0.45594000000E+02  0.51100000000E-03 0. -1.
         11   -1    0    0    0    0 -0.00000000000E+00 -0.00000000000E+00 -0.45593999997E+02  0.45594000000E+02  0.51100000000E-03 0.  1.
    9900012    2    1    2    0    0 -0.42505381874E+02 -0.51667984259E+01  0.70865886837E+01  0.47787273815E+02  0.20000012630E+02 0.  0.
        -12    1    1    2    0    0  0.42505381874E+02  0.51667984259E+01 -0.70865886837E+01  0.43400726185E+02  0.00000000000E+00 0.  1.
         11    1    3    3    0    0 -0.10440527122E+02 -0.16238456958E+01 -0.47372362308E+01  0.11579416600E+02  0.51100000000E-03 0.  1.
        -11    1    3    3    0    0 -0.18046646009E+02 -0.55360185668E+01  0.11380189342E+02  0.22041725057E+02  0.51100000000E-03 0. -1.
         12    1    3    3    0    0 -0.14018208743E+02  0.19930658366E+01  0.44363557233E+00  0.14166132158E+02  0.00000000000E+00 0. -1.
</event>
<event>
 7    1  0.2655656E-009  0.4778727E+02  0.7816164E-02  0.1312668E+00
        -11   -1    0    0    0    0  0.00000000000E+00  0.00000000000E+00  0.45593999997E+02  0.45594000000E+02  0.51100000000E-03 0.  1.
         11   -1    0    0    0    0 -0.00000000000E+00 -0.00000000000E+00 -0.45593999997E+02  0.45594000000E+02  0.51100000000E-03 0. -1.
    9900012    2    1    2    0    0  0.47918324774E+01 -0.40230592398E+02  0.15561522963E+02  0.47787271664E+02  0.20000002823E+02 0.  0.
        -12    1    1    2    0    0 -0.47918324774E+01  0.40230592398E+02 -0.15561522963E+02  0.43400728336E+02  0.00000000000E+00 0.  1.
         11    1    3    3    0    0  0.10744808570E+02 -0.14399816170E+02  0.58936508260E+01  0.18908747638E+02  0.51100000000E-03 0. -1.
        -11    1    3    3    0    0 -0.40330573834E+01 -0.20663598973E+02  0.49611412388E+01  0.21630136316E+02  0.51100000000E-03 0.  1.
        -12    1    3    3    0    0 -0.19199187095E+01 -0.51671772551E+01  0.47067308984E+01  0.72483877095E+01  0.00000000000E+00 0.  1.
</event>
<event>
 7    1  0.2655656E-009  0.4778727E+02  0.7816164E-02  0.1312668E+00
        -11   -1    0    0    0    0  0.00000000000E+00  0.00000000000E+00  0.45593999997E+02  0.45594000000E+02  0.51100000000E-03 0. -1.
         11   -1    0    0    0    0 -0.00000000000E+00 -0.00000000000E+00 -0.45593999997E+02  0.45594000000E+02  0.51100000000E-03 0.  1.
    9900012    2    1    2    0    0 -0.39070000193E+02 -0.12891222787E+02  0.13819363687E+02  0.47787270136E+02  0.19999995857E+02 0.  0.
        -12    1    1    2    0    0  0.39070000193E+02  0.12891222787E+02 -0.13819363687E+02  0.43400729864E+02  0.00000000000E+00 0.  1.
         11    1    3    3    0    0 -0.24002857700E+02 -0.13408483066E+01  0.57182588116E+01  0.24711000304E+02  0.51100000000E-03 0. -1.
        -11    1    3    3    0    0 -0.12224041242E+02 -0.10668981772E+02  0.20777974401E+01  0.16357615927E+02  0.51100000000E-03 0.  1.
         12    1    3    3    0    0 -0.28431012515E+01 -0.88139270813E+00  0.60233074352E+01  0.67186539047E+01  0.00000000000E+00 0. -1.
</event>
<event>
 7    1  0.2655656E-009  0.4778727E+02  0.7816164E-02  0.1312668E+00
        -11   -1    0    0    0    0  0.00000000000E+00  0.00000000000E+00  0.45593999997E+02  0.45594000000E+02  0.51100000000E-03 0.  1.
         11   -1    0    0    0    0 -0.00000000000E+00 -0.00000000000E+00 -0.45593999997E+02  0.45594000000E+02  0.51100000000E-03 0. -1.
    9900012    2    1    2    0    0 -0.17160005885E+01  0.19895646657E+01 -0.43321127523E+02  0.47787272870E+02  0.20000008323E+02 0.  0.
        -12    1    1    2    0    0  0.17160005885E+01 -0.19895646657E+01  0.43321127523E+02  0.43400727130E+02  0.00000000000E+00 0.  1.
         11    1    3    3    0    0 -0.53362613697E+01 -0.36089533451E+01 -0.35993719563E+02  0.36565668022E+02  0.51100000000E-03 0. -1.
        -11    1    3    3    0    0  0.30020187475E+01  0.80600612194E+00 -0.10106696851E+01  0.32685189157E+01  0.51100000000E-03 0.  1.
         12    1    3    3    0    0  0.61824203369E+00  0.47925118889E+01 -0.63167382748E+01  0.79530859325E+01  0.00000000000E+00 0. -1.
</event>
<event>
 7    1  0.2655656E-009  0.4778727E+02  0.7816164E-02  0.1312668E+00
        -11   -1    0    0    0    0  0.00000000000E+00  0.00000000000E+00  0.45593999997E+02  0.45594000000E+02  0.51100000000E-03 0.  1.
         11   -1    0    0    0    0 -0.00000000000E+00 -0.00000000000E+00 -0.45593999997E+02  0.45594000000E+02  0.51100000000E-03 0. -1.
    9900012    2    1    2    0    0 -0.27895441203E+02  0.27016797679E+02  0.19379378880E+02  0.47787270484E+02  0.19999997447E+02 0.  0.
        -12    1    1    2    0    0  0.27895441203E+02 -0.27016797679E+02 -0.19379378880E+02  0.43400729516E+02  0.00000000000E+00 0.  1.
         11    1    3    3    0    0 -0.20843863766E+02  0.21376602222E+02  0.47010169287E+01  0.30224581713E+02  0.51100000000E-03 0. -1.
        -11    1    3    3    0    0 -0.57950978301E+01  0.57002099934E+01  0.13841370202E+02  0.16051762588E+02  0.51100000000E-03 0.  1.
         12    1    3    3    0    0 -0.12564796063E+01 -0.60014537029E-01  0.83699174946E+00  0.15109261843E+01  0.00000000000E+00 0. -1.
</event>
<event>
 7    1  0.2655656E-009  0.4778727E+02  0.7816164E-02  0.1312668E+00
        -11   -1    0    0    0    0  0.00000000000E+00  0.00000000000E+00  0.45593999997E+02  0.45594000000E+02  0.51100000000E-03 0.  1.
         11   -1    0    0    0    0 -0.00000000000E+00 -0.00000000000E+00 -0.45593999997E+02  0.45594000000E+02  0.51100000000E-03 0. -1.
    9900012    2    1    2    0    0 -0.22712595975E+02 -0.34183991719E+02 -0.14114388644E+02  0.47787271060E+02  0.20000000072E+02 0.  0.
        -12    1    1    2    0    0  0.22712595975E+02  0.34183991719E+02  0.14114388644E+02  0.43400728940E+02  0.00000000000E+00 0.  1.
         11    1    3    3    0    0 -0.14522927134E+02 -0.85011409844E+01 -0.45392010720E+01  0.17429548393E+02  0.51100000000E-03 0. -1.
        -11    1    3    3    0    0 -0.17370813481E+01 -0.63156294481E+00 -0.32307890365E+01  0.37221393610E+01  0.51100000000E-03 0.  1.
         12    1    3    3    0    0 -0.64525874929E+01 -0.25051287789E+02 -0.63443985351E+01  0.26635583306E+02  0.00000000000E+00 0. -1.
</event>
<event>
 7    1  0.2655656E-009  0.4778727E+02  0.7816164E-02  0.1312668E+00
        -11   -1    0    0    0    0  0.00000000000E+00  0.00000000000E+00  0.45593999997E+02  0.45594000000E+02  0.51100000000E-03 0. -1.
         11   -1    0    0    0    0 -0.00000000000E+00 -0.00000000000E+00 -0.45593999997E+02  0.45594000000E+02  0.51100000000E-03 0.  1.
    9900012    2    1    2    0    0 -0.21179272443E+02 -0.36129012347E+02 -0.11391074636E+02  0.47787266185E+02  0.19999977842E+02 0.  0.
        -12    1    1    2    0    0  0.21179272443E+02  0.36129012347E+02  0.11391074636E+02  0.43400733815E+02  0.00000000000E+00 0.  1.
         11    1    3    3    0    0 -0.75073962503E+01 -0.58292345868E+01 -0.32308666853E+01  0.10038898053E+02  0.51100000000E-03 0. -1.
        -11    1    3    3    0    0 -0.44810823720E+01 -0.25315209797E+02 -0.24241002172E+01  0.25822784676E+02  0.51100000000E-03 0.  1.
        -12    1    3    3    0    0 -0.91907938202E+01 -0.49845679629E+01 -0.57361077332E+01  0.11925583455E+02  0.00000000000E+00 0.  1.
</event>
<event>
 7    1  0.2655656E-009  0.4778727E+02  0.7816164E-02  0.1312668E+00
        -11   -1    0    0    0    0  0.00000000000E+00  0.00000000000E+00  0.45593999997E+02  0.45594000000E+02  0.51100000000E-03 0.  1.
         11   -1    0    0    0    0 -0.00000000000E+00 -0.00000000000E+00 -0.45593999997E+02  0.45594000000E+02  0.51100000000E-03 0. -1.
    9900012    2    1    2    0    0 -0.41964552630E+02  0.95648877700E+01 -0.55778435701E+01  0.47787273113E+02  0.20000009430E+02 0.  0.
        -12    1    1    2    0    0  0.41964552630E+02 -0.95648877700E+01  0.55778435701E+01  0.43400726887E+02  0.00000000000E+00 0.  1.
         11    1    3    3    0    0 -0.53665725914E+01  0.81414916915E+01 -0.36640120234E+01  0.10416764023E+02  0.51100000000E-03 0.  1.
        -11    1    3    3    0    0 -0.33285562221E+02  0.34063032050E+01 -0.16139112678E+01  0.33498302401E+02  0.51100000000E-03 0. -1.
         12    1    3    3    0    0 -0.33124178170E+01 -0.19829071265E+01 -0.29992027891E+00  0.38722066887E+01  0.00000000000E+00 0. -1.
</event>
<event>
 7    1  0.2655656E-009  0.4778727E+02  0.7816164E-02  0.1312668E+00
        -11   -1    0    0    0    0  0.00000000000E+00  0.00000000000E+00  0.45593999997E+02  0.45594000000E+02  0.51100000000E-03 0.  1.
         11   -1    0    0    0    0 -0.00000000000E+00 -0.00000000000E+00 -0.45593999997E+02  0.45594000000E+02  0.51100000000E-03 0. -1.
    9900012    2    1    2    0    0  0.17706442397E+02 -0.86742608611E+01 -0.38663451876E+02  0.47787269421E+02  0.19999992599E+02 0.  0.
        -12    1    1    2    0    0 -0.17706442397E+02  0.86742608611E+01  0.38663451876E+02  0.43400730579E+02  0.00000000000E+00 0.  1.
         11    1    3    3    0    0  0.19204203774E+01 -0.19950960468E+01 -0.62281661794E+01  0.68160455457E+01  0.51100000000E-03 0. -1.
        -11    1    3    3    0    0  0.72012292513E+01 -0.12170508631E+02 -0.23454667842E+02  0.27387961350E+02  0.51100000000E-03 0.  1.
        -12    1    3    3    0    0  0.85847927681E+01  0.54913438169E+01 -0.89806178541E+01  0.13583262525E+02  0.00000000000E+00 0.  1.
</event>
<event>
 7    1  0.2655656E-009  0.4778725E+02  0.7816164E-02  0.1312668E+00
        -11   -1    0    0    0    0  0.00000000000E+00  0.00000000000E+00  0.45593999997E+02  0.45594000000E+02  0.51100000000E-03 0. -1.
         11   -1    0    0    0    0 -0.00000000000E+00 -0.00000000000E+00 -0.45593999997E+02  0.45594000000E+02  0.51100000000E-03 0.  1.
    9900012    2    1    2    0    0 -0.26010606748E+02  0.21285397137E+02  0.27459151411E+02  0.47787253567E+02  0.19999920314E+02 0.  0.
        -12    1    1    2    0    0  0.26010606748E+02 -0.21285397137E+02 -0.27459151411E+02  0.43400746433E+02  0.00000000000E+00 0.  1.
         11    1    3    3    0    0 -0.21602982639E+02  0.15966103590E+02  0.16535079997E+02  0.31543845572E+02  0.51100000000E-03 0. -1.
        -11    1    3    3    0    0 -0.27263200470E+01 -0.27324836017E+00 -0.10395655949E+01  0.29305601089E+01  0.51100000000E-03 0.  1.
         12    1    3    3    0    0 -0.16813040627E+01  0.55925419069E+01  0.11963637010E+02  0.13312847886E+02  0.00000000000E+00 0. -1.
</event>
<event>
 7    1  0.2655656E-009  0.4778727E+02  0.7816164E-02  0.1312668E+00
        -11   -1    0    0    0    0  0.00000000000E+00  0.00000000000E+00  0.45593999997E+02  0.45594000000E+02  0.51100000000E-03 0.  1.
         11   -1    0    0    0    0 -0.00000000000E+00 -0.00000000000E+00 -0.45593999997E+02  0.45594000000E+02  0.51100000000E-03 0. -1.
    9900012    2    1    2    0    0 -0.31639538994E+02  0.44366851884E+01 -0.29374799705E+02  0.47787268890E+02  0.19999990176E+02 0.  0.
        -12    1    1    2    0    0  0.31639538994E+02 -0.44366851884E+01  0.29374799705E+02  0.43400731110E+02  0.00000000000E+00 0.  1.
         11    1    3    3    0    0 -0.67153395597E+01  0.37844244118E+01  0.75599948396E+00  0.77452688147E+01  0.51100000000E-03 0. -1.
        -11    1    3    3    0    0 -0.10718406382E+02  0.95579601514E+00 -0.19586715542E+02  0.22348091806E+02  0.51100000000E-03 0.  1.
        -12    1    3    3    0    0 -0.14205793052E+02 -0.30353523845E+00 -0.10544083647E+02  0.17693908269E+02  0.00000000000E+00 0.  1.
</event>
<event>
 7    1  0.2655656E-009  0.4778727E+02  0.7816164E-02  0.1312668E+00
        -11   -1    0    0    0    0  0.00000000000E+00  0.00000000000E+00  0.45593999997E+02  0.45594000000E+02  0.51100000000E-03 0.  1.
         11   -1    0    0    0    0 -0.00000000000E+00 -0.00000000000E+00 -0.45593999997E+02  0.45594000000E+02  0.51100000000E-03 0. -1.
    9900012    2    1    2    0    0  0.29913719755E+02  0.18296934501E+02 -0.25573716435E+02  0.47787269430E+02  0.19999992639E+02 0.  0.
        -12    1    1    2    0    0 -0.29913719755E+02 -0.18296934501E+02  0.25573716435E+02  0.43400730570E+02  0.00000000000E+00 0.  1.
         11    1    3    3    0    0  0.88543070859E+01  0.83269834357E+01 -0.13392563822E+02  0.18085855609E+02  0.51100000000E-03 0. -1.
        -11    1    3    3    0    0  0.99592116785E+01  0.97282947869E+01 -0.10217237416E+01  0.13959567915E+02  0.51100000000E-03 0.  1.
         12    1    3    3    0    0  0.11100200990E+02  0.24165627869E+00 -0.11159428871E+02  0.15741845906E+02  0.00000000000E+00 0. -1.
</event>
<event>
 7    1  0.2655656E-009  0.4778727E+02  0.7816164E-02  0.1312668E+00
        -11   -1    0    0    0    0  0.00000000000E+00  0.00000000000E+00  0.45593999997E+02  0.45594000000E+02  0.51100000000E-03 0. -1.
         11   -1    0    0    0    0 -0.00000000000E+00 -0.00000000000E+00 -0.45593999997E+02  0.45594000000E+02  0.51100000000E-03 0.  1.
    9900012    2    1    2    0    0 -0.42490280141E+02  0.50183060701E+01 -0.72812077211E+01  0.47787270880E+02  0.19999999252E+02 0.  0.
        -12    1    1    2    0    0  0.42490280141E+02 -0.50183060701E+01  0.72812077211E+01  0.43400729120E+02  0.00000000000E+00 0.  1.
         11    1    3    3    0    0 -0.25200817603E+02  0.10636041494E+02 -0.72253268216E+01  0.28291552351E+02  0.51100000000E-03 0.  1.
        -11    1    3    3    0    0 -0.18181015869E+01 -0.34140732724E+01 -0.39554040368E-01  0.38681978327E+01  0.51100000000E-03 0. -1.
         12    1    3    3    0    0 -0.15471360951E+02 -0.22036621510E+01 -0.16326859088E-01  0.15627520696E+02  0.00000000000E+00 0. -1.
</event>
<event>
 7    1  0.2655656E-009  0.4778726E+02  0.7816164E-02  0.1312668E+00
        -11   -1    0    0    0    0  0.00000000000E+00  0.00000000000E+00  0.45593999997E+02  0.45594000000E+02  0.51100000000E-03 0. -1.
         11   -1    0    0    0    0 -0.00000000000E+00 -0.00000000000E+00 -0.45593999997E+02  0.45594000000E+02  0.51100000000E-03 0.  1.
    9900012    2    1    2    0    0 -0.16590642483E+02  0.33021203336E+02  0.22759054932E+02  0.47787264187E+02  0.19999968733E+02 0.  0.
        -12    1    1    2    0    0  0.16590642483E+02 -0.33021203336E+02 -0.22759054932E+02  0.43400735813E+02  0.00000000000E+00 0.  1.
         11    1    3    3    0    0 -0.42161085298E+01  0.11699604700E+02  0.49156120733E+01  0.13372343235E+02  0.51100000000E-03 0. -1.
        -11    1    3    3    0    0 -0.91014806038E+00 -0.19621752771E+01  0.50208654190E+01  0.54669544654E+01  0.51100000000E-03 0.  1.
        -12    1    3    3    0    0 -0.11464385893E+02  0.23283773913E+02  0.12822577439E+02  0.28947966487E+02  0.00000000000E+00 0.  1.
</event>
<event>
 7    1  0.2655656E-009  0.4778727E+02  0.7816164E-02  0.1312668E+00
        -11   -1    0    0    0    0  0.00000000000E+00  0.00000000000E+00  0.45593999997E+02  0.45594000000E+02  0.51100000000E-03 0.  1.
         11   -1    0    0    0    0 -0.00000000000E+00 -0.00000000000E+00 -0.45593999997E+02  0.45594000000E+02  0.51100000000E-03 0. -1.
    9900012    2    1    2    0    0 -0.12059452711E+02 -0.41419248902E+02 -0.47579786695E+01  0.47787274887E+02  0.20000017522E+02 0.  0.
        -12    1    1    2    0    0  0.12059452711E+02  0.41419248902E+02  0.47579786695E+01  0.43400725113E+02  0.00000000000E+00 0.  1.
         11    1    3    3    0    0 -0.13735347243E+02 -0.24897338765E+02  0.12422383297E+01  0.28461911352E+02  0.51100000000E-03 0. -1.
        -11    1    3    3    0    0 -0.49268671961E+00 -0.14425875269E+02 -0.71369009173E+01  0.16102297117E+02  0.51100000000E-03 0.  1.
        -12    1    3    3    0    0  0.21685812514E+01 -0.20960348679E+01  0.11366839180E+01  0.32230664189E+01  0.00000000000E+00 0.  1.
</event>
<event>
 7    1  0.2655656E-009  0.4778727E+02  0.7816164E-02  0.1312668E+00
        -11   -1    0    0    0    0  0.00000000000E+00  0.00000000000E+00  0.45593999997E+02  0.45594000000E+02  0.51100000000E-03 0.  1.
         11   -1    0    0    0    0 -0.00000000000E+00 -0.00000000000E+00 -0.45593999997E+02  0.45594000000E+02  0.51100000000E-03 0. -1.
    9900012    2    1    2    0    0 -0.15925608258E+02 -0.39059189870E+02 -0.10216550761E+02  0.47787271652E+02  0.20000002771E+02 0.  0.
        -12    1    1    2    0    0  0.15925608258E+02  0.39059189870E+02  0.10216550761E+02  0.43400728348E+02  0.00000000000E+00 0.  1.
         11    1    3    3    0    0 -0.23115724633E+01 -0.11140877989E+02 -0.78033380525E+01  0.13796905981E+02  0.51100000000E-03 0. -1.
        -11    1    3    3    0    0 -0.24882629399E+01 -0.93121645469E+01  0.52759138104E+01  0.10988317788E+02  0.51100000000E-03 0.  1.
        -12    1    3    3    0    0 -0.11125772855E+02 -0.18606147334E+02 -0.76891265184E+01  0.23002047884E+02  0.00000000000E+00 0.  1.
</event>
<event>
 7    1  0.2655656E-009  0.4778725E+02  0.7816164E-02  0.1312668E+00
        -11   -1    0    0    0    0  0.00000000000E+00  0.00000000000E+00  0.45593999997E+02  0.45594000000E+02  0.51100000000E-03 0.  1.
         11   -1    0    0    0    0 -0.00000000000E+00 -0.00000000000E+00 -0.45593999997E+02  0.45594000000E+02  0.51100000000E-03 0. -1.
    9900012    2    1    2    0    0  0.16086787205E+02 -0.80659911306E+01 -0.39494051263E+02  0.47787250921E+02  0.19999908247E+02 0.  0.
        -12    1    1    2    0    0 -0.16086787205E+02  0.80659911306E+01  0.39494051263E+02  0.43400749079E+02  0.00000000000E+00 0.  1.
         11    1    3    3    0    0  0.57916165987E+01  0.26922075435E+01 -0.24471963767E+01  0.68395595363E+01  0.51100000000E-03 0. -1.
        -11    1    3    3    0    0 -0.59221922308E+00 -0.11841145983E+01 -0.18457334346E+00  0.13367567357E+01  0.51100000000E-03 0.  1.
         12    1    3    3    0    0  0.10887389829E+02 -0.95740840758E+01 -0.36862281543E+02  0.39610934649E+02  0.00000000000E+00 0. -1.
</event>
<event>
 7    1  0.2655656E-009  0.4778727E+02  0.7816164E-02  0.1312668E+00
        -11   -1    0    0    0    0  0.00000000000E+00  0.00000000000E+00  0.45593999997E+02  0.45594000000E+02  0.51100000000E-03 0. -1.
         11   -1    0    0    0    0 -0.00000000000E+00 -0.00000000000E+00 -0.45593999997E+02  0.45594000000E+02  0.51100000000E-03 0.  1.
    9900012    2    1    2    0    0  0.14657816856E+02  0.25931477764E+02  0.31564696858E+02  0.47787271645E+02  0.20000002737E+02 0.  0.
        -12    1    1    2    0    0 -0.14657816856E+02 -0.25931477764E+02 -0.31564696858E+02  0.43400728355E+02  0.00000000000E+00 0.  1.
         11    1    3    3    0    0  0.11974660415E+02  0.17366554708E+02  0.26313383570E+02  0.33725122233E+02  0.51100000000E-03 0. -1.
        -11    1    3    3    0    0  0.61516059197E+00  0.13949434090E+01  0.63401536302E+01  0.65208770870E+01  0.51100000000E-03 0.  1.
         12    1    3    3    0    0  0.20679958497E+01  0.71699796479E+01 -0.10888403423E+01  0.75412723248E+01  0.00000000000E+00 0. -1.
</event>
<event>
 7    1  0.2655656E-009  0.4778726E+02  0.7816164E-02  0.1312668E+00
        -11   -1    0    0    0    0  0.00000000000E+00  0.00000000000E+00  0.45593999997E+02  0.45594000000E+02  0.51100000000E-03 0. -1.
         11   -1    0    0    0    0 -0.00000000000E+00 -0.00000000000E+00 -0.45593999997E+02  0.45594000000E+02  0.51100000000E-03 0.  1.
    9900012    2    1    2    0    0 -0.21841654839E+02 -0.35504346049E+02  0.12083366705E+02  0.47787260083E+02  0.19999950022E+02 0.  0.
        -12    1    1    2    0    0  0.21841654839E+02  0.35504346049E+02 -0.12083366705E+02  0.43400739917E+02  0.00000000000E+00 0.  1.
         11    1    3    3    0    0 -0.10159703761E+02 -0.10330389875E+02  0.33514015886E+01  0.14871732526E+02  0.51100000000E-03 0. -1.
        -11    1    3    3    0    0 -0.18115522986E+00 -0.18013193612E+02  0.32721721988E+01  0.18308879608E+02  0.51100000000E-03 0.  1.
        -12    1    3    3    0    0 -0.11500795848E+02 -0.71607625620E+01  0.54597929174E+01  0.14606647949E+02  0.00000000000E+00 0.  1.
</event>
<event>
 7    1  0.2655656E-009  0.4778729E+02  0.7816164E-02  0.1312668E+00
        -11   -1    0    0    0    0  0.00000000000E+00  0.00000000000E+00  0.45593999997E+02  0.45594000000E+02  0.51100000000E-03 0.  1.
         11   -1    0    0    0    0 -0.00000000000E+00 -0.00000000000E+00 -0.45593999997E+02  0.45594000000E+02  0.51100000000E-03 0. -1.
    9900012    2    1    2    0    0  0.27198384161E+02 -0.19321054554E+02 -0.27759082815E+02  0.47787286541E+02  0.20000070655E+02 0.  0.
        -12    1    1    2    0    0 -0.27198384161E+02  0.19321054554E+02  0.27759082815E+02  0.43400713459E+02  0.00000000000E+00 0.  1.
         11    1    3    3    0    0  0.10003127779E+02 -0.43472252886E+01 -0.10075498657E+02  0.14848454684E+02  0.51100000000E-03 0. -1.
        -11    1    3    3    0    0  0.22977395689E+01  0.33320420907E+01 -0.38261574681E+01  0.55697031206E+01  0.51100000000E-03 0.  1.
        -12    1    3    3    0    0  0.14897516813E+02 -0.18305871356E+02 -0.13857426690E+02  0.27369128736E+02  0.00000000000E+00 0.  1.
</event>
<event>
 7    1  0.2655656E-009  0.4778727E+02  0.7816164E-02  0.1312668E+00
        -11   -1    0    0    0    0  0.00000000000E+00  0.00000000000E+00  0.45593999997E+02  0.45594000000E+02  0.51100000000E-03 0. -1.
         11   -1    0    0    0    0 -0.00000000000E+00 -0.00000000000E+00 -0.45593999997E+02  0.45594000000E+02  0.51100000000E-03 0.  1.
    9900012    2    1    2    0    0  0.31829570024E+02 -0.10371193855E+02  0.27621371360E+02  0.47787270217E+02  0.19999996225E+02 0.  0.
        -12    1    1    2    0    0 -0.31829570024E+02  0.10371193855E+02 -0.27621371360E+02  0.43400729783E+02  0.00000000000E+00 0.  1.
         11    1    3    3    0    0 -0.15726226729E+01  0.13528139656E+01  0.45590323017E+01  0.50087946141E+01  0.51100000000E-03 0. -1.
        -11    1    3    3    0    0 -0.21824734404E+00 -0.30427178553E+00 -0.96317298985E-01  0.38664002102E+00  0.51100000000E-03 0.  1.
         12    1    3    3    0    0  0.33620440041E+02 -0.11419736035E+02  0.23158656358E+02  0.42391835581E+02  0.00000000000E+00 0. -1.
</event>
<event>
 7    1  0.2655656E-009  0.4778728E+02  0.7816164E-02  0.1312668E+00
        -11   -1    0    0    0    0  0.00000000000E+00  0.00000000000E+00  0.45593999997E+02  0.45594000000E+02  0.51100000000E-03 0. -1.
         11   -1    0    0    0    0 -0.00000000000E+00 -0.00000000000E+00 -0.45593999997E+02  0.45594000000E+02  0.51100000000E-03 0.  1.
    9900012    2    1    2    0    0 -0.35350071497E+02  0.14776173101E+02  0.20387740596E+02  0.47787276355E+02  0.20000024212E+02 0.  0.
        -12    1    1    2    0    0  0.35350071497E+02 -0.14776173101E+02 -0.20387740596E+02  0.43400723645E+02  0.00000000000E+00 0.  1.
         11    1    3    3    0    0 -0.49058927835E+01  0.35744601995E+01  0.25641759537E+01  0.65893511291E+01  0.51100000000E-03 0. -1.
        -11    1    3    3    0    0 -0.27715194127E+02  0.64633626381E+01  0.73653781471E+01  0.29396527645E+02  0.51100000000E-03 0.  1.
        -12    1    3    3    0    0 -0.27289845866E+01  0.47383502631E+01  0.10458186495E+02  0.11801397580E+02  0.00000000000E+00 0.  1.
</event>
<event>
 7    1  0.2655656E-009  0.4778727E+02  0.7816164E-02  0.1312668E+00
        -11   -1    0    0    0    0  0.00000000000E+00  0.00000000000E+00  0.45593999997E+02  0.45594000000E+02  0.51100000000E-03 0.  1.
         11   -1    0    0    0    0 -0.00000000000E+00 -0.00000000000E+00 -0.45593999997E+02  0.45594000000E+02  0.51100000000E-03 0. -1.
    9900012    2    1    2    0    0  0.18061436274E+02 -0.16901776701E+02 -0.35661432708E+02  0.47787270528E+02  0.19999997643E+02 0.  0.
        -12    1    1    2    0    0 -0.18061436274E+02  0.16901776701E+02  0.35661432708E+02  0.43400729472E+02  0.00000000000E+00 0.  1.
         11    1    3    3    0    0  0.19076842284E+02 -0.12407691862E+02 -0.26142097766E+02  0.34659573060E+02  0.51100000000E-03 0. -1.
        -11    1    3    3    0    0  0.33983860147E+01 -0.23446269557E+01 -0.42192672888E+01  0.59032634858E+01  0.51100000000E-03 0.  1.
         12    1    3    3    0    0 -0.44137920240E+01 -0.21494578837E+01 -0.53000676536E+01  0.72244339818E+01  0.00000000000E+00 0. -1.
</event>
<event>
 7    1  0.2655656E-009  0.4778727E+02  0.7816164E-02  0.1312668E+00
        -11   -1    0    0    0    0  0.00000000000E+00  0.00000000000E+00  0.45593999997E+02  0.45594000000E+02  0.51100000000E-03 0. -1.
         11   -1    0    0    0    0 -0.00000000000E+00 -0.00000000000E+00 -0.45593999997E+02  0.45594000000E+02  0.51100000000E-03 0.  1.
    9900012    2    1    2    0    0  0.26329681106E+02 -0.34501297973E+02 -0.17744209425E+00  0.47787272418E+02  0.20000006261E+02 0.  0.
        -12    1    1    2    0    0 -0.26329681106E+02  0.34501297973E+02  0.17744209425E+00  0.43400727582E+02  0.00000000000E+00 0.  1.
         11    1    3    3    0    0  0.10415794924E+02 -0.23371943974E+02 -0.34854739043E+01  0.25824118139E+02  0.51100000000E-03 0. -1.
        -11    1    3    3    0    0  0.47533683682E+01 -0.25129125857E+01  0.55030261073E+01  0.76936686377E+01  0.51100000000E-03 0.  1.
         12    1    3    3    0    0  0.11160517814E+02 -0.86164414127E+01 -0.21949942972E+01  0.14269485641E+02  0.00000000000E+00 0. -1.
</event>
<event>
 7    1  0.2655656E-009  0.4778727E+02  0.7816164E-02  0.1312668E+00
        -11   -1    0    0    0    0  0.00000000000E+00  0.00000000000E+00  0.45593999997E+02  0.45594000000E+02  0.51100000000E-03 0. -1.
         11   -1    0    0    0    0 -0.00000000000E+00 -0.00000000000E+00 -0.45593999997E+02  0.45594000000E+02  0.51100000000E-03 0.  1.
    9900012    2    1    2    0    0 -0.37043344365E+02 -0.21349714820E+02 -0.74568003470E+01  0.47787267793E+02  0.19999985176E+02 0.  0.
        -12    1    1    2    0    0  0.37043344365E+02  0.21349714820E+02  0.74568003470E+01  0.43400732207E+02  0.00000000000E+00 0.  1.
         11    1    3    3    0    0 -0.13473466677E+02 -0.49813773244E+01 -0.10546649615E-01  0.14364836784E+02  0.51100000000E-03 0. -1.
        -11    1    3    3    0    0 -0.18534585507E+02 -0.46303892377E+01 -0.78244622853E+01  0.20644456271E+02  0.51100000000E-03 0.  1.
        -12    1    3    3    0    0 -0.50352921812E+01 -0.11737948258E+02  0.37820858791E+00  0.12777974738E+02  0.00000000000E+00 0.  1.
</event>
<event>
 7    1  0.2655656E-009  0.4778721E+02  0.7816164E-02  0.1312668E+00
        -11   -1    0    0    0    0  0.00000000000E+00  0.00000000000E+00  0.45593999997E+02  0.45594000000E+02  0.51100000000E-03 0.  1.
         11   -1    0    0    0    0 -0.00000000000E+00 -0.00000000000E+00 -0.45593999997E+02  0.45594000000E+02  0.51100000000E-03 0. -1.
    9900012    2    1    2    0    0  0.11504544758E+02  0.25133121724E+02 -0.33460427940E+02  0.47787209736E+02  0.19999720467E+02 0.  0.
        -12    1    1    2    0    0 -0.11504544758E+02 -0.25133121724E+02  0.33460427940E+02  0.43400790264E+02  0.00000000000E+00 0.  1.
         11    1    3    3    0    0  0.12728416929E+01  0.93686743456E+01 -0.22099210244E+02  0.24036790107E+02  0.51100000000E-03 0. -1.
        -11    1    3    3    0    0  0.82779098894E+01  0.67178057131E+01 -0.25278938297E+01  0.10956411512E+02  0.51100000000E-03 0.  1.
        -12    1    3    3    0    0  0.19537931753E+01  0.90466416649E+01 -0.88333238664E+01  0.12794008118E+02  0.00000000000E+00 0.  1.
</event>
<event>
 7    1  0.2655656E-009  0.4778727E+02  0.7816164E-02  0.1312668E+00
        -11   -1    0    0    0    0  0.00000000000E+00  0.00000000000E+00  0.45593999997E+02  0.45594000000E+02  0.51100000000E-03 0.  1.
         11   -1    0    0    0    0 -0.00000000000E+00 -0.00000000000E+00 -0.45593999997E+02  0.45594000000E+02  0.51100000000E-03 0. -1.
    9900012    2    1    2    0    0 -0.36151032314E+02  0.16528054120E+02 -0.17422674465E+02  0.47787270791E+02  0.19999998843E+02 0.  0.
        -12    1    1    2    0    0  0.36151032314E+02 -0.16528054120E+02  0.17422674465E+02  0.43400729209E+02  0.00000000000E+00 0.  1.
         11    1    3    3    0    0 -0.19469519524E+02  0.13076692214E+02 -0.11327269137E+02  0.26045519694E+02  0.51100000000E-03 0. -1.
        -11    1    3    3    0    0 -0.12058648386E+02  0.40770048354E+00  0.16963778200E+01  0.12184207753E+02  0.51100000000E-03 0.  1.
        -12    1    3    3    0    0 -0.46228644044E+01  0.30436614223E+01 -0.77917831479E+01  0.95575433443E+01  0.00000000000E+00 0.  1.
</event>
<event>
 7    1  0.2655656E-009  0.4778727E+02  0.7816164E-02  0.1312668E+00
        -11   -1    0    0    0    0  0.00000000000E+00  0.00000000000E+00  0.45593999997E+02  0.45594000000E+02  0.51100000000E-03 0.  1.
         11   -1    0    0    0    0 -0.00000000000E+00 -0.00000000000E+00 -0.45593999997E+02  0.45594000000E+02  0.51100000000E-03 0. -1.
    9900012    2    1    2    0    0 -0.20324478653E+02 -0.55328393393E+01 -0.37946363333E+02  0.47787271505E+02  0.20000002099E+02 0.  0.
        -12    1    1    2    0    0  0.20324478653E+02  0.55328393393E+01  0.37946363333E+02  0.43400728495E+02  0.00000000000E+00 0.  1.
         11    1    3    3    0    0 -0.12556757811E+02 -0.74877497342E+01 -0.31012928342E+02  0.34286152998E+02  0.51100000000E-03 0. -1.
        -11    1    3    3    0    0 -0.92199005182E+01  0.28823398538E+01 -0.67142569293E+01  0.11764169965E+02  0.51100000000E-03 0.  1.
         12    1    3    3    0    0  0.14521796757E+01 -0.92742945897E+00 -0.21917806172E+00  0.17369485412E+01  0.00000000000E+00 0. -1.
</event>
<event>
 7    1  0.2655656E-009  0.4778727E+02  0.7816164E-02  0.1312668E+00
        -11   -1    0    0    0    0  0.00000000000E+00  0.00000000000E+00  0.45593999997E+02  0.45594000000E+02  0.51100000000E-03 0.  1.
         11   -1    0    0    0    0 -0.00000000000E+00 -0.00000000000E+00 -0.45593999997E+02  0.45594000000E+02  0.51100000000E-03 0. -1.
    9900012    2    1    2    0    0 -0.85751734885E+01  0.14077422782E+02 -0.40148672085E+02  0.47787270711E+02  0.19999998482E+02 0.  0.
        -12    1    1    2    0    0  0.85751734885E+01 -0.14077422782E+02  0.40148672085E+02  0.43400729289E+02  0.00000000000E+00 0.  1.
         11    1    3    3    0    0 -0.10466850197E+02  0.95081408854E+01 -0.36745202165E+02  0.39372192961E+02  0.51100000000E-03 0. -1.
        -11    1    3    3    0    0 -0.35791213598E-02  0.52695676197E+01 -0.11597244608E+01  0.53956757496E+01  0.51100000000E-03 0.  1.
         12    1    3    3    0    0  0.18952558303E+01 -0.70028572267E+00 -0.22437454602E+01  0.30194020013E+01  0.00000000000E+00 0. -1.
</event>
<event>
 7    1  0.2655656E-009  0.4778727E+02  0.7816164E-02  0.1312668E+00
        -11   -1    0    0    0    0  0.00000000000E+00  0.00000000000E+00  0.45593999997E+02  0.45594000000E+02  0.51100000000E-03 0.  1.
         11   -1    0    0    0    0 -0.00000000000E+00 -0.00000000000E+00 -0.45593999997E+02  0.45594000000E+02  0.51100000000E-03 0. -1.
    9900012    2    1    2    0    0  0.11278963745E+02 -0.18436463505E+02 -0.37636484073E+02  0.47787272551E+02  0.20000006869E+02 0.  0.
        -12    1    1    2    0    0 -0.11278963745E+02  0.18436463505E+02  0.37636484073E+02  0.43400727449E+02  0.00000000000E+00 0.  1.
         11    1    3    3    0    0  0.69685800183E+01 -0.18311311428E+02 -0.23169769178E+02  0.30343095388E+02  0.51100000000E-03 0. -1.
        -11    1    3    3    0    0  0.47850176560E+01  0.24521489137E+01 -0.41283731127E+01  0.67788563255E+01  0.51100000000E-03 0.  1.
         12    1    3    3    0    0 -0.47463392905E+00 -0.25773009901E+01 -0.10338341782E+02  0.10665320837E+02  0.00000000000E+00 0. -1.
</event>
<event>
 7    1  0.2655656E-009  0.4778726E+02  0.7816164E-02  0.1312668E+00
        -11   -1    0    0    0    0  0.00000000000E+00  0.00000000000E+00  0.45593999997E+02  0.45594000000E+02  0.51100000000E-03 0.  1.
         11   -1    0    0    0    0 -0.00000000000E+00 -0.00000000000E+00 -0.45593999997E+02  0.45594000000E+02  0.51100000000E-03 0. -1.
    9900012    2    1    2    0    0 -0.76479430422E+01 -0.30410042290E+02 -0.30006036681E+02  0.47787263346E+02  0.19999964899E+02 0.  0.
        -12    1    1    2    0    0  0.76479430422E+01  0.30410042290E+02  0.30006036681E+02  0.43400736654E+02  0.00000000000E+00 0.  1.
         11    1    3    3    0    0 -0.10339008777E+02 -0.13343794083E+02 -0.77837575419E+01  0.18588674637E+02  0.51100000000E-03 0.  1.
        -11    1    3    3    0    0  0.45112789458E+01 -0.12321367344E+02 -0.11992689108E+02  0.17776172908E+02  0.51100000000E-03 0. -1.
        -12    1    3    3    0    0 -0.18202132113E+01 -0.47448808631E+01 -0.10229590031E+02  0.11422415801E+02  0.00000000000E+00 0.  1.
</event>
<event>
 7    1  0.2655656E-009  0.4778727E+02  0.7816164E-02  0.1312668E+00
        -11   -1    0    0    0    0  0.00000000000E+00  0.00000000000E+00  0.45593999997E+02  0.45594000000E+02  0.51100000000E-03 0.  1.
         11   -1    0    0    0    0 -0.00000000000E+00 -0.00000000000E+00 -0.45593999997E+02  0.45594000000E+02  0.51100000000E-03 0. -1.
    9900012    2    1    2    0    0  0.75260408869E+01  0.21633967397E+02 -0.36863987311E+02  0.47787269624E+02  0.19999993523E+02 0.  0.
        -12    1    1    2    0    0 -0.75260408869E+01 -0.21633967397E+02  0.36863987311E+02  0.43400730376E+02  0.00000000000E+00 0.  1.
         11    1    3    3    0    0  0.91028650282E+01  0.82210385632E+01 -0.20808228159E+02  0.24154295398E+02  0.51100000000E-03 0. -1.
        -11    1    3    3    0    0 -0.23688704193E+01  0.27519222037E+01  0.75714739190E+00  0.37091636945E+01  0.51100000000E-03 0.  1.
         12    1    3    3    0    0  0.79204627806E+00  0.10661006630E+02 -0.16812906543E+02  0.19923810531E+02  0.00000000000E+00 0. -1.
</event>
<event>
 7    1  0.2655656E-009  0.4778725E+02  0.7816164E-02  0.1312668E+00
        -11   -1    0    0    0    0  0.00000000000E+00  0.00000000000E+00  0.45593999997E+02  0.45594000000E+02  0.51100000000E-03 0.  1.
         11   -1    0    0    0    0 -0.00000000000E+00 -0.00000000000E+00 -0.45593999997E+02  0.45594000000E+02  0.51100000000E-03 0. -1.
    9900012    2    1    2    0    0  0.32630109313E+02 -0.28257126658E+02  0.45205587534E+01  0.47787254705E+02  0.19999925502E+02 0.  0.
        -12    1    1    2    0    0 -0.32630109313E+02  0.28257126658E+02 -0.45205587534E+01  0.43400745295E+02  0.00000000000E+00 0.  1.
         11    1    3    3    0    0  0.21738099277E+02 -0.18493897258E+02 -0.25800785802E+01  0.28657041050E+02  0.51100000000E-03 0. -1.
        -11    1    3    3    0    0 -0.18166876023E+00  0.63995256811E+00  0.34371785337E+01  0.35009626336E+01  0.51100000000E-03 0.  1.
        -12    1    3    3    0    0  0.11073678796E+02 -0.10403181967E+02  0.36634587998E+01  0.15629251021E+02  0.00000000000E+00 0.  1.
</event>
<event>
 7    1  0.2655656E-009  0.4778727E+02  0.7816164E-02  0.1312668E+00
        -11   -1    0    0    0    0  0.00000000000E+00  0.00000000000E+00  0.45593999997E+02  0.45594000000E+02  0.51100000000E-03 0. -1.
         11   -1    0    0    0    0 -0.00000000000E+00 -0.00000000000E+00 -0.45593999997E+02  0.45594000000E+02  0.51100000000E-03 0.  1.
    9900012    2    1    2    0    0 -0.32816670347E+01  0.31654856068E+02  0.29509726197E+02  0.47787271994E+02  0.20000004330E+02 0.  0.
        -12    1    1    2    0    0  0.32816670347E+01 -0.31654856068E+02 -0.29509726197E+02  0.43400728006E+02  0.00000000000E+00 0.  1.
         11    1    3    3    0    0 -0.10498023747E+02  0.13436658883E+02  0.13779665542E+02  0.21923309222E+02  0.51100000000E-03 0. -1.
        -11    1    3    3    0    0  0.56758399731E+01  0.11899434700E+02  0.13787211313E+02  0.19076134347E+02  0.51100000000E-03 0.  1.
         12    1    3    3    0    0  0.15405167388E+01  0.63187624852E+01  0.19428493422E+01  0.67878284254E+01  0.00000000000E+00 0. -1.
</event>
<event>
 7    1  0.2655656E-009  0.4778726E+02  0.7816164E-02  0.1312668E+00
        -11   -1    0    0    0    0  0.00000000000E+00  0.00000000000E+00  0.45593999997E+02  0.45594000000E+02  0.51100000000E-03 0. -1.
         11   -1    0    0    0    0 -0.00000000000E+00 -0.00000000000E+00 -0.45593999997E+02  0.45594000000E+02  0.51100000000E-03 0.  1.
    9900012    2    1    2    0    0  0.39069815896E+01  0.34622088161E+02  0.25877998404E+02  0.47787259278E+02  0.19999946353E+02 0.  0.
        -12    1    1    2    0    0 -0.39069815896E+01 -0.34622088161E+02 -0.25877998404E+02  0.43400740722E+02  0.00000000000E+00 0.  1.
         11    1    3    3    0    0 -0.16215838206E+00  0.47850847438E+01  0.11045404512E+02  0.12038450583E+02  0.51100000000E-03 0. -1.
        -11    1    3    3    0    0  0.64448178753E+01  0.24657986200E+02  0.77088452654E+01  0.26626645611E+02  0.51100000000E-03 0.  1.
        -12    1    3    3    0    0 -0.23756779037E+01  0.51790172173E+01  0.71237486267E+01  0.91221630842E+01  0.00000000000E+00 0.  1.
</event>
<event>
 7    1  0.2655656E-009  0.4778727E+02  0.7816164E-02  0.1312668E+00
        -11   -1    0    0    0    0  0.00000000000E+00  0.00000000000E+00  0.45593999997E+02  0.45594000000E+02  0.51100000000E-03 0.  1.
         11   -1    0    0    0    0 -0.00000000000E+00 -0.00000000000E+00 -0.45593999997E+02  0.45594000000E+02  0.51100000000E-03 0. -1.
    9900012    2    1    2    0    0  0.28498579146E+02  0.98618239160E+01 -0.31212157205E+02  0.47787270264E+02  0.19999996441E+02 0.  0.
        -12    1    1    2    0    0 -0.28498579146E+02 -0.98618239160E+01  0.31212157205E+02  0.43400729736E+02  0.00000000000E+00 0.  1.
         11    1    3    3    0    0  0.80841281309E+00  0.48586683822E+00 -0.22907702596E+00  0.97060517503E+00  0.51100000000E-03 0. -1.
        -11    1    3    3    0    0  0.13962471935E+02 -0.34993547580E+01 -0.61395048548E+01  0.15648949690E+02  0.51100000000E-03 0.  1.
        -12    1    3    3    0    0  0.13727694397E+02  0.12875311836E+02 -0.24843575324E+02  0.31167715399E+02  0.00000000000E+00 0.  1.
</event>
<event>
 7    1  0.2655656E-009  0.4778727E+02  0.7816164E-02  0.1312668E+00
        -11   -1    0    0    0    0  0.00000000000E+00  0.00000000000E+00  0.45593999997E+02  0.45594000000E+02  0.51100000000E-03 0. -1.
         11   -1    0    0    0    0 -0.00000000000E+00 -0.00000000000E+00 -0.45593999997E+02  0.45594000000E+02  0.51100000000E-03 0.  1.
    9900012    2    1    2    0    0 -0.67315186560E+01 -0.42504159457E+02  0.56308340786E+01  0.47787271816E+02  0.20000003516E+02 0.  0.
        -12    1    1    2    0    0  0.67315186560E+01  0.42504159457E+02 -0.56308340786E+01  0.43400728184E+02  0.00000000000E+00 0.  1.
         11    1    3    3    0    0  0.36748703417E-01 -0.17650745307E+02  0.62788161136E+01  0.18734291884E+02  0.51100000000E-03 0. -1.
        -11    1    3    3    0    0 -0.99469350387E+01 -0.12840171703E+02 -0.26780940784E+01  0.16461582979E+02  0.51100000000E-03 0.  1.
        -12    1    3    3    0    0  0.31786676793E+01 -0.12013242447E+02  0.20301120434E+01  0.12591396952E+02  0.00000000000E+00 0.  1.
</event>
<event>
 7    1  0.2655656E-009  0.4778727E+02  0.7816164E-02  0.1312668E+00
        -11   -1    0    0    0    0  0.00000000000E+00  0.00000000000E+00  0.45593999997E+02  0.45594000000E+02  0.51100000000E-03 0. -1.
         11   -1    0    0    0    0 -0.00000000000E+00 -0.00000000000E+00 -0.45593999997E+02  0.45594000000E+02  0.51100000000E-03 0.  1.
    9900012    2    1    2    0    0 -0.89143854788E+01  0.36235152248E+00  0.42473825109E+02  0.47787269747E+02  0.19999994084E+02 0.  0.
        -12    1    1    2    0    0  0.89143854788E+01 -0.36235152248E+00 -0.42473825109E+02  0.43400730253E+02  0.00000000000E+00 0.  1.
         11    1    3    3    0    0 -0.96905215019E+01  0.50469716674E+01  0.24247790718E+02  0.26595741857E+02  0.51100000000E-03 0. -1.
        -11    1    3    3    0    0  0.20588856897E+01 -0.35063093491E+01  0.18893601183E+02  0.19326183830E+02  0.51100000000E-03 0.  1.
        -12    1    3    3    0    0 -0.12827496665E+01 -0.11783107959E+01 -0.66756679095E+00  0.18653440591E+01  0.00000000000E+00 0.  1.
</event>
<event>
 7    1  0.2655656E-009  0.4778727E+02  0.7816164E-02  0.1312668E+00
        -11   -1    0    0    0    0  0.00000000000E+00  0.00000000000E+00  0.45593999997E+02  0.45594000000E+02  0.51100000000E-03 0.  1.
         11   -1    0    0    0    0 -0.00000000000E+00 -0.00000000000E+00 -0.45593999997E+02  0.45594000000E+02  0.51100000000E-03 0. -1.
    9900012    2    1    2    0    0  0.23882522334E+02 -0.16194502287E+02 -0.32418919083E+02  0.47787273141E+02  0.20000009558E+02 0.  0.
        -12    1    1    2    0    0 -0.23882522334E+02  0.16194502287E+02  0.32418919083E+02  0.43400726859E+02  0.00000000000E+00 0.  1.
         11    1    3    3    0    0  0.98363575402E+01 -0.76076365819E+01 -0.23297576418E+02  0.26408467037E+02  0.51100000000E-03 0. -1.
        -11    1    3    3    0    0  0.10863828179E+02 -0.10598991081E+02 -0.54680064454E+01  0.16132590287E+02  0.51100000000E-03 0.  1.
        -12    1    3    3    0    0  0.31823366154E+01  0.20121253755E+01 -0.36533362201E+01  0.52462158169E+01  0.00000000000E+00 0.  1.
</event>
<event>
 7    1  0.2655656E-009  0.4778729E+02  0.7816164E-02  0.1312668E+00
        -11   -1    0    0    0    0  0.00000000000E+00  0.00000000000E+00  0.45593999997E+02  0.45594000000E+02  0.51100000000E-03 0.  1.
         11   -1    0    0    0    0 -0.00000000000E+00 -0.00000000000E+00 -0.45593999997E+02  0.45594000000E+02  0.51100000000E-03 0. -1.
    9900012    2    1    2    0    0 -0.38837534699E+02  0.18829597962E+02  0.45512712896E+01  0.47787286512E+02  0.20000070521E+02 0.  0.
        -12    1    1    2    0    0  0.38837534699E+02 -0.18829597962E+02 -0.45512712896E+01  0.43400713488E+02  0.00000000000E+00 0.  1.
         11    1    3    3    0    0 -0.33947518309E+01  0.32388703871E+01  0.46953623894E+01  0.66378497729E+01  0.51100000000E-03 0. -1.
        -11    1    3    3    0    0 -0.30261368416E+02  0.75050559256E+01  0.22272879901E+01  0.31257592596E+02  0.51100000000E-03 0.  1.
        -12    1    3    3    0    0 -0.51814144522E+01  0.80856716497E+01 -0.23713790900E+01  0.98918441426E+01  0.00000000000E+00 0.  1.
</event>
<event>
 7    1  0.2655656E-009  0.4778727E+02  0.7816164E-02  0.1312668E+00
        -11   -1    0    0    0    0  0.00000000000E+00  0.00000000000E+00  0.45593999997E+02  0.45594000000E+02  0.51100000000E-03 0.  1.
         11   -1    0    0    0    0 -0.00000000000E+00 -0.00000000000E+00 -0.45593999997E+02  0.45594000000E+02  0.51100000000E-03 0. -1.
    9900012    2    1    2    0    0 -0.13806908576E+02  0.35144422661E+02 -0.21397717506E+02  0.47787268635E+02  0.19999989012E+02 0.  0.
        -12    1    1    2    0    0  0.13806908576E+02 -0.35144422661E+02  0.21397717506E+02  0.43400731365E+02  0.00000000000E+00 0.  1.
         11    1    3    3    0    0  0.25901496591E+01  0.10868556695E+02 -0.84058312733E+00  0.11204507135E+02  0.51100000000E-03 0.  1.
        -11    1    3    3    0    0 -0.16933647502E+02  0.21205753421E+02 -0.18668858805E+02  0.32938711044E+02  0.51100000000E-03 0. -1.
         12    1    3    3    0    0  0.53658926716E+00  0.30701125445E+01 -0.18882755742E+01  0.36440504555E+01  0.00000000000E+00 0. -1.
</event>
<event>
 7    1  0.2655656E-009  0.4778727E+02  0.7816164E-02  0.1312668E+00
        -11   -1    0    0    0    0  0.00000000000E+00  0.00000000000E+00  0.45593999997E+02  0.45594000000E+02  0.51100000000E-03 0.  1.
         11   -1    0    0    0    0 -0.00000000000E+00 -0.00000000000E+00 -0.45593999997E+02  0.45594000000E+02  0.51100000000E-03 0. -1.
    9900012    2    1    2    0    0 -0.43388677472E+02 -0.67165213845E+00  0.77123920882E+00  0.47787271213E+02  0.20000000766E+02 0.  0.
        -12    1    1    2    0    0  0.43388677472E+02  0.67165213845E+00 -0.77123920882E+00  0.43400728787E+02  0.00000000000E+00 0.  1.
         11    1    3    3    0    0 -0.59558921005E+01  0.59347591971E+01  0.19780393431E+01  0.86375145351E+01  0.51100000000E-03 0. -1.
        -11    1    3    3    0    0 -0.88503564707E+01  0.14909882532E+00  0.32786222655E+01  0.94393010515E+01  0.51100000000E-03 0.  1.
         12    1    3    3    0    0 -0.28582428901E+02 -0.67555101608E+01 -0.44854223998E+01  0.29710455626E+02  0.00000000000E+00 0. -1.
</event>
<event>
 7    1  0.2655656E-009  0.4778727E+02  0.7816164E-02  0.1312668E+00
        -11   -1    0    0    0    0  0.00000000000E+00  0.00000000000E+00  0.45593999997E+02  0.45594000000E+02  0.51100000000E-03 0.  1.
         11   -1    0    0    0    0 -0.00000000000E+00 -0.00000000000E+00 -0.45593999997E+02  0.45594000000E+02  0.51100000000E-03 0. -1.
    9900012    2    1    2    0    0  0.21758266337E+02 -0.31719504738E+02 -0.20101595036E+02  0.47787271229E+02  0.20000000844E+02 0.  0.
        -12    1    1    2    0    0 -0.21758266337E+02  0.31719504738E+02  0.20101595036E+02  0.43400728771E+02  0.00000000000E+00 0.  1.
         11    1    3    3    0    0  0.76272845999E-01 -0.60358034527E+01  0.23428082018E+01  0.64749896832E+01  0.51100000000E-03 0.  1.
        -11    1    3    3    0    0  0.50476934439E+01 -0.93560452521E+01 -0.32468249373E+01  0.11115604540E+02  0.51100000000E-03 0. -1.
         12    1    3    3    0    0  0.16634300047E+02 -0.16327656034E+02 -0.19197578300E+02  0.30196677006E+02  0.00000000000E+00 0. -1.
</event>
<event>
 7    1  0.2655656E-009  0.4778727E+02  0.7816164E-02  0.1312668E+00
        -11   -1    0    0    0    0  0.00000000000E+00  0.00000000000E+00  0.45593999997E+02  0.45594000000E+02  0.51100000000E-03 0. -1.
         11   -1    0    0    0    0 -0.00000000000E+00 -0.00000000000E+00 -0.45593999997E+02  0.45594000000E+02  0.51100000000E-03 0.  1.
    9900012    2    1    2    0    0  0.20782727511E+01 -0.40385390450E+02 -0.15758301807E+02  0.47787273563E+02  0.20000011483E+02 0.  0.
        -12    1    1    2    0    0 -0.20782727511E+01  0.40385390450E+02  0.15758301807E+02  0.43400726437E+02  0.00000000000E+00 0.  1.
         11    1    3    3    0    0  0.27178136611E+00 -0.17128869882E+02 -0.45825515870E+01  0.17733353543E+02  0.51100000000E-03 0. -1.
        -11    1    3    3    0    0  0.53891709644E+00  0.13069793459E+01 -0.42828490034E+01  0.45101466157E+01  0.51100000000E-03 0.  1.
        -12    1    3    3    0    0  0.12675742886E+01 -0.24563499914E+02 -0.68929012162E+01  0.25543773405E+02  0.00000000000E+00 0.  1.
</event>
<event>
 7    1  0.2655656E-009  0.4778726E+02  0.7816164E-02  0.1312668E+00
        -11   -1    0    0    0    0  0.00000000000E+00  0.00000000000E+00  0.45593999997E+02  0.45594000000E+02  0.51100000000E-03 0. -1.
         11   -1    0    0    0    0 -0.00000000000E+00 -0.00000000000E+00 -0.45593999997E+02  0.45594000000E+02  0.51100000000E-03 0.  1.
    9900012    2    1    2    0    0  0.27401446444E+02  0.32108119632E+02  0.10092244135E+02  0.47787262619E+02  0.19999961585E+02 0.  0.
        -12    1    1    2    0    0 -0.27401446444E+02 -0.32108119632E+02 -0.10092244135E+02  0.43400737381E+02  0.00000000000E+00 0.  1.
         11    1    3    3    0    0  0.19033086176E+02  0.28934791088E+02  0.81356733684E+00  0.34643071411E+02  0.51100000000E-03 0. -1.
        -11    1    3    3    0    0  0.31944142382E+01  0.26660156065E-02  0.38445342126E+01  0.49984730674E+01  0.51100000000E-03 0.  1.
         12    1    3    3    0    0  0.51739460300E+01  0.31706625281E+01  0.54341425853E+01  0.81457181406E+01  0.00000000000E+00 0. -1.
</event>
<event>
 7    1  0.2655656E-009  0.4778727E+02  0.7816164E-02  0.1312668E+00
        -11   -1    0    0    0    0  0.00000000000E+00  0.00000000000E+00  0.45593999997E+02  0.45594000000E+02  0.51100000000E-03 0.  1.
         11   -1    0    0    0    0 -0.00000000000E+00 -0.00000000000E+00 -0.45593999997E+02  0.45594000000E+02  0.51100000000E-03 0. -1.
    9900012    2    1    2    0    0  0.31454907052E+02  0.13718501674E+02 -0.26570938580E+02  0.47787271402E+02  0.20000001630E+02 0.  0.
        -12    1    1    2    0    0 -0.31454907052E+02 -0.13718501674E+02  0.26570938580E+02  0.43400728598E+02  0.00000000000E+00 0.  1.
         11    1    3    3    0    0  0.44389100786E+01  0.81853233382E+01 -0.13185253917E+02  0.16141696378E+02  0.51100000000E-03 0. -1.
        -11    1    3    3    0    0  0.19353235998E+02  0.23404735225E+00 -0.87895565966E+01  0.21256971261E+02  0.51100000000E-03 0.  1.
         12    1    3    3    0    0  0.76627609758E+01  0.52991309836E+01 -0.45961280662E+01  0.10388603763E+02  0.00000000000E+00 0. -1.
</event>
<event>
 7    1  0.2655656E-009  0.4778727E+02  0.7816164E-02  0.1312668E+00
        -11   -1    0    0    0    0  0.00000000000E+00  0.00000000000E+00  0.45593999997E+02  0.45594000000E+02  0.51100000000E-03 0. -1.
         11   -1    0    0    0    0 -0.00000000000E+00 -0.00000000000E+00 -0.45593999997E+02  0.45594000000E+02  0.51100000000E-03 0.  1.
    9900012    2    1    2    0    0  0.37207700432E+02 -0.21529861262E+02  0.59728669386E+01  0.47787273775E+02  0.20000012450E+02 0.  0.
        -12    1    1    2    0    0 -0.37207700432E+02  0.21529861262E+02 -0.59728669386E+01  0.43400726225E+02  0.00000000000E+00 0.  1.
         11    1    3    3    0    0  0.34845273516E+01 -0.25819498794E+01  0.74002676155E+01  0.85774330126E+01  0.51100000000E-03 0. -1.
        -11    1    3    3    0    0  0.33539488142E+02 -0.19345968948E+02 -0.12568223440E+01  0.38739429294E+02  0.51100000000E-03 0.  1.
        -12    1    3    3    0    0  0.18368493794E+00  0.39805756534E+00 -0.17057833293E+00  0.47041146820E+00  0.00000000000E+00 0.  1.
</event>
<event>
 7    1  0.2655656E-009  0.4778727E+02  0.7816164E-02  0.1312668E+00
        -11   -1    0    0    0    0  0.00000000000E+00  0.00000000000E+00  0.45593999997E+02  0.45594000000E+02  0.51100000000E-03 0.  1.
         11   -1    0    0    0    0 -0.00000000000E+00 -0.00000000000E+00 -0.45593999997E+02  0.45594000000E+02  0.51100000000E-03 0. -1.
    9900012    2    1    2    0    0 -0.20112959077E+02 -0.60717577330E+01 -0.37976651025E+02  0.47787269731E+02  0.19999994010E+02 0.  0.
        -12    1    1    2    0    0  0.20112959077E+02  0.60717577330E+01  0.37976651025E+02  0.43400730269E+02  0.00000000000E+00 0.  1.
         11    1    3    3    0    0 -0.93977181135E+01  0.13850481607E+01 -0.17809320916E+02  0.20184334914E+02  0.51100000000E-03 0. -1.
        -11    1    3    3    0    0 -0.99346943992E+01 -0.79748107647E+01 -0.72626663484E+01  0.14664313222E+02  0.51100000000E-03 0.  1.
        -12    1    3    3    0    0 -0.78054656450E+00  0.51800487103E+00 -0.12904663761E+02  0.12938621594E+02  0.00000000000E+00 0.  1.
</event>
<event>
 7    1  0.2655656E-009  0.4778727E+02  0.7816164E-02  0.1312668E+00
        -11   -1    0    0    0    0  0.00000000000E+00  0.00000000000E+00  0.45593999997E+02  0.45594000000E+02  0.51100000000E-03 0.  1.
         11   -1    0    0    0    0 -0.00000000000E+00 -0.00000000000E+00 -0.45593999997E+02  0.45594000000E+02  0.51100000000E-03 0. -1.
    9900012    2    1    2    0    0  0.25993629827E+02  0.34691337477E+02  0.21131563031E+01  0.47787272851E+02  0.20000008235E+02 0.  0.
        -12    1    1    2    0    0 -0.25993629827E+02 -0.34691337477E+02 -0.21131563031E+01  0.43400727149E+02  0.00000000000E+00 0.  1.
         11    1    3    3    0    0  0.28487696018E+02  0.28397647200E+02  0.19002678049E+01  0.40268923612E+02  0.51100000000E-03 0. -1.
        -11    1    3    3    0    0  0.43189224948E+00  0.31209237255E+01  0.51209166842E+00  0.31920109577E+01  0.51100000000E-03 0.  1.
         12    1    3    3    0    0 -0.29259584398E+01  0.31727665517E+01 -0.29920317021E+00  0.43263382808E+01  0.00000000000E+00 0. -1.
</event>
<event>
 7    1  0.2655656E-009  0.4778727E+02  0.7816164E-02  0.1312668E+00
        -11   -1    0    0    0    0  0.00000000000E+00  0.00000000000E+00  0.45593999997E+02  0.45594000000E+02  0.51100000000E-03 0. -1.
         11   -1    0    0    0    0 -0.00000000000E+00 -0.00000000000E+00 -0.45593999997E+02  0.45594000000E+02  0.51100000000E-03 0.  1.
    9900012    2    1    2    0    0 -0.40044698220E+02  0.91110195210E+01  0.14036895720E+02  0.47787274503E+02  0.20000015767E+02 0.  0.
        -12    1    1    2    0    0  0.40044698220E+02 -0.91110195210E+01 -0.14036895720E+02  0.43400725497E+02  0.00000000000E+00 0.  1.
         11    1    3    3    0    0 -0.30644923613E+02  0.71909629428E+01  0.16363477712E+02  0.35476537238E+02  0.51100000000E-03 0. -1.
        -11    1    3    3    0    0 -0.99013687498E-01  0.65899953565E+00  0.19026957763E+01  0.20160197362E+01  0.51100000000E-03 0.  1.
         12    1    3    3    0    0 -0.93007609195E+01  0.12610570425E+01 -0.42292777686E+01  0.10294717528E+02  0.00000000000E+00 0. -1.
</event>
<event>
 7    1  0.2655656E-009  0.4778727E+02  0.7816164E-02  0.1312668E+00
        -11   -1    0    0    0    0  0.00000000000E+00  0.00000000000E+00  0.45593999997E+02  0.45594000000E+02  0.51100000000E-03 0.  1.
         11   -1    0    0    0    0 -0.00000000000E+00 -0.00000000000E+00 -0.45593999997E+02  0.45594000000E+02  0.51100000000E-03 0. -1.
    9900012    2    1    2    0    0 -0.50731822303E+01  0.36404464033E+02 -0.23078158437E+02  0.47787267560E+02  0.19999984114E+02 0.  0.
        -12    1    1    2    0    0  0.50731822303E+01 -0.36404464033E+02  0.23078158437E+02  0.43400732440E+02  0.00000000000E+00 0.  1.
         11    1    3    3    0    0 -0.22076147669E+01  0.20611365250E+02 -0.64659647458E+01  0.21714295770E+02  0.51100000000E-03 0. -1.
        -11    1    3    3    0    0 -0.71744474206E+01  0.74186823474E+01 -0.11117621847E+02  0.15169411965E+02  0.51100000000E-03 0.  1.
        -12    1    3    3    0    0  0.43088799572E+01  0.83744164360E+01 -0.54945718434E+01  0.10903559826E+02  0.00000000000E+00 0.  1.
</event>
<event>
 7    1  0.2655656E-009  0.4778727E+02  0.7816164E-02  0.1312668E+00
        -11   -1    0    0    0    0  0.00000000000E+00  0.00000000000E+00  0.45593999997E+02  0.45594000000E+02  0.51100000000E-03 0. -1.
         11   -1    0    0    0    0 -0.00000000000E+00 -0.00000000000E+00 -0.45593999997E+02  0.45594000000E+02  0.51100000000E-03 0.  1.
    9900012    2    1    2    0    0 -0.42120278489E+02  0.99980845623E+01 -0.30892378018E+01  0.47787274832E+02  0.20000017269E+02 0.  0.
        -12    1    1    2    0    0  0.42120278489E+02 -0.99980845623E+01  0.30892378018E+01  0.43400725168E+02  0.00000000000E+00 0.  1.
         11    1    3    3    0    0 -0.22798773159E+02  0.91769990431E+00 -0.17178410138E+01  0.22881809559E+02  0.51100000000E-03 0. -1.
        -11    1    3    3    0    0 -0.12498148443E+02  0.12037435873E+02 -0.18665849486E+01  0.17452441564E+02  0.51100000000E-03 0.  1.
        -12    1    3    3    0    0 -0.68233568861E+01 -0.29570512155E+01  0.49518816069E+00  0.74530237086E+01  0.00000000000E+00 0.  1.
</event>
<event>
 7    1  0.2655656E-009  0.4778728E+02  0.7816164E-02  0.1312668E+00
        -11   -1    0    0    0    0  0.00000000000E+00  0.00000000000E+00  0.45593999997E+02  0.45594000000E+02  0.51100000000E-03 0.  1.
         11   -1    0    0    0    0 -0.00000000000E+00 -0.00000000000E+00 -0.45593999997E+02  0.45594000000E+02  0.51100000000E-03 0. -1.
    9900012    2    1    2    0    0  0.26682251526E+02 -0.12041003195E+02 -0.32042064131E+02  0.47787283667E+02  0.20000057553E+02 0.  0.
        -12    1    1    2    0    0 -0.26682251526E+02  0.12041003195E+02  0.32042064131E+02  0.43400716333E+02  0.00000000000E+00 0.  1.
         11    1    3    3    0    0  0.13366955214E+02  0.67051352151E+00 -0.45376953672E+01  0.14132082634E+02  0.51100000000E-03 0.  1.
        -11    1    3    3    0    0  0.11700616921E+02 -0.13256048710E+02 -0.25383021908E+02  0.30934205424E+02  0.51100000000E-03 0. -1.
         12    1    3    3    0    0  0.16146793912E+01  0.54453199342E+00 -0.21213468550E+01  0.27209956096E+01  0.00000000000E+00 0. -1.
</event>
<event>
 7    1  0.2655656E-009  0.4778727E+02  0.7816164E-02  0.1312668E+00
        -11   -1    0    0    0    0  0.00000000000E+00  0.00000000000E+00  0.45593999997E+02  0.45594000000E+02  0.51100000000E-03 0.  1.
         11   -1    0    0    0    0 -0.00000000000E+00 -0.00000000000E+00 -0.45593999997E+02  0.45594000000E+02  0.51100000000E-03 0. -1.
    9900012    2    1    2    0    0 -0.74467408661E+01  0.20387599619E+02 -0.37583439031E+02  0.47787273541E+02  0.20000011384E+02 0.  0.
        -12    1    1    2    0    0  0.74467408661E+01 -0.20387599619E+02  0.37583439031E+02  0.43400726459E+02  0.00000000000E+00 0.  1.
         11    1    3    3    0    0 -0.58884812582E+01  0.42331172263E+01 -0.12745935031E+02  0.14664663414E+02  0.51100000000E-03 0. -1.
        -11    1    3    3    0    0 -0.59526604925E+01  0.92057856892E+00 -0.76936242062E+01  0.97710534503E+01  0.51100000000E-03 0.  1.
         12    1    3    3    0    0  0.43944008846E+01  0.15233903824E+02 -0.17143879793E+02  0.23351556677E+02  0.00000000000E+00 0. -1.
</event>
<event>
 7    1  0.2655656E-009  0.4778727E+02  0.7816164E-02  0.1312668E+00
        -11   -1    0    0    0    0  0.00000000000E+00  0.00000000000E+00  0.45593999997E+02  0.45594000000E+02  0.51100000000E-03 0.  1.
         11   -1    0    0    0    0 -0.00000000000E+00 -0.00000000000E+00 -0.45593999997E+02  0.45594000000E+02  0.51100000000E-03 0. -1.
    9900012    2    1    2    0    0  0.33859978256E+02  0.34873096840E+00 -0.27147812604E+02  0.47787268785E+02  0.19999989698E+02 0.  0.
        -12    1    1    2    0    0 -0.33859978256E+02 -0.34873096840E+00  0.27147812604E+02  0.43400731215E+02  0.00000000000E+00 0.  1.
         11    1    3    3    0    0  0.99011686975E+01  0.29069832386E+00 -0.97049982360E+01  0.13867394785E+02  0.51100000000E-03 0. -1.
        -11    1    3    3    0    0  0.17149357131E+02 -0.45510894232E+01 -0.18495598204E+02  0.25630060829E+02  0.51100000000E-03 0.  1.
        -12    1    3    3    0    0  0.68094524283E+01  0.46091220678E+01  0.10527838353E+01  0.82898131712E+01  0.00000000000E+00 0.  1.
</event>
<event>
 7    1  0.2655656E-009  0.4778727E+02  0.7816164E-02  0.1312668E+00
        -11   -1    0    0    0    0  0.00000000000E+00  0.00000000000E+00  0.45593999997E+02  0.45594000000E+02  0.51100000000E-03 0.  1.
         11   -1    0    0    0    0 -0.00000000000E+00 -0.00000000000E+00 -0.45593999997E+02  0.45594000000E+02  0.51100000000E-03 0. -1.
    9900012    2    1    2    0    0 -0.14374887880E+02 -0.39304987739E+02 -0.11493647929E+02  0.47787269529E+02  0.19999993090E+02 0.  0.
        -12    1    1    2    0    0  0.14374887880E+02  0.39304987739E+02  0.11493647929E+02  0.43400730471E+02  0.00000000000E+00 0.  1.
         11    1    3    3    0    0 -0.17819316981E+02 -0.36413034954E+02 -0.11786410423E+02  0.42217965882E+02  0.51100000000E-03 0. -1.
        -11    1    3    3    0    0  0.18804096252E+01 -0.32193942417E+01  0.94043269379E+00  0.38451077429E+01  0.51100000000E-03 0.  1.
         12    1    3    3    0    0  0.15640194759E+01  0.32744145722E+00 -0.64767019907E+00  0.17241959041E+01  0.00000000000E+00 0. -1.
</event>
<event>
 7    1  0.2655656E-009  0.4778727E+02  0.7816164E-02  0.1312668E+00
        -11   -1    0    0    0    0  0.00000000000E+00  0.00000000000E+00  0.45593999997E+02  0.45594000000E+02  0.51100000000E-03 0. -1.
         11   -1    0    0    0    0 -0.00000000000E+00 -0.00000000000E+00 -0.45593999997E+02  0.45594000000E+02  0.51100000000E-03 0.  1.
    9900012    2    1    2    0    0 -0.41724083716E+02 -0.78837748702E+01 -0.89760969088E+01  0.47787269777E+02  0.19999994221E+02 0.  0.
        -12    1    1    2    0    0  0.41724083716E+02  0.78837748702E+01  0.89760969088E+01  0.43400730223E+02  0.00000000000E+00 0.  1.
         11    1    3    3    0    0 -0.17346095136E+02 -0.89541838643E+01 -0.96225529444E+01  0.21763684214E+02  0.51100000000E-03 0. -1.
        -11    1    3    3    0    0 -0.80743483037E+01  0.45083699718E+01 -0.89137132277E+00  0.92905889710E+01  0.51100000000E-03 0.  1.
         12    1    3    3    0    0 -0.16303640277E+02 -0.34379609778E+01  0.15378273584E+01  0.16732996592E+02  0.00000000000E+00 0. -1.
</event>
<event>
 7    1  0.2655656E-009  0.4778727E+02  0.7816164E-02  0.1312668E+00
        -11   -1    0    0    0    0  0.00000000000E+00  0.00000000000E+00  0.45593999997E+02  0.45594000000E+02  0.51100000000E-03 0.  1.
         11   -1    0    0    0    0 -0.00000000000E+00 -0.00000000000E+00 -0.45593999997E+02  0.45594000000E+02  0.51100000000E-03 0. -1.
    9900012    2    1    2    0    0 -0.10962805404E+02  0.40522933635E+02  0.11015072949E+02  0.47787273223E+02  0.20000009934E+02 0.  0.
        -12    1    1    2    0    0  0.10962805404E+02 -0.40522933635E+02 -0.11015072949E+02  0.43400726777E+02  0.00000000000E+00 0.  1.
         11    1    3    3    0    0  0.10319600414E+01  0.74694687464E+01  0.38043250961E+01  0.84457560099E+01  0.51100000000E-03 0. -1.
        -11    1    3    3    0    0 -0.29141399849E+00 -0.88663569947E+00  0.30623369361E+01  0.32013985621E+01  0.51100000000E-03 0.  1.
        -12    1    3    3    0    0 -0.11703351447E+02  0.33940100588E+02  0.41484109172E+01  0.36140118651E+02  0.00000000000E+00 0.  1.
</event>
<event>
 7    1  0.2655656E-009  0.4778728E+02  0.7816164E-02  0.1312668E+00
        -11   -1    0    0    0    0  0.00000000000E+00  0.00000000000E+00  0.45593999997E+02  0.45594000000E+02  0.51100000000E-03 0.  1.
         11   -1    0    0    0    0 -0.00000000000E+00 -0.00000000000E+00 -0.45593999997E+02  0.45594000000E+02  0.51100000000E-03 0. -1.
    9900012    2    1    2    0    0 -0.41774073002E+02 -0.11527642272E+02 -0.23795865008E+01  0.47787284068E+02  0.20000059379E+02 0.  0.
        -12    1    1    2    0    0  0.41774073002E+02  0.11527642272E+02  0.23795865008E+01  0.43400715932E+02  0.00000000000E+00 0.  1.
         11    1    3    3    0    0 -0.17883971187E+02  0.43519081630E+01  0.14837318201E+01  0.18465562284E+02  0.51100000000E-03 0. -1.
        -11    1    3    3    0    0 -0.11841921793E+02 -0.93126046152E+01 -0.40458547003E+01  0.15598867170E+02  0.51100000000E-03 0.  1.
         12    1    3    3    0    0 -0.12048180021E+02 -0.65669458194E+01  0.18253637943E+00  0.13722854614E+02  0.00000000000E+00 0. -1.
</event>
<event>
 7    1  0.2655656E-009  0.4778727E+02  0.7816164E-02  0.1312668E+00
        -11   -1    0    0    0    0  0.00000000000E+00  0.00000000000E+00  0.45593999997E+02  0.45594000000E+02  0.51100000000E-03 0.  1.
         11   -1    0    0    0    0 -0.00000000000E+00 -0.00000000000E+00 -0.45593999997E+02  0.45594000000E+02  0.51100000000E-03 0. -1.
    9900012    2    1    2    0    0  0.13199641846E+02  0.35811239505E+02  0.20662725455E+02  0.47787266792E+02  0.19999980612E+02 0.  0.
        -12    1    1    2    0    0 -0.13199641846E+02 -0.35811239505E+02 -0.20662725455E+02  0.43400733208E+02  0.00000000000E+00 0.  1.
         11    1    3    3    0    0 -0.43820863497E+01  0.55312933627E+01  0.22403804875E+01  0.74038633179E+01  0.51100000000E-03 0.  1.
        -11    1    3    3    0    0  0.17374876414E+02  0.24558599298E+02  0.14180145132E+02  0.33257895996E+02  0.51100000000E-03 0. -1.
         12    1    3    3    0    0  0.20685178176E+00  0.57213468447E+01  0.42421998350E+01  0.71255074779E+01  0.00000000000E+00 0. -1.
</event>
<event>
 7    1  0.2655656E-009  0.4778727E+02  0.7816164E-02  0.1312668E+00
        -11   -1    0    0    0    0  0.00000000000E+00  0.00000000000E+00  0.45593999997E+02  0.45594000000E+02  0.51100000000E-03 0.  1.
         11   -1    0    0    0    0 -0.00000000000E+00 -0.00000000000E+00 -0.45593999997E+02  0.45594000000E+02  0.51100000000E-03 0. -1.
    9900012    2    1    2    0    0  0.59876405532E+01 -0.21887855725E+01 -0.42929952460E+02  0.47787269132E+02  0.19999991279E+02 0.  0.
        -12    1    1    2    0    0 -0.59876405532E+01  0.21887855725E+01  0.42929952460E+02  0.43400730868E+02  0.00000000000E+00 0.  1.
         11    1    3    3    0    0 -0.92230365544E+00  0.56882735332E+01 -0.24277741436E+02  0.24952271026E+02  0.51100000000E-03 0. -1.
        -11    1    3    3    0    0  0.48327511978E+01 -0.45719989622E+01 -0.42062469365E+01  0.78709066950E+01  0.51100000000E-03 0.  1.
        -12    1    3    3    0    0  0.20771930109E+01 -0.33050601434E+01 -0.14445964087E+02  0.14964091411E+02  0.00000000000E+00 0.  1.
</event>
<event>
 7    1  0.2655656E-009  0.4778727E+02  0.7816164E-02  0.1312668E+00
        -11   -1    0    0    0    0  0.00000000000E+00  0.00000000000E+00  0.45593999997E+02  0.45594000000E+02  0.51100000000E-03 0.  1.
         11   -1    0    0    0    0 -0.00000000000E+00 -0.00000000000E+00 -0.45593999997E+02  0.45594000000E+02  0.51100000000E-03 0. -1.
    9900012    2    1    2    0    0  0.25450336821E+02 -0.31616924624E+01 -0.35012959342E+02  0.47787271142E+02  0.20000000445E+02 0.  0.
        -12    1    1    2    0    0 -0.25450336821E+02  0.31616924624E+01  0.35012959342E+02  0.43400728858E+02  0.00000000000E+00 0.  1.
         11    1    3    3    0    0  0.10498864489E+02 -0.75546154025E+01 -0.25406651821E+02  0.28509583064E+02  0.51100000000E-03 0. -1.
        -11    1    3    3    0    0  0.12854450082E+02  0.55388208701E+01 -0.94388202335E+01  0.16882142968E+02  0.51100000000E-03 0.  1.
         12    1    3    3    0    0  0.20970222498E+01 -0.11458979300E+01 -0.16748728726E+00  0.23955451099E+01  0.00000000000E+00 0. -1.
</event>
<event>
 7    1  0.2655656E-009  0.4778727E+02  0.7816164E-02  0.1312668E+00
        -11   -1    0    0    0    0  0.00000000000E+00  0.00000000000E+00  0.45593999997E+02  0.45594000000E+02  0.51100000000E-03 0. -1.
         11   -1    0    0    0    0 -0.00000000000E+00 -0.00000000000E+00 -0.45593999997E+02  0.45594000000E+02  0.51100000000E-03 0.  1.
    9900012    2    1    2    0    0  0.78845286842E+01 -0.20703733069E+02  0.37320412629E+02  0.47787267813E+02  0.19999985267E+02 0.  0.
        -12    1    1    2    0    0 -0.78845286842E+01  0.20703733069E+02 -0.37320412629E+02  0.43400732187E+02  0.00000000000E+00 0.  1.
         11    1    3    3    0    0  0.32801498919E+01  0.75683041189E+00  0.15343763810E+02  0.15708700256E+02  0.51100000000E-03 0. -1.
        -11    1    3    3    0    0  0.33206223002E+01 -0.87181005176E+01  0.43573770721E+01  0.10296530693E+02  0.51100000000E-03 0.  1.
         12    1    3    3    0    0  0.12837564921E+01 -0.12742462963E+02  0.17619271746E+02  0.21782036865E+02  0.00000000000E+00 0. -1.
</event>
<event>
 7    1  0.2655656E-009  0.4778727E+02  0.7816164E-02  0.1312668E+00
        -11   -1    0    0    0    0  0.00000000000E+00  0.00000000000E+00  0.45593999997E+02  0.45594000000E+02  0.51100000000E-03 0. -1.
         11   -1    0    0    0    0 -0.00000000000E+00 -0.00000000000E+00 -0.45593999997E+02  0.45594000000E+02  0.51100000000E-03 0.  1.
    9900012    2    1    2    0    0 -0.10444151042E+02 -0.40523809537E+02  0.11504946024E+02  0.47787271742E+02  0.20000003179E+02 0.  0.
        -12    1    1    2    0    0  0.10444151042E+02  0.40523809537E+02 -0.11504946024E+02  0.43400728258E+02  0.00000000000E+00 0.  1.
         11    1    3    3    0    0 -0.69324543099E+01 -0.28984476879E+02  0.15426508713E+02  0.33557949789E+02  0.51100000000E-03 0. -1.
        -11    1    3    3    0    0 -0.21726725680E+01 -0.25598380127E+01 -0.39057172117E+01  0.51505246275E+01  0.51100000000E-03 0.  1.
        -12    1    3    3    0    0 -0.13390241637E+01 -0.89794946445E+01 -0.15845477388E-01  0.90787973246E+01  0.00000000000E+00 0.  1.
</event>
<event>
 7    1  0.2655656E-009  0.4778723E+02  0.7816164E-02  0.1312668E+00
        -11   -1    0    0    0    0  0.00000000000E+00  0.00000000000E+00  0.45593999997E+02  0.45594000000E+02  0.51100000000E-03 0. -1.
         11   -1    0    0    0    0 -0.00000000000E+00 -0.00000000000E+00 -0.45593999997E+02  0.45594000000E+02  0.51100000000E-03 0.  1.
    9900012    2    1    2    0    0 -0.37185876726E+02  0.14336405565E+02 -0.17184434008E+02  0.47787231290E+02  0.19999818744E+02 0.  0.
        -12    1    1    2    0    0  0.37185876726E+02 -0.14336405565E+02  0.17184434008E+02  0.43400768710E+02  0.00000000000E+00 0.  1.
         11    1    3    3    0    0 -0.17535101198E+02  0.10258211863E+02 -0.67274731953E+01  0.21400223842E+02  0.51100000000E-03 0. -1.
        -11    1    3    3    0    0  0.29584724693E-01  0.17082902866E+00  0.24977623378E+01  0.25037721083E+01  0.51100000000E-03 0.  1.
        -12    1    3    3    0    0 -0.19680360253E+02  0.39073646735E+01 -0.12954723151E+02  0.23883235340E+02  0.00000000000E+00 0.  1.
</event>
<event>
 7    1  0.2655656E-009  0.4778727E+02  0.7816164E-02  0.1312668E+00
        -11   -1    0    0    0    0  0.00000000000E+00  0.00000000000E+00  0.45593999997E+02  0.45594000000E+02  0.51100000000E-03 0.  1.
         11   -1    0    0    0    0 -0.00000000000E+00 -0.00000000000E+00 -0.45593999997E+02  0.45594000000E+02  0.51100000000E-03 0. -1.
    9900012    2    1    2    0    0 -0.43112268400E+02  0.94014323043E+00 -0.49063017773E+01  0.47787270133E+02  0.19999995844E+02 0.  0.
        -12    1    1    2    0    0  0.43112268400E+02 -0.94014323043E+00  0.49063017773E+01  0.43400729867E+02  0.00000000000E+00 0.  1.
         11    1    3    3    0    0 -0.14548081835E+02  0.38050896087E+01 -0.95497680546E+00  0.15067759388E+02  0.51100000000E-03 0. -1.
        -11    1    3    3    0    0 -0.28887852130E+02 -0.58313286019E+01 -0.39608126111E+01  0.29735507911E+02  0.51100000000E-03 0.  1.
        -12    1    3    3    0    0  0.32366556537E+00  0.29663822236E+01  0.94876392629E-02  0.29840028334E+01  0.00000000000E+00 0.  1.
</event>
<event>
 7    1  0.2655656E-009  0.4778727E+02  0.7816164E-02  0.1312668E+00
        -11   -1    0    0    0    0  0.00000000000E+00  0.00000000000E+00  0.45593999997E+02  0.45594000000E+02  0.51100000000E-03 0.  1.
         11   -1    0    0    0    0 -0.00000000000E+00 -0.00000000000E+00 -0.45593999997E+02  0.45594000000E+02  0.51100000000E-03 0. -1.
    9900012    2    1    2    0    0  0.14249266214E+01  0.42598056047E+02 -0.81852686642E+01  0.47787269385E+02  0.19999992433E+02 0.  0.
        -12    1    1    2    0    0 -0.14249266214E+01 -0.42598056047E+02  0.81852686642E+01  0.43400730615E+02  0.00000000000E+00 0.  1.
         11    1    3    3    0    0  0.24563310451E+01  0.11416118040E+02 -0.22906756441E+01  0.11899937331E+02  0.51100000000E-03 0. -1.
        -11    1    3    3    0    0 -0.29674466848E+01  0.16268072357E+02 -0.11163637395E+02  0.19952010380E+02  0.51100000000E-03 0.  1.
        -12    1    3    3    0    0  0.19360422610E+01  0.14913865649E+02  0.52690443749E+01  0.15935321675E+02  0.00000000000E+00 0.  1.
</event>
<event>
 7    1  0.2655656E-009  0.4778727E+02  0.7816164E-02  0.1312668E+00
        -11   -1    0    0    0    0  0.00000000000E+00  0.00000000000E+00  0.45593999997E+02  0.45594000000E+02  0.51100000000E-03 0.  1.
         11   -1    0    0    0    0 -0.00000000000E+00 -0.00000000000E+00 -0.45593999997E+02  0.45594000000E+02  0.51100000000E-03 0. -1.
    9900012    2    1    2    0    0  0.26058574187E+02 -0.30572982158E+02 -0.16427620552E+02  0.47787271392E+02  0.20000001585E+02 0.  0.
        -12    1    1    2    0    0 -0.26058574187E+02  0.30572982158E+02  0.16427620552E+02  0.43400728608E+02  0.00000000000E+00 0.  1.
         11    1    3    3    0    0  0.22148390143E+01 -0.24697747173E+01 -0.28193316184E+01  0.43536111504E+01  0.51100000000E-03 0. -1.
        -11    1    3    3    0    0 -0.23610052224E+01 -0.50249514813E+01 -0.49959348222E+01  0.74688585512E+01  0.51100000000E-03 0.  1.
        -12    1    3    3    0    0  0.26204740395E+02 -0.23078255959E+02 -0.86123541118E+01  0.35964801691E+02  0.00000000000E+00 0.  1.
</event>
<event>
 7    1  0.2655656E-009  0.4778727E+02  0.7816164E-02  0.1312668E+00
        -11   -1    0    0    0    0  0.00000000000E+00  0.00000000000E+00  0.45593999997E+02  0.45594000000E+02  0.51100000000E-03 0.  1.
         11   -1    0    0    0    0 -0.00000000000E+00 -0.00000000000E+00 -0.45593999997E+02  0.45594000000E+02  0.51100000000E-03 0. -1.
    9900012    2    1    2    0    0 -0.31939567422E+02 -0.25053029105E+02 -0.15356866393E+02  0.47787267520E+02  0.19999983929E+02 0.  0.
        -12    1    1    2    0    0  0.31939567422E+02  0.25053029105E+02  0.15356866393E+02  0.43400732480E+02  0.00000000000E+00 0.  1.
         11    1    3    3    0    0 -0.91545241054E+01 -0.55161503618E+01 -0.10811325791E+02  0.15202565310E+02  0.51100000000E-03 0. -1.
        -11    1    3    3    0    0 -0.90846609149E+00  0.15745082508E+01 -0.66744124438E+00  0.19364568023E+01  0.51100000000E-03 0.  1.
         12    1    3    3    0    0 -0.21876577225E+02 -0.21111386994E+02 -0.38780993584E+01  0.30648245407E+02  0.00000000000E+00 0. -1.
</event>
<event>
 7    1  0.2655656E-009  0.4778727E+02  0.7816164E-02  0.1312668E+00
        -11   -1    0    0    0    0  0.00000000000E+00  0.00000000000E+00  0.45593999997E+02  0.45594000000E+02  0.51100000000E-03 0.  1.
         11   -1    0    0    0    0 -0.00000000000E+00 -0.00000000000E+00 -0.45593999997E+02  0.45594000000E+02  0.51100000000E-03 0. -1.
    9900012    2    1    2    0    0 -0.17136788948E+02 -0.54927748845E+01 -0.39494090100E+02  0.47787271156E+02  0.20000000510E+02 0.  0.
        -12    1    1    2    0    0  0.17136788948E+02  0.54927748845E+01  0.39494090100E+02  0.43400728844E+02  0.00000000000E+00 0.  1.
         11    1    3    3    0    0  0.11189282017E+01  0.42736455514E+00 -0.96499157163E-01  0.12016460095E+01  0.51100000000E-03 0.  1.
        -11    1    3    3    0    0 -0.60723224924E+01  0.20440269035E+01 -0.26084860820E+02  0.26860214271E+02  0.51100000000E-03 0. -1.
        -12    1    3    3    0    0 -0.12183394657E+02 -0.79641663432E+01 -0.13312730123E+02  0.19725410876E+02  0.00000000000E+00 0.  1.
</event>
<event>
 7    1  0.2655656E-009  0.4778727E+02  0.7816164E-02  0.1312668E+00
        -11   -1    0    0    0    0  0.00000000000E+00  0.00000000000E+00  0.45593999997E+02  0.45594000000E+02  0.51100000000E-03 0.  1.
         11   -1    0    0    0    0 -0.00000000000E+00 -0.00000000000E+00 -0.45593999997E+02  0.45594000000E+02  0.51100000000E-03 0. -1.
    9900012    2    1    2    0    0  0.20045250264E+01  0.24125432026E+02 -0.36021777231E+02  0.47787273901E+02  0.20000013024E+02 0.  0.
        -12    1    1    2    0    0 -0.20045250264E+01 -0.24125432026E+02  0.36021777231E+02  0.43400726099E+02  0.00000000000E+00 0.  1.
         11    1    3    3    0    0 -0.50697486556E+01  0.14422342702E+02 -0.29948718734E+02  0.33624872855E+02  0.51100000000E-03 0. -1.
        -11    1    3    3    0    0  0.55995899197E+01  0.70793929205E+01 -0.64992362956E+01  0.11122647350E+02  0.51100000000E-03 0.  1.
         12    1    3    3    0    0  0.14746837622E+01  0.26236964030E+01  0.42617779824E+00  0.30397536955E+01  0.00000000000E+00 0. -1.
</event>
<event>
 7    1  0.2655656E-009  0.4778728E+02  0.7816164E-02  0.1312668E+00
        -11   -1    0    0    0    0  0.00000000000E+00  0.00000000000E+00  0.45593999997E+02  0.45594000000E+02  0.51100000000E-03 0. -1.
         11   -1    0    0    0    0 -0.00000000000E+00 -0.00000000000E+00 -0.45593999997E+02  0.45594000000E+02  0.51100000000E-03 0.  1.
    9900012    2    1    2    0    0 -0.10423498262E+02 -0.18418182820E+02  0.37891212712E+02  0.47787276789E+02  0.20000026192E+02 0.  0.
        -12    1    1    2    0    0  0.10423498262E+02  0.18418182820E+02 -0.37891212712E+02  0.43400723211E+02  0.00000000000E+00 0.  1.
         11    1    3    3    0    0  0.48704754184E+01 -0.88240617606E+01  0.16179419741E+02  0.19061983637E+02  0.51100000000E-03 0.  1.
        -11    1    3    3    0    0 -0.10755128216E+02 -0.90809516740E+01  0.17929732377E+02  0.22794994398E+02  0.51100000000E-03 0. -1.
         12    1    3    3    0    0 -0.45388454650E+01 -0.51316938577E+00  0.37820605942E+01  0.59302987540E+01  0.00000000000E+00 0. -1.
</event>
<event>
 7    1  0.2655656E-009  0.4778727E+02  0.7816164E-02  0.1312668E+00
        -11   -1    0    0    0    0  0.00000000000E+00  0.00000000000E+00  0.45593999997E+02  0.45594000000E+02  0.51100000000E-03 0.  1.
         11   -1    0    0    0    0 -0.00000000000E+00 -0.00000000000E+00 -0.45593999997E+02  0.45594000000E+02  0.51100000000E-03 0. -1.
    9900012    2    1    2    0    0 -0.41771373517E+02  0.71414538777E+01 -0.93688478395E+01  0.47787270527E+02  0.19999997641E+02 0.  0.
        -12    1    1    2    0    0  0.41771373517E+02 -0.71414538777E+01  0.93688478395E+01  0.43400729473E+02  0.00000000000E+00 0.  1.
         11    1    3    3    0    0 -0.45133201908E+01 -0.88421349889E+00 -0.13173227828E+01  0.47840602245E+01  0.51100000000E-03 0. -1.
        -11    1    3    3    0    0 -0.11189701635E+01  0.47648316539E+01  0.20971257615E+01  0.53248147045E+01  0.51100000000E-03 0.  1.
        -12    1    3    3    0    0 -0.36139083162E+02  0.32608357227E+01 -0.10148650818E+02  0.37678395598E+02  0.00000000000E+00 0.  1.
</event>
<event>
 7    1  0.2655656E-009  0.4778727E+02  0.7816164E-02  0.1312668E+00
        -11   -1    0    0    0    0  0.00000000000E+00  0.00000000000E+00  0.45593999997E+02  0.45594000000E+02  0.51100000000E-03 0. -1.
         11   -1    0    0    0    0 -0.00000000000E+00 -0.00000000000E+00 -0.45593999997E+02  0.45594000000E+02  0.51100000000E-03 0.  1.
    9900012    2    1    2    0    0 -0.27743108797E+02  0.32716340055E+02  0.66018612601E+01  0.47787267697E+02  0.19999984740E+02 0.  0.
        -12    1    1    2    0    0  0.27743108797E+02 -0.32716340055E+02 -0.66018612601E+01  0.43400732303E+02  0.00000000000E+00 0.  1.
         11    1    3    3    0    0 -0.30641524940E+01  0.11158337363E+02 -0.53024089184E+01  0.12728435246E+02  0.51100000000E-03 0. -1.
        -11    1    3    3    0    0 -0.19740201190E+02  0.19045764625E+02  0.96814551322E+01  0.29088610605E+02  0.51100000000E-03 0.  1.
        -12    1    3    3    0    0 -0.49387551127E+01  0.25122380665E+01  0.22228150463E+01  0.59702218464E+01  0.00000000000E+00 0.  1.
</event>
<event>
 7    1  0.2655656E-009  0.4778728E+02  0.7816164E-02  0.1312668E+00
        -11   -1    0    0    0    0  0.00000000000E+00  0.00000000000E+00  0.45593999997E+02  0.45594000000E+02  0.51100000000E-03 0.  1.
         11   -1    0    0    0    0 -0.00000000000E+00 -0.00000000000E+00 -0.45593999997E+02  0.45594000000E+02  0.51100000000E-03 0. -1.
    9900012    2    1    2    0    0  0.26399555422E+02  0.34445758867E+02 -0.41940072989E+00  0.47787277341E+02  0.20000028708E+02 0.  0.
        -12    1    1    2    0    0 -0.26399555422E+02 -0.34445758867E+02  0.41940072989E+00  0.43400722659E+02  0.00000000000E+00 0.  1.
         11    1    3    3    0    0  0.15457325547E+02  0.15765971922E+02 -0.95033594016E+01  0.24037650132E+02  0.51100000000E-03 0. -1.
        -11    1    3    3    0    0  0.77135668579E+01  0.10084971837E+02  0.43604518596E+01  0.13424578627E+02  0.51100000000E-03 0.  1.
         12    1    3    3    0    0  0.32286630170E+01  0.85948151082E+01  0.47235068121E+01  0.10325048582E+02  0.00000000000E+00 0. -1.
</event>
<event>
 7    1  0.2655656E-009  0.4778725E+02  0.7816164E-02  0.1312668E+00
        -11   -1    0    0    0    0  0.00000000000E+00  0.00000000000E+00  0.45593999997E+02  0.45594000000E+02  0.51100000000E-03 0. -1.
         11   -1    0    0    0    0 -0.00000000000E+00 -0.00000000000E+00 -0.45593999997E+02  0.45594000000E+02  0.51100000000E-03 0.  1.
    9900012    2    1    2    0    0 -0.41244992575E+02 -0.95844628354E+01  0.95191250643E+01  0.47787250210E+02  0.19999905008E+02 0.  0.
        -12    1    1    2    0    0  0.41244992575E+02  0.95844628354E+01 -0.95191250643E+01  0.43400749790E+02  0.00000000000E+00 0.  1.
         11    1    3    3    0    0 -0.35880466863E+02 -0.20940928965E+01  0.11053897859E+02  0.37602949159E+02  0.51100000000E-03 0. -1.
        -11    1    3    3    0    0 -0.27516509292E-01 -0.30452324029E+01  0.10683238281E+00  0.30472300480E+01  0.51100000000E-03 0.  1.
         12    1    3    3    0    0 -0.53370092027E+01 -0.44451375359E+01 -0.16416051773E+01  0.71370710030E+01  0.00000000000E+00 0. -1.
</event>
<event>
 7    1  0.2655656E-009  0.4778727E+02  0.7816164E-02  0.1312668E+00
        -11   -1    0    0    0    0  0.00000000000E+00  0.00000000000E+00  0.45593999997E+02  0.45594000000E+02  0.51100000000E-03 0.  1.
         11   -1    0    0    0    0 -0.00000000000E+00 -0.00000000000E+00 -0.45593999997E+02  0.45594000000E+02  0.51100000000E-03 0. -1.
    9900012    2    1    2    0    0 -0.40272156875E+02  0.13602123023E+02 -0.87612002801E+01  0.47787274194E+02  0.20000014361E+02 0.  0.
        -12    1    1    2    0    0  0.40272156875E+02 -0.13602123023E+02  0.87612002801E+01  0.43400725806E+02  0.00000000000E+00 0.  1.
         11    1    3    3    0    0 -0.67301390646E+01  0.54324202132E+01  0.49829658564E+01  0.99817789090E+01  0.51100000000E-03 0. -1.
        -11    1    3    3    0    0 -0.19518193063E+01  0.20561161173E+01 -0.47781484452E-01  0.28354003991E+01  0.51100000000E-03 0.  1.
         12    1    3    3    0    0 -0.31590198505E+02  0.61135866924E+01 -0.13696384652E+02  0.34970094886E+02  0.00000000000E+00 0. -1.
</event>
<event>
 7    1  0.2655656E-009  0.4778727E+02  0.7816164E-02  0.1312668E+00
        -11   -1    0    0    0    0  0.00000000000E+00  0.00000000000E+00  0.45593999997E+02  0.45594000000E+02  0.51100000000E-03 0. -1.
         11   -1    0    0    0    0 -0.00000000000E+00 -0.00000000000E+00 -0.45593999997E+02  0.45594000000E+02  0.51100000000E-03 0.  1.
    9900012    2    1    2    0    0 -0.15398728062E+02 -0.35937169951E+02  0.18842039577E+02  0.47787268838E+02  0.19999989939E+02 0.  0.
        -12    1    1    2    0    0  0.15398728062E+02  0.35937169951E+02 -0.18842039577E+02  0.43400731162E+02  0.00000000000E+00 0.  1.
         11    1    3    3    0    0 -0.21785341722E+01 -0.12288618749E+02  0.48447681285E+01  0.13387603982E+02  0.51100000000E-03 0. -1.
        -11    1    3    3    0    0 -0.11479532369E+02 -0.18822422006E+02  0.29811940797E+01  0.22247488667E+02  0.51100000000E-03 0.  1.
        -12    1    3    3    0    0 -0.17406615204E+01 -0.48261291966E+01  0.11016077369E+02  0.12152176189E+02  0.00000000000E+00 0.  1.
</event>
<event>
 7    1  0.2655656E-009  0.4778727E+02  0.7816164E-02  0.1312668E+00
        -11   -1    0    0    0    0  0.00000000000E+00  0.00000000000E+00  0.45593999997E+02  0.45594000000E+02  0.51100000000E-03 0.  1.
         11   -1    0    0    0    0 -0.00000000000E+00 -0.00000000000E+00 -0.45593999997E+02  0.45594000000E+02  0.51100000000E-03 0. -1.
    9900012    2    1    2    0    0  0.43160155869E+02  0.44801194790E+01  0.86786432317E+00  0.47787265978E+02  0.19999976901E+02 0.  0.
        -12    1    1    2    0    0 -0.43160155869E+02 -0.44801194790E+01 -0.86786432317E+00  0.43400734022E+02  0.00000000000E+00 0.  1.
         11    1    3    3    0    0  0.32703717000E+02 -0.20845541907E+01  0.26824588667E+01  0.32879690656E+02  0.51100000000E-03 0. -1.
        -11    1    3    3    0    0 -0.12047293191E+01  0.45637440219E+00 -0.11496674507E+01  0.17266690000E+01  0.51100000000E-03 0.  1.
         12    1    3    3    0    0  0.11661168188E+02  0.61082992675E+01 -0.66492709284E+00  0.13180906322E+02  0.00000000000E+00 0. -1.
</event>
<event>
 7    1  0.2655656E-009  0.4778728E+02  0.7816164E-02  0.1312668E+00
        -11   -1    0    0    0    0  0.00000000000E+00  0.00000000000E+00  0.45593999997E+02  0.45594000000E+02  0.51100000000E-03 0. -1.
         11   -1    0    0    0    0 -0.00000000000E+00 -0.00000000000E+00 -0.45593999997E+02  0.45594000000E+02  0.51100000000E-03 0.  1.
    9900012    2    1    2    0    0  0.24094965772E+02  0.15398810124E+02  0.32648609083E+02  0.47787281068E+02  0.20000045699E+02 0.  0.
        -12    1    1    2    0    0 -0.24094965772E+02 -0.15398810124E+02 -0.32648609083E+02  0.43400718932E+02  0.00000000000E+00 0.  1.
         11    1    3    3    0    0  0.88260209695E+01  0.25628978258E+01  0.13289958160E+02  0.16158282074E+02  0.51100000000E-03 0. -1.
        -11    1    3    3    0    0  0.31663493491E+01 -0.33017093071E+01  0.55077369834E+01  0.71597639268E+01  0.51100000000E-03 0.  1.
        -12    1    3    3    0    0  0.12102595454E+02  0.16137621606E+02  0.13850913939E+02  0.24469235067E+02  0.00000000000E+00 0.  1.
</event>
<event>
 7    1  0.2655656E-009  0.4778727E+02  0.7816164E-02  0.1312668E+00
        -11   -1    0    0    0    0  0.00000000000E+00  0.00000000000E+00  0.45593999997E+02  0.45594000000E+02  0.51100000000E-03 0.  1.
         11   -1    0    0    0    0 -0.00000000000E+00 -0.00000000000E+00 -0.45593999997E+02  0.45594000000E+02  0.51100000000E-03 0. -1.
    9900012    2    1    2    0    0  0.11955739194E+02 -0.19204271496E+02 -0.37038892436E+02  0.47787270786E+02  0.19999998822E+02 0.  0.
        -12    1    1    2    0    0 -0.11955739194E+02  0.19204271496E+02  0.37038892436E+02  0.43400729214E+02  0.00000000000E+00 0.  1.
         11    1    3    3    0    0  0.12788401628E+02 -0.14003084268E+02 -0.20648827468E+02  0.28035756834E+02  0.51100000000E-03 0. -1.
        -11    1    3    3    0    0 -0.34256519115E+01 -0.31578033350E+01 -0.21453928307E+01  0.51292810003E+01  0.51100000000E-03 0.  1.
        -12    1    3    3    0    0  0.25929894777E+01 -0.20433838930E+01 -0.14244672138E+02  0.14622232952E+02  0.00000000000E+00 0.  1.
</event>
<event>
 7    1  0.2655656E-009  0.4778727E+02  0.7816164E-02  0.1312668E+00
        -11   -1    0    0    0    0  0.00000000000E+00  0.00000000000E+00  0.45593999997E+02  0.45594000000E+02  0.51100000000E-03 0. -1.
         11   -1    0    0    0    0 -0.00000000000E+00 -0.00000000000E+00 -0.45593999997E+02  0.45594000000E+02  0.51100000000E-03 0.  1.
    9900012    2    1    2    0    0  0.17675109384E+01 -0.42591308430E+02  0.81535213249E+01  0.47787267763E+02  0.19999985037E+02 0.  0.
        -12    1    1    2    0    0 -0.17675109384E+01  0.42591308430E+02 -0.81535213249E+01  0.43400732237E+02  0.00000000000E+00 0.  1.
         11    1    3    3    0    0  0.21883876255E+01 -0.20962940036E+02  0.10479744337E+02  0.23538456554E+02  0.51100000000E-03 0. -1.
        -11    1    3    3    0    0  0.13667771234E+01 -0.84912615947E+01 -0.60052570001E+01  0.10489647996E+02  0.51100000000E-03 0.  1.
         12    1    3    3    0    0 -0.17876538105E+01 -0.13137106800E+02  0.36790339881E+01  0.13759163213E+02  0.00000000000E+00 0. -1.
</event>
<event>
 7    1  0.2655656E-009  0.4778727E+02  0.7816164E-02  0.1312668E+00
        -11   -1    0    0    0    0  0.00000000000E+00  0.00000000000E+00  0.45593999997E+02  0.45594000000E+02  0.51100000000E-03 0.  1.
         11   -1    0    0    0    0 -0.00000000000E+00 -0.00000000000E+00 -0.45593999997E+02  0.45594000000E+02  0.51100000000E-03 0. -1.
    9900012    2    1    2    0    0  0.22459704556E+02  0.26729023182E+02 -0.25782630307E+02  0.47787273802E+02  0.20000012571E+02 0.  0.
        -12    1    1    2    0    0 -0.22459704556E+02 -0.26729023182E+02  0.25782630307E+02  0.43400726198E+02  0.00000000000E+00 0.  1.
         11    1    3    3    0    0  0.44523144516E+01  0.62269955742E+01 -0.85899010538E+01  0.11505867122E+02  0.51100000000E-03 0. -1.
        -11    1    3    3    0    0 -0.20061546032E+01  0.81830488101E+01 -0.39392700309E+01  0.93007952755E+01  0.51100000000E-03 0.  1.
        -12    1    3    3    0    0  0.20013544707E+02  0.12318978798E+02 -0.13253459223E+02  0.26980611404E+02  0.00000000000E+00 0.  1.
</event>
<event>
 7    1  0.2655656E-009  0.4778727E+02  0.7816164E-02  0.1312668E+00
        -11   -1    0    0    0    0  0.00000000000E+00  0.00000000000E+00  0.45593999997E+02  0.45594000000E+02  0.51100000000E-03 0.  1.
         11   -1    0    0    0    0 -0.00000000000E+00 -0.00000000000E+00 -0.45593999997E+02  0.45594000000E+02  0.51100000000E-03 0. -1.
    9900012    2    1    2    0    0  0.32101034867E+02 -0.15645871490E+02 -0.24664831207E+02  0.47787266911E+02  0.19999981155E+02 0.  0.
        -12    1    1    2    0    0 -0.32101034867E+02  0.15645871490E+02  0.24664831207E+02  0.43400733089E+02  0.00000000000E+00 0.  1.
         11    1    3    3    0    0  0.26549880376E+02 -0.13458021344E+02 -0.23211774448E+02  0.37746535732E+02  0.51100000000E-03 0. -1.
        -11    1    3    3    0    0 -0.16226692086E+00 -0.31527766827E+01 -0.26527361303E+01  0.41235107133E+01  0.51100000000E-03 0.  1.
         12    1    3    3    0    0  0.57134214114E+01  0.96492653729E+00  0.11996793714E+01  0.59172204658E+01  0.00000000000E+00 0. -1.
</event>
<event>
 7    1  0.2655656E-009  0.4778727E+02  0.7816164E-02  0.1312668E+00
        -11   -1    0    0    0    0  0.00000000000E+00  0.00000000000E+00  0.45593999997E+02  0.45594000000E+02  0.51100000000E-03 0.  1.
         11   -1    0    0    0    0 -0.00000000000E+00 -0.00000000000E+00 -0.45593999997E+02  0.45594000000E+02  0.51100000000E-03 0. -1.
    9900012    2    1    2    0    0  0.45225994400E+01  0.16387769231E+02 -0.39932576413E+02  0.47787267921E+02  0.19999985757E+02 0.  0.
        -12    1    1    2    0    0 -0.45225994400E+01 -0.16387769231E+02  0.39932576413E+02  0.43400732079E+02  0.00000000000E+00 0.  1.
         11    1    3    3    0    0  0.97467430902E+00  0.11345500172E+00 -0.67293274287E+01  0.68004933607E+01  0.51100000000E-03 0. -1.
        -11    1    3    3    0    0  0.10169680181E+02  0.85442595742E+01 -0.23092697990E+02  0.26640185198E+02  0.51100000000E-03 0.  1.
        -12    1    3    3    0    0 -0.66217550500E+01  0.77300546553E+01 -0.10110550994E+02  0.14346589362E+02  0.00000000000E+00 0.  1.
</event>
<event>
 7    1  0.2655656E-009  0.4778727E+02  0.7816164E-02  0.1312668E+00
        -11   -1    0    0    0    0  0.00000000000E+00  0.00000000000E+00  0.45593999997E+02  0.45594000000E+02  0.51100000000E-03 0.  1.
         11   -1    0    0    0    0 -0.00000000000E+00 -0.00000000000E+00 -0.45593999997E+02  0.45594000000E+02  0.51100000000E-03 0. -1.
    9900012    2    1    2    0    0 -0.22338189944E+02  0.95978501365E+01 -0.35951492733E+02  0.47787270894E+02  0.19999999313E+02 0.  0.
        -12    1    1    2    0    0  0.22338189944E+02 -0.95978501365E+01  0.35951492733E+02  0.43400729106E+02  0.00000000000E+00 0.  1.
         11    1    3    3    0    0 -0.14237719779E+01  0.58147250535E+01 -0.16794612471E+02  0.17829670844E+02  0.51100000000E-03 0. -1.
        -11    1    3    3    0    0 -0.45334457979E+01 -0.38569691738E+00 -0.19291246638E+00  0.45539113294E+01  0.51100000000E-03 0.  1.
         12    1    3    3    0    0 -0.16380972168E+02  0.41688220003E+01 -0.18963967796E+02  0.25403688721E+02  0.00000000000E+00 0. -1.
</event>
<event>
 7    1  0.2655656E-009  0.4778727E+02  0.7816164E-02  0.1312668E+00
        -11   -1    0    0    0    0  0.00000000000E+00  0.00000000000E+00  0.45593999997E+02  0.45594000000E+02  0.51100000000E-03 0.  1.
         11   -1    0    0    0    0 -0.00000000000E+00 -0.00000000000E+00 -0.45593999997E+02  0.45594000000E+02  0.51100000000E-03 0. -1.
    9900012    2    1    2    0    0  0.25331102284E+02  0.10740206363E+02 -0.33564958502E+02  0.47787271725E+02  0.20000003101E+02 0.  0.
        -12    1    1    2    0    0 -0.25331102284E+02 -0.10740206363E+02  0.33564958502E+02  0.43400728275E+02  0.00000000000E+00 0.  1.
         11    1    3    3    0    0 -0.44714304158E+00  0.27376140515E+01  0.60204957825E+00  0.28384734542E+01  0.51100000000E-03 0. -1.
        -11    1    3    3    0    0  0.23135999660E+02  0.62103236473E+01 -0.22542747296E+02  0.32894042865E+02  0.51100000000E-03 0.  1.
         12    1    3    3    0    0  0.26422456653E+01  0.17922686639E+01 -0.11624260784E+02  0.12054755406E+02  0.00000000000E+00 0. -1.
</event>
<event>
 7    1  0.2655656E-009  0.4778727E+02  0.7816164E-02  0.1312668E+00
        -11   -1    0    0    0    0  0.00000000000E+00  0.00000000000E+00  0.45593999997E+02  0.45594000000E+02  0.51100000000E-03 0.  1.
         11   -1    0    0    0    0 -0.00000000000E+00 -0.00000000000E+00 -0.45593999997E+02  0.45594000000E+02  0.51100000000E-03 0. -1.
    9900012    2    1    2    0    0  0.43505034218E+01 -0.97696384133E+01 -0.42062458810E+02  0.47787272404E+02  0.20000006197E+02 0.  0.
        -12    1    1    2    0    0 -0.43505034218E+01  0.97696384133E+01  0.42062458810E+02  0.43400727596E+02  0.00000000000E+00 0.  1.
         11    1    3    3    0    0  0.81396785532E+00  0.40920600395E+01 -0.18031768397E+02  0.18508164977E+02  0.51100000000E-03 0. -1.
        -11    1    3    3    0    0  0.36217368069E+01 -0.72923426809E+01 -0.60737499564E+01  0.10158035148E+02  0.51100000000E-03 0.  1.
         12    1    3    3    0    0 -0.85201240384E-01 -0.65693557719E+01 -0.17956940457E+02  0.19121072278E+02  0.00000000000E+00 0. -1.
</event>
<event>
 7    1  0.2655656E-009  0.4778727E+02  0.7816164E-02  0.1312668E+00
        -11   -1    0    0    0    0  0.00000000000E+00  0.00000000000E+00  0.45593999997E+02  0.45594000000E+02  0.51100000000E-03 0.  1.
         11   -1    0    0    0    0 -0.00000000000E+00 -0.00000000000E+00 -0.45593999997E+02  0.45594000000E+02  0.51100000000E-03 0. -1.
    9900012    2    1    2    0    0  0.25090263331E+02 -0.19621940452E+02 -0.29480185565E+02  0.47787271871E+02  0.20000003771E+02 0.  0.
        -12    1    1    2    0    0 -0.25090263331E+02  0.19621940452E+02  0.29480185565E+02  0.43400728129E+02  0.00000000000E+00 0.  1.
         11    1    3    3    0    0  0.19287268491E+01 -0.87498067392E+00 -0.62621743162E+01  0.66106282504E+01  0.51100000000E-03 0. -1.
        -11    1    3    3    0    0  0.14365930370E+02 -0.59778199347E+01 -0.20001663797E+02  0.25341287290E+02  0.51100000000E-03 0.  1.
        -12    1    3    3    0    0  0.87956061119E+01 -0.12769139843E+02 -0.32163474518E+01  0.15835356331E+02  0.00000000000E+00 0.  1.
</event>
<event>
 7    1  0.2655656E-009  0.4778728E+02  0.7816164E-02  0.1312668E+00
        -11   -1    0    0    0    0  0.00000000000E+00  0.00000000000E+00  0.45593999997E+02  0.45594000000E+02  0.51100000000E-03 0. -1.
         11   -1    0    0    0    0 -0.00000000000E+00 -0.00000000000E+00 -0.45593999997E+02  0.45594000000E+02  0.51100000000E-03 0.  1.
    9900012    2    1    2    0    0  0.28215870390E+02 -0.25813937338E+02  0.20521393306E+02  0.47787282426E+02  0.20000051892E+02 0.  0.
        -12    1    1    2    0    0 -0.28215870390E+02  0.25813937338E+02 -0.20521393306E+02  0.43400717574E+02  0.00000000000E+00 0.  1.
         11    1    3    3    0    0  0.25871164082E+02 -0.17201445429E+02  0.15330210046E+02  0.34644223128E+02  0.51100000000E-03 0. -1.
        -11    1    3    3    0    0  0.25922446190E+01 -0.26258437298E+01 -0.16560263870E+01  0.40444049147E+01  0.51100000000E-03 0.  1.
         12    1    3    3    0    0 -0.24753831146E+00 -0.59866481797E+01  0.68472096466E+01  0.90986543834E+01  0.00000000000E+00 0. -1.
</event>
<event>
 7    1  0.2655656E-009  0.4778727E+02  0.7816164E-02  0.1312668E+00
        -11   -1    0    0    0    0  0.00000000000E+00  0.00000000000E+00  0.45593999997E+02  0.45594000000E+02  0.51100000000E-03 0. -1.
         11   -1    0    0    0    0 -0.00000000000E+00 -0.00000000000E+00 -0.45593999997E+02  0.45594000000E+02  0.51100000000E-03 0.  1.
    9900012    2    1    2    0    0 -0.25259111449E+02  0.26920796945E+02  0.22822599121E+02  0.47787273624E+02  0.20000011761E+02 0.  0.
        -12    1    1    2    0    0  0.25259111449E+02 -0.26920796945E+02 -0.22822599121E+02  0.43400726376E+02  0.00000000000E+00 0.  1.
         11    1    3    3    0    0 -0.13956249737E+02  0.12891167785E+02  0.18799155013E+02  0.26727651282E+02  0.51100000000E-03 0. -1.
        -11    1    3    3    0    0 -0.31995558165E+01  0.41121806785E+01 -0.34334801152E+01  0.62398696555E+01  0.51100000000E-03 0.  1.
        -12    1    3    3    0    0 -0.81033058954E+01  0.99174484811E+01  0.74569242229E+01  0.14819752686E+02  0.00000000000E+00 0.  1.
</event>
<event>
 7    1  0.2655656E-009  0.4778727E+02  0.7816164E-02  0.1312668E+00
        -11   -1    0    0    0    0  0.00000000000E+00  0.00000000000E+00  0.45593999997E+02  0.45594000000E+02  0.51100000000E-03 0.  1.
         11   -1    0    0    0    0 -0.00000000000E+00 -0.00000000000E+00 -0.45593999997E+02  0.45594000000E+02  0.51100000000E-03 0. -1.
    9900012    2    1    2    0    0  0.31447218832E+02 -0.20108911855E+02 -0.22143346528E+02  0.47787266092E+02  0.19999977420E+02 0.  0.
        -12    1    1    2    0    0 -0.31447218832E+02  0.20108911855E+02  0.22143346528E+02  0.43400733908E+02  0.00000000000E+00 0.  1.
         11    1    3    3    0    0  0.12519127294E+02 -0.10945690124E+02 -0.78595457385E+01  0.18393181888E+02  0.51100000000E-03 0. -1.
        -11    1    3    3    0    0  0.72523502002E+01 -0.55837127401E+01  0.16688302705E+01  0.93037318385E+01  0.51100000000E-03 0.  1.
        -12    1    3    3    0    0  0.11675741338E+02 -0.35795089906E+01 -0.15952631060E+02  0.20090352365E+02  0.00000000000E+00 0.  1.
</event>
<event>
 7    1  0.2655656E-009  0.4778727E+02  0.7816164E-02  0.1312668E+00
        -11   -1    0    0    0    0  0.00000000000E+00  0.00000000000E+00  0.45593999997E+02  0.45594000000E+02  0.51100000000E-03 0.  1.
         11   -1    0    0    0    0 -0.00000000000E+00 -0.00000000000E+00 -0.45593999997E+02  0.45594000000E+02  0.51100000000E-03 0. -1.
    9900012    2    1    2    0    0 -0.11125774547E+02 -0.12454201749E+02 -0.40059122744E+02  0.47787270565E+02  0.19999997813E+02 0.  0.
        -12    1    1    2    0    0  0.11125774547E+02  0.12454201749E+02  0.40059122744E+02  0.43400729435E+02  0.00000000000E+00 0.  1.
         11    1    3    3    0    0 -0.34830781407E+01 -0.22931162405E+01  0.48965222528E+00  0.41988063767E+01  0.51100000000E-03 0. -1.
        -11    1    3    3    0    0  0.22817673973E+01 -0.11544467286E+01 -0.55256267259E+01  0.60886583645E+01  0.51100000000E-03 0.  1.
         12    1    3    3    0    0 -0.99244638036E+01 -0.90066387799E+01 -0.35023148244E+02  0.37499805824E+02  0.00000000000E+00 0. -1.
</event>
<event>
 7    1  0.2655656E-009  0.4778727E+02  0.7816164E-02  0.1312668E+00
        -11   -1    0    0    0    0  0.00000000000E+00  0.00000000000E+00  0.45593999997E+02  0.45594000000E+02  0.51100000000E-03 0. -1.
         11   -1    0    0    0    0 -0.00000000000E+00 -0.00000000000E+00 -0.45593999997E+02  0.45594000000E+02  0.51100000000E-03 0.  1.
    9900012    2    1    2    0    0  0.24550119005E+02 -0.31357840388E+02  0.17251112237E+02  0.47787269932E+02  0.19999994929E+02 0.  0.
        -12    1    1    2    0    0 -0.24550119005E+02  0.31357840388E+02 -0.17251112237E+02  0.43400730068E+02  0.00000000000E+00 0.  1.
         11    1    3    3    0    0  0.27916134744E+01 -0.84971587672E+01  0.47864120036E+01  0.10144188141E+02  0.51100000000E-03 0. -1.
        -11    1    3    3    0    0 -0.23929442400E+01 -0.24574945259E+00  0.12246380894E+01  0.26993172544E+01  0.51100000000E-03 0.  1.
        -12    1    3    3    0    0  0.24151449771E+02 -0.22614932169E+02  0.11240062144E+02  0.34943764537E+02  0.00000000000E+00 0.  1.
</event>
<event>
 7    1  0.2655656E-009  0.4778727E+02  0.7816164E-02  0.1312668E+00
        -11   -1    0    0    0    0  0.00000000000E+00  0.00000000000E+00  0.45593999997E+02  0.45594000000E+02  0.51100000000E-03 0.  1.
         11   -1    0    0    0    0 -0.00000000000E+00 -0.00000000000E+00 -0.45593999997E+02  0.45594000000E+02  0.51100000000E-03 0. -1.
    9900012    2    1    2    0    0 -0.11708983819E+02  0.25726784820E+02 -0.32934106673E+02  0.47787272568E+02  0.20000006947E+02 0.  0.
        -12    1    1    2    0    0  0.11708983819E+02 -0.25726784820E+02  0.32934106673E+02  0.43400727432E+02  0.00000000000E+00 0.  1.
         11    1    3    3    0    0 -0.33956411266E+01  0.60657295836E+01 -0.20532700275E+02  0.21677528339E+02  0.51100000000E-03 0. -1.
        -11    1    3    3    0    0 -0.34354400490E+01  0.33322549634E+01  0.38932406747E+00  0.48018480778E+01  0.51100000000E-03 0.  1.
        -12    1    3    3    0    0 -0.48779026431E+01  0.16328800273E+02 -0.12790730466E+02  0.21307896152E+02  0.00000000000E+00 0.  1.
</event>
<event>
 7    1  0.2655656E-009  0.4778728E+02  0.7816164E-02  0.1312668E+00
        -11   -1    0    0    0    0  0.00000000000E+00  0.00000000000E+00  0.45593999997E+02  0.45594000000E+02  0.51100000000E-03 0.  1.
         11   -1    0    0    0    0 -0.00000000000E+00 -0.00000000000E+00 -0.45593999997E+02  0.45594000000E+02  0.51100000000E-03 0. -1.
    9900012    2    1    2    0    0 -0.41678178539E+02  0.10992579747E+02 -0.50710349207E+01  0.47787276838E+02  0.20000026415E+02 0.  0.
        -12    1    1    2    0    0  0.41678178539E+02 -0.10992579747E+02  0.50710349207E+01  0.43400723162E+02  0.00000000000E+00 0.  1.
         11    1    3    3    0    0  0.10066401694E+01  0.87362260500E+00 -0.25983035047E+01  0.29202264040E+01  0.51100000000E-03 0. -1.
        -11    1    3    3    0    0 -0.21986282869E+02  0.59822166491E+00 -0.52384814243E+00  0.22000657279E+02  0.51100000000E-03 0.  1.
         12    1    3    3    0    0 -0.20698535840E+02  0.95207354767E+01 -0.19488832735E+01  0.22866393155E+02  0.00000000000E+00 0. -1.
</event>
<event>
 7    1  0.2655656E-009  0.4778727E+02  0.7816164E-02  0.1312668E+00
        -11   -1    0    0    0    0  0.00000000000E+00  0.00000000000E+00  0.45593999997E+02  0.45594000000E+02  0.51100000000E-03 0.  1.
         11   -1    0    0    0    0 -0.00000000000E+00 -0.00000000000E+00 -0.45593999997E+02  0.45594000000E+02  0.51100000000E-03 0. -1.
    9900012    2    1    2    0    0 -0.29799628443E+02  0.27792978056E+02  0.14938400609E+02  0.47787270774E+02  0.19999998767E+02 0.  0.
        -12    1    1    2    0    0  0.29799628443E+02 -0.27792978056E+02 -0.14938400609E+02  0.43400729226E+02  0.00000000000E+00 0.  1.
         11    1    3    3    0    0  0.12952166262E+01  0.84724843597E+01  0.25972705694E+01  0.89558021419E+01  0.51100000000E-03 0.  1.
        -11    1    3    3    0    0 -0.16707336822E+02  0.11348444046E+02  0.86638131657E+01  0.21976895704E+02  0.51100000000E-03 0. -1.
        -12    1    3    3    0    0 -0.14387508248E+02  0.79720496506E+01  0.36773168740E+01  0.16854572928E+02  0.00000000000E+00 0.  1.
</event>
<event>
 7    1  0.2655656E-009  0.4778727E+02  0.7816164E-02  0.1312668E+00
        -11   -1    0    0    0    0  0.00000000000E+00  0.00000000000E+00  0.45593999997E+02  0.45594000000E+02  0.51100000000E-03 0. -1.
         11   -1    0    0    0    0 -0.00000000000E+00 -0.00000000000E+00 -0.45593999997E+02  0.45594000000E+02  0.51100000000E-03 0.  1.
    9900012    2    1    2    0    0  0.99246647906E+00 -0.41706834392E+02  0.11965711883E+02  0.47787270909E+02  0.19999999383E+02 0.  0.
        -12    1    1    2    0    0 -0.99246647906E+00  0.41706834392E+02 -0.11965711883E+02  0.43400729091E+02  0.00000000000E+00 0.  1.
         11    1    3    3    0    0  0.20241673704E+01 -0.12427186952E+02  0.58033215724E+00  0.12604325240E+02  0.51100000000E-03 0. -1.
        -11    1    3    3    0    0  0.37592189027E+01 -0.40966961771E+00  0.13476485562E-03  0.37814754043E+01  0.51100000000E-03 0.  1.
        -12    1    3    3    0    0 -0.47909197941E+01 -0.28869977823E+02  0.11385244961E+02  0.31401470265E+02  0.00000000000E+00 0.  1.
</event>
<event>
 7    1  0.2655656E-009  0.4778727E+02  0.7816164E-02  0.1312668E+00
        -11   -1    0    0    0    0  0.00000000000E+00  0.00000000000E+00  0.45593999997E+02  0.45594000000E+02  0.51100000000E-03 0. -1.
         11   -1    0    0    0    0 -0.00000000000E+00 -0.00000000000E+00 -0.45593999997E+02  0.45594000000E+02  0.51100000000E-03 0.  1.
    9900012    2    1    2    0    0  0.35297064835E+01  0.42535624040E+02  0.78667060810E+01  0.47787271839E+02  0.20000003622E+02 0.  0.
        -12    1    1    2    0    0 -0.35297064835E+01 -0.42535624040E+02 -0.78667060810E+01  0.43400728161E+02  0.00000000000E+00 0.  1.
         11    1    3    3    0    0  0.10520749007E+02  0.17220289893E+02  0.74153351418E+00  0.20193425066E+02  0.51100000000E-03 0. -1.
        -11    1    3    3    0    0 -0.55091124998E+01  0.23534412836E+02  0.73568691025E+01  0.25265439464E+02  0.51100000000E-03 0.  1.
         12    1    3    3    0    0 -0.14819300238E+01  0.17809213109E+01 -0.23169653566E+00  0.23284073087E+01  0.00000000000E+00 0. -1.
</event>
<event>
 7    1  0.2655656E-009  0.4778728E+02  0.7816164E-02  0.1312668E+00
        -11   -1    0    0    0    0  0.00000000000E+00  0.00000000000E+00  0.45593999997E+02  0.45594000000E+02  0.51100000000E-03 0.  1.
         11   -1    0    0    0    0 -0.00000000000E+00 -0.00000000000E+00 -0.45593999997E+02  0.45594000000E+02  0.51100000000E-03 0. -1.
    9900012    2    1    2    0    0 -0.60317104557E+01 -0.42660864751E+02 -0.52241697849E+01  0.47787275786E+02  0.20000021621E+02 0.  0.
        -12    1    1    2    0    0  0.60317104557E+01  0.42660864751E+02  0.52241697849E+01  0.43400724214E+02  0.00000000000E+00 0.  1.
         11    1    3    3    0    0 -0.68463773568E+01 -0.36127094809E+02 -0.93315207998E+01  0.37935697475E+02  0.51100000000E-03 0. -1.
        -11    1    3    3    0    0  0.11728589570E+01  0.53781734328E+00 -0.52199722447E+00  0.13918789427E+01  0.51100000000E-03 0.  1.
         12    1    3    3    0    0 -0.35819205596E+00 -0.70715872856E+01  0.46293482394E+01  0.84596993687E+01  0.00000000000E+00 0. -1.
</event>
<event>
 7    1  0.2655656E-009  0.4778727E+02  0.7816164E-02  0.1312668E+00
        -11   -1    0    0    0    0  0.00000000000E+00  0.00000000000E+00  0.45593999997E+02  0.45594000000E+02  0.51100000000E-03 0.  1.
         11   -1    0    0    0    0 -0.00000000000E+00 -0.00000000000E+00 -0.45593999997E+02  0.45594000000E+02  0.51100000000E-03 0. -1.
    9900012    2    1    2    0    0 -0.47226404936E+00  0.98161223941E+01 -0.42273442391E+02  0.47787271622E+02  0.20000002632E+02 0.  0.
        -12    1    1    2    0    0  0.47226404936E+00 -0.98161223941E+01  0.42273442391E+02  0.43400728378E+02  0.00000000000E+00 0.  1.
         11    1    3    3    0    0 -0.28689926973E+01  0.13454899724E+02 -0.33921600218E+02  0.36605196452E+02  0.51100000000E-03 0. -1.
        -11    1    3    3    0    0  0.19393364676E+01 -0.31240966915E+01 -0.93055911585E+01  0.10005750004E+02  0.51100000000E-03 0.  1.
         12    1    3    3    0    0  0.45739218029E+00 -0.51468063853E+00  0.95374898587E+00  0.11763251652E+01  0.00000000000E+00 0. -1.
</event>
<event>
 7    1  0.2655656E-009  0.4778728E+02  0.7816164E-02  0.1312668E+00
        -11   -1    0    0    0    0  0.00000000000E+00  0.00000000000E+00  0.45593999997E+02  0.45594000000E+02  0.51100000000E-03 0. -1.
         11   -1    0    0    0    0 -0.00000000000E+00 -0.00000000000E+00 -0.45593999997E+02  0.45594000000E+02  0.51100000000E-03 0.  1.
    9900012    2    1    2    0    0  0.14252625300E+02 -0.21870205816E+02  0.34672453975E+02  0.47787282322E+02  0.20000051417E+02 0.  0.
        -12    1    1    2    0    0 -0.14252625300E+02  0.21870205816E+02 -0.34672453975E+02  0.43400717678E+02  0.00000000000E+00 0.  1.
         11    1    3    3    0    0  0.17652775110E+02 -0.15500860552E+02  0.24073197426E+02  0.33636527488E+02  0.51100000000E-03 0. -1.
        -11    1    3    3    0    0 -0.47728579286E+01 -0.62246753467E+01  0.79773696392E+01  0.11187724639E+02  0.51100000000E-03 0.  1.
        -12    1    3    3    0    0  0.13727081181E+01 -0.14466991778E+00  0.26218869099E+01  0.29630301941E+01  0.00000000000E+00 0.  1.
</event>
<event>
 7    1  0.2655656E-009  0.4778727E+02  0.7816164E-02  0.1312668E+00
        -11   -1    0    0    0    0  0.00000000000E+00  0.00000000000E+00  0.45593999997E+02  0.45594000000E+02  0.51100000000E-03 0.  1.
         11   -1    0    0    0    0 -0.00000000000E+00 -0.00000000000E+00 -0.45593999997E+02  0.45594000000E+02  0.51100000000E-03 0. -1.
    9900012    2    1    2    0    0 -0.14428430559E+02 -0.28492973451E+02 -0.29386969697E+02  0.47787272674E+02  0.20000007429E+02 0.  0.
        -12    1    1    2    0    0  0.14428430559E+02  0.28492973451E+02  0.29386969697E+02  0.43400727326E+02  0.00000000000E+00 0.  1.
         11    1    3    3    0    0 -0.68347108902E+01 -0.42715216741E+01 -0.14872569221E+02  0.16916042264E+02  0.51100000000E-03 0. -1.
        -11    1    3    3    0    0 -0.84105752752E+01 -0.24834377826E+02 -0.13852801113E+02  0.29654412781E+02  0.51100000000E-03 0.  1.
        -12    1    3    3    0    0  0.81685560664E+00  0.61292604943E+00 -0.66159936338E+00  0.12168176288E+01  0.00000000000E+00 0.  1.
</event>
<event>
 7    1  0.2655656E-009  0.4778727E+02  0.7816164E-02  0.1312668E+00
        -11   -1    0    0    0    0  0.00000000000E+00  0.00000000000E+00  0.45593999997E+02  0.45594000000E+02  0.51100000000E-03 0.  1.
         11   -1    0    0    0    0 -0.00000000000E+00 -0.00000000000E+00 -0.45593999997E+02  0.45594000000E+02  0.51100000000E-03 0. -1.
    9900012    2    1    2    0    0 -0.19163527172E+02  0.15079263814E+02 -0.35902624415E+02  0.47787269468E+02  0.19999992810E+02 0.  0.
        -12    1    1    2    0    0  0.19163527172E+02 -0.15079263814E+02  0.35902624415E+02  0.43400730532E+02  0.00000000000E+00 0.  1.
         11    1    3    3    0    0  0.10861671767E+01  0.81220068454E+01 -0.12049057266E+02  0.14571428743E+02  0.51100000000E-03 0. -1.
        -11    1    3    3    0    0 -0.69464384752E+01  0.68329365702E+01 -0.11346176301E+02  0.14955859941E+02  0.51100000000E-03 0.  1.
         12    1    3    3    0    0 -0.13303255874E+02  0.12432039827E+00 -0.12507390847E+02  0.18259980783E+02  0.00000000000E+00 0. -1.
</event>
<event>
 7    1  0.2655656E-009  0.4778728E+02  0.7816164E-02  0.1312668E+00
        -11   -1    0    0    0    0  0.00000000000E+00  0.00000000000E+00  0.45593999997E+02  0.45594000000E+02  0.51100000000E-03 0.  1.
         11   -1    0    0    0    0 -0.00000000000E+00 -0.00000000000E+00 -0.45593999997E+02  0.45594000000E+02  0.51100000000E-03 0. -1.
    9900012    2    1    2    0    0  0.38854497076E+02  0.97610446562E+01 -0.16693476433E+02  0.47787284669E+02  0.20000062119E+02 0.  0.
        -12    1    1    2    0    0 -0.38854497076E+02 -0.97610446562E+01  0.16693476433E+02  0.43400715331E+02  0.00000000000E+00 0.  1.
         11    1    3    3    0    0  0.17520356141E+02  0.96052511722E+01 -0.16243094934E+02  0.25749987625E+02  0.51100000000E-03 0. -1.
        -11    1    3    3    0    0  0.87761832876E+01 -0.26428768103E+01 -0.75422314416E-01  0.91657994588E+01  0.51100000000E-03 0.  1.
        -12    1    3    3    0    0  0.12557957648E+02  0.27986702943E+01 -0.37495918514E+00  0.12871497585E+02  0.00000000000E+00 0.  1.
</event>
<event>
 7    1  0.2655656E-009  0.4778727E+02  0.7816164E-02  0.1312668E+00
        -11   -1    0    0    0    0  0.00000000000E+00  0.00000000000E+00  0.45593999997E+02  0.45594000000E+02  0.51100000000E-03 0.  1.
         11   -1    0    0    0    0 -0.00000000000E+00 -0.00000000000E+00 -0.45593999997E+02  0.45594000000E+02  0.51100000000E-03 0. -1.
    9900012    2    1    2    0    0 -0.29978004331E+01 -0.23138037205E+02 -0.36596006507E+02  0.47787271142E+02  0.20000000445E+02 0.  0.
        -12    1    1    2    0    0  0.29978004331E+01  0.23138037205E+02  0.36596006507E+02  0.43400728858E+02  0.00000000000E+00 0.  1.
         11    1    3    3    0    0  0.39355080018E+01 -0.90875273999E+01 -0.15857979418E+02  0.18696173110E+02  0.51100000000E-03 0. -1.
        -11    1    3    3    0    0 -0.37373414322E+01 -0.77675301209E+01 -0.16945734343E+01  0.87848633766E+01  0.51100000000E-03 0.  1.
        -12    1    3    3    0    0 -0.31959670026E+01 -0.62829796847E+01 -0.19043453654E+02  0.20306234655E+02  0.00000000000E+00 0.  1.
</event>
<event>
 7    1  0.2655656E-009  0.4778728E+02  0.7816164E-02  0.1312668E+00
        -11   -1    0    0    0    0  0.00000000000E+00  0.00000000000E+00  0.45593999997E+02  0.45594000000E+02  0.51100000000E-03 0. -1.
         11   -1    0    0    0    0 -0.00000000000E+00 -0.00000000000E+00 -0.45593999997E+02  0.45594000000E+02  0.51100000000E-03 0.  1.
    9900012    2    1    2    0    0 -0.95848393968E+01 -0.42297795596E+02  0.16278697358E+01  0.47787278595E+02  0.20000034427E+02 0.  0.
        -12    1    1    2    0    0  0.95848393968E+01  0.42297795596E+02 -0.16278697358E+01  0.43400721405E+02  0.00000000000E+00 0.  1.
         11    1    3    3    0    0  0.25362836160E+01 -0.21394434957E+02 -0.16138425728E+01  0.21604607606E+02  0.51100000000E-03 0. -1.
        -11    1    3    3    0    0 -0.11525587425E+02 -0.14538978353E+02  0.55833042921E+01  0.19375095978E+02  0.51100000000E-03 0.  1.
         12    1    3    3    0    0 -0.59553558741E+00 -0.63643822863E+01 -0.23415919834E+01  0.68075750116E+01  0.00000000000E+00 0. -1.
</event>
<event>
 7    1  0.2655656E-009  0.4778727E+02  0.7816164E-02  0.1312668E+00
        -11   -1    0    0    0    0  0.00000000000E+00  0.00000000000E+00  0.45593999997E+02  0.45594000000E+02  0.51100000000E-03 0.  1.
         11   -1    0    0    0    0 -0.00000000000E+00 -0.00000000000E+00 -0.45593999997E+02  0.45594000000E+02  0.51100000000E-03 0. -1.
    9900012    2    1    2    0    0  0.15068560341E+01 -0.23346181844E+02 -0.36555553140E+02  0.47787270892E+02  0.19999999303E+02 0.  0.
        -12    1    1    2    0    0 -0.15068560341E+01  0.23346181844E+02  0.36555553140E+02  0.43400729108E+02  0.00000000000E+00 0.  1.
         11    1    3    3    0    0  0.69086344083E+01 -0.15329749011E+02 -0.21323637412E+02  0.27155624590E+02  0.51100000000E-03 0. -1.
        -11    1    3    3    0    0 -0.27465341836E+01  0.17474151185E+01 -0.15256335455E+01  0.35950615564E+01  0.51100000000E-03 0.  1.
        -12    1    3    3    0    0 -0.26552441906E+01 -0.97638479509E+01 -0.13706282182E+02  0.17036584745E+02  0.00000000000E+00 0.  1.
</event>
<event>
 7    1  0.2655656E-009  0.4778727E+02  0.7816164E-02  0.1312668E+00
        -11   -1    0    0    0    0  0.00000000000E+00  0.00000000000E+00  0.45593999997E+02  0.45594000000E+02  0.51100000000E-03 0.  1.
         11   -1    0    0    0    0 -0.00000000000E+00 -0.00000000000E+00 -0.45593999997E+02  0.45594000000E+02  0.51100000000E-03 0. -1.
    9900012    2    1    2    0    0  0.17228305717E+01 -0.24691968923E+02 -0.35650550663E+02  0.47787271469E+02  0.20000001935E+02 0.  0.
        -12    1    1    2    0    0 -0.17228305717E+01  0.24691968923E+02  0.35650550663E+02  0.43400728531E+02  0.00000000000E+00 0.  1.
         11    1    3    3    0    0 -0.12418572345E+00  0.27711593594E+01 -0.23517937624E+01  0.36367128634E+01  0.51100000000E-03 0. -1.
        -11    1    3    3    0    0  0.85363499913E+00  0.51367934720E+00 -0.11602925693E+01  0.15293260905E+01  0.51100000000E-03 0.  1.
         12    1    3    3    0    0  0.99338129601E+00 -0.27976807629E+02 -0.32138464331E+02  0.42621232515E+02  0.00000000000E+00 0. -1.
</event>
<event>
 7    1  0.2655656E-009  0.4778727E+02  0.7816164E-02  0.1312668E+00
        -11   -1    0    0    0    0  0.00000000000E+00  0.00000000000E+00  0.45593999997E+02  0.45594000000E+02  0.51100000000E-03 0. -1.
         11   -1    0    0    0    0 -0.00000000000E+00 -0.00000000000E+00 -0.45593999997E+02  0.45594000000E+02  0.51100000000E-03 0.  1.
    9900012    2    1    2    0    0 -0.27721668728E+02 -0.58704114971E+01  0.32873556050E+02  0.47787270333E+02  0.19999996757E+02 0.  0.
        -12    1    1    2    0    0  0.27721668728E+02  0.58704114971E+01 -0.32873556050E+02  0.43400729667E+02  0.00000000000E+00 0.  1.
         11    1    3    3    0    0 -0.14630277555E+02  0.27709378095E+01  0.20210385308E+02  0.25103441841E+02  0.51100000000E-03 0. -1.
        -11    1    3    3    0    0 -0.56499999828E+01 -0.96846264196E+01  0.86783725115E+01  0.14178456841E+02  0.51100000000E-03 0.  1.
        -12    1    3    3    0    0 -0.74413911908E+01  0.10432771129E+01  0.39847982304E+01  0.85053716512E+01  0.00000000000E+00 0.  1.
</event>
<event>
 7    1  0.2655656E-009  0.4778726E+02  0.7816164E-02  0.1312668E+00
        -11   -1    0    0    0    0  0.00000000000E+00  0.00000000000E+00  0.45593999997E+02  0.45594000000E+02  0.51100000000E-03 0.  1.
         11   -1    0    0    0    0 -0.00000000000E+00 -0.00000000000E+00 -0.45593999997E+02  0.45594000000E+02  0.51100000000E-03 0. -1.
    9900012    2    1    2    0    0  0.17404704037E+02  0.10519410884E+02 -0.38341129886E+02  0.47787263037E+02  0.19999963493E+02 0.  0.
        -12    1    1    2    0    0 -0.17404704037E+02 -0.10519410884E+02  0.38341129886E+02  0.43400736963E+02  0.00000000000E+00 0.  1.
         11    1    3    3    0    0  0.35228723196E+01 -0.19382991149E+00 -0.45303774212E+01  0.57421702565E+01  0.51100000000E-03 0. -1.
        -11    1    3    3    0    0  0.11646325585E+02  0.41779628838E+01 -0.67046780263E+01  0.14072845526E+02  0.51100000000E-03 0.  1.
        -12    1    3    3    0    0  0.22355061323E+01  0.65352779112E+01 -0.27106074438E+02  0.27972247255E+02  0.00000000000E+00 0.  1.
</event>
<event>
 7    1  0.2655656E-009  0.4778727E+02  0.7816164E-02  0.1312668E+00
        -11   -1    0    0    0    0  0.00000000000E+00  0.00000000000E+00  0.45593999997E+02  0.45594000000E+02  0.51100000000E-03 0. -1.
         11   -1    0    0    0    0 -0.00000000000E+00 -0.00000000000E+00 -0.45593999997E+02  0.45594000000E+02  0.51100000000E-03 0.  1.
    9900012    2    1    2    0    0  0.39701935957E+02 -0.35971222151E+01  0.17159261652E+02  0.47787271119E+02  0.20000000338E+02 0.  0.
        -12    1    1    2    0    0 -0.39701935957E+02  0.35971222151E+01 -0.17159261652E+02  0.43400728881E+02  0.00000000000E+00 0.  1.
         11    1    3    3    0    0  0.19130249336E+02 -0.77710512608E+01  0.10650974369E+02  0.23233573394E+02  0.51100000000E-03 0. -1.
        -11    1    3    3    0    0  0.62935184648E+01  0.51230359743E+01 -0.13526415967E+01  0.82269989554E+01  0.51100000000E-03 0.  1.
        -12    1    3    3    0    0  0.14278168156E+02 -0.94910692857E+00  0.78609288796E+01  0.16326698770E+02  0.00000000000E+00 0.  1.
</event>
<event>
 7    1  0.2655656E-009  0.4778727E+02  0.7816164E-02  0.1312668E+00
        -11   -1    0    0    0    0  0.00000000000E+00  0.00000000000E+00  0.45593999997E+02  0.45594000000E+02  0.51100000000E-03 0.  1.
         11   -1    0    0    0    0 -0.00000000000E+00 -0.00000000000E+00 -0.45593999997E+02  0.45594000000E+02  0.51100000000E-03 0. -1.
    9900012    2    1    2    0    0 -0.32859247769E+02  0.42662712721E+01 -0.28030197572E+02  0.47787271775E+02  0.20000003332E+02 0.  0.
        -12    1    1    2    0    0  0.32859247769E+02 -0.42662712721E+01  0.28030197572E+02  0.43400728225E+02  0.00000000000E+00 0.  1.
         11    1    3    3    0    0 -0.17175357391E+02  0.24912232066E+01 -0.22577025372E+02  0.28476677642E+02  0.51100000000E-03 0. -1.
        -11    1    3    3    0    0 -0.76499085389E+01 -0.33787470343E+01 -0.92602607444E-01  0.83633490707E+01  0.51100000000E-03 0.  1.
        -12    1    3    3    0    0 -0.80339818384E+01  0.51537950997E+01 -0.53605695926E+01  0.10947245063E+02  0.00000000000E+00 0.  1.
</event>
<event>
 7    1  0.2655656E-009  0.4778727E+02  0.7816164E-02  0.1312668E+00
        -11   -1    0    0    0    0  0.00000000000E+00  0.00000000000E+00  0.45593999997E+02  0.45594000000E+02  0.51100000000E-03 0. -1.
         11   -1    0    0    0    0 -0.00000000000E+00 -0.00000000000E+00 -0.45593999997E+02  0.45594000000E+02  0.51100000000E-03 0.  1.
    9900012    2    1    2    0    0 -0.19089297256E+02 -0.16468909615E+02  0.35326997335E+02  0.47787274264E+02  0.20000014681E+02 0.  0.
        -12    1    1    2    0    0  0.19089297256E+02  0.16468909615E+02 -0.35326997335E+02  0.43400725736E+02  0.00000000000E+00 0.  1.
         11    1    3    3    0    0  0.27667566428E+00  0.28800044131E+01  0.36076702854E+01  0.46245280832E+01  0.51100000000E-03 0.  1.
        -11    1    3    3    0    0 -0.50268451688E+01 -0.12589273497E+01  0.20539894423E+01  0.55743110169E+01  0.51100000000E-03 0. -1.
         12    1    3    3    0    0 -0.14339127752E+02 -0.18089986679E+02  0.29665337608E+02  0.37588435164E+02  0.00000000000E+00 0. -1.
</event>
<event>
 7    1  0.2655656E-009  0.4778727E+02  0.7816164E-02  0.1312668E+00
        -11   -1    0    0    0    0  0.00000000000E+00  0.00000000000E+00  0.45593999997E+02  0.45594000000E+02  0.51100000000E-03 0.  1.
         11   -1    0    0    0    0 -0.00000000000E+00 -0.00000000000E+00 -0.45593999997E+02  0.45594000000E+02  0.51100000000E-03 0. -1.
    9900012    2    1    2    0    0  0.30336044684E+02  0.26060477115E+01 -0.30928246725E+02  0.47787268011E+02  0.19999986168E+02 0.  0.
        -12    1    1    2    0    0 -0.30336044684E+02 -0.26060477115E+01  0.30928246725E+02  0.43400731989E+02  0.00000000000E+00 0.  1.
         11    1    3    3    0    0  0.27470335432E+02  0.73159806772E+01 -0.26028121006E+02  0.38543559583E+02  0.51100000000E-03 0. -1.
        -11    1    3    3    0    0 -0.43872385084E+00 -0.41459882186E+01 -0.14016674293E+01  0.43984507238E+01  0.51100000000E-03 0.  1.
         12    1    3    3    0    0  0.33044331027E+01 -0.56394474710E+00 -0.34984582900E+01  0.48452577037E+01  0.00000000000E+00 0. -1.
</event>
<event>
 7    1  0.2655656E-009  0.4778729E+02  0.7816164E-02  0.1312668E+00
        -11   -1    0    0    0    0  0.00000000000E+00  0.00000000000E+00  0.45593999997E+02  0.45594000000E+02  0.51100000000E-03 0.  1.
         11   -1    0    0    0    0 -0.00000000000E+00 -0.00000000000E+00 -0.45593999997E+02  0.45594000000E+02  0.51100000000E-03 0. -1.
    9900012    2    1    2    0    0  0.29670699635E+02  0.24654303629E+02 -0.19885579842E+02  0.47787292748E+02  0.20000098955E+02 0.  0.
        -12    1    1    2    0    0 -0.29670699635E+02 -0.24654303629E+02  0.19885579842E+02  0.43400707252E+02  0.00000000000E+00 0.  1.
         11    1    3    3    0    0  0.18147700743E+02  0.14425846824E+02 -0.12603288414E+02  0.26387250292E+02  0.51100000000E-03 0. -1.
        -11    1    3    3    0    0  0.84808263088E+01  0.90376523263E+01  0.10619072221E+01  0.12439100517E+02  0.51100000000E-03 0.  1.
        -12    1    3    3    0    0  0.30421725838E+01  0.11908044788E+01 -0.83441986500E+01  0.89609419397E+01  0.00000000000E+00 0.  1.
</event>
<event>
 7    1  0.2655656E-009  0.4778728E+02  0.7816164E-02  0.1312668E+00
        -11   -1    0    0    0    0  0.00000000000E+00  0.00000000000E+00  0.45593999997E+02  0.45594000000E+02  0.51100000000E-03 0.  1.
         11   -1    0    0    0    0 -0.00000000000E+00 -0.00000000000E+00 -0.45593999997E+02  0.45594000000E+02  0.51100000000E-03 0. -1.
    9900012    2    1    2    0    0 -0.15560696635E+01 -0.63906254563E+01 -0.42899432779E+02  0.47787276742E+02  0.20000025977E+02 0.  0.
        -12    1    1    2    0    0  0.15560696635E+01  0.63906254563E+01  0.42899432779E+02  0.43400723258E+02  0.00000000000E+00 0.  1.
         11    1    3    3    0    0  0.18463125558E+01 -0.30372832858E+01 -0.19566602694E+01  0.40573981174E+01  0.51100000000E-03 0. -1.
        -11    1    3    3    0    0 -0.65856043914E+01  0.28026977130E+01 -0.29467447116E+02  0.30324177474E+02  0.51100000000E-03 0.  1.
        -12    1    3    3    0    0  0.31832221720E+01 -0.61560398835E+01 -0.11475325394E+02  0.13405701151E+02  0.00000000000E+00 0.  1.
</event>
<event>
 7    1  0.2655656E-009  0.4778727E+02  0.7816164E-02  0.1312668E+00
        -11   -1    0    0    0    0  0.00000000000E+00  0.00000000000E+00  0.45593999997E+02  0.45594000000E+02  0.51100000000E-03 0. -1.
         11   -1    0    0    0    0 -0.00000000000E+00 -0.00000000000E+00 -0.45593999997E+02  0.45594000000E+02  0.51100000000E-03 0.  1.
    9900012    2    1    2    0    0 -0.42474507690E+02 -0.66683950522E+01  0.59222003868E+01  0.47787265519E+02  0.19999974806E+02 0.  0.
        -12    1    1    2    0    0  0.42474507690E+02  0.66683950522E+01 -0.59222003868E+01  0.43400734481E+02  0.00000000000E+00 0.  1.
         11    1    3    3    0    0 -0.84834074148E+01 -0.29912830529E+01  0.55566089237E+01  0.10573167863E+02  0.51100000000E-03 0. -1.
        -11    1    3    3    0    0 -0.10697074093E+02  0.56424520819E+01  0.80899373337E+00  0.12121020204E+02  0.51100000000E-03 0.  1.
        -12    1    3    3    0    0 -0.23294026182E+02 -0.93195640812E+01 -0.44340227022E+00  0.25093077452E+02  0.00000000000E+00 0.  1.
</event>
<event>
 7    1  0.2655656E-009  0.4778727E+02  0.7816164E-02  0.1312668E+00
        -11   -1    0    0    0    0  0.00000000000E+00  0.00000000000E+00  0.45593999997E+02  0.45594000000E+02  0.51100000000E-03 0.  1.
         11   -1    0    0    0    0 -0.00000000000E+00 -0.00000000000E+00 -0.45593999997E+02  0.45594000000E+02  0.51100000000E-03 0. -1.
    9900012    2    1    2    0    0 -0.33473359753E+02 -0.18980405413E+02 -0.20072412165E+02  0.47787270364E+02  0.19999996897E+02 0.  0.
        -12    1    1    2    0    0  0.33473359753E+02  0.18980405413E+02  0.20072412165E+02  0.43400729636E+02  0.00000000000E+00 0.  1.
         11    1    3    3    0    0 -0.67690340803E+01 -0.19429117699E+01 -0.76628113877E+01  0.10407372730E+02  0.51100000000E-03 0. -1.
        -11    1    3    3    0    0 -0.27127139730E+02 -0.13777380268E+02 -0.14266785929E+02  0.33604152987E+02  0.51100000000E-03 0.  1.
        -12    1    3    3    0    0  0.42281405701E+00 -0.32601133755E+01  0.18571851517E+01  0.37757446465E+01  0.00000000000E+00 0.  1.
</event>
<event>
 7    1  0.2655656E-009  0.4778726E+02  0.7816164E-02  0.1312668E+00
        -11   -1    0    0    0    0  0.00000000000E+00  0.00000000000E+00  0.45593999997E+02  0.45594000000E+02  0.51100000000E-03 0.  1.
         11   -1    0    0    0    0 -0.00000000000E+00 -0.00000000000E+00 -0.45593999997E+02  0.45594000000E+02  0.51100000000E-03 0. -1.
    9900012    2    1    2    0    0 -0.18638686899E+02 -0.21358059440E+02 -0.32864223317E+02  0.47787256612E+02  0.19999934198E+02 0.  0.
        -12    1    1    2    0    0  0.18638686899E+02  0.21358059440E+02  0.32864223317E+02  0.43400743388E+02  0.00000000000E+00 0.  1.
         11    1    3    3    0    0 -0.58788493690E+01 -0.19864898454E+02 -0.25595740059E+02  0.32928968552E+02  0.51100000000E-03 0. -1.
        -11    1    3    3    0    0 -0.91782113247E+01 -0.79299504512E+00 -0.60031263136E+01  0.10995723262E+02  0.51100000000E-03 0.  1.
         12    1    3    3    0    0 -0.35816262053E+01 -0.70016594114E+00 -0.12653569445E+01  0.38625647977E+01  0.00000000000E+00 0. -1.
</event>
<event>
 7    1  0.2655656E-009  0.4778727E+02  0.7816164E-02  0.1312668E+00
        -11   -1    0    0    0    0  0.00000000000E+00  0.00000000000E+00  0.45593999997E+02  0.45594000000E+02  0.51100000000E-03 0.  1.
         11   -1    0    0    0    0 -0.00000000000E+00 -0.00000000000E+00 -0.45593999997E+02  0.45594000000E+02  0.51100000000E-03 0. -1.
    9900012    2    1    2    0    0 -0.25192037612E+02  0.26805780093E+02 -0.23031171375E+02  0.47787268896E+02  0.19999990205E+02 0.  0.
        -12    1    1    2    0    0  0.25192037612E+02 -0.26805780093E+02  0.23031171375E+02  0.43400731104E+02  0.00000000000E+00 0.  1.
         11    1    3    3    0    0 -0.13094081790E+02  0.81384750055E+01 -0.75843624818E+01  0.17181743446E+02  0.51100000000E-03 0. -1.
        -11    1    3    3    0    0 -0.13325786773E+01  0.10253596614E+02 -0.49577568211E+00  0.10351705331E+02  0.51100000000E-03 0.  1.
        -12    1    3    3    0    0 -0.10765377145E+02  0.84137084731E+01 -0.14951033211E+02  0.20253820119E+02  0.00000000000E+00 0.  1.
</event>
<event>
 7    1  0.2655656E-009  0.4778727E+02  0.7816164E-02  0.1312668E+00
        -11   -1    0    0    0    0  0.00000000000E+00  0.00000000000E+00  0.45593999997E+02  0.45594000000E+02  0.51100000000E-03 0. -1.
         11   -1    0    0    0    0 -0.00000000000E+00 -0.00000000000E+00 -0.45593999997E+02  0.45594000000E+02  0.51100000000E-03 0.  1.
    9900012    2    1    2    0    0  0.84395203436E+01 -0.11797936863E+02  0.40904845667E+02  0.47787271701E+02  0.20000002993E+02 0.  0.
        -12    1    1    2    0    0 -0.84395203436E+01  0.11797936863E+02 -0.40904845667E+02  0.43400728299E+02  0.00000000000E+00 0.  1.
         11    1    3    3    0    0 -0.40801884749E+01 -0.41756372587E+01  0.78211616479E+01  0.97598388455E+01  0.51100000000E-03 0. -1.
        -11    1    3    3    0    0  0.93292447816E+01 -0.10767191217E+02  0.25956125451E+02  0.29608911895E+02  0.51100000000E-03 0.  1.
        -12    1    3    3    0    0  0.31904640369E+01  0.31448916127E+01  0.71275585676E+01  0.84185209604E+01  0.00000000000E+00 0.  1.
</event>
<event>
 7    1  0.2655656E-009  0.4778727E+02  0.7816164E-02  0.1312668E+00
        -11   -1    0    0    0    0  0.00000000000E+00  0.00000000000E+00  0.45593999997E+02  0.45594000000E+02  0.51100000000E-03 0.  1.
         11   -1    0    0    0    0 -0.00000000000E+00 -0.00000000000E+00 -0.45593999997E+02  0.45594000000E+02  0.51100000000E-03 0. -1.
    9900012    2    1    2    0    0 -0.38535610495E+02 -0.95229176498E+01 -0.17548340145E+02  0.47787268685E+02  0.19999989243E+02 0.  0.
        -12    1    1    2    0    0  0.38535610495E+02  0.95229176498E+01  0.17548340145E+02  0.43400731315E+02  0.00000000000E+00 0.  1.
         11    1    3    3    0    0 -0.60280426794E+01  0.36388100169E+00 -0.24680785875E-01  0.60390659319E+01  0.51100000000E-03 0. -1.
        -11    1    3    3    0    0 -0.25148060540E+02 -0.10972560111E+02 -0.60865849573E+01  0.28104599997E+02  0.51100000000E-03 0.  1.
        -12    1    3    3    0    0 -0.73595072760E+01  0.10857614592E+01 -0.11437074402E+02  0.13643602756E+02  0.00000000000E+00 0.  1.
</event>
<event>
 7    1  0.2655656E-009  0.4778727E+02  0.7816164E-02  0.1312668E+00
        -11   -1    0    0    0    0  0.00000000000E+00  0.00000000000E+00  0.45593999997E+02  0.45594000000E+02  0.51100000000E-03 0.  1.
         11   -1    0    0    0    0 -0.00000000000E+00 -0.00000000000E+00 -0.45593999997E+02  0.45594000000E+02  0.51100000000E-03 0. -1.
    9900012    2    1    2    0    0 -0.34298335121E+02 -0.19004194570E+02 -0.18603443047E+02  0.47787270783E+02  0.19999998810E+02 0.  0.
        -12    1    1    2    0    0  0.34298335121E+02  0.19004194570E+02  0.18603443047E+02  0.43400729217E+02  0.00000000000E+00 0.  1.
         11    1    3    3    0    0 -0.25094757048E+02 -0.13536749375E+02 -0.74682300015E+01  0.29474817634E+02  0.51100000000E-03 0. -1.
        -11    1    3    3    0    0 -0.58754752025E+01  0.18023984003E+01 -0.27711109645E+01  0.67415803108E+01  0.51100000000E-03 0.  1.
         12    1    3    3    0    0 -0.33281028704E+01 -0.72698435959E+01 -0.83641020812E+01  0.11570872839E+02  0.00000000000E+00 0. -1.
</event>
<event>
 7    1  0.2655656E-009  0.4778724E+02  0.7816164E-02  0.1312668E+00
        -11   -1    0    0    0    0  0.00000000000E+00  0.00000000000E+00  0.45593999997E+02  0.45594000000E+02  0.51100000000E-03 0. -1.
         11   -1    0    0    0    0 -0.00000000000E+00 -0.00000000000E+00 -0.45593999997E+02  0.45594000000E+02  0.51100000000E-03 0.  1.
    9900012    2    1    2    0    0 -0.47919237765E+01  0.41448485761E+02  0.11945136594E+02  0.47787242015E+02  0.19999867645E+02 0.  0.
        -12    1    1    2    0    0  0.47919237765E+01 -0.41448485761E+02 -0.11945136594E+02  0.43400757985E+02  0.00000000000E+00 0.  1.
         11    1    3    3    0    0 -0.38933892230E+01  0.17991694726E+01  0.15802433481E+01  0.45708489073E+01  0.51100000000E-03 0. -1.
        -11    1    3    3    0    0  0.38341696112E+01  0.25471221929E+02  0.14201857759E+01  0.25797304724E+02  0.51100000000E-03 0.  1.
        -12    1    3    3    0    0 -0.47327041646E+01  0.14178094360E+02  0.89447074702E+01  0.17419088384E+02  0.00000000000E+00 0.  1.
</event>
<event>
 7    1  0.2655656E-009  0.4778727E+02  0.7816164E-02  0.1312668E+00
        -11   -1    0    0    0    0  0.00000000000E+00  0.00000000000E+00  0.45593999997E+02  0.45594000000E+02  0.51100000000E-03 0. -1.
         11   -1    0    0    0    0 -0.00000000000E+00 -0.00000000000E+00 -0.45593999997E+02  0.45594000000E+02  0.51100000000E-03 0.  1.
    9900012    2    1    2    0    0  0.31506671887E+02  0.16027244033E+02 -0.25180952124E+02  0.47787271037E+02  0.19999999967E+02 0.  0.
        -12    1    1    2    0    0 -0.31506671887E+02 -0.16027244033E+02  0.25180952124E+02  0.43400728963E+02  0.00000000000E+00 0.  1.
         11    1    3    3    0    0 -0.32065051194E+00  0.38894737664E+01  0.75460777627E+00  0.39749535957E+01  0.51100000000E-03 0. -1.
        -11    1    3    3    0    0  0.88860486259E+01  0.10170749122E+01 -0.11314644761E+02  0.14422811373E+02  0.51100000000E-03 0.  1.
         12    1    3    3    0    0  0.22941273773E+02  0.11120695354E+02 -0.14620915139E+02  0.29389506069E+02  0.00000000000E+00 0. -1.
</event>
<event>
 7    1  0.2655656E-009  0.4778728E+02  0.7816164E-02  0.1312668E+00
        -11   -1    0    0    0    0  0.00000000000E+00  0.00000000000E+00  0.45593999997E+02  0.45594000000E+02  0.51100000000E-03 0. -1.
         11   -1    0    0    0    0 -0.00000000000E+00 -0.00000000000E+00 -0.45593999997E+02  0.45594000000E+02  0.51100000000E-03 0.  1.
    9900012    2    1    2    0    0  0.63006015609E+01 -0.32679870624E+02  0.27855889943E+02  0.47787284239E+02  0.20000060160E+02 0.  0.
        -12    1    1    2    0    0 -0.63006015609E+01  0.32679870624E+02 -0.27855889943E+02  0.43400715761E+02  0.00000000000E+00 0.  1.
         11    1    3    3    0    0  0.34185468626E+01 -0.51121756802E+01  0.11145271506E+02  0.12729410043E+02  0.51100000000E-03 0. -1.
        -11    1    3    3    0    0 -0.40414277598E+01 -0.19364106973E+02  0.13127577546E+02  0.23740999762E+02  0.51100000000E-03 0.  1.
        -12    1    3    3    0    0  0.69234824581E+01 -0.82035879702E+01  0.35830408913E+01  0.11316874434E+02  0.00000000000E+00 0.  1.
</event>
<event>
 7    1  0.2655656E-009  0.4778727E+02  0.7816164E-02  0.1312668E+00
        -11   -1    0    0    0    0  0.00000000000E+00  0.00000000000E+00  0.45593999997E+02  0.45594000000E+02  0.51100000000E-03 0.  1.
         11   -1    0    0    0    0 -0.00000000000E+00 -0.00000000000E+00 -0.45593999997E+02  0.45594000000E+02  0.51100000000E-03 0. -1.
    9900012    2    1    2    0    0  0.19112573042E+02  0.15753986564E+02 -0.35639088269E+02  0.47787272430E+02  0.20000006318E+02 0.  0.
        -12    1    1    2    0    0 -0.19112573042E+02 -0.15753986564E+02  0.35639088269E+02  0.43400727570E+02  0.00000000000E+00 0.  1.
         11    1    3    3    0    0  0.18607759267E+02  0.13563866761E+02 -0.30917411594E+02  0.38550143014E+02  0.51100000000E-03 0. -1.
        -11    1    3    3    0    0 -0.10786632278E+01  0.47726695903E+01 -0.26222252135E+01  0.55513921415E+01  0.51100000000E-03 0.  1.
         12    1    3    3    0    0  0.15834770031E+01 -0.25825497869E+01 -0.20994514610E+01  0.36857372747E+01  0.00000000000E+00 0. -1.
</event>
<event>
 7    1  0.2655656E-009  0.4778727E+02  0.7816164E-02  0.1312668E+00
        -11   -1    0    0    0    0  0.00000000000E+00  0.00000000000E+00  0.45593999997E+02  0.45594000000E+02  0.51100000000E-03 0.  1.
         11   -1    0    0    0    0 -0.00000000000E+00 -0.00000000000E+00 -0.45593999997E+02  0.45594000000E+02  0.51100000000E-03 0. -1.
    9900012    2    1    2    0    0  0.31565870522E+02  0.17110017129E+02 -0.24381689476E+02  0.47787266715E+02  0.19999980259E+02 0.  0.
        -12    1    1    2    0    0 -0.31565870522E+02 -0.17110017129E+02  0.24381689476E+02  0.43400733285E+02  0.00000000000E+00 0.  1.
         11    1    3    3    0    0  0.45654354245E+01  0.36261644263E+01  0.20966498736E+01  0.61958219806E+01  0.51100000000E-03 0.  1.
        -11    1    3    3    0    0  0.47792040361E+01  0.41342040005E+01 -0.11746936839E+02  0.13338776529E+02  0.51100000000E-03 0. -1.
         12    1    3    3    0    0  0.22221231062E+02  0.93496487017E+01 -0.14731402511E+02  0.28252668205E+02  0.00000000000E+00 0. -1.
</event>
<event>
 7    1  0.2655656E-009  0.4778728E+02  0.7816164E-02  0.1312668E+00
        -11   -1    0    0    0    0  0.00000000000E+00  0.00000000000E+00  0.45593999997E+02  0.45594000000E+02  0.51100000000E-03 0.  1.
         11   -1    0    0    0    0 -0.00000000000E+00 -0.00000000000E+00 -0.45593999997E+02  0.45594000000E+02  0.51100000000E-03 0. -1.
    9900012    2    1    2    0    0 -0.24925834886E+02  0.43981546838E+01 -0.35255938993E+02  0.47787282913E+02  0.20000054112E+02 0.  0.
        -12    1    1    2    0    0  0.24925834886E+02 -0.43981546838E+01  0.35255938993E+02  0.43400717087E+02  0.00000000000E+00 0.  1.
         11    1    3    3    0    0 -0.16195726157E+02  0.83409131558E+01 -0.21673280480E+02  0.28312602584E+02  0.51100000000E-03 0. -1.
        -11    1    3    3    0    0 -0.28576734358E+01 -0.35422985398E+01 -0.12740050354E+02  0.13528601543E+02  0.51100000000E-03 0.  1.
        -12    1    3    3    0    0 -0.58724352928E+01 -0.40045993221E+00 -0.84260815924E+00  0.59460787865E+01  0.00000000000E+00 0.  1.
</event>
<event>
 7    1  0.2655656E-009  0.4778726E+02  0.7816164E-02  0.1312668E+00
        -11   -1    0    0    0    0  0.00000000000E+00  0.00000000000E+00  0.45593999997E+02  0.45594000000E+02  0.51100000000E-03 0.  1.
         11   -1    0    0    0    0 -0.00000000000E+00 -0.00000000000E+00 -0.45593999997E+02  0.45594000000E+02  0.51100000000E-03 0. -1.
    9900012    2    1    2    0    0  0.24550127835E+02 -0.21830052958E+02 -0.28361310859E+02  0.47787263342E+02  0.19999964882E+02 0.  0.
        -12    1    1    2    0    0 -0.24550127835E+02  0.21830052958E+02  0.28361310859E+02  0.43400736658E+02  0.00000000000E+00 0.  1.
         11    1    3    3    0    0  0.97990294904E+01 -0.10395237502E+02 -0.62739185484E+01  0.15602691944E+02  0.51100000000E-03 0. -1.
        -11    1    3    3    0    0  0.13252711164E+01 -0.94769957606E+01 -0.67681503856E+01  0.11720821306E+02  0.51100000000E-03 0.  1.
        -12    1    3    3    0    0  0.13425827228E+02 -0.19578196952E+01 -0.15319241925E+02  0.20463750093E+02  0.00000000000E+00 0.  1.
</event>
<event>
 7    1  0.2655656E-009  0.4778727E+02  0.7816164E-02  0.1312668E+00
        -11   -1    0    0    0    0  0.00000000000E+00  0.00000000000E+00  0.45593999997E+02  0.45594000000E+02  0.51100000000E-03 0.  1.
         11   -1    0    0    0    0 -0.00000000000E+00 -0.00000000000E+00 -0.45593999997E+02  0.45594000000E+02  0.51100000000E-03 0. -1.
    9900012    2    1    2    0    0 -0.33079990706E+02 -0.18499297884E+02 -0.21145067584E+02  0.47787266245E+02  0.19999978119E+02 0.  0.
        -12    1    1    2    0    0  0.33079990706E+02  0.18499297884E+02  0.21145067584E+02  0.43400733755E+02  0.00000000000E+00 0.  1.
         11    1    3    3    0    0 -0.16327209791E+01 -0.60435799793E+01 -0.68382123552E+01  0.92710185653E+01  0.51100000000E-03 0. -1.
        -11    1    3    3    0    0 -0.30303719999E+02 -0.10969264395E+02 -0.16007603193E+02  0.35984490651E+02  0.51100000000E-03 0.  1.
        -12    1    3    3    0    0 -0.11435497273E+01 -0.14864535101E+01  0.17007479641E+01  0.25317570290E+01  0.00000000000E+00 0.  1.
</event>
<event>
 7    1  0.2655656E-009  0.4778727E+02  0.7816164E-02  0.1312668E+00
        -11   -1    0    0    0    0  0.00000000000E+00  0.00000000000E+00  0.45593999997E+02  0.45594000000E+02  0.51100000000E-03 0.  1.
         11   -1    0    0    0    0 -0.00000000000E+00 -0.00000000000E+00 -0.45593999997E+02  0.45594000000E+02  0.51100000000E-03 0. -1.
    9900012    2    1    2    0    0 -0.29731579138E+02 -0.13817057649E+02 -0.28438453799E+02  0.47787268041E+02  0.19999986304E+02 0.  0.
        -12    1    1    2    0    0  0.29731579138E+02  0.13817057649E+02  0.28438453799E+02  0.43400731959E+02  0.00000000000E+00 0.  1.
         11    1    3    3    0    0 -0.10242824566E+02 -0.24575017169E+01 -0.48821979608E+01  0.11609936562E+02  0.51100000000E-03 0. -1.
        -11    1    3    3    0    0 -0.16116368586E+02 -0.89737099352E+00 -0.16680913752E+02  0.23211968787E+02  0.51100000000E-03 0.  1.
        -12    1    3    3    0    0 -0.33723859856E+01 -0.10462184938E+02 -0.68753420864E+01  0.12965362691E+02  0.00000000000E+00 0.  1.
</event>
<event>
 7    1  0.2655656E-009  0.4778727E+02  0.7816164E-02  0.1312668E+00
        -11   -1    0    0    0    0  0.00000000000E+00  0.00000000000E+00  0.45593999997E+02  0.45594000000E+02  0.51100000000E-03 0.  1.
         11   -1    0    0    0    0 -0.00000000000E+00 -0.00000000000E+00 -0.45593999997E+02  0.45594000000E+02  0.51100000000E-03 0. -1.
    9900012    2    1    2    0    0 -0.16014878573E+01  0.23962155038E+02 -0.36150706526E+02  0.47787271667E+02  0.20000002841E+02 0.  0.
        -12    1    1    2    0    0  0.16014878573E+01 -0.23962155038E+02  0.36150706526E+02  0.43400728333E+02  0.00000000000E+00 0.  1.
         11    1    3    3    0    0 -0.32575570151E+01 -0.11642501625E+01 -0.90305271867E+01  0.96704486803E+01  0.51100000000E-03 0. -1.
        -11    1    3    3    0    0  0.32969620428E-01  0.67553382486E+01 -0.21801306550E+01  0.70984964452E+01  0.51100000000E-03 0.  1.
         12    1    3    3    0    0  0.16230995373E+01  0.18371066952E+02 -0.24940048685E+02  0.31018326542E+02  0.00000000000E+00 0. -1.
</event>
<event>
 7    1  0.2655656E-009  0.4778727E+02  0.7816164E-02  0.1312668E+00
        -11   -1    0    0    0    0  0.00000000000E+00  0.00000000000E+00  0.45593999997E+02  0.45594000000E+02  0.51100000000E-03 0.  1.
         11   -1    0    0    0    0 -0.00000000000E+00 -0.00000000000E+00 -0.45593999997E+02  0.45594000000E+02  0.51100000000E-03 0. -1.
    9900012    2    1    2    0    0 -0.24222857446E+02 -0.35644506380E+02  0.51327843568E+01  0.47787272665E+02  0.20000007390E+02 0.  0.
        -12    1    1    2    0    0  0.24222857446E+02  0.35644506380E+02 -0.51327843568E+01  0.43400727335E+02  0.00000000000E+00 0.  1.
         11    1    3    3    0    0 -0.54804880018E+01 -0.43328154047E+01  0.16112950858E+00  0.69882044224E+01  0.51100000000E-03 0. -1.
        -11    1    3    3    0    0 -0.14740980570E+02 -0.32916525641E+02  0.34668098607E+01  0.36232760581E+02  0.51100000000E-03 0.  1.
        -12    1    3    3    0    0 -0.40013888737E+01  0.16048346660E+01  0.15048449875E+01  0.45663076616E+01  0.00000000000E+00 0.  1.
</event>
<event>
 7    1  0.2655656E-009  0.4778728E+02  0.7816164E-02  0.1312668E+00
        -11   -1    0    0    0    0  0.00000000000E+00  0.00000000000E+00  0.45593999997E+02  0.45594000000E+02  0.51100000000E-03 0.  1.
         11   -1    0    0    0    0 -0.00000000000E+00 -0.00000000000E+00 -0.45593999997E+02  0.45594000000E+02  0.51100000000E-03 0. -1.
    9900012    2    1    2    0    0 -0.21200825388E+02 -0.31406584348E+01 -0.37739679361E+02  0.47787284213E+02  0.20000060042E+02 0.  0.
        -12    1    1    2    0    0  0.21200825388E+02  0.31406584348E+01  0.37739679361E+02  0.43400715787E+02  0.00000000000E+00 0.  1.
         11    1    3    3    0    0 -0.23475312499E+02 -0.26112481263E+01 -0.34268773169E+02  0.41620400389E+02  0.51100000000E-03 0. -1.
        -11    1    3    3    0    0  0.26044900067E+01 -0.16870329430E+00  0.51753376533E-01  0.26104611986E+01  0.51100000000E-03 0.  1.
        -12    1    3    3    0    0 -0.33000289535E+00 -0.36070701421E+00 -0.35226595680E+01  0.35564226258E+01  0.00000000000E+00 0.  1.
</event>
<event>
 7    1  0.2655656E-009  0.4778728E+02  0.7816164E-02  0.1312668E+00
        -11   -1    0    0    0    0  0.00000000000E+00  0.00000000000E+00  0.45593999997E+02  0.45594000000E+02  0.51100000000E-03 0. -1.
         11   -1    0    0    0    0 -0.00000000000E+00 -0.00000000000E+00 -0.45593999997E+02  0.45594000000E+02  0.51100000000E-03 0.  1.
    9900012    2    1    2    0    0  0.35568204355E+02 -0.14067802358E+02  0.20509078718E+02  0.47787279567E+02  0.20000038860E+02 0.  0.
        -12    1    1    2    0    0 -0.35568204355E+02  0.14067802358E+02 -0.20509078718E+02  0.43400720433E+02  0.00000000000E+00 0.  1.
         11    1    3    3    0    0  0.20216268184E+02 -0.65246027922E+01  0.20411460937E+02  0.29460069224E+02  0.51100000000E-03 0. -1.
        -11    1    3    3    0    0 -0.29074282042E+00 -0.40275424378E+00  0.99117469807E+00  0.11086793548E+01  0.51100000000E-03 0.  1.
         12    1    3    3    0    0  0.15642678991E+02 -0.71404453224E+01 -0.89355691704E+00  0.17218530988E+02  0.00000000000E+00 0. -1.
</event>
<event>
 7    1  0.2655656E-009  0.4778727E+02  0.7816164E-02  0.1312668E+00
        -11   -1    0    0    0    0  0.00000000000E+00  0.00000000000E+00  0.45593999997E+02  0.45594000000E+02  0.51100000000E-03 0.  1.
         11   -1    0    0    0    0 -0.00000000000E+00 -0.00000000000E+00 -0.45593999997E+02  0.45594000000E+02  0.51100000000E-03 0. -1.
    9900012    2    1    2    0    0  0.32515266785E+01 -0.20681606127E+02 -0.38017387733E+02  0.47787273879E+02  0.20000012925E+02 0.  0.
        -12    1    1    2    0    0 -0.32515266785E+01  0.20681606127E+02  0.38017387733E+02  0.43400726121E+02  0.00000000000E+00 0.  1.
         11    1    3    3    0    0 -0.12165589182E+01 -0.39612286432E+00  0.14954968796E+01  0.19681057144E+01  0.51100000000E-03 0.  1.
        -11    1    3    3    0    0 -0.11159157983E+01 -0.15668278042E+02 -0.29973068926E+02  0.33839696600E+02  0.51100000000E-03 0. -1.
        -12    1    3    3    0    0  0.55840013951E+01 -0.46172052210E+01 -0.95398156874E+01  0.11979471565E+02  0.00000000000E+00 0.  1.
</event>
<event>
 7    1  0.2655656E-009  0.4778728E+02  0.7816164E-02  0.1312668E+00
        -11   -1    0    0    0    0  0.00000000000E+00  0.00000000000E+00  0.45593999997E+02  0.45594000000E+02  0.51100000000E-03 0.  1.
         11   -1    0    0    0    0 -0.00000000000E+00 -0.00000000000E+00 -0.45593999997E+02  0.45594000000E+02  0.51100000000E-03 0. -1.
    9900012    2    1    2    0    0  0.19083655090E+02 -0.83644531172E+01 -0.38071941189E+02  0.47787277962E+02  0.20000031539E+02 0.  0.
        -12    1    1    2    0    0 -0.19083655090E+02  0.83644531172E+01  0.38071941189E+02  0.43400722038E+02  0.00000000000E+00 0.  1.
         11    1    3    3    0    0  0.81871100670E+01 -0.11950739929E+02 -0.10980999870E+02  0.18177769789E+02  0.51100000000E-03 0. -1.
        -11    1    3    3    0    0  0.66481108553E+01  0.15130389506E+01 -0.19596114492E+02  0.20748358207E+02  0.51100000000E-03 0.  1.
        -12    1    3    3    0    0  0.42484341674E+01  0.20732478608E+01 -0.74948268264E+01  0.88611499663E+01  0.00000000000E+00 0.  1.
</event>
<event>
 7    1  0.2655656E-009  0.4778727E+02  0.7816164E-02  0.1312668E+00
        -11   -1    0    0    0    0  0.00000000000E+00  0.00000000000E+00  0.45593999997E+02  0.45594000000E+02  0.51100000000E-03 0.  1.
         11   -1    0    0    0    0 -0.00000000000E+00 -0.00000000000E+00 -0.45593999997E+02  0.45594000000E+02  0.51100000000E-03 0. -1.
    9900012    2    1    2    0    0  0.40652700247E+02 -0.15071288727E+02  0.19589734827E+01  0.47787270071E+02  0.19999995561E+02 0.  0.
        -12    1    1    2    0    0 -0.40652700247E+02  0.15071288727E+02 -0.19589734827E+01  0.43400729929E+02  0.00000000000E+00 0.  1.
         11    1    3    3    0    0  0.58713116105E+01 -0.26946757315E+01 -0.12085969114E+00  0.64612835143E+01  0.51100000000E-03 0. -1.
        -11    1    3    3    0    0  0.26313902809E+02 -0.29465921600E+01  0.75326818594E+01  0.27528988043E+02  0.51100000000E-03 0.  1.
        -12    1    3    3    0    0  0.84674858275E+01 -0.94300208359E+01 -0.54528486856E+01  0.13796998514E+02  0.00000000000E+00 0.  1.
</event>
<event>
 7    1  0.2655656E-009  0.4778727E+02  0.7816164E-02  0.1312668E+00
        -11   -1    0    0    0    0  0.00000000000E+00  0.00000000000E+00  0.45593999997E+02  0.45594000000E+02  0.51100000000E-03 0.  1.
         11   -1    0    0    0    0 -0.00000000000E+00 -0.00000000000E+00 -0.45593999997E+02  0.45594000000E+02  0.51100000000E-03 0. -1.
    9900012    2    1    2    0    0 -0.25747376473E+01 -0.61645690866E+01 -0.42883472398E+02  0.47787269697E+02  0.19999993855E+02 0.  0.
        -12    1    1    2    0    0  0.25747376473E+01  0.61645690866E+01  0.42883472398E+02  0.43400730303E+02  0.00000000000E+00 0.  1.
         11    1    3    3    0    0  0.12953692174E+01  0.62477618675E+00 -0.15782077751E+02  0.15847469990E+02  0.51100000000E-03 0. -1.
        -11    1    3    3    0    0 -0.59712899116E+01 -0.99643718597E+01 -0.25055854339E+02  0.27617763246E+02  0.51100000000E-03 0.  1.
        -12    1    3    3    0    0  0.21011830468E+01  0.31750265863E+01 -0.20455403077E+01  0.43220364610E+01  0.00000000000E+00 0.  1.
</event>
<event>
 7    1  0.2655656E-009  0.4778727E+02  0.7816164E-02  0.1312668E+00
        -11   -1    0    0    0    0  0.00000000000E+00  0.00000000000E+00  0.45593999997E+02  0.45594000000E+02  0.51100000000E-03 0.  1.
         11   -1    0    0    0    0 -0.00000000000E+00 -0.00000000000E+00 -0.45593999997E+02  0.45594000000E+02  0.51100000000E-03 0. -1.
    9900012    2    1    2    0    0  0.25919917879E+02 -0.43525607555E+01 -0.34537468024E+02  0.47787266993E+02  0.19999981530E+02 0.  0.
        -12    1    1    2    0    0 -0.25919917879E+02  0.43525607555E+01  0.34537468024E+02  0.43400733007E+02  0.00000000000E+00 0.  1.
         11    1    3    3    0    0  0.65764559316E+01 -0.64354896726E+01 -0.70474173346E+01  0.11590141988E+02  0.51100000000E-03 0.  1.
        -11    1    3    3    0    0  0.20972655337E+02  0.36499901139E+01 -0.24837862766E+02  0.32712293205E+02  0.51100000000E-03 0. -1.
        -12    1    3    3    0    0 -0.16291933894E+01 -0.15670611968E+01 -0.26521879237E+01  0.34848318004E+01  0.00000000000E+00 0.  1.
</event>
<event>
 7    1  0.2655656E-009  0.4778727E+02  0.7816164E-02  0.1312668E+00
        -11   -1    0    0    0    0  0.00000000000E+00  0.00000000000E+00  0.45593999997E+02  0.45594000000E+02  0.51100000000E-03 0.  1.
         11   -1    0    0    0    0 -0.00000000000E+00 -0.00000000000E+00 -0.45593999997E+02  0.45594000000E+02  0.51100000000E-03 0. -1.
    9900012    2    1    2    0    0 -0.19872015081E+02  0.92056177611E+01 -0.37469762963E+02  0.47787268230E+02  0.19999987166E+02 0.  0.
        -12    1    1    2    0    0  0.19872015081E+02 -0.92056177611E+01  0.37469762963E+02  0.43400731770E+02  0.00000000000E+00 0.  1.
         11    1    3    3    0    0 -0.10754530725E+02  0.80466152354E+01 -0.13996366448E+02  0.19398613916E+02  0.51100000000E-03 0. -1.
        -11    1    3    3    0    0 -0.70130002532E+01  0.52489851247E+01 -0.67912353678E+01  0.11083992759E+02  0.51100000000E-03 0.  1.
        -12    1    3    3    0    0 -0.21044841025E+01 -0.40899825991E+01 -0.16682161147E+02  0.17304661555E+02  0.00000000000E+00 0.  1.
</event>
<event>
 7    1  0.2655656E-009  0.4778727E+02  0.7816164E-02  0.1312668E+00
        -11   -1    0    0    0    0  0.00000000000E+00  0.00000000000E+00  0.45593999997E+02  0.45594000000E+02  0.51100000000E-03 0. -1.
         11   -1    0    0    0    0 -0.00000000000E+00 -0.00000000000E+00 -0.45593999997E+02  0.45594000000E+02  0.51100000000E-03 0.  1.
    9900012    2    1    2    0    0  0.61531490762E+01 -0.12222651883E+02  0.41186997967E+02  0.47787271157E+02  0.20000000512E+02 0.  0.
        -12    1    1    2    0    0 -0.61531490762E+01  0.12222651883E+02 -0.41186997967E+02  0.43400728843E+02  0.00000000000E+00 0.  1.
         11    1    3    3    0    0  0.27855110425E+01 -0.17389756682E+01  0.30156350529E+02  0.30334610359E+02  0.51100000000E-03 0. -1.
        -11    1    3    3    0    0  0.12327844459E+01 -0.39964720106E+01 -0.33210309545E+00  0.41954545343E+01  0.51100000000E-03 0.  1.
         12    1    3    3    0    0  0.21348535878E+01 -0.64872042045E+01  0.11362750533E+02  0.13257206263E+02  0.00000000000E+00 0. -1.
</event>
<event>
 7    1  0.2655656E-009  0.4778727E+02  0.7816164E-02  0.1312668E+00
        -11   -1    0    0    0    0  0.00000000000E+00  0.00000000000E+00  0.45593999997E+02  0.45594000000E+02  0.51100000000E-03 0.  1.
         11   -1    0    0    0    0 -0.00000000000E+00 -0.00000000000E+00 -0.45593999997E+02  0.45594000000E+02  0.51100000000E-03 0. -1.
    9900012    2    1    2    0    0 -0.31082076714E+02 -0.28933596400E+02 -0.89652197464E+01  0.47787266612E+02  0.19999979792E+02 0.  0.
        -12    1    1    2    0    0  0.31082076714E+02  0.28933596400E+02  0.89652197464E+01  0.43400733388E+02  0.00000000000E+00 0.  1.
         11    1    3    3    0    0 -0.10919715514E+01 -0.41743041443E+00 -0.50233101014E+01  0.51575473489E+01  0.51100000000E-03 0. -1.
        -11    1    3    3    0    0 -0.13705771894E+02 -0.15528896094E+02  0.24143248415E+01  0.20852428200E+02  0.51100000000E-03 0.  1.
         12    1    3    3    0    0 -0.16284333268E+02 -0.12987269892E+02 -0.63562344864E+01  0.21777291063E+02  0.00000000000E+00 0. -1.
</event>
<event>
 7    1  0.2655656E-009  0.4778727E+02  0.7816164E-02  0.1312668E+00
        -11   -1    0    0    0    0  0.00000000000E+00  0.00000000000E+00  0.45593999997E+02  0.45594000000E+02  0.51100000000E-03 0.  1.
         11   -1    0    0    0    0 -0.00000000000E+00 -0.00000000000E+00 -0.45593999997E+02  0.45594000000E+02  0.51100000000E-03 0. -1.
    9900012    2    1    2    0    0  0.14228845615E+02  0.40274747603E+02  0.76881963898E+01  0.47787266069E+02  0.19999977316E+02 0.  0.
        -12    1    1    2    0    0 -0.14228845615E+02 -0.40274747603E+02 -0.76881963898E+01  0.43400733931E+02  0.00000000000E+00 0.  1.
         11    1    3    3    0    0  0.82908965024E+01  0.32522702332E+02  0.82429175367E+01  0.34560249154E+02  0.51100000000E-03 0. -1.
        -11    1    3    3    0    0  0.12766513298E+00 -0.10104365717E+01  0.21429158731E+01  0.23726291644E+01  0.51100000000E-03 0.  1.
         12    1    3    3    0    0  0.58102839794E+01  0.87624818422E+01 -0.26976370200E+01  0.10854387751E+02  0.00000000000E+00 0. -1.
</event>
<event>
 7    1  0.2655656E-009  0.4778727E+02  0.7816164E-02  0.1312668E+00
        -11   -1    0    0    0    0  0.00000000000E+00  0.00000000000E+00  0.45593999997E+02  0.45594000000E+02  0.51100000000E-03 0. -1.
         11   -1    0    0    0    0 -0.00000000000E+00 -0.00000000000E+00 -0.45593999997E+02  0.45594000000E+02  0.51100000000E-03 0.  1.
    9900012    2    1    2    0    0  0.39575032383E+01 -0.26801393102E+02  0.33906440137E+02  0.47787272047E+02  0.20000004573E+02 0.  0.
        -12    1    1    2    0    0 -0.39575032383E+01  0.26801393102E+02 -0.33906440137E+02  0.43400727953E+02  0.00000000000E+00 0.  1.
         11    1    3    3    0    0 -0.57144629187E+01 -0.37376209593E+01  0.52877821700E+01  0.86362918793E+01  0.51100000000E-03 0. -1.
        -11    1    3    3    0    0  0.70565779129E+01 -0.21018370042E+02  0.28095157244E+02  0.35789733610E+02  0.51100000000E-03 0.  1.
        -12    1    3    3    0    0  0.26153882441E+01 -0.20454021004E+01  0.52350072318E+00  0.33612465585E+01  0.00000000000E+00 0.  1.
</event>
<event>
 7    1  0.2655656E-009  0.4778727E+02  0.7816164E-02  0.1312668E+00
        -11   -1    0    0    0    0  0.00000000000E+00  0.00000000000E+00  0.45593999997E+02  0.45594000000E+02  0.51100000000E-03 0.  1.
         11   -1    0    0    0    0 -0.00000000000E+00 -0.00000000000E+00 -0.45593999997E+02  0.45594000000E+02  0.51100000000E-03 0. -1.
    9900012    2    1    2    0    0 -0.11407874843E+02  0.41787283427E+02 -0.27031213434E+01  0.47787268098E+02  0.19999986567E+02 0.  0.
        -12    1    1    2    0    0  0.11407874843E+02 -0.41787283427E+02  0.27031213434E+01  0.43400731902E+02  0.00000000000E+00 0.  1.
         11    1    3    3    0    0 -0.81455937574E+01  0.37509648686E+02 -0.35331998163E+01  0.38546179362E+02  0.51100000000E-03 0. -1.
        -11    1    3    3    0    0 -0.24559148262E+01 -0.58092456431E+00  0.29473974125E+01  0.38802245749E+01  0.51100000000E-03 0.  1.
         12    1    3    3    0    0 -0.80636625898E+00  0.48585593054E+01 -0.21173189396E+01  0.53608641617E+01  0.00000000000E+00 0. -1.
</event>
<event>
 7    1  0.2655656E-009  0.4778729E+02  0.7816164E-02  0.1312668E+00
        -11   -1    0    0    0    0  0.00000000000E+00  0.00000000000E+00  0.45593999997E+02  0.45594000000E+02  0.51100000000E-03 0.  1.
         11   -1    0    0    0    0 -0.00000000000E+00 -0.00000000000E+00 -0.45593999997E+02  0.45594000000E+02  0.51100000000E-03 0. -1.
    9900012    2    1    2    0    0  0.26085829386E+02 -0.25891828112E+02 -0.23081684156E+02  0.47787292619E+02  0.20000098365E+02 0.  0.
        -12    1    1    2    0    0 -0.26085829386E+02  0.25891828112E+02  0.23081684156E+02  0.43400707381E+02  0.00000000000E+00 0.  1.
         11    1    3    3    0    0  0.16531397742E+02 -0.22141848893E+02 -0.17503024270E+02  0.32709393797E+02  0.51100000000E-03 0. -1.
        -11    1    3    3    0    0  0.58271915224E+01 -0.26203475133E+01  0.18830256268E+01  0.66609434694E+01  0.51100000000E-03 0.  1.
        -12    1    3    3    0    0  0.37272401217E+01 -0.11296317060E+01 -0.74616855125E+01  0.84169553524E+01  0.00000000000E+00 0.  1.
</event>
<event>
 7    1  0.2655656E-009  0.4778727E+02  0.7816164E-02  0.1312668E+00
        -11   -1    0    0    0    0  0.00000000000E+00  0.00000000000E+00  0.45593999997E+02  0.45594000000E+02  0.51100000000E-03 0.  1.
         11   -1    0    0    0    0 -0.00000000000E+00 -0.00000000000E+00 -0.45593999997E+02  0.45594000000E+02  0.51100000000E-03 0. -1.
    9900012    2    1    2    0    0 -0.20608394216E+02  0.16651842910E+02 -0.34374898067E+02  0.47787269574E+02  0.19999993295E+02 0.  0.
        -12    1    1    2    0    0  0.20608394216E+02 -0.16651842910E+02  0.34374898067E+02  0.43400730426E+02  0.00000000000E+00 0.  1.
         11    1    3    3    0    0 -0.93035060803E+01  0.73780285770E+01 -0.18923519713E+02  0.22340325191E+02  0.51100000000E-03 0. -1.
        -11    1    3    3    0    0 -0.57681305915E+01 -0.18677719631E+01 -0.62964232480E+00  0.60956010651E+01  0.51100000000E-03 0.  1.
        -12    1    3    3    0    0 -0.55367575439E+01  0.11141586296E+02 -0.14821736029E+02  0.19351343318E+02  0.00000000000E+00 0.  1.
</event>
<event>
 7    1  0.2655656E-009  0.4778727E+02  0.7816164E-02  0.1312668E+00
        -11   -1    0    0    0    0  0.00000000000E+00  0.00000000000E+00  0.45593999997E+02  0.45594000000E+02  0.51100000000E-03 0. -1.
         11   -1    0    0    0    0 -0.00000000000E+00 -0.00000000000E+00 -0.45593999997E+02  0.45594000000E+02  0.51100000000E-03 0.  1.
    9900012    2    1    2    0    0  0.22444871009E+02  0.35472425611E+02  0.11025340931E+02  0.47787270099E+02  0.19999995689E+02 0.  0.
        -12    1    1    2    0    0 -0.22444871009E+02 -0.35472425611E+02 -0.11025340931E+02  0.43400729901E+02  0.00000000000E+00 0.  1.
         11    1    3    3    0    0  0.13963062826E+02  0.23372345500E+02  0.96755697666E+01  0.28893776289E+02  0.51100000000E-03 0. -1.
        -11    1    3    3    0    0  0.36950747191E+01  0.10054569122E+02 -0.39949410747E+01  0.11432737724E+02  0.51100000000E-03 0.  1.
        -12    1    3    3    0    0  0.47867334641E+01  0.20455109880E+01  0.53447122386E+01  0.74607560858E+01  0.00000000000E+00 0.  1.
</event>
<event>
 7    1  0.2655656E-009  0.4778727E+02  0.7816164E-02  0.1312668E+00
        -11   -1    0    0    0    0  0.00000000000E+00  0.00000000000E+00  0.45593999997E+02  0.45594000000E+02  0.51100000000E-03 0. -1.
         11   -1    0    0    0    0 -0.00000000000E+00 -0.00000000000E+00 -0.45593999997E+02  0.45594000000E+02  0.51100000000E-03 0.  1.
    9900012    2    1    2    0    0 -0.19741698566E+02  0.26616691910E+02  0.28025702657E+02  0.47787274661E+02  0.20000016490E+02 0.  0.
        -12    1    1    2    0    0  0.19741698566E+02 -0.26616691910E+02 -0.28025702657E+02  0.43400725339E+02  0.00000000000E+00 0.  1.
         11    1    3    3    0    0 -0.14575337668E+02  0.20517296484E+02  0.25102779452E+02  0.35546440886E+02  0.51100000000E-03 0. -1.
        -11    1    3    3    0    0  0.20653387046E+01  0.64952670823E+00 -0.98457820326E+00  0.23784245644E+01  0.51100000000E-03 0.  1.
        -12    1    3    3    0    0 -0.72316996029E+01  0.54498687183E+01  0.39075014078E+01  0.98624092110E+01  0.00000000000E+00 0.  1.
</event>
<event>
 7    1  0.2655656E-009  0.4778727E+02  0.7816164E-02  0.1312668E+00
        -11   -1    0    0    0    0  0.00000000000E+00  0.00000000000E+00  0.45593999997E+02  0.45594000000E+02  0.51100000000E-03 0.  1.
         11   -1    0    0    0    0 -0.00000000000E+00 -0.00000000000E+00 -0.45593999997E+02  0.45594000000E+02  0.51100000000E-03 0. -1.
    9900012    2    1    2    0    0  0.16325724400E+02  0.53512934926E+01 -0.39855463424E+02  0.47787267472E+02  0.19999983710E+02 0.  0.
        -12    1    1    2    0    0 -0.16325724400E+02 -0.53512934926E+01  0.39855463424E+02  0.43400732528E+02  0.00000000000E+00 0.  1.
         11    1    3    3    0    0  0.16010538204E+02  0.62316209784E+01 -0.30673010756E+02  0.35156848873E+02  0.51100000000E-03 0. -1.
        -11    1    3    3    0    0 -0.39095370111E+01 -0.18674444106E+01 -0.44824895169E+01  0.62341431486E+01  0.51100000000E-03 0.  1.
        -12    1    3    3    0    0  0.42247232077E+01  0.98711692474E+00 -0.46999631513E+01  0.63962754497E+01  0.00000000000E+00 0.  1.
</event>
<event>
 7    1  0.2655656E-009  0.4778727E+02  0.7816164E-02  0.1312668E+00
        -11   -1    0    0    0    0  0.00000000000E+00  0.00000000000E+00  0.45593999997E+02  0.45594000000E+02  0.51100000000E-03 0.  1.
         11   -1    0    0    0    0 -0.00000000000E+00 -0.00000000000E+00 -0.45593999997E+02  0.45594000000E+02  0.51100000000E-03 0. -1.
    9900012    2    1    2    0    0 -0.36244891409E+02 -0.23873204447E+02 -0.34729089749E-01  0.47787271320E+02  0.20000001258E+02 0.  0.
        -12    1    1    2    0    0  0.36244891409E+02  0.23873204447E+02  0.34729089749E-01  0.43400728680E+02  0.00000000000E+00 0.  1.
         11    1    3    3    0    0 -0.74759775217E+01 -0.14182137989E+02 -0.19673217437E+01  0.16152202108E+02  0.51100000000E-03 0. -1.
        -11    1    3    3    0    0 -0.14558447312E+02 -0.29688903577E+01 -0.30024883866E+01  0.15158417954E+02  0.51100000000E-03 0.  1.
         12    1    3    3    0    0 -0.14210466575E+02 -0.67221761007E+01  0.49350810406E+01  0.16476651258E+02  0.00000000000E+00 0. -1.
</event>
<event>
 7    1  0.2655656E-009  0.4778727E+02  0.7816164E-02  0.1312668E+00
        -11   -1    0    0    0    0  0.00000000000E+00  0.00000000000E+00  0.45593999997E+02  0.45594000000E+02  0.51100000000E-03 0.  1.
         11   -1    0    0    0    0 -0.00000000000E+00 -0.00000000000E+00 -0.45593999997E+02  0.45594000000E+02  0.51100000000E-03 0. -1.
    9900012    2    1    2    0    0 -0.31246388797E+02 -0.29588907428E+02 -0.56376198037E+01  0.47787274053E+02  0.20000013719E+02 0.  0.
        -12    1    1    2    0    0  0.31246388797E+02  0.29588907428E+02  0.56376198037E+01  0.43400725947E+02  0.00000000000E+00 0.  1.
         11    1    3    3    0    0 -0.69478820407E+01 -0.89213898803E+01  0.61620400914E+01  0.12877693916E+02  0.51100000000E-03 0. -1.
        -11    1    3    3    0    0 -0.92710293513E+01 -0.83359683620E+01 -0.87517396062E+01  0.15232639304E+02  0.51100000000E-03 0.  1.
         12    1    3    3    0    0 -0.15027477405E+02 -0.12331549186E+02 -0.30479202890E+01  0.19676940833E+02  0.00000000000E+00 0. -1.
</event>
<event>
 7    1  0.2655656E-009  0.4778727E+02  0.7816164E-02  0.1312668E+00
        -11   -1    0    0    0    0  0.00000000000E+00  0.00000000000E+00  0.45593999997E+02  0.45594000000E+02  0.51100000000E-03 0.  1.
         11   -1    0    0    0    0 -0.00000000000E+00 -0.00000000000E+00 -0.45593999997E+02  0.45594000000E+02  0.51100000000E-03 0. -1.
    9900012    2    1    2    0    0  0.30566975887E+01 -0.16934494025E+02 -0.39843480038E+02  0.47787269712E+02  0.19999993924E+02 0.  0.
        -12    1    1    2    0    0 -0.30566975887E+01  0.16934494025E+02  0.39843480038E+02  0.43400730288E+02  0.00000000000E+00 0.  1.
         11    1    3    3    0    0  0.17029146345E+01 -0.14107355866E+02 -0.23597689745E+02  0.27545750477E+02  0.51100000000E-03 0. -1.
        -11    1    3    3    0    0  0.35494820603E+00  0.34830776942E+01 -0.89406359289E+00  0.36134704125E+01  0.51100000000E-03 0.  1.
        -12    1    3    3    0    0  0.99883474809E+00 -0.63102158528E+01 -0.15351726700E+02  0.16628048822E+02  0.00000000000E+00 0.  1.
</event>
<event>
 7    1  0.2655656E-009  0.4778727E+02  0.7816164E-02  0.1312668E+00
        -11   -1    0    0    0    0  0.00000000000E+00  0.00000000000E+00  0.45593999997E+02  0.45594000000E+02  0.51100000000E-03 0.  1.
         11   -1    0    0    0    0 -0.00000000000E+00 -0.00000000000E+00 -0.45593999997E+02  0.45594000000E+02  0.51100000000E-03 0. -1.
    9900012    2    1    2    0    0  0.15794618538E+02  0.34723421646E+02  0.20698723053E+02  0.47787272798E+02  0.20000007997E+02 0.  0.
        -12    1    1    2    0    0 -0.15794618538E+02 -0.34723421646E+02 -0.20698723053E+02  0.43400727202E+02  0.00000000000E+00 0.  1.
         11    1    3    3    0    0  0.18448294735E+02  0.31954585765E+02  0.14821328902E+02  0.39763135197E+02  0.51100000000E-03 0. -1.
        -11    1    3    3    0    0 -0.22200421641E+01  0.31398857648E+01  0.62530738856E+01  0.73408720944E+01  0.51100000000E-03 0.  1.
        -12    1    3    3    0    0 -0.43363403285E+00 -0.37104988350E+00 -0.37567973368E+00  0.68326550680E+00  0.00000000000E+00 0.  1.
</event>
<event>
 7    1  0.2655656E-009  0.4778727E+02  0.7816164E-02  0.1312668E+00
        -11   -1    0    0    0    0  0.00000000000E+00  0.00000000000E+00  0.45593999997E+02  0.45594000000E+02  0.51100000000E-03 0. -1.
         11   -1    0    0    0    0 -0.00000000000E+00 -0.00000000000E+00 -0.45593999997E+02  0.45594000000E+02  0.51100000000E-03 0.  1.
    9900012    2    1    2    0    0  0.36939756076E+02  0.14999892601E+02  0.17148792431E+02  0.47787269144E+02  0.19999991333E+02 0.  0.
        -12    1    1    2    0    0 -0.36939756076E+02 -0.14999892601E+02 -0.17148792431E+02  0.43400730856E+02  0.00000000000E+00 0.  1.
         11    1    3    3    0    0  0.20631850560E+02  0.11695099688E+02  0.97583998108E+01  0.25645174622E+02  0.51100000000E-03 0. -1.
        -11    1    3    3    0    0  0.60653263555E+01 -0.14779790631E+01  0.87582250290E+01  0.10755422438E+02  0.51100000000E-03 0.  1.
        -12    1    3    3    0    0  0.10242579161E+02  0.47827719754E+01 -0.13678324084E+01  0.11386672083E+02  0.00000000000E+00 0.  1.
</event>
<event>
 7    1  0.2655656E-009  0.4778727E+02  0.7816164E-02  0.1312668E+00
        -11   -1    0    0    0    0  0.00000000000E+00  0.00000000000E+00  0.45593999997E+02  0.45594000000E+02  0.51100000000E-03 0.  1.
         11   -1    0    0    0    0 -0.00000000000E+00 -0.00000000000E+00 -0.45593999997E+02  0.45594000000E+02  0.51100000000E-03 0. -1.
    9900012    2    1    2    0    0 -0.17978317664E+02  0.31599848104E+01 -0.39375347019E+02  0.47787270019E+02  0.19999995324E+02 0.  0.
        -12    1    1    2    0    0  0.17978317664E+02 -0.31599848104E+01  0.39375347019E+02  0.43400729981E+02  0.00000000000E+00 0.  1.
         11    1    3    3    0    0  0.24702987676E+01 -0.36039498133E+01 -0.61844543984E+01  0.75722061993E+01  0.51100000000E-03 0. -1.
        -11    1    3    3    0    0 -0.12878057012E+02  0.37786883721E+01 -0.14121200700E+02  0.19481559170E+02  0.51100000000E-03 0.  1.
        -12    1    3    3    0    0 -0.75705594195E+01  0.29852462515E+01 -0.19069691921E+02  0.20733504650E+02  0.00000000000E+00 0.  1.
</event>
<event>
 7    1  0.2655656E-009  0.4778725E+02  0.7816164E-02  0.1312668E+00
        -11   -1    0    0    0    0  0.00000000000E+00  0.00000000000E+00  0.45593999997E+02  0.45594000000E+02  0.51100000000E-03 0.  1.
         11   -1    0    0    0    0 -0.00000000000E+00 -0.00000000000E+00 -0.45593999997E+02  0.45594000000E+02  0.51100000000E-03 0. -1.
    9900012    2    1    2    0    0 -0.15513734049E+02 -0.35795613710E+01 -0.40374938947E+02  0.47787252326E+02  0.19999914654E+02 0.  0.
        -12    1    1    2    0    0  0.15513734049E+02  0.35795613710E+01  0.40374938947E+02  0.43400747674E+02  0.00000000000E+00 0.  1.
         11    1    3    3    0    0 -0.47170306960E+01 -0.17814114009E+00 -0.30491951885E+01  0.56195822274E+01  0.51100000000E-03 0. -1.
        -11    1    3    3    0    0 -0.14005188430E+02 -0.60505016058E+01 -0.31596988257E+02  0.35087370090E+02  0.51100000000E-03 0.  1.
        -12    1    3    3    0    0  0.32084850769E+01  0.26490813749E+01 -0.57287555012E+01  0.70803000086E+01  0.00000000000E+00 0.  1.
</event>
<event>
 7    1  0.2655656E-009  0.4778727E+02  0.7816164E-02  0.1312668E+00
        -11   -1    0    0    0    0  0.00000000000E+00  0.00000000000E+00  0.45593999997E+02  0.45594000000E+02  0.51100000000E-03 0.  1.
         11   -1    0    0    0    0 -0.00000000000E+00 -0.00000000000E+00 -0.45593999997E+02  0.45594000000E+02  0.51100000000E-03 0. -1.
    9900012    2    1    2    0    0 -0.36157863421E+02  0.17143279966E+02 -0.16802972124E+02  0.47787274115E+02  0.20000013999E+02 0.  0.
        -12    1    1    2    0    0  0.36157863421E+02 -0.17143279966E+02  0.16802972124E+02  0.43400725885E+02  0.00000000000E+00 0.  1.
         11    1    3    3    0    0 -0.88950786063E+01  0.36693025174E+01 -0.44129298774E+01  0.10585846907E+02  0.51100000000E-03 0. -1.
        -11    1    3    3    0    0 -0.19204266976E+02  0.13233480394E+02 -0.16086770431E+02  0.28332191172E+02  0.51100000000E-03 0.  1.
        -12    1    3    3    0    0 -0.80585178388E+01  0.24049705431E+00  0.36967281847E+01  0.88692360360E+01  0.00000000000E+00 0.  1.
</event>
<event>
 7    1  0.2655656E-009  0.4778727E+02  0.7816164E-02  0.1312668E+00
        -11   -1    0    0    0    0  0.00000000000E+00  0.00000000000E+00  0.45593999997E+02  0.45594000000E+02  0.51100000000E-03 0.  1.
         11   -1    0    0    0    0 -0.00000000000E+00 -0.00000000000E+00 -0.45593999997E+02  0.45594000000E+02  0.51100000000E-03 0. -1.
    9900012    2    1    2    0    0 -0.41624709252E+02 -0.92929157145E+00 -0.12253297243E+02  0.47787270784E+02  0.19999998815E+02 0.  0.
        -12    1    1    2    0    0  0.41624709252E+02  0.92929157145E+00  0.12253297243E+02  0.43400729216E+02  0.00000000000E+00 0.  1.
         11    1    3    3    0    0 -0.33432619416E+02 -0.99841591780E+00 -0.16841176116E+02  0.37448125301E+02  0.51100000000E-03 0. -1.
        -11    1    3    3    0    0 -0.62307573204E+01  0.18981354378E+01  0.26570392934E+01  0.70345655867E+01  0.51100000000E-03 0.  1.
         12    1    3    3    0    0 -0.19613325153E+01 -0.18290110914E+01  0.19308395797E+01  0.33045798963E+01  0.00000000000E+00 0. -1.
</event>
<event>
 7    1  0.2655656E-009  0.4778728E+02  0.7816164E-02  0.1312668E+00
        -11   -1    0    0    0    0  0.00000000000E+00  0.00000000000E+00  0.45593999997E+02  0.45594000000E+02  0.51100000000E-03 0. -1.
         11   -1    0    0    0    0 -0.00000000000E+00 -0.00000000000E+00 -0.45593999997E+02  0.45594000000E+02  0.51100000000E-03 0.  1.
    9900012    2    1    2    0    0 -0.27359432673E+02 -0.21538666155E+02  0.25906951127E+02  0.47787276358E+02  0.20000024227E+02 0.  0.
        -12    1    1    2    0    0  0.27359432673E+02  0.21538666155E+02 -0.25906951127E+02  0.43400723642E+02  0.00000000000E+00 0.  1.
         11    1    3    3    0    0 -0.16873601614E+02 -0.79646698415E+01  0.64636575094E+01  0.19746727976E+02  0.51100000000E-03 0. -1.
        -11    1    3    3    0    0 -0.36890988867E+01 -0.42328392513E+01  0.14361399098E+02  0.15419992316E+02  0.51100000000E-03 0.  1.
        -12    1    3    3    0    0 -0.67967321721E+01 -0.93411570626E+01  0.50818945196E+01  0.12620556065E+02  0.00000000000E+00 0.  1.
</event>
<event>
 7    1  0.2655656E-009  0.4778727E+02  0.7816164E-02  0.1312668E+00
        -11   -1    0    0    0    0  0.00000000000E+00  0.00000000000E+00  0.45593999997E+02  0.45594000000E+02  0.51100000000E-03 0.  1.
         11   -1    0    0    0    0 -0.00000000000E+00 -0.00000000000E+00 -0.45593999997E+02  0.45594000000E+02  0.51100000000E-03 0. -1.
    9900012    2    1    2    0    0 -0.29935306998E+02 -0.31416307391E+02 -0.71836019748E+00  0.47787274009E+02  0.20000013517E+02 0.  0.
        -12    1    1    2    0    0  0.29935306998E+02  0.31416307391E+02  0.71836019748E+00  0.43400725991E+02  0.00000000000E+00 0.  1.
         11    1    3    3    0    0 -0.19074963884E+02 -0.13095631252E+02  0.77765662308E+01  0.24409522479E+02  0.51100000000E-03 0. -1.
        -11    1    3    3    0    0 -0.93546280139E+01 -0.16505441526E+02 -0.58934227872E+01  0.19866330755E+02  0.51100000000E-03 0.  1.
         12    1    3    3    0    0 -0.15057150998E+01 -0.18152346136E+01 -0.26015036410E+01  0.35114207749E+01  0.00000000000E+00 0. -1.
</event>
<event>
 7    1  0.2655656E-009  0.4778727E+02  0.7816164E-02  0.1312668E+00
        -11   -1    0    0    0    0  0.00000000000E+00  0.00000000000E+00  0.45593999997E+02  0.45594000000E+02  0.51100000000E-03 0.  1.
         11   -1    0    0    0    0 -0.00000000000E+00 -0.00000000000E+00 -0.45593999997E+02  0.45594000000E+02  0.51100000000E-03 0. -1.
    9900012    2    1    2    0    0 -0.15402581076E+02 -0.21189083536E+02 -0.34603561592E+02  0.47787271437E+02  0.20000001792E+02 0.  0.
        -12    1    1    2    0    0  0.15402581076E+02  0.21189083536E+02  0.34603561592E+02  0.43400728563E+02  0.00000000000E+00 0.  1.
         11    1    3    3    0    0  0.37599243963E+01 -0.80276464463E+01 -0.75514024267E+01  0.11644905230E+02  0.51100000000E-03 0. -1.
        -11    1    3    3    0    0 -0.15299718594E+02 -0.11250278505E+02 -0.18233720647E+02  0.26327148049E+02  0.51100000000E-03 0.  1.
        -12    1    3    3    0    0 -0.38627868785E+01 -0.19111585842E+01 -0.88184385188E+01  0.98152181592E+01  0.00000000000E+00 0.  1.
</event>
<event>
 7    1  0.2655656E-009  0.4778727E+02  0.7816164E-02  0.1312668E+00
        -11   -1    0    0    0    0  0.00000000000E+00  0.00000000000E+00  0.45593999997E+02  0.45594000000E+02  0.51100000000E-03 0.  1.
         11   -1    0    0    0    0 -0.00000000000E+00 -0.00000000000E+00 -0.45593999997E+02  0.45594000000E+02  0.51100000000E-03 0. -1.
    9900012    2    1    2    0    0  0.39531761087E+02  0.17764617023E+02 -0.22981079394E+01  0.47787273592E+02  0.20000011616E+02 0.  0.
        -12    1    1    2    0    0 -0.39531761087E+02 -0.17764617023E+02  0.22981079394E+01  0.43400726408E+02  0.00000000000E+00 0.  1.
         11    1    3    3    0    0  0.85230327900E+01  0.79747011104E+01  0.56100133045E+01  0.12950297112E+02  0.51100000000E-03 0. -1.
        -11    1    3    3    0    0  0.26811360444E+02  0.65002935907E+01 -0.32921240518E+01  0.27783825270E+02  0.51100000000E-03 0.  1.
         12    1    3    3    0    0  0.41973678532E+01  0.32896223220E+01 -0.46159971921E+01  0.70531512102E+01  0.00000000000E+00 0. -1.
</event>
<event>
 7    1  0.2655656E-009  0.4778727E+02  0.7816164E-02  0.1312668E+00
        -11   -1    0    0    0    0  0.00000000000E+00  0.00000000000E+00  0.45593999997E+02  0.45594000000E+02  0.51100000000E-03 0. -1.
         11   -1    0    0    0    0 -0.00000000000E+00 -0.00000000000E+00 -0.45593999997E+02  0.45594000000E+02  0.51100000000E-03 0.  1.
    9900012    2    1    2    0    0  0.41841495468E+02  0.11404552548E+02 -0.16877970680E+01  0.47787271657E+02  0.20000002792E+02 0.  0.
        -12    1    1    2    0    0 -0.41841495468E+02 -0.11404552548E+02  0.16877970680E+01  0.43400728343E+02  0.00000000000E+00 0.  1.
         11    1    3    3    0    0  0.28024924162E+01  0.14704545885E+01 -0.40006683328E+00  0.31900241648E+01  0.51100000000E-03 0. -1.
        -11    1    3    3    0    0  0.35439171143E+02  0.42930474704E+01  0.41980831697E+01  0.35944248642E+02  0.51100000000E-03 0.  1.
        -12    1    3    3    0    0  0.35998319083E+01  0.56410504889E+01 -0.54858134045E+01  0.86529988499E+01  0.00000000000E+00 0.  1.
</event>
<event>
 7    1  0.2655656E-009  0.4778728E+02  0.7816164E-02  0.1312668E+00
        -11   -1    0    0    0    0  0.00000000000E+00  0.00000000000E+00  0.45593999997E+02  0.45594000000E+02  0.51100000000E-03 0.  1.
         11   -1    0    0    0    0 -0.00000000000E+00 -0.00000000000E+00 -0.45593999997E+02  0.45594000000E+02  0.51100000000E-03 0. -1.
    9900012    2    1    2    0    0 -0.43103973335E+02 -0.45239664873E+01  0.22812525120E+01  0.47787275317E+02  0.20000019478E+02 0.  0.
        -12    1    1    2    0    0  0.43103973335E+02  0.45239664873E+01 -0.22812525120E+01  0.43400724683E+02  0.00000000000E+00 0.  1.
         11    1    3    3    0    0 -0.13627530406E+02 -0.63370394245E+01 -0.17135290982E+01  0.15126263117E+02  0.51100000000E-03 0. -1.
        -11    1    3    3    0    0 -0.20433511259E+02  0.31271443846E+01  0.86468972825E+01  0.22407057978E+02  0.51100000000E-03 0.  1.
        -12    1    3    3    0    0 -0.90429316696E+01 -0.13140714473E+01 -0.46521156723E+01  0.10253954222E+02  0.00000000000E+00 0.  1.
</event>
<event>
 7    1  0.2655656E-009  0.4778727E+02  0.7816164E-02  0.1312668E+00
        -11   -1    0    0    0    0  0.00000000000E+00  0.00000000000E+00  0.45593999997E+02  0.45594000000E+02  0.51100000000E-03 0. -1.
         11   -1    0    0    0    0 -0.00000000000E+00 -0.00000000000E+00 -0.45593999997E+02  0.45594000000E+02  0.51100000000E-03 0.  1.
    9900012    2    1    2    0    0 -0.28060472484E+02 -0.25867244214E+02  0.20666853695E+02  0.47787270964E+02  0.19999999632E+02 0.  0.
        -12    1    1    2    0    0  0.28060472484E+02  0.25867244214E+02 -0.20666853695E+02  0.43400729036E+02  0.00000000000E+00 0.  1.
         11    1    3    3    0    0 -0.16812517222E+02 -0.11029923991E+02  0.11880193221E+02  0.23355062616E+02  0.51100000000E-03 0. -1.
        -11    1    3    3    0    0 -0.68245111576E+01 -0.15393503293E+02  0.29617316739E+01  0.17096951510E+02  0.51100000000E-03 0.  1.
        -12    1    3    3    0    0 -0.44234441045E+01  0.55618306978E+00  0.58249288002E+01  0.73352568380E+01  0.00000000000E+00 0.  1.
</event>
<event>
 7    1  0.2655656E-009  0.4778729E+02  0.7816164E-02  0.1312668E+00
        -11   -1    0    0    0    0  0.00000000000E+00  0.00000000000E+00  0.45593999997E+02  0.45594000000E+02  0.51100000000E-03 0. -1.
         11   -1    0    0    0    0 -0.00000000000E+00 -0.00000000000E+00 -0.45593999997E+02  0.45594000000E+02  0.51100000000E-03 0.  1.
    9900012    2    1    2    0    0 -0.44574812554E+01 -0.11396772297E+02  0.41639720952E+02  0.47787286655E+02  0.20000071173E+02 0.  0.
        -12    1    1    2    0    0  0.44574812554E+01  0.11396772297E+02 -0.41639720952E+02  0.43400713345E+02  0.00000000000E+00 0.  1.
         11    1    3    3    0    0 -0.35408826483E+01 -0.89758719324E+00  0.21017499696E+02  0.21332576179E+02  0.51100000000E-03 0. -1.
        -11    1    3    3    0    0  0.40015682392E+01 -0.68732400494E+01  0.43325924772E+01  0.90567839206E+01  0.51100000000E-03 0.  1.
        -12    1    3    3    0    0 -0.49181668463E+01 -0.36259450539E+01  0.16289628779E+02  0.17397926555E+02  0.00000000000E+00 0.  1.
</event>
<event>
 7    1  0.2655656E-009  0.4778727E+02  0.7816164E-02  0.1312668E+00
        -11   -1    0    0    0    0  0.00000000000E+00  0.00000000000E+00  0.45593999997E+02  0.45594000000E+02  0.51100000000E-03 0. -1.
         11   -1    0    0    0    0 -0.00000000000E+00 -0.00000000000E+00 -0.45593999997E+02  0.45594000000E+02  0.51100000000E-03 0.  1.
    9900012    2    1    2    0    0 -0.36116154345E+02  0.65056225110E+01  0.23171607127E+02  0.47787272982E+02  0.20000008832E+02 0.  0.
        -12    1    1    2    0    0  0.36116154345E+02 -0.65056225110E+01 -0.23171607127E+02  0.43400727018E+02  0.00000000000E+00 0.  1.
         11    1    3    3    0    0 -0.20237237182E+02  0.82113517237E+01  0.17857520039E+02  0.28211045498E+02  0.51100000000E-03 0. -1.
        -11    1    3    3    0    0 -0.31433887206E+01  0.34106506799E+01  0.33274533526E+01  0.57083602536E+01  0.51100000000E-03 0.  1.
         12    1    3    3    0    0 -0.12735528442E+02 -0.51163798927E+01  0.19866337348E+01  0.13867867230E+02  0.00000000000E+00 0. -1.
</event>
<event>
 7    1  0.2655656E-009  0.4778727E+02  0.7816164E-02  0.1312668E+00
        -11   -1    0    0    0    0  0.00000000000E+00  0.00000000000E+00  0.45593999997E+02  0.45594000000E+02  0.51100000000E-03 0.  1.
         11   -1    0    0    0    0 -0.00000000000E+00 -0.00000000000E+00 -0.45593999997E+02  0.45594000000E+02  0.51100000000E-03 0. -1.
    9900012    2    1    2    0    0  0.41871207846E+02  0.78977824833E+01 -0.82492590161E+01  0.47787270871E+02  0.19999999209E+02 0.  0.
        -12    1    1    2    0    0 -0.41871207846E+02 -0.78977824833E+01  0.82492590161E+01  0.43400729129E+02  0.00000000000E+00 0.  1.
         11    1    3    3    0    0  0.19405899529E+02  0.71541304170E+01 -0.35467074255E+01  0.20984509820E+02  0.51100000000E-03 0. -1.
        -11    1    3    3    0    0  0.70548470426E+01 -0.57361665942E+01  0.98180366267E+00  0.91454039104E+01  0.51100000000E-03 0.  1.
        -12    1    3    3    0    0  0.15410461274E+02  0.64798186605E+01 -0.56843552533E+01  0.17657357141E+02  0.00000000000E+00 0.  1.
</event>
<event>
 7    1  0.2655656E-009  0.4778727E+02  0.7816164E-02  0.1312668E+00
        -11   -1    0    0    0    0  0.00000000000E+00  0.00000000000E+00  0.45593999997E+02  0.45594000000E+02  0.51100000000E-03 0.  1.
         11   -1    0    0    0    0 -0.00000000000E+00 -0.00000000000E+00 -0.45593999997E+02  0.45594000000E+02  0.51100000000E-03 0. -1.
    9900012    2    1    2    0    0 -0.10649157679E+02 -0.37865285142E+02  0.18342270124E+02  0.47787271303E+02  0.20000001177E+02 0.  0.
        -12    1    1    2    0    0  0.10649157679E+02  0.37865285142E+02 -0.18342270124E+02  0.43400728697E+02  0.00000000000E+00 0.  1.
         11    1    3    3    0    0 -0.64244061453E+01 -0.12895059530E+02  0.13470667767E+02  0.19723449114E+02  0.51100000000E-03 0.  1.
        -11    1    3    3    0    0 -0.50764024948E+00 -0.11026154234E+02 -0.32474659067E+01  0.11505642568E+02  0.51100000000E-03 0. -1.
        -12    1    3    3    0    0 -0.37171112837E+01 -0.13944071378E+02  0.81190682635E+01  0.16558179621E+02  0.00000000000E+00 0.  1.
</event>
<event>
 7    1  0.2655656E-009  0.4778727E+02  0.7816164E-02  0.1312668E+00
        -11   -1    0    0    0    0  0.00000000000E+00  0.00000000000E+00  0.45593999997E+02  0.45594000000E+02  0.51100000000E-03 0.  1.
         11   -1    0    0    0    0 -0.00000000000E+00 -0.00000000000E+00 -0.45593999997E+02  0.45594000000E+02  0.51100000000E-03 0. -1.
    9900012    2    1    2    0    0 -0.25230675669E+02 -0.15586097513E+01 -0.35278987415E+02  0.47787271756E+02  0.20000003244E+02 0.  0.
        -12    1    1    2    0    0  0.25230675669E+02  0.15586097513E+01  0.35278987415E+02  0.43400728244E+02  0.00000000000E+00 0.  1.
         11    1    3    3    0    0  0.24887469618E+00  0.67301343828E-01 -0.35220923194E+01  0.35315156311E+01  0.51100000000E-03 0.  1.
        -11    1    3    3    0    0 -0.58842506229E+01 -0.93037860314E+00 -0.21129505136E+02  0.21953268488E+02  0.51100000000E-03 0. -1.
        -12    1    3    3    0    0 -0.19595299743E+02 -0.69553249202E+00 -0.10627389959E+02  0.22302487637E+02  0.00000000000E+00 0.  1.
</event>
<event>
 7    1  0.2655656E-009  0.4778727E+02  0.7816164E-02  0.1312668E+00
        -11   -1    0    0    0    0  0.00000000000E+00  0.00000000000E+00  0.45593999997E+02  0.45594000000E+02  0.51100000000E-03 0.  1.
         11   -1    0    0    0    0 -0.00000000000E+00 -0.00000000000E+00 -0.45593999997E+02  0.45594000000E+02  0.51100000000E-03 0. -1.
    9900012    2    1    2    0    0 -0.17081673443E+02  0.39179361520E+02 -0.75377095841E+01  0.47787274171E+02  0.20000014255E+02 0.  0.
        -12    1    1    2    0    0  0.17081673443E+02 -0.39179361520E+02  0.75377095841E+01  0.43400725829E+02  0.00000000000E+00 0.  1.
         11    1    3    3    0    0 -0.97035529161E+01  0.26951623460E+02  0.20518063976E+01  0.28718615149E+02  0.51100000000E-03 0. -1.
        -11    1    3    3    0    0 -0.11288324622E+01  0.25869771451E+01 -0.66281595316E+01  0.72041108067E+01  0.51100000000E-03 0.  1.
         12    1    3    3    0    0 -0.62492880644E+01  0.96407609145E+01 -0.29613564500E+01  0.11864548215E+02  0.00000000000E+00 0. -1.
</event>
<event>
 7    1  0.2655656E-009  0.4778727E+02  0.7816164E-02  0.1312668E+00
        -11   -1    0    0    0    0  0.00000000000E+00  0.00000000000E+00  0.45593999997E+02  0.45594000000E+02  0.51100000000E-03 0.  1.
         11   -1    0    0    0    0 -0.00000000000E+00 -0.00000000000E+00 -0.45593999997E+02  0.45594000000E+02  0.51100000000E-03 0. -1.
    9900012    2    1    2    0    0 -0.12173605925E+02 -0.47990288553E+01 -0.41381106412E+02  0.47787270432E+02  0.19999997207E+02 0.  0.
        -12    1    1    2    0    0  0.12173605925E+02  0.47990288553E+01  0.41381106412E+02  0.43400729568E+02  0.00000000000E+00 0.  1.
         11    1    3    3    0    0 -0.44609522069E+01 -0.72858101193E+01 -0.37944528195E+02  0.38894348483E+02  0.51100000000E-03 0. -1.
        -11    1    3    3    0    0 -0.41697613620E+01  0.15369302162E+01 -0.12248702822E+01  0.46097040875E+01  0.51100000000E-03 0.  1.
         12    1    3    3    0    0 -0.35428923563E+01  0.94985104777E+00 -0.22117079349E+01  0.42832178617E+01  0.00000000000E+00 0. -1.
</event>
<event>
 7    1  0.2655656E-009  0.4778727E+02  0.7816164E-02  0.1312668E+00
        -11   -1    0    0    0    0  0.00000000000E+00  0.00000000000E+00  0.45593999997E+02  0.45594000000E+02  0.51100000000E-03 0.  1.
         11   -1    0    0    0    0 -0.00000000000E+00 -0.00000000000E+00 -0.45593999997E+02  0.45594000000E+02  0.51100000000E-03 0. -1.
    9900012    2    1    2    0    0 -0.38679559567E+02  0.76393780686E+01 -0.18142623943E+02  0.47787271560E+02  0.20000002353E+02 0.  0.
        -12    1    1    2    0    0  0.38679559567E+02 -0.76393780686E+01  0.18142623943E+02  0.43400728440E+02  0.00000000000E+00 0.  1.
         11    1    3    3    0    0 -0.55740022177E+01 -0.40981012592E+01  0.10452228046E+01  0.69968868524E+01  0.51100000000E-03 0. -1.
        -11    1    3    3    0    0 -0.15536078071E+02  0.79562342770E+01 -0.58467375526E+01  0.18408034277E+02  0.51100000000E-03 0.  1.
         12    1    3    3    0    0 -0.17569479278E+02  0.37812450507E+01 -0.13341109195E+02  0.22382350431E+02  0.00000000000E+00 0. -1.
</event>
<event>
 7    1  0.2655656E-009  0.4778728E+02  0.7816164E-02  0.1312668E+00
        -11   -1    0    0    0    0  0.00000000000E+00  0.00000000000E+00  0.45593999997E+02  0.45594000000E+02  0.51100000000E-03 0.  1.
         11   -1    0    0    0    0 -0.00000000000E+00 -0.00000000000E+00 -0.45593999997E+02  0.45594000000E+02  0.51100000000E-03 0. -1.
    9900012    2    1    2    0    0  0.25347611035E+02 -0.62210468981E+01 -0.34675925075E+02  0.47787278929E+02  0.20000035949E+02 0.  0.
        -12    1    1    2    0    0 -0.25347611035E+02  0.62210468981E+01  0.34675925075E+02  0.43400721071E+02  0.00000000000E+00 0.  1.
         11    1    3    3    0    0  0.15011496800E+02 -0.99288893678E+01 -0.18901029307E+02  0.26099363773E+02  0.51100000000E-03 0. -1.
        -11    1    3    3    0    0  0.26923308758E+01 -0.30927622845E+01 -0.20930905143E+01  0.46037867300E+01  0.51100000000E-03 0.  1.
         12    1    3    3    0    0  0.76437833596E+01  0.68006047542E+01 -0.13681805253E+02  0.17084128425E+02  0.00000000000E+00 0. -1.
</event>
<event>
 7    1  0.2655656E-009  0.4778728E+02  0.7816164E-02  0.1312668E+00
        -11   -1    0    0    0    0  0.00000000000E+00  0.00000000000E+00  0.45593999997E+02  0.45594000000E+02  0.51100000000E-03 0.  1.
         11   -1    0    0    0    0 -0.00000000000E+00 -0.00000000000E+00 -0.45593999997E+02  0.45594000000E+02  0.51100000000E-03 0. -1.
    9900012    2    1    2    0    0  0.40334163258E+02 -0.67303544232E+01 -0.14542345332E+02  0.47787283368E+02  0.20000056188E+02 0.  0.
        -12    1    1    2    0    0 -0.40334163258E+02  0.67303544232E+01  0.14542345332E+02  0.43400716632E+02  0.00000000000E+00 0.  1.
         11    1    3    3    0    0  0.17875848484E+02 -0.12465239210E+02 -0.99284265837E+01  0.23947897658E+02  0.51100000000E-03 0. -1.
        -11    1    3    3    0    0  0.17257822011E+02  0.46002461808E+01 -0.48633204720E+01  0.18510715053E+02  0.51100000000E-03 0.  1.
         12    1    3    3    0    0  0.52004927637E+01  0.11346386056E+01  0.24940172369E+00  0.53286706570E+01  0.00000000000E+00 0. -1.
</event>
<event>
 7    1  0.2655656E-009  0.4778727E+02  0.7816164E-02  0.1312668E+00
        -11   -1    0    0    0    0  0.00000000000E+00  0.00000000000E+00  0.45593999997E+02  0.45594000000E+02  0.51100000000E-03 0. -1.
         11   -1    0    0    0    0 -0.00000000000E+00 -0.00000000000E+00 -0.45593999997E+02  0.45594000000E+02  0.51100000000E-03 0.  1.
    9900012    2    1    2    0    0  0.27804635417E+02 -0.33317552555E+02  0.68280291619E+00  0.47787270988E+02  0.19999999742E+02 0.  0.
        -12    1    1    2    0    0 -0.27804635417E+02  0.33317552555E+02 -0.68280291619E+00  0.43400729012E+02  0.00000000000E+00 0.  1.
         11    1    3    3    0    0  0.18336379910E+02 -0.10523732319E+02 -0.17812105177E+01  0.21216608619E+02  0.51100000000E-03 0. -1.
        -11    1    3    3    0    0  0.35476188734E+01 -0.79054741052E+00 -0.13407260715E+00  0.36371060755E+01  0.51100000000E-03 0.  1.
         12    1    3    3    0    0  0.59206366342E+01 -0.22003272825E+02  0.25980860410E+01  0.22933556293E+02  0.00000000000E+00 0. -1.
</event>
<event>
 7    1  0.2655656E-009  0.4778727E+02  0.7816164E-02  0.1312668E+00
        -11   -1    0    0    0    0  0.00000000000E+00  0.00000000000E+00  0.45593999997E+02  0.45594000000E+02  0.51100000000E-03 0.  1.
         11   -1    0    0    0    0 -0.00000000000E+00 -0.00000000000E+00 -0.45593999997E+02  0.45594000000E+02  0.51100000000E-03 0. -1.
    9900012    2    1    2    0    0 -0.19296184293E+02 -0.20050649404E+02 -0.33305436565E+02  0.47787269884E+02  0.19999994711E+02 0.  0.
        -12    1    1    2    0    0  0.19296184293E+02  0.20050649404E+02  0.33305436565E+02  0.43400730116E+02  0.00000000000E+00 0.  1.
         11    1    3    3    0    0 -0.61470414747E+01 -0.54575785737E+01 -0.84030748150E+01  0.11755124388E+02  0.51100000000E-03 0. -1.
        -11    1    3    3    0    0 -0.10460947871E+02 -0.93852311409E+01 -0.26466344345E+02  0.29966337400E+02  0.51100000000E-03 0.  1.
        -12    1    3    3    0    0 -0.26881949473E+01 -0.52078396894E+01  0.15639825948E+01  0.60658080963E+01  0.00000000000E+00 0.  1.
</event>
<event>
 7    1  0.2655656E-009  0.4778727E+02  0.7816164E-02  0.1312668E+00
        -11   -1    0    0    0    0  0.00000000000E+00  0.00000000000E+00  0.45593999997E+02  0.45594000000E+02  0.51100000000E-03 0. -1.
         11   -1    0    0    0    0 -0.00000000000E+00 -0.00000000000E+00 -0.45593999997E+02  0.45594000000E+02  0.51100000000E-03 0.  1.
    9900012    2    1    2    0    0  0.23384842167E+02  0.24135228093E+01  0.36482154573E+02  0.47787268003E+02  0.19999986135E+02 0.  0.
        -12    1    1    2    0    0 -0.23384842167E+02 -0.24135228093E+01 -0.36482154573E+02  0.43400731997E+02  0.00000000000E+00 0.  1.
         11    1    3    3    0    0  0.76051912822E+01  0.82743862180E+01  0.19436817056E+02  0.22452043543E+02  0.51100000000E-03 0. -1.
        -11    1    3    3    0    0  0.16573178443E+02 -0.60097854665E+01  0.17053600062E+02  0.24527801378E+02  0.51100000000E-03 0.  1.
        -12    1    3    3    0    0 -0.79352755851E+00  0.14892205791E+00 -0.82625450914E-02  0.80742308309E+00  0.00000000000E+00 0.  1.
</event>
<event>
 7    1  0.2655656E-009  0.4778726E+02  0.7816164E-02  0.1312668E+00
        -11   -1    0    0    0    0  0.00000000000E+00  0.00000000000E+00  0.45593999997E+02  0.45594000000E+02  0.51100000000E-03 0. -1.
         11   -1    0    0    0    0 -0.00000000000E+00 -0.00000000000E+00 -0.45593999997E+02  0.45594000000E+02  0.51100000000E-03 0.  1.
    9900012    2    1    2    0    0  0.42663551174E+02 -0.34929963571E+00  0.79575931343E+01  0.47787263860E+02  0.19999967244E+02 0.  0.
        -12    1    1    2    0    0 -0.42663551174E+02  0.34929963571E+00 -0.79575931343E+01  0.43400736140E+02  0.00000000000E+00 0.  1.
         11    1    3    3    0    0  0.33927392113E+02  0.49183057748E+01  0.11141662879E+02  0.36047112495E+02  0.51100000000E-03 0. -1.
        -11    1    3    3    0    0  0.73447185689E+01 -0.22254252617E+01 -0.33871678169E+01  0.83887015999E+01  0.51100000000E-03 0.  1.
         12    1    3    3    0    0  0.13914404919E+01 -0.30421801488E+01  0.20309807222E+00  0.33514497650E+01  0.00000000000E+00 0. -1.
</event>
<event>
 7    1  0.2655656E-009  0.4778727E+02  0.7816164E-02  0.1312668E+00
        -11   -1    0    0    0    0  0.00000000000E+00  0.00000000000E+00  0.45593999997E+02  0.45594000000E+02  0.51100000000E-03 0.  1.
         11   -1    0    0    0    0 -0.00000000000E+00 -0.00000000000E+00 -0.45593999997E+02  0.45594000000E+02  0.51100000000E-03 0. -1.
    9900012    2    1    2    0    0  0.31105159809E+02  0.22440939815E+02 -0.20310009502E+02  0.47787271521E+02  0.20000002172E+02 0.  0.
        -12    1    1    2    0    0 -0.31105159809E+02 -0.22440939815E+02  0.20310009502E+02  0.43400728479E+02  0.00000000000E+00 0.  1.
         11    1    3    3    0    0  0.14499962942E+02  0.11193441004E+02 -0.16620141838E+02  0.24734008204E+02  0.51100000000E-03 0. -1.
        -11    1    3    3    0    0  0.12227426952E+02  0.69633043760E+01  0.25601369460E+01  0.14302163442E+02  0.51100000000E-03 0.  1.
        -12    1    3    3    0    0  0.43777699156E+01  0.42841944350E+01 -0.62500046100E+01  0.87510998746E+01  0.00000000000E+00 0.  1.
</event>
<event>
 7    1  0.2655656E-009  0.4778727E+02  0.7816164E-02  0.1312668E+00
        -11   -1    0    0    0    0  0.00000000000E+00  0.00000000000E+00  0.45593999997E+02  0.45594000000E+02  0.51100000000E-03 0.  1.
         11   -1    0    0    0    0 -0.00000000000E+00 -0.00000000000E+00 -0.45593999997E+02  0.45594000000E+02  0.51100000000E-03 0. -1.
    9900012    2    1    2    0    0  0.33473681985E+02  0.44097886651E+01 -0.27270680384E+02  0.47787266938E+02  0.19999981277E+02 0.  0.
        -12    1    1    2    0    0 -0.33473681985E+02 -0.44097886651E+01  0.27270680384E+02  0.43400733062E+02  0.00000000000E+00 0.  1.
         11    1    3    3    0    0  0.23251858362E+02 -0.31094457196E+01 -0.17678223949E+02  0.29374090151E+02  0.51100000000E-03 0. -1.
        -11    1    3    3    0    0 -0.15696513252E+01  0.22288537275E+01 -0.23447002231E+01  0.35957215713E+01  0.51100000000E-03 0.  1.
        -12    1    3    3    0    0  0.11791474948E+02  0.52903806572E+01 -0.72477562126E+01  0.14817455216E+02  0.00000000000E+00 0.  1.
</event>
<event>
 7    1  0.2655656E-009  0.4778727E+02  0.7816164E-02  0.1312668E+00
        -11   -1    0    0    0    0  0.00000000000E+00  0.00000000000E+00  0.45593999997E+02  0.45594000000E+02  0.51100000000E-03 0.  1.
         11   -1    0    0    0    0 -0.00000000000E+00 -0.00000000000E+00 -0.45593999997E+02  0.45594000000E+02  0.51100000000E-03 0. -1.
    9900012    2    1    2    0    0  0.19143385827E+02 -0.37288715172E+02 -0.11256386031E+02  0.47787265829E+02  0.19999976219E+02 0.  0.
        -12    1    1    2    0    0 -0.19143385827E+02  0.37288715172E+02  0.11256386031E+02  0.43400734171E+02  0.00000000000E+00 0.  1.
         11    1    3    3    0    0  0.20747305851E+01 -0.82865423634E+01 -0.40477786010E+01  0.94528198547E+01  0.51100000000E-03 0. -1.
        -11    1    3    3    0    0  0.12371669698E+01 -0.13150379576E+02  0.32614676848E+01  0.13605154789E+02  0.51100000000E-03 0.  1.
        -12    1    3    3    0    0  0.15831488272E+02 -0.15851793233E+02 -0.10470075115E+02  0.24729291185E+02  0.00000000000E+00 0.  1.
</event>
<event>
 7    1  0.2655656E-009  0.4778727E+02  0.7816164E-02  0.1312668E+00
        -11   -1    0    0    0    0  0.00000000000E+00  0.00000000000E+00  0.45593999997E+02  0.45594000000E+02  0.51100000000E-03 0.  1.
         11   -1    0    0    0    0 -0.00000000000E+00 -0.00000000000E+00 -0.45593999997E+02  0.45594000000E+02  0.51100000000E-03 0. -1.
    9900012    2    1    2    0    0 -0.95269401110E+01  0.20435130362E+02 -0.37084578180E+02  0.47787273283E+02  0.20000010204E+02 0.  0.
        -12    1    1    2    0    0  0.95269401110E+01 -0.20435130362E+02  0.37084578180E+02  0.43400726717E+02  0.00000000000E+00 0.  1.
         11    1    3    3    0    0 -0.38818112583E-01  0.12769396367E+02 -0.14529372573E+02  0.19343258723E+02  0.51100000000E-03 0. -1.
        -11    1    3    3    0    0 -0.10264717604E+02  0.32227626998E+01 -0.85862892608E+01  0.13764991480E+02  0.51100000000E-03 0.  1.
        -12    1    3    3    0    0  0.77659560550E+00  0.44429712958E+01 -0.13968916346E+02  0.14679023079E+02  0.00000000000E+00 0.  1.
</event>
<event>
 7    1  0.2655656E-009  0.4778728E+02  0.7816164E-02  0.1312668E+00
        -11   -1    0    0    0    0  0.00000000000E+00  0.00000000000E+00  0.45593999997E+02  0.45594000000E+02  0.51100000000E-03 0.  1.
         11   -1    0    0    0    0 -0.00000000000E+00 -0.00000000000E+00 -0.45593999997E+02  0.45594000000E+02  0.51100000000E-03 0. -1.
    9900012    2    1    2    0    0  0.14372401969E+02 -0.40832006666E+02 -0.31311162774E+01  0.47787278856E+02  0.20000035616E+02 0.  0.
        -12    1    1    2    0    0 -0.14372401969E+02  0.40832006666E+02  0.31311162774E+01  0.43400721144E+02  0.00000000000E+00 0.  1.
         11    1    3    3    0    0  0.19450738439E+01 -0.17312185773E+02 -0.57394690757E+01  0.18342207992E+02  0.51100000000E-03 0. -1.
        -11    1    3    3    0    0  0.34024250282E+01 -0.10599332153E+02  0.69174988063E+01  0.13106262937E+02  0.51100000000E-03 0.  1.
        -12    1    3    3    0    0  0.90249030965E+01 -0.12920488739E+02 -0.43091460080E+01  0.16338807927E+02  0.00000000000E+00 0.  1.
</event>
<event>
 7    1  0.2655656E-009  0.4778725E+02  0.7816164E-02  0.1312668E+00
        -11   -1    0    0    0    0  0.00000000000E+00  0.00000000000E+00  0.45593999997E+02  0.45594000000E+02  0.51100000000E-03 0.  1.
         11   -1    0    0    0    0 -0.00000000000E+00 -0.00000000000E+00 -0.45593999997E+02  0.45594000000E+02  0.51100000000E-03 0. -1.
    9900012    2    1    2    0    0 -0.17788092048E+02 -0.26332567418E+01 -0.39500318356E+02  0.47787246435E+02  0.19999887796E+02 0.  0.
        -12    1    1    2    0    0  0.17788092048E+02  0.26332567418E+01  0.39500318356E+02  0.43400753565E+02  0.00000000000E+00 0.  1.
         11    1    3    3    0    0 -0.10369915020E+02 -0.57630629603E+01 -0.21025256350E+02  0.24141446457E+02  0.51100000000E-03 0. -1.
        -11    1    3    3    0    0 -0.51018981229E+01  0.72459144635E+01 -0.16056046550E+02  0.18339282210E+02  0.51100000000E-03 0.  1.
        -12    1    3    3    0    0 -0.23162789053E+01 -0.41161082449E+01 -0.24190154554E+01  0.53065177682E+01  0.00000000000E+00 0.  1.
</event>
<event>
 7    1  0.2655656E-009  0.4778727E+02  0.7816164E-02  0.1312668E+00
        -11   -1    0    0    0    0  0.00000000000E+00  0.00000000000E+00  0.45593999997E+02  0.45594000000E+02  0.51100000000E-03 0.  1.
         11   -1    0    0    0    0 -0.00000000000E+00 -0.00000000000E+00 -0.45593999997E+02  0.45594000000E+02  0.51100000000E-03 0. -1.
    9900012    2    1    2    0    0 -0.23732620943E+02 -0.27425233528E+02 -0.23837841711E+02  0.47787269265E+02  0.19999991887E+02 0.  0.
        -12    1    1    2    0    0  0.23732620943E+02  0.27425233528E+02  0.23837841711E+02  0.43400730735E+02  0.00000000000E+00 0.  1.
         11    1    3    3    0    0 -0.20153563109E+02 -0.11727487806E+02 -0.19277424971E+02  0.30254242512E+02  0.51100000000E-03 0. -1.
        -11    1    3    3    0    0 -0.44493201551E+00 -0.12270002467E+02 -0.35312636570E+01  0.12775787581E+02  0.51100000000E-03 0.  1.
        -12    1    3    3    0    0 -0.31341258182E+01 -0.34277432557E+01 -0.10291530832E+01  0.47572391720E+01  0.00000000000E+00 0.  1.
</event>
<event>
 7    1  0.2655656E-009  0.4778727E+02  0.7816164E-02  0.1312668E+00
        -11   -1    0    0    0    0  0.00000000000E+00  0.00000000000E+00  0.45593999997E+02  0.45594000000E+02  0.51100000000E-03 0. -1.
         11   -1    0    0    0    0 -0.00000000000E+00 -0.00000000000E+00 -0.45593999997E+02  0.45594000000E+02  0.51100000000E-03 0.  1.
    9900012    2    1    2    0    0  0.59927915319E+01  0.12448081210E+02  0.41143103875E+02  0.47787271059E+02  0.20000000067E+02 0.  0.
        -12    1    1    2    0    0 -0.59927915319E+01 -0.12448081210E+02 -0.41143103875E+02  0.43400728941E+02  0.00000000000E+00 0.  1.
         11    1    3    3    0    0  0.87082749146E+01  0.30429832834E+01  0.17120062114E+02  0.19447116143E+02  0.51100000000E-03 0. -1.
        -11    1    3    3    0    0 -0.38978267939E+01  0.83767284992E+01  0.79436508734E+01  0.12184589592E+02  0.51100000000E-03 0.  1.
        -12    1    3    3    0    0  0.11823434112E+01  0.10283694272E+01  0.16079390887E+02  0.16155565324E+02  0.00000000000E+00 0.  1.
</event>
<event>
 7    1  0.2655656E-009  0.4778727E+02  0.7816164E-02  0.1312668E+00
        -11   -1    0    0    0    0  0.00000000000E+00  0.00000000000E+00  0.45593999997E+02  0.45594000000E+02  0.51100000000E-03 0. -1.
         11   -1    0    0    0    0 -0.00000000000E+00 -0.00000000000E+00 -0.45593999997E+02  0.45594000000E+02  0.51100000000E-03 0.  1.
    9900012    2    1    2    0    0  0.19530206414E+01  0.19458653503E+02  0.38744930295E+02  0.47787272940E+02  0.20000008644E+02 0.  0.
        -12    1    1    2    0    0 -0.19530206414E+01 -0.19458653503E+02 -0.38744930295E+02  0.43400727060E+02  0.00000000000E+00 0.  1.
         11    1    3    3    0    0  0.22241300191E+01  0.12129235537E+02  0.22432592008E+02  0.25598560380E+02  0.51100000000E-03 0. -1.
        -11    1    3    3    0    0  0.54753150608E+01  0.11893198499E+01  0.27765428536E+01  0.62532189470E+01  0.51100000000E-03 0.  1.
        -12    1    3    3    0    0 -0.57464244386E+01  0.61400981164E+01  0.13535795433E+02  0.15935493613E+02  0.00000000000E+00 0.  1.
</event>
<event>
 7    1  0.2655656E-009  0.4778727E+02  0.7816164E-02  0.1312668E+00
        -11   -1    0    0    0    0  0.00000000000E+00  0.00000000000E+00  0.45593999997E+02  0.45594000000E+02  0.51100000000E-03 0.  1.
         11   -1    0    0    0    0 -0.00000000000E+00 -0.00000000000E+00 -0.45593999997E+02  0.45594000000E+02  0.51100000000E-03 0. -1.
    9900012    2    1    2    0    0 -0.21013299653E+02  0.70955999157E+01 -0.37305723593E+02  0.47787270591E+02  0.19999997931E+02 0.  0.
        -12    1    1    2    0    0  0.21013299653E+02 -0.70955999157E+01  0.37305723593E+02  0.43400729409E+02  0.00000000000E+00 0.  1.
         11    1    3    3    0    0 -0.22521708093E+02  0.77033086677E+01 -0.31656474578E+02  0.39606826215E+02  0.51100000000E-03 0. -1.
        -11    1    3    3    0    0  0.30180318077E+01 -0.21905651104E+01 -0.35534841659E+01  0.51511495293E+01  0.51100000000E-03 0.  1.
         12    1    3    3    0    0 -0.15096233684E+01  0.15828563584E+01 -0.20957648487E+01  0.30292948464E+01  0.00000000000E+00 0. -1.
</event>
<event>
 7    1  0.2655656E-009  0.4778727E+02  0.7816164E-02  0.1312668E+00
        -11   -1    0    0    0    0  0.00000000000E+00  0.00000000000E+00  0.45593999997E+02  0.45594000000E+02  0.51100000000E-03 0. -1.
         11   -1    0    0    0    0 -0.00000000000E+00 -0.00000000000E+00 -0.45593999997E+02  0.45594000000E+02  0.51100000000E-03 0.  1.
    9900012    2    1    2    0    0 -0.17553047744E+02  0.26511278056E+02  0.29540918520E+02  0.47787271708E+02  0.20000003025E+02 0.  0.
        -12    1    1    2    0    0  0.17553047744E+02 -0.26511278056E+02 -0.29540918520E+02  0.43400728292E+02  0.00000000000E+00 0.  1.
         11    1    3    3    0    0 -0.43171387206E+01 -0.59012937211E+00  0.85580496705E+01  0.96034448940E+01  0.51100000000E-03 0. -1.
        -11    1    3    3    0    0  0.10157311076E+01 -0.24967387138E+00  0.49194024685E+00  0.11558772394E+01  0.51100000000E-03 0.  1.
         12    1    3    3    0    0 -0.14251640131E+02  0.27351081300E+02  0.20490928602E+02  0.37027949574E+02  0.00000000000E+00 0. -1.
</event>
<event>
 7    1  0.2655656E-009  0.4778727E+02  0.7816164E-02  0.1312668E+00
        -11   -1    0    0    0    0  0.00000000000E+00  0.00000000000E+00  0.45593999997E+02  0.45594000000E+02  0.51100000000E-03 0.  1.
         11   -1    0    0    0    0 -0.00000000000E+00 -0.00000000000E+00 -0.45593999997E+02  0.45594000000E+02  0.51100000000E-03 0. -1.
    9900012    2    1    2    0    0 -0.26413390844E+02  0.10593720888E+02 -0.32767805838E+02  0.47787271463E+02  0.20000001908E+02 0.  0.
        -12    1    1    2    0    0  0.26413390844E+02 -0.10593720888E+02  0.32767805838E+02  0.43400728537E+02  0.00000000000E+00 0.  1.
         11    1    3    3    0    0 -0.64987853186E+01  0.76811036221E+01 -0.14520483993E+02  0.17665730076E+02  0.51100000000E-03 0. -1.
        -11    1    3    3    0    0 -0.21847209096E+02  0.28068137388E+01 -0.16637816162E+02  0.27604269155E+02  0.51100000000E-03 0.  1.
        -12    1    3    3    0    0  0.19326035707E+01  0.10580352741E+00 -0.16095056825E+01  0.25172722320E+01  0.00000000000E+00 0.  1.
</event>
<event>
 7    1  0.2655656E-009  0.4778727E+02  0.7816164E-02  0.1312668E+00
        -11   -1    0    0    0    0  0.00000000000E+00  0.00000000000E+00  0.45593999997E+02  0.45594000000E+02  0.51100000000E-03 0.  1.
         11   -1    0    0    0    0 -0.00000000000E+00 -0.00000000000E+00 -0.45593999997E+02  0.45594000000E+02  0.51100000000E-03 0. -1.
    9900012    2    1    2    0    0 -0.54825956298E+01  0.39393973099E+02 -0.17368918109E+02  0.47787270886E+02  0.19999999279E+02 0.  0.
        -12    1    1    2    0    0  0.54825956298E+01 -0.39393973099E+02  0.17368918109E+02  0.43400729114E+02  0.00000000000E+00 0.  1.
         11    1    3    3    0    0 -0.80740249645E+01  0.13576485490E+02 -0.12025909386E+02  0.19852791598E+02  0.51100000000E-03 0. -1.
        -11    1    3    3    0    0  0.56145998209E+01  0.14673070737E+02 -0.45684513931E+01  0.16361341155E+02  0.51100000000E-03 0.  1.
         12    1    3    3    0    0 -0.30231704861E+01  0.11144416872E+02 -0.77455732901E+00  0.11573138134E+02  0.00000000000E+00 0. -1.
</event>
<event>
 7    1  0.2655656E-009  0.4778727E+02  0.7816164E-02  0.1312668E+00
        -11   -1    0    0    0    0  0.00000000000E+00  0.00000000000E+00  0.45593999997E+02  0.45594000000E+02  0.51100000000E-03 0.  1.
         11   -1    0    0    0    0 -0.00000000000E+00 -0.00000000000E+00 -0.45593999997E+02  0.45594000000E+02  0.51100000000E-03 0. -1.
    9900012    2    1    2    0    0 -0.42138569131E+00  0.38917023679E+02 -0.19207060208E+02  0.47787268903E+02  0.19999990234E+02 0.  0.
        -12    1    1    2    0    0  0.42138569131E+00 -0.38917023679E+02  0.19207060208E+02  0.43400731097E+02  0.00000000000E+00 0.  1.
         11    1    3    3    0    0  0.16705188269E+01  0.20491258419E+02 -0.18121798118E+02  0.27405872948E+02  0.51100000000E-03 0. -1.
        -11    1    3    3    0    0 -0.15211744841E+01  0.42654705495E+01 -0.38481831066E+01  0.59427875869E+01  0.51100000000E-03 0.  1.
         12    1    3    3    0    0 -0.57073003407E+00  0.14160294710E+02  0.27629210161E+01  0.14438608368E+02  0.00000000000E+00 0. -1.
</event>
<event>
 7    1  0.2655656E-009  0.4778727E+02  0.7816164E-02  0.1312668E+00
        -11   -1    0    0    0    0  0.00000000000E+00  0.00000000000E+00  0.45593999997E+02  0.45594000000E+02  0.51100000000E-03 0. -1.
         11   -1    0    0    0    0 -0.00000000000E+00 -0.00000000000E+00 -0.45593999997E+02  0.45594000000E+02  0.51100000000E-03 0.  1.
    9900012    2    1    2    0    0  0.19647191668E+02 -0.32769512151E+02 -0.20585679482E+02  0.47787271126E+02  0.20000000373E+02 0.  0.
        -12    1    1    2    0    0 -0.19647191668E+02  0.32769512151E+02  0.20585679482E+02  0.43400728874E+02  0.00000000000E+00 0.  1.
         11    1    3    3    0    0  0.94339507158E+01 -0.57368823037E+01 -0.69648482006E+01  0.13054514751E+02  0.51100000000E-03 0. -1.
        -11    1    3    3    0    0  0.36803020366E+01 -0.15668531556E+02 -0.37769910018E+00  0.16099383873E+02  0.51100000000E-03 0.  1.
        -12    1    3    3    0    0  0.65329389159E+01 -0.11364098291E+02 -0.13243132181E+02  0.18633372502E+02  0.00000000000E+00 0.  1.
</event>
<event>
 7    1  0.2655656E-009  0.4778728E+02  0.7816164E-02  0.1312668E+00
        -11   -1    0    0    0    0  0.00000000000E+00  0.00000000000E+00  0.45593999997E+02  0.45594000000E+02  0.51100000000E-03 0.  1.
         11   -1    0    0    0    0 -0.00000000000E+00 -0.00000000000E+00 -0.45593999997E+02  0.45594000000E+02  0.51100000000E-03 0. -1.
    9900012    2    1    2    0    0 -0.25064410616E+02 -0.33718869837E+02 -0.10882828997E+02  0.47787276163E+02  0.20000023337E+02 0.  0.
        -12    1    1    2    0    0  0.25064410616E+02  0.33718869837E+02  0.10882828997E+02  0.43400723837E+02  0.00000000000E+00 0.  1.
         11    1    3    3    0    0 -0.69746352245E+01 -0.23866647271E+02 -0.77431952110E+01  0.26042646962E+02  0.51100000000E-03 0. -1.
        -11    1    3    3    0    0 -0.34401079351E+01  0.70066144933E-01 -0.20770341485E+01  0.40191196778E+01  0.51100000000E-03 0.  1.
         12    1    3    3    0    0 -0.14649667457E+02 -0.99222887111E+01 -0.10625996374E+01  0.17725509523E+02  0.00000000000E+00 0. -1.
</event>
<event>
 7    1  0.2655656E-009  0.4778727E+02  0.7816164E-02  0.1312668E+00
        -11   -1    0    0    0    0  0.00000000000E+00  0.00000000000E+00  0.45593999997E+02  0.45594000000E+02  0.51100000000E-03 0.  1.
         11   -1    0    0    0    0 -0.00000000000E+00 -0.00000000000E+00 -0.45593999997E+02  0.45594000000E+02  0.51100000000E-03 0. -1.
    9900012    2    1    2    0    0 -0.30434137709E+02  0.22340212486E+02 -0.21407982069E+02  0.47787268114E+02  0.19999986639E+02 0.  0.
        -12    1    1    2    0    0  0.30434137709E+02 -0.22340212486E+02  0.21407982069E+02  0.43400731886E+02  0.00000000000E+00 0.  1.
         11    1    3    3    0    0  0.23743881767E+00  0.26261173327E+00 -0.21408296674E+01  0.21699064590E+01  0.51100000000E-03 0.  1.
        -11    1    3    3    0    0 -0.25263868410E+02  0.19526083823E+02 -0.22267118109E+02  0.38927567939E+02  0.51100000000E-03 0. -1.
        -12    1    3    3    0    0 -0.54077081167E+01  0.25515169297E+01  0.29999657081E+01  0.66897937164E+01  0.00000000000E+00 0.  1.
</event>
<event>
 7    1  0.2655656E-009  0.4778727E+02  0.7816164E-02  0.1312668E+00
        -11   -1    0    0    0    0  0.00000000000E+00  0.00000000000E+00  0.45593999997E+02  0.45594000000E+02  0.51100000000E-03 0. -1.
         11   -1    0    0    0    0 -0.00000000000E+00 -0.00000000000E+00 -0.45593999997E+02  0.45594000000E+02  0.51100000000E-03 0.  1.
    9900012    2    1    2    0    0  0.38184237622E+02  0.27327636497E+00  0.20627957290E+02  0.47787270689E+02  0.19999998381E+02 0.  0.
        -12    1    1    2    0    0 -0.38184237622E+02 -0.27327636497E+00 -0.20627957290E+02  0.43400729311E+02  0.00000000000E+00 0.  1.
         11    1    3    3    0    0  0.11752646703E+02 -0.69359183024E+01  0.61382038051E+01  0.14963596273E+02  0.51100000000E-03 0. -1.
        -11    1    3    3    0    0  0.14343381546E+02  0.89240878165E+01  0.58922759795E+01  0.17891083087E+02  0.51100000000E-03 0.  1.
        -12    1    3    3    0    0  0.12088209373E+02 -0.17148931492E+01  0.85974775051E+01  0.14932591330E+02  0.00000000000E+00 0.  1.
</event>
<event>
 7    1  0.2655656E-009  0.4778727E+02  0.7816164E-02  0.1312668E+00
        -11   -1    0    0    0    0  0.00000000000E+00  0.00000000000E+00  0.45593999997E+02  0.45594000000E+02  0.51100000000E-03 0.  1.
         11   -1    0    0    0    0 -0.00000000000E+00 -0.00000000000E+00 -0.45593999997E+02  0.45594000000E+02  0.51100000000E-03 0. -1.
    9900012    2    1    2    0    0  0.80172021475E+01 -0.11221913063E+02 -0.41151139742E+02  0.47787272297E+02  0.20000005710E+02 0.  0.
        -12    1    1    2    0    0 -0.80172021475E+01  0.11221913063E+02  0.41151139742E+02  0.43400727703E+02  0.00000000000E+00 0.  1.
         11    1    3    3    0    0  0.13457324384E+01  0.17330928458E+01 -0.20687256289E+02  0.20803297326E+02  0.51100000000E-03 0. -1.
        -11    1    3    3    0    0  0.69376024877E+01 -0.35180721763E+01 -0.65469425988E+01  0.10167085018E+02  0.51100000000E-03 0.  1.
         12    1    3    3    0    0 -0.26613277866E+00 -0.94369337322E+01 -0.13916940854E+02  0.16816889952E+02  0.00000000000E+00 0. -1.
</event>
<event>
 7    1  0.2655656E-009  0.4778727E+02  0.7816164E-02  0.1312668E+00
        -11   -1    0    0    0    0  0.00000000000E+00  0.00000000000E+00  0.45593999997E+02  0.45594000000E+02  0.51100000000E-03 0. -1.
         11   -1    0    0    0    0 -0.00000000000E+00 -0.00000000000E+00 -0.45593999997E+02  0.45594000000E+02  0.51100000000E-03 0.  1.
    9900012    2    1    2    0    0  0.42670894455E+02  0.54840098065E+01  0.57221994052E+01  0.47787272320E+02  0.20000005816E+02 0.  0.
        -12    1    1    2    0    0 -0.42670894455E+02 -0.54840098065E+01 -0.57221994052E+01  0.43400727680E+02  0.00000000000E+00 0.  1.
         11    1    3    3    0    0  0.77103215487E+01  0.41668654320E+01  0.72062195789E+01  0.11346427931E+02  0.51100000000E-03 0.  1.
        -11    1    3    3    0    0  0.25477754938E+02  0.31125627818E+01 -0.50362435971E+01  0.26156601339E+02  0.51100000000E-03 0. -1.
         12    1    3    3    0    0  0.94828179677E+01 -0.17954184073E+01  0.35522234234E+01  0.10284243050E+02  0.00000000000E+00 0. -1.
</event>
<event>
 7    1  0.2655656E-009  0.4778730E+02  0.7816164E-02  0.1312668E+00
        -11   -1    0    0    0    0  0.00000000000E+00  0.00000000000E+00  0.45593999997E+02  0.45594000000E+02  0.51100000000E-03 0.  1.
         11   -1    0    0    0    0 -0.00000000000E+00 -0.00000000000E+00 -0.45593999997E+02  0.45594000000E+02  0.51100000000E-03 0. -1.
    9900012    2    1    2    0    0 -0.40440424798E+01  0.27440227858E+02 -0.33381143167E+02  0.47787296047E+02  0.20000113998E+02 0.  0.
        -12    1    1    2    0    0  0.40440424798E+01 -0.27440227858E+02  0.33381143167E+02  0.43400703953E+02  0.00000000000E+00 0.  1.
         11    1    3    3    0    0 -0.57250983474E+01  0.45408281634E+01 -0.68841968976E+01  0.10039324613E+02  0.51100000000E-03 0. -1.
        -11    1    3    3    0    0  0.49357806659E+01  0.21182530374E+02 -0.17135003097E+02  0.27688803788E+02  0.51100000000E-03 0.  1.
        -12    1    3    3    0    0 -0.32547247983E+01  0.17168693207E+01 -0.93619431723E+01  0.10059167646E+02  0.00000000000E+00 0.  1.
</event>
<event>
 7    1  0.2655656E-009  0.4778727E+02  0.7816164E-02  0.1312668E+00
        -11   -1    0    0    0    0  0.00000000000E+00  0.00000000000E+00  0.45593999997E+02  0.45594000000E+02  0.51100000000E-03 0.  1.
         11   -1    0    0    0    0 -0.00000000000E+00 -0.00000000000E+00 -0.45593999997E+02  0.45594000000E+02  0.51100000000E-03 0. -1.
    9900012    2    1    2    0    0  0.18171715177E+02  0.79645685124E+00 -0.39405300293E+02  0.47787271122E+02  0.20000000352E+02 0.  0.
        -12    1    1    2    0    0 -0.18171715177E+02 -0.79645685124E+00  0.39405300293E+02  0.43400728878E+02  0.00000000000E+00 0.  1.
         11    1    3    3    0    0  0.73582392146E+01 -0.16381377100E+01 -0.12893475562E+02  0.14935491013E+02  0.51100000000E-03 0. -1.
        -11    1    3    3    0    0  0.34461662437E+01 -0.66709309091E+01 -0.82372355416E+01  0.11145825703E+02  0.51100000000E-03 0.  1.
        -12    1    3    3    0    0  0.73673097187E+01  0.91055254703E+01 -0.18274589190E+02  0.21705954405E+02  0.00000000000E+00 0.  1.
</event>
<event>
 7    1  0.2655656E-009  0.4778725E+02  0.7816164E-02  0.1312668E+00
        -11   -1    0    0    0    0  0.00000000000E+00  0.00000000000E+00  0.45593999997E+02  0.45594000000E+02  0.51100000000E-03 0. -1.
         11   -1    0    0    0    0 -0.00000000000E+00 -0.00000000000E+00 -0.45593999997E+02  0.45594000000E+02  0.51100000000E-03 0.  1.
    9900012    2    1    2    0    0 -0.42855027283E+02 -0.90077993450E+00 -0.68014852158E+01  0.47787251515E+02  0.19999910957E+02 0.  0.
        -12    1    1    2    0    0  0.42855027283E+02  0.90077993450E+00  0.68014852158E+01  0.43400748485E+02  0.00000000000E+00 0.  1.
         11    1    3    3    0    0 -0.48807179390E+01  0.36870737897E+01  0.21108545431E+01  0.64708289959E+01  0.51100000000E-03 0. -1.
        -11    1    3    3    0    0 -0.12724802273E+02 -0.50626107296E+01 -0.83829318555E+01  0.16056904031E+02  0.51100000000E-03 0.  1.
        -12    1    3    3    0    0 -0.25249507071E+02  0.47475700547E+00 -0.52940790336E+00  0.25259518488E+02  0.00000000000E+00 0.  1.
</event>
<event>
 7    1  0.2655656E-009  0.4778728E+02  0.7816164E-02  0.1312668E+00
        -11   -1    0    0    0    0  0.00000000000E+00  0.00000000000E+00  0.45593999997E+02  0.45594000000E+02  0.51100000000E-03 0. -1.
         11   -1    0    0    0    0 -0.00000000000E+00 -0.00000000000E+00 -0.45593999997E+02  0.45594000000E+02  0.51100000000E-03 0.  1.
    9900012    2    1    2    0    0 -0.19023245728E+02  0.26465587659E+02  0.28658532527E+02  0.47787277716E+02  0.20000030420E+02 0.  0.
        -12    1    1    2    0    0  0.19023245728E+02 -0.26465587659E+02 -0.28658532527E+02  0.43400722284E+02  0.00000000000E+00 0.  1.
         11    1    3    3    0    0 -0.16371632017E+01  0.97030764573E+01  0.12809154155E+02  0.16152536225E+02  0.51100000000E-03 0. -1.
        -11    1    3    3    0    0 -0.73401393220E+01  0.35563796786E+01 -0.71680434403E+00  0.81877524641E+01  0.51100000000E-03 0.  1.
        -12    1    3    3    0    0 -0.10045943204E+02  0.13206131523E+02  0.16566182716E+02  0.23446989027E+02  0.00000000000E+00 0.  1.
</event>
<event>
 7    1  0.2655656E-009  0.4778725E+02  0.7816164E-02  0.1312668E+00
        -11   -1    0    0    0    0  0.00000000000E+00  0.00000000000E+00  0.45593999997E+02  0.45594000000E+02  0.51100000000E-03 0.  1.
         11   -1    0    0    0    0 -0.00000000000E+00 -0.00000000000E+00 -0.45593999997E+02  0.45594000000E+02  0.51100000000E-03 0. -1.
    9900012    2    1    2    0    0  0.20856488386E+02  0.24647075072E+02 -0.29002647525E+02  0.47787251379E+02  0.19999910337E+02 0.  0.
        -12    1    1    2    0    0 -0.20856488386E+02 -0.24647075072E+02  0.29002647525E+02  0.43400748621E+02  0.00000000000E+00 0.  1.
         11    1    3    3    0    0  0.15134795057E+02  0.19425636686E+02 -0.19958298993E+02  0.31697808774E+02  0.51100000000E-03 0. -1.
        -11    1    3    3    0    0  0.48767948662E+01  0.20254009833E+01  0.11224920991E+01  0.53986448377E+01  0.51100000000E-03 0.  1.
         12    1    3    3    0    0  0.84489846258E+00  0.31960374027E+01 -0.10166840631E+02  0.10690797768E+02  0.00000000000E+00 0. -1.
</event>
<event>
 7    1  0.2655656E-009  0.4778727E+02  0.7816164E-02  0.1312668E+00
        -11   -1    0    0    0    0  0.00000000000E+00  0.00000000000E+00  0.45593999997E+02  0.45594000000E+02  0.51100000000E-03 0.  1.
         11   -1    0    0    0    0 -0.00000000000E+00 -0.00000000000E+00 -0.45593999997E+02  0.45594000000E+02  0.51100000000E-03 0. -1.
    9900012    2    1    2    0    0 -0.39176244115E+02 -0.45837819438E+01 -0.18106189000E+02  0.47787271435E+02  0.20000001779E+02 0.  0.
        -12    1    1    2    0    0  0.39176244115E+02  0.45837819438E+01  0.18106189000E+02  0.43400728565E+02  0.00000000000E+00 0.  1.
         11    1    3    3    0    0 -0.60872685348E+01  0.15202536791E+01 -0.93255367186E+01  0.11239735087E+02  0.51100000000E-03 0. -1.
        -11    1    3    3    0    0 -0.30139728909E+02 -0.88546110982E+01 -0.82594732820E+01  0.32481168322E+02  0.51100000000E-03 0.  1.
         12    1    3    3    0    0 -0.29492466717E+01  0.27505754753E+01 -0.52117899972E+00  0.40663680263E+01  0.00000000000E+00 0. -1.
</event>
<event>
 7    1  0.2655656E-009  0.4778727E+02  0.7816164E-02  0.1312668E+00
        -11   -1    0    0    0    0  0.00000000000E+00  0.00000000000E+00  0.45593999997E+02  0.45594000000E+02  0.51100000000E-03 0.  1.
         11   -1    0    0    0    0 -0.00000000000E+00 -0.00000000000E+00 -0.45593999997E+02  0.45594000000E+02  0.51100000000E-03 0. -1.
    9900012    2    1    2    0    0  0.27173318626E+02 -0.58924574305E+01 -0.33324359614E+02  0.47787271395E+02  0.20000001600E+02 0.  0.
        -12    1    1    2    0    0 -0.27173318626E+02  0.58924574305E+01  0.33324359614E+02  0.43400728605E+02  0.00000000000E+00 0.  1.
         11    1    3    3    0    0  0.15700043472E+02 -0.32102814812E+01 -0.28955221963E+02  0.33093838571E+02  0.51100000000E-03 0. -1.
        -11    1    3    3    0    0  0.10602594093E+02  0.61098618725E+00 -0.31933510498E+01  0.11089896158E+02  0.51100000000E-03 0.  1.
         12    1    3    3    0    0  0.87068106087E+00 -0.32931621365E+01 -0.11757866017E+01  0.36035366656E+01  0.00000000000E+00 0. -1.
</event>
<event>
 7    1  0.2655656E-009  0.4778727E+02  0.7816164E-02  0.1312668E+00
        -11   -1    0    0    0    0  0.00000000000E+00  0.00000000000E+00  0.45593999997E+02  0.45594000000E+02  0.51100000000E-03 0.  1.
         11   -1    0    0    0    0 -0.00000000000E+00 -0.00000000000E+00 -0.45593999997E+02  0.45594000000E+02  0.51100000000E-03 0. -1.
    9900012    2    1    2    0    0  0.80840486192E+01 -0.22479197729E+02 -0.36234750206E+02  0.47787270800E+02  0.19999998885E+02 0.  0.
        -12    1    1    2    0    0 -0.80840486192E+01  0.22479197729E+02  0.36234750206E+02  0.43400729200E+02  0.00000000000E+00 0.  1.
         11    1    3    3    0    0 -0.27920509209E+01 -0.85987919180E+01 -0.14705211455E+02  0.17262039711E+02  0.51100000000E-03 0. -1.
        -11    1    3    3    0    0  0.71607415416E+01 -0.11992299336E+02 -0.74261285092E+01  0.15818939525E+02  0.51100000000E-03 0.  1.
        -12    1    3    3    0    0  0.37153579985E+01 -0.18881064749E+01 -0.14103410242E+02  0.14706291564E+02  0.00000000000E+00 0.  1.
</event>
<event>
 7    1  0.2655656E-009  0.4778727E+02  0.7816164E-02  0.1312668E+00
        -11   -1    0    0    0    0  0.00000000000E+00  0.00000000000E+00  0.45593999997E+02  0.45594000000E+02  0.51100000000E-03 0.  1.
         11   -1    0    0    0    0 -0.00000000000E+00 -0.00000000000E+00 -0.45593999997E+02  0.45594000000E+02  0.51100000000E-03 0. -1.
    9900012    2    1    2    0    0 -0.27825076023E+01  0.32791784761E+02 -0.28294518829E+02  0.47787270834E+02  0.19999999041E+02 0.  0.
        -12    1    1    2    0    0  0.27825076023E+01 -0.32791784761E+02  0.28294518829E+02  0.43400729166E+02  0.00000000000E+00 0.  1.
         11    1    3    3    0    0 -0.75277408026E+01  0.13843244720E+02 -0.56329291116E+01  0.16734162561E+02  0.51100000000E-03 0. -1.
        -11    1    3    3    0    0  0.75962433790E-03  0.11678681432E+02 -0.17222714845E+02  0.20808976607E+02  0.51100000000E-03 0.  1.
         12    1    3    3    0    0  0.47444735759E+01  0.72698586087E+01 -0.54388748729E+01  0.10244131666E+02  0.00000000000E+00 0. -1.
</event>
<event>
 7    1  0.2655656E-009  0.4778727E+02  0.7816164E-02  0.1312668E+00
        -11   -1    0    0    0    0  0.00000000000E+00  0.00000000000E+00  0.45593999997E+02  0.45594000000E+02  0.51100000000E-03 0.  1.
         11   -1    0    0    0    0 -0.00000000000E+00 -0.00000000000E+00 -0.45593999997E+02  0.45594000000E+02  0.51100000000E-03 0. -1.
    9900012    2    1    2    0    0 -0.36336498779E+02  0.37319372534E+01 -0.23438326282E+02  0.47787266848E+02  0.19999980867E+02 0.  0.
        -12    1    1    2    0    0  0.36336498779E+02 -0.37319372534E+01  0.23438326282E+02  0.43400733152E+02  0.00000000000E+00 0.  1.
         11    1    3    3    0    0 -0.29064939201E+02  0.71779701878E+01 -0.14537942759E+02  0.33281311973E+02  0.51100000000E-03 0. -1.
        -11    1    3    3    0    0 -0.73344641258E+01 -0.52930524158E+01 -0.88541591479E+01  0.12657286533E+02  0.51100000000E-03 0.  1.
         12    1    3    3    0    0  0.62904547139E-01  0.18470194813E+01 -0.46224375602E-01  0.18486683422E+01  0.00000000000E+00 0. -1.
</event>
<event>
 7    1  0.2655656E-009  0.4778727E+02  0.7816164E-02  0.1312668E+00
        -11   -1    0    0    0    0  0.00000000000E+00  0.00000000000E+00  0.45593999997E+02  0.45594000000E+02  0.51100000000E-03 0. -1.
         11   -1    0    0    0    0 -0.00000000000E+00 -0.00000000000E+00 -0.45593999997E+02  0.45594000000E+02  0.51100000000E-03 0.  1.
    9900012    2    1    2    0    0 -0.10636984467E+02  0.38390194197E+02  0.17224133922E+02  0.47787271453E+02  0.20000001863E+02 0.  0.
        -12    1    1    2    0    0  0.10636984467E+02 -0.38390194197E+02 -0.17224133922E+02  0.43400728547E+02  0.00000000000E+00 0.  1.
         11    1    3    3    0    0 -0.12087890635E+02  0.22997679975E+02  0.18367669491E+02  0.31817945676E+02  0.51100000000E-03 0.  1.
        -11    1    3    3    0    0  0.46202911952E+00  0.14680594998E+02 -0.83077092429E+00  0.14711339878E+02  0.51100000000E-03 0. -1.
        -12    1    3    3    0    0  0.98887704913E+00  0.71191922370E+00 -0.31276464448E+00  0.12579858991E+01  0.00000000000E+00 0.  1.
</event>
<event>
 7    1  0.2655656E-009  0.4778727E+02  0.7816164E-02  0.1312668E+00
        -11   -1    0    0    0    0  0.00000000000E+00  0.00000000000E+00  0.45593999997E+02  0.45594000000E+02  0.51100000000E-03 0.  1.
         11   -1    0    0    0    0 -0.00000000000E+00 -0.00000000000E+00 -0.45593999997E+02  0.45594000000E+02  0.51100000000E-03 0. -1.
    9900012    2    1    2    0    0 -0.17733242705E+02 -0.19868471141E+02 -0.34269505675E+02  0.47787273491E+02  0.20000011156E+02 0.  0.
        -12    1    1    2    0    0  0.17733242705E+02  0.19868471141E+02  0.34269505675E+02  0.43400726509E+02  0.00000000000E+00 0.  1.
         11    1    3    3    0    0  0.19609048269E+01 -0.72545760101E+00 -0.45833610799E+01  0.50377212627E+01  0.51100000000E-03 0. -1.
        -11    1    3    3    0    0 -0.15970673015E+02 -0.14905554131E+02 -0.29986925623E+02  0.37100588258E+02  0.51100000000E-03 0.  1.
        -12    1    3    3    0    0 -0.37234745171E+01 -0.42374594085E+01  0.30078102791E+00  0.56489639709E+01  0.00000000000E+00 0.  1.
</event>
<event>
 7    1  0.2655656E-009  0.4778727E+02  0.7816164E-02  0.1312668E+00
        -11   -1    0    0    0    0  0.00000000000E+00  0.00000000000E+00  0.45593999997E+02  0.45594000000E+02  0.51100000000E-03 0.  1.
         11   -1    0    0    0    0 -0.00000000000E+00 -0.00000000000E+00 -0.45593999997E+02  0.45594000000E+02  0.51100000000E-03 0. -1.
    9900012    2    1    2    0    0  0.20817558491E+02 -0.22682550560E+02 -0.30590102144E+02  0.47787272003E+02  0.20000004370E+02 0.  0.
        -12    1    1    2    0    0 -0.20817558491E+02  0.22682550560E+02  0.30590102144E+02  0.43400727997E+02  0.00000000000E+00 0.  1.
         11    1    3    3    0    0  0.10671933473E+02 -0.13873251022E+02 -0.24627664399E+02  0.30213889389E+02  0.51100000000E-03 0. -1.
        -11    1    3    3    0    0  0.11440764544E+02 -0.49616055290E+01 -0.44214159136E+01  0.13230931249E+02  0.51100000000E-03 0.  1.
        -12    1    3    3    0    0 -0.12951395250E+01 -0.38476940090E+01 -0.15410218319E+01  0.43424513656E+01  0.00000000000E+00 0.  1.
</event>
<event>
 7    1  0.2655656E-009  0.4778727E+02  0.7816164E-02  0.1312668E+00
        -11   -1    0    0    0    0  0.00000000000E+00  0.00000000000E+00  0.45593999997E+02  0.45594000000E+02  0.51100000000E-03 0.  1.
         11   -1    0    0    0    0 -0.00000000000E+00 -0.00000000000E+00 -0.45593999997E+02  0.45594000000E+02  0.51100000000E-03 0. -1.
    9900012    2    1    2    0    0  0.35212150530E+02 -0.10079226376E+02 -0.23283834780E+02  0.47787270612E+02  0.19999998030E+02 0.  0.
        -12    1    1    2    0    0 -0.35212150530E+02  0.10079226376E+02  0.23283834780E+02  0.43400729388E+02  0.00000000000E+00 0.  1.
         11    1    3    3    0    0  0.61820744357E+01 -0.48539804147E+01 -0.74541489636E+01  0.10832520816E+02  0.51100000000E-03 0. -1.
        -11    1    3    3    0    0  0.20963307839E+02 -0.23402594377E+01 -0.18420428703E+02  0.28004451140E+02  0.51100000000E-03 0.  1.
        -12    1    3    3    0    0  0.80667682561E+01 -0.28849865233E+01  0.25907428864E+01  0.89502986566E+01  0.00000000000E+00 0.  1.
</event>
<event>
 7    1  0.2655656E-009  0.4778727E+02  0.7816164E-02  0.1312668E+00
        -11   -1    0    0    0    0  0.00000000000E+00  0.00000000000E+00  0.45593999997E+02  0.45594000000E+02  0.51100000000E-03 0. -1.
         11   -1    0    0    0    0 -0.00000000000E+00 -0.00000000000E+00 -0.45593999997E+02  0.45594000000E+02  0.51100000000E-03 0.  1.
    9900012    2    1    2    0    0  0.33098674453E+02 -0.12900326793E+02  0.24933557010E+02  0.47787274810E+02  0.20000017167E+02 0.  0.
        -12    1    1    2    0    0 -0.33098674453E+02  0.12900326793E+02 -0.24933557010E+02  0.43400725190E+02  0.00000000000E+00 0.  1.
         11    1    3    3    0    0  0.75932177075E+01 -0.10782490237E+01  0.47098158379E+01  0.90001078659E+01  0.51100000000E-03 0. -1.
        -11    1    3    3    0    0  0.18730396079E+02 -0.89556543990E+01  0.42372603392E+01  0.21189286407E+02  0.51100000000E-03 0.  1.
        -12    1    3    3    0    0  0.67750606660E+01 -0.28664233704E+01  0.15986480832E+02  0.17597880536E+02  0.00000000000E+00 0.  1.
</event>
<event>
 7    1  0.2655656E-009  0.4778727E+02  0.7816164E-02  0.1312668E+00
        -11   -1    0    0    0    0  0.00000000000E+00  0.00000000000E+00  0.45593999997E+02  0.45594000000E+02  0.51100000000E-03 0.  1.
         11   -1    0    0    0    0 -0.00000000000E+00 -0.00000000000E+00 -0.45593999997E+02  0.45594000000E+02  0.51100000000E-03 0. -1.
    9900012    2    1    2    0    0 -0.12977434192E+02  0.10628948142E+02 -0.40027925732E+02  0.47787272182E+02  0.20000005184E+02 0.  0.
        -12    1    1    2    0    0  0.12977434192E+02 -0.10628948142E+02  0.40027925732E+02  0.43400727818E+02  0.00000000000E+00 0.  1.
         11    1    3    3    0    0 -0.70977644368E+01  0.85969688782E+01 -0.56034456025E+01  0.12477368984E+02  0.51100000000E-03 0. -1.
        -11    1    3    3    0    0 -0.55015576523E+01  0.33777867020E+01 -0.28722302194E+02  0.29438872655E+02  0.51100000000E-03 0.  1.
        -12    1    3    3    0    0 -0.37811210252E+00 -0.13458074384E+01 -0.57021779346E+01  0.58710305417E+01  0.00000000000E+00 0.  1.
</event>
<event>
 7    1  0.2655656E-009  0.4778728E+02  0.7816164E-02  0.1312668E+00
        -11   -1    0    0    0    0  0.00000000000E+00  0.00000000000E+00  0.45593999997E+02  0.45594000000E+02  0.51100000000E-03 0. -1.
         11   -1    0    0    0    0 -0.00000000000E+00 -0.00000000000E+00 -0.45593999997E+02  0.45594000000E+02  0.51100000000E-03 0.  1.
    9900012    2    1    2    0    0  0.32960409448E+02 -0.25975938155E+02  0.11067276171E+02  0.47787279316E+02  0.20000037715E+02 0.  0.
        -12    1    1    2    0    0 -0.32960409448E+02  0.25975938155E+02 -0.11067276171E+02  0.43400720684E+02  0.00000000000E+00 0.  1.
         11    1    3    3    0    0  0.22906632265E+02 -0.11830178382E+02  0.74677511137E+01  0.26840905895E+02  0.51100000000E-03 0. -1.
        -11    1    3    3    0    0 -0.24001577758E+01 -0.23627778460E+01 -0.24173270081E+00  0.33766716539E+01  0.51100000000E-03 0.  1.
        -12    1    3    3    0    0  0.12453934958E+02 -0.11782981928E+02  0.38412577577E+01  0.17569701768E+02  0.00000000000E+00 0.  1.
</event>
<event>
 7    1  0.2655656E-009  0.4778727E+02  0.7816164E-02  0.1312668E+00
        -11   -1    0    0    0    0  0.00000000000E+00  0.00000000000E+00  0.45593999997E+02  0.45594000000E+02  0.51100000000E-03 0.  1.
         11   -1    0    0    0    0 -0.00000000000E+00 -0.00000000000E+00 -0.45593999997E+02  0.45594000000E+02  0.51100000000E-03 0. -1.
    9900012    2    1    2    0    0 -0.45996831015E+01 -0.12772193555E+02 -0.41223016440E+02  0.47787273080E+02  0.20000009279E+02 0.  0.
        -12    1    1    2    0    0  0.45996831015E+01  0.12772193555E+02  0.41223016440E+02  0.43400726920E+02  0.00000000000E+00 0.  1.
         11    1    3    3    0    0 -0.50400538536E+01  0.11311124372E+00 -0.19195728858E+01  0.53944135294E+01  0.51100000000E-03 0. -1.
        -11    1    3    3    0    0  0.12316427504E+00  0.10014395293E+01 -0.40237695071E+00  0.10862587358E+01  0.51100000000E-03 0.  1.
         12    1    3    3    0    0  0.31720647710E+00 -0.13886744328E+02 -0.38901066603E+02  0.41306600814E+02  0.00000000000E+00 0. -1.
</event>
<event>
 7    1  0.2655656E-009  0.4778728E+02  0.7816164E-02  0.1312668E+00
        -11   -1    0    0    0    0  0.00000000000E+00  0.00000000000E+00  0.45593999997E+02  0.45594000000E+02  0.51100000000E-03 0.  1.
         11   -1    0    0    0    0 -0.00000000000E+00 -0.00000000000E+00 -0.45593999997E+02  0.45594000000E+02  0.51100000000E-03 0. -1.
    9900012    2    1    2    0    0  0.40676185957E+01  0.11947558057E+02 -0.41525091309E+02  0.47787275665E+02  0.20000021066E+02 0.  0.
        -12    1    1    2    0    0 -0.40676185957E+01 -0.11947558057E+02  0.41525091309E+02  0.43400724335E+02  0.00000000000E+00 0.  1.
         11    1    3    3    0    0 -0.53908338828E+01  0.34947883696E+00 -0.79362841019E+01  0.96004078568E+01  0.51100000000E-03 0. -1.
        -11    1    3    3    0    0 -0.39402975575E+00  0.48867339006E+01 -0.41403989912E+01  0.64170344966E+01  0.51100000000E-03 0.  1.
         12    1    3    3    0    0  0.98524822342E+01  0.67113453199E+01 -0.29448408216E+02  0.31769833311E+02  0.00000000000E+00 0. -1.
</event>
<event>
 7    1  0.2655656E-009  0.4778723E+02  0.7816164E-02  0.1312668E+00
        -11   -1    0    0    0    0  0.00000000000E+00  0.00000000000E+00  0.45593999997E+02  0.45594000000E+02  0.51100000000E-03 0.  1.
         11   -1    0    0    0    0 -0.00000000000E+00 -0.00000000000E+00 -0.45593999997E+02  0.45594000000E+02  0.51100000000E-03 0. -1.
    9900012    2    1    2    0    0  0.32374311150E+02  0.23722213545E+02 -0.16516281865E+02  0.47787228065E+02  0.19999804040E+02 0.  0.
        -12    1    1    2    0    0 -0.32374311150E+02 -0.23722213545E+02  0.16516281865E+02  0.43400771935E+02  0.00000000000E+00 0.  1.
         11    1    3    3    0    0  0.14282032857E+02  0.97400322852E+00 -0.66657230043E+01  0.15791042026E+02  0.51100000000E-03 0. -1.
        -11    1    3    3    0    0 -0.60259573869E+00  0.17945748944E+01  0.67119718151E+00  0.20085135283E+01  0.51100000000E-03 0.  1.
         12    1    3    3    0    0  0.18694874031E+02  0.20953635422E+02 -0.10521756042E+02  0.29987672511E+02  0.00000000000E+00 0. -1.
</event>
<event>
 7    1  0.2655656E-009  0.4778727E+02  0.7816164E-02  0.1312668E+00
        -11   -1    0    0    0    0  0.00000000000E+00  0.00000000000E+00  0.45593999997E+02  0.45594000000E+02  0.51100000000E-03 0.  1.
         11   -1    0    0    0    0 -0.00000000000E+00 -0.00000000000E+00 -0.45593999997E+02  0.45594000000E+02  0.51100000000E-03 0. -1.
    9900012    2    1    2    0    0  0.10243022334E+02  0.18457458657E+02 -0.37921318095E+02  0.47787266681E+02  0.19999980105E+02 0.  0.
        -12    1    1    2    0    0 -0.10243022334E+02 -0.18457458657E+02  0.37921318095E+02  0.43400733319E+02  0.00000000000E+00 0.  1.
         11    1    3    3    0    0  0.18162423021E+01  0.26226848865E-01 -0.56486133963E+01  0.59334861178E+01  0.51100000000E-03 0. -1.
        -11    1    3    3    0    0  0.62596602953E+01  0.13428965965E+02 -0.33170258821E+02  0.36328866544E+02  0.51100000000E-03 0.  1.
        -12    1    3    3    0    0  0.21671197367E+01  0.50022658425E+01  0.89755412235E+00  0.55249140187E+01  0.00000000000E+00 0.  1.
</event>
<event>
 7    1  0.2655656E-009  0.4778727E+02  0.7816164E-02  0.1312668E+00
        -11   -1    0    0    0    0  0.00000000000E+00  0.00000000000E+00  0.45593999997E+02  0.45594000000E+02  0.51100000000E-03 0.  1.
         11   -1    0    0    0    0 -0.00000000000E+00 -0.00000000000E+00 -0.45593999997E+02  0.45594000000E+02  0.51100000000E-03 0. -1.
    9900012    2    1    2    0    0 -0.34900247560E+02  0.19432609123E+02 -0.16969674082E+02  0.47787269413E+02  0.19999992560E+02 0.  0.
        -12    1    1    2    0    0  0.34900247560E+02 -0.19432609123E+02  0.16969674082E+02  0.43400730587E+02  0.00000000000E+00 0.  1.
         11    1    3    3    0    0 -0.34674084233E+01  0.21851560778E+01 -0.89635703008E+01  0.98561362134E+01  0.51100000000E-03 0. -1.
        -11    1    3    3    0    0 -0.28938207407E+02  0.17529353291E+02 -0.93254678386E+01  0.35095048445E+02  0.51100000000E-03 0.  1.
        -12    1    3    3    0    0 -0.24946317297E+01 -0.28190024561E+00  0.13193640571E+01  0.28360847538E+01  0.00000000000E+00 0.  1.
</event>
<event>
 7    1  0.2655656E-009  0.4778727E+02  0.7816164E-02  0.1312668E+00
        -11   -1    0    0    0    0  0.00000000000E+00  0.00000000000E+00  0.45593999997E+02  0.45594000000E+02  0.51100000000E-03 0.  1.
         11   -1    0    0    0    0 -0.00000000000E+00 -0.00000000000E+00 -0.45593999997E+02  0.45594000000E+02  0.51100000000E-03 0. -1.
    9900012    2    1    2    0    0  0.38433732341E+02  0.14924100061E+02 -0.13555164362E+02  0.47787273910E+02  0.20000013064E+02 0.  0.
        -12    1    1    2    0    0 -0.38433732341E+02 -0.14924100061E+02  0.13555164362E+02  0.43400726090E+02  0.00000000000E+00 0.  1.
         11    1    3    3    0    0  0.27577029817E+02  0.91159957427E+01 -0.74176189020E+00  0.29054159132E+02  0.51100000000E-03 0.  1.
        -11    1    3    3    0    0  0.54521070309E+01  0.53961003112E+00 -0.82805114536E+01  0.99289234188E+01  0.51100000000E-03 0. -1.
        -12    1    3    3    0    0  0.54045954929E+01  0.52684942870E+01 -0.45328910182E+01  0.88041913585E+01  0.00000000000E+00 0.  1.
</event>
<event>
 7    1  0.2655656E-009  0.4778727E+02  0.7816164E-02  0.1312668E+00
        -11   -1    0    0    0    0  0.00000000000E+00  0.00000000000E+00  0.45593999997E+02  0.45594000000E+02  0.51100000000E-03 0. -1.
         11   -1    0    0    0    0 -0.00000000000E+00 -0.00000000000E+00 -0.45593999997E+02  0.45594000000E+02  0.51100000000E-03 0.  1.
    9900012    2    1    2    0    0  0.40450494849E+02  0.42492606274E+01  0.15143459282E+02  0.47787272951E+02  0.20000008691E+02 0.  0.
        -12    1    1    2    0    0 -0.40450494849E+02 -0.42492606274E+01 -0.15143459282E+02  0.43400727049E+02  0.00000000000E+00 0.  1.
         11    1    3    3    0    0  0.33034038758E+02  0.90322282649E+01  0.16706595637E+02  0.38104319993E+02  0.51100000000E-03 0. -1.
        -11    1    3    3    0    0  0.11593335192E+01 -0.23413709053E+01  0.49274760961E+00  0.26587351114E+01  0.51100000000E-03 0.  1.
         12    1    3    3    0    0  0.62571225718E+01 -0.24415967322E+01 -0.20558839644E+01  0.70242178466E+01  0.00000000000E+00 0. -1.
</event>
<event>
 7    1  0.2655656E-009  0.4778727E+02  0.7816164E-02  0.1312668E+00
        -11   -1    0    0    0    0  0.00000000000E+00  0.00000000000E+00  0.45593999997E+02  0.45594000000E+02  0.51100000000E-03 0.  1.
         11   -1    0    0    0    0 -0.00000000000E+00 -0.00000000000E+00 -0.45593999997E+02  0.45594000000E+02  0.51100000000E-03 0. -1.
    9900012    2    1    2    0    0 -0.35603789384E+01 -0.26125472994E+02 -0.34473271182E+02  0.47787273469E+02  0.20000011056E+02 0.  0.
        -12    1    1    2    0    0  0.35603789384E+01  0.26125472994E+02  0.34473271182E+02  0.43400726531E+02  0.00000000000E+00 0.  1.
         11    1    3    3    0    0  0.24946356398E+01 -0.85148387312E+01 -0.21868599845E+02  0.23600028496E+02  0.51100000000E-03 0. -1.
        -11    1    3    3    0    0  0.97926057704E+00 -0.50581169056E+01 -0.71194790943E+01  0.87880874338E+01  0.51100000000E-03 0.  1.
         12    1    3    3    0    0 -0.70342751553E+01 -0.12552517358E+02 -0.54851922436E+01  0.15399157539E+02  0.00000000000E+00 0. -1.
</event>
<event>
 7    1  0.2655656E-009  0.4778727E+02  0.7816164E-02  0.1312668E+00
        -11   -1    0    0    0    0  0.00000000000E+00  0.00000000000E+00  0.45593999997E+02  0.45594000000E+02  0.51100000000E-03 0.  1.
         11   -1    0    0    0    0 -0.00000000000E+00 -0.00000000000E+00 -0.45593999997E+02  0.45594000000E+02  0.51100000000E-03 0. -1.
    9900012    2    1    2    0    0  0.19791732879E+02  0.19024123879E+02 -0.33615376416E+02  0.47787268309E+02  0.19999987529E+02 0.  0.
        -12    1    1    2    0    0 -0.19791732879E+02 -0.19024123879E+02  0.33615376416E+02  0.43400731691E+02  0.00000000000E+00 0.  1.
         11    1    3    3    0    0  0.48976180775E+01  0.17938035761E+01 -0.31927981233E+01  0.61154193822E+01  0.51100000000E-03 0. -1.
        -11    1    3    3    0    0  0.17801640133E+02  0.94799882896E+01 -0.22452243661E+02  0.30180652993E+02  0.51100000000E-03 0.  1.
        -12    1    3    3    0    0 -0.29075253310E+01  0.77503320131E+01 -0.79703346314E+01  0.11491195934E+02  0.00000000000E+00 0.  1.
</event>
<event>
 7    1  0.2655656E-009  0.4778727E+02  0.7816164E-02  0.1312668E+00
        -11   -1    0    0    0    0  0.00000000000E+00  0.00000000000E+00  0.45593999997E+02  0.45594000000E+02  0.51100000000E-03 0.  1.
         11   -1    0    0    0    0 -0.00000000000E+00 -0.00000000000E+00 -0.45593999997E+02  0.45594000000E+02  0.51100000000E-03 0. -1.
    9900012    2    1    2    0    0  0.49900899668E+01  0.14420166909E+02 -0.40629807269E+02  0.47787269012E+02  0.19999990735E+02 0.  0.
        -12    1    1    2    0    0 -0.49900899668E+01 -0.14420166909E+02  0.40629807269E+02  0.43400730988E+02  0.00000000000E+00 0.  1.
         11    1    3    3    0    0  0.68144477344E+01  0.25489796102E+00 -0.30383119450E+01  0.74654544826E+01  0.51100000000E-03 0. -1.
        -11    1    3    3    0    0 -0.81685136135E+00  0.12820657177E+02 -0.34287298154E+02  0.36614960215E+02  0.51100000000E-03 0.  1.
        -12    1    3    3    0    0 -0.10075064062E+01  0.13446117709E+01 -0.33041971696E+01  0.37068543145E+01  0.00000000000E+00 0.  1.
</event>
<event>
 7    1  0.2655656E-009  0.4778728E+02  0.7816164E-02  0.1312668E+00
        -11   -1    0    0    0    0  0.00000000000E+00  0.00000000000E+00  0.45593999997E+02  0.45594000000E+02  0.51100000000E-03 0.  1.
         11   -1    0    0    0    0 -0.00000000000E+00 -0.00000000000E+00 -0.45593999997E+02  0.45594000000E+02  0.51100000000E-03 0. -1.
    9900012    2    1    2    0    0 -0.41408743266E+02 -0.94815222157E+01 -0.88903943224E+01  0.47787281185E+02  0.20000046237E+02 0.  0.
        -12    1    1    2    0    0  0.41408743266E+02  0.94815222157E+01  0.88903943224E+01  0.43400718815E+02  0.00000000000E+00 0.  1.
         11    1    3    3    0    0 -0.16672522634E+01  0.23188582308E+01  0.21829668531E+01  0.35947431267E+01  0.51100000000E-03 0. -1.
        -11    1    3    3    0    0 -0.39755426162E+00  0.83621806928E+00  0.77125817062E+00  0.12050516492E+01  0.51100000000E-03 0.  1.
         12    1    3    3    0    0 -0.39343936741E+02 -0.12636598516E+02 -0.11844619346E+02  0.42987486409E+02  0.00000000000E+00 0. -1.
</event>
<event>
 7    1  0.2655656E-009  0.4778728E+02  0.7816164E-02  0.1312668E+00
        -11   -1    0    0    0    0  0.00000000000E+00  0.00000000000E+00  0.45593999997E+02  0.45594000000E+02  0.51100000000E-03 0.  1.
         11   -1    0    0    0    0 -0.00000000000E+00 -0.00000000000E+00 -0.45593999997E+02  0.45594000000E+02  0.51100000000E-03 0. -1.
    9900012    2    1    2    0    0 -0.29444063484E+02 -0.24530904863E+02 -0.20369209965E+02  0.47787275554E+02  0.20000020559E+02 0.  0.
        -12    1    1    2    0    0  0.29444063484E+02  0.24530904863E+02  0.20369209965E+02  0.43400724446E+02  0.00000000000E+00 0.  1.
         11    1    3    3    0    0 -0.18443992258E+02 -0.11296807718E+02 -0.61250368337E+01  0.22479207982E+02  0.51100000000E-03 0. -1.
        -11    1    3    3    0    0 -0.36644258788E+01 -0.11051644964E+02 -0.13171298649E+02  0.17579817456E+02  0.51100000000E-03 0.  1.
         12    1    3    3    0    0 -0.73356453472E+01 -0.21824521814E+01 -0.10728744822E+01  0.77282501149E+01  0.00000000000E+00 0. -1.
</event>
<event>
 7    1  0.2655656E-009  0.4778726E+02  0.7816164E-02  0.1312668E+00
        -11   -1    0    0    0    0  0.00000000000E+00  0.00000000000E+00  0.45593999997E+02  0.45594000000E+02  0.51100000000E-03 0. -1.
         11   -1    0    0    0    0 -0.00000000000E+00 -0.00000000000E+00 -0.45593999997E+02  0.45594000000E+02  0.51100000000E-03 0.  1.
    9900012    2    1    2    0    0 -0.95399053994E+01 -0.42112911005E+02 -0.43723124426E+01  0.47787260554E+02  0.19999952169E+02 0.  0.
        -12    1    1    2    0    0  0.95399053994E+01  0.42112911005E+02  0.43723124426E+01  0.43400739446E+02  0.00000000000E+00 0.  1.
         11    1    3    3    0    0 -0.47674004524E+01 -0.10137093092E+02  0.39799552410E+01  0.11888179315E+02  0.51100000000E-03 0. -1.
        -11    1    3    3    0    0  0.27325482971E+01 -0.96479810332E+01 -0.71451624728E+01  0.12312745642E+02  0.51100000000E-03 0.  1.
        -12    1    3    3    0    0 -0.75050532441E+01 -0.22327836880E+02 -0.12071052108E+01  0.23586335597E+02  0.00000000000E+00 0.  1.
</event>
<event>
 7    1  0.2655656E-009  0.4778727E+02  0.7816164E-02  0.1312668E+00
        -11   -1    0    0    0    0  0.00000000000E+00  0.00000000000E+00  0.45593999997E+02  0.45594000000E+02  0.51100000000E-03 0. -1.
         11   -1    0    0    0    0 -0.00000000000E+00 -0.00000000000E+00 -0.45593999997E+02  0.45594000000E+02  0.51100000000E-03 0.  1.
    9900012    2    1    2    0    0 -0.38318905562E+01 -0.39507418355E+02  0.17552878001E+02  0.47787274010E+02  0.20000013522E+02 0.  0.
        -12    1    1    2    0    0  0.38318905562E+01  0.39507418355E+02 -0.17552878001E+02  0.43400725990E+02  0.00000000000E+00 0.  1.
         11    1    3    3    0    0 -0.93097616413E+01 -0.14746406518E+02  0.58854853704E+01  0.18405627002E+02  0.51100000000E-03 0. -1.
        -11    1    3    3    0    0  0.46865769566E+01 -0.12438364561E+02  0.14809570162E+01  0.13374234575E+02  0.51100000000E-03 0.  1.
         12    1    3    3    0    0  0.79129412859E+00 -0.12322647276E+02  0.10186435614E+02  0.16007412434E+02  0.00000000000E+00 0. -1.
</event>
<event>
 7    1  0.2655656E-009  0.4778727E+02  0.7816164E-02  0.1312668E+00
        -11   -1    0    0    0    0  0.00000000000E+00  0.00000000000E+00  0.45593999997E+02  0.45594000000E+02  0.51100000000E-03 0.  1.
         11   -1    0    0    0    0 -0.00000000000E+00 -0.00000000000E+00 -0.45593999997E+02  0.45594000000E+02  0.51100000000E-03 0. -1.
    9900012    2    1    2    0    0  0.32394041272E+02  0.20235744744E+02 -0.20609812483E+02  0.47787266758E+02  0.19999980459E+02 0.  0.
        -12    1    1    2    0    0 -0.32394041272E+02 -0.20235744744E+02  0.20609812483E+02  0.43400733242E+02  0.00000000000E+00 0.  1.
         11    1    3    3    0    0  0.11943555646E+02  0.96285377710E+01 -0.10746745286E+02  0.18730984906E+02  0.51100000000E-03 0. -1.
        -11    1    3    3    0    0  0.19938046019E+01 -0.34840207424E+01 -0.23434364186E+01  0.46481557454E+01  0.51100000000E-03 0.  1.
        -12    1    3    3    0    0  0.18456681025E+02  0.14091227716E+02 -0.75196307788E+01  0.24408126107E+02  0.00000000000E+00 0.  1.
</event>
<event>
 7    1  0.2655656E-009  0.4778727E+02  0.7816164E-02  0.1312668E+00
        -11   -1    0    0    0    0  0.00000000000E+00  0.00000000000E+00  0.45593999997E+02  0.45594000000E+02  0.51100000000E-03 0.  1.
         11   -1    0    0    0    0 -0.00000000000E+00 -0.00000000000E+00 -0.45593999997E+02  0.45594000000E+02  0.51100000000E-03 0. -1.
    9900012    2    1    2    0    0  0.12182181705E+02 -0.25889075488E+02 -0.32633932809E+02  0.47787270152E+02  0.19999995932E+02 0.  0.
        -12    1    1    2    0    0 -0.12182181705E+02  0.25889075488E+02  0.32633932809E+02  0.43400729848E+02  0.00000000000E+00 0.  1.
         11    1    3    3    0    0  0.23089950591E+01 -0.15580477228E+02 -0.20115727296E+02  0.25548487504E+02  0.51100000000E-03 0. -1.
        -11    1    3    3    0    0  0.11406073295E+02 -0.10368967298E+02 -0.77967449561E+01  0.17274351594E+02  0.51100000000E-03 0.  1.
        -12    1    3    3    0    0 -0.15328866485E+01  0.60369037824E-01 -0.47214605572E+01  0.49644310541E+01  0.00000000000E+00 0.  1.
</event>
<event>
 7    1  0.2655656E-009  0.4778727E+02  0.7816164E-02  0.1312668E+00
        -11   -1    0    0    0    0  0.00000000000E+00  0.00000000000E+00  0.45593999997E+02  0.45594000000E+02  0.51100000000E-03 0.  1.
         11   -1    0    0    0    0 -0.00000000000E+00 -0.00000000000E+00 -0.45593999997E+02  0.45594000000E+02  0.51100000000E-03 0. -1.
    9900012    2    1    2    0    0  0.17586472900E+02  0.55155734021E+01 -0.39292720344E+02  0.47787269003E+02  0.19999990694E+02 0.  0.
        -12    1    1    2    0    0 -0.17586472900E+02 -0.55155734021E+01  0.39292720344E+02  0.43400730997E+02  0.00000000000E+00 0.  1.
         11    1    3    3    0    0  0.13367617520E+02 -0.24527977552E+01 -0.11943892636E+02  0.18093258041E+02  0.51100000000E-03 0. -1.
        -11    1    3    3    0    0 -0.15031061119E+01  0.27054383639E+01 -0.13117432335E+02  0.13477602014E+02  0.51100000000E-03 0.  1.
        -12    1    3    3    0    0  0.57219614920E+01  0.52629327933E+01 -0.14231395373E+02  0.16216408948E+02  0.00000000000E+00 0.  1.
</event>
<event>
 7    1  0.2655656E-009  0.4778727E+02  0.7816164E-02  0.1312668E+00
        -11   -1    0    0    0    0  0.00000000000E+00  0.00000000000E+00  0.45593999997E+02  0.45594000000E+02  0.51100000000E-03 0. -1.
         11   -1    0    0    0    0 -0.00000000000E+00 -0.00000000000E+00 -0.45593999997E+02  0.45594000000E+02  0.51100000000E-03 0.  1.
    9900012    2    1    2    0    0  0.37766635969E+02 -0.21022368713E+02 -0.39197612593E+01  0.47787270662E+02  0.19999998258E+02 0.  0.
        -12    1    1    2    0    0 -0.37766635969E+02  0.21022368713E+02  0.39197612593E+01  0.43400729338E+02  0.00000000000E+00 0.  1.
         11    1    3    3    0    0  0.20365448097E+02 -0.66497351603E+01 -0.60840590675E+01  0.22270748279E+02  0.51100000000E-03 0. -1.
        -11    1    3    3    0    0  0.17974527475E+02 -0.13582697484E+02  0.45095353070E+01  0.22976275109E+02  0.51100000000E-03 0.  1.
         12    1    3    3    0    0 -0.57333960354E+00 -0.78993606808E+00 -0.23452374988E+01  0.25402472751E+01  0.00000000000E+00 0. -1.
</event>
<event>
 7    1  0.2655656E-009  0.4778727E+02  0.7816164E-02  0.1312668E+00
        -11   -1    0    0    0    0  0.00000000000E+00  0.00000000000E+00  0.45593999997E+02  0.45594000000E+02  0.51100000000E-03 0.  1.
         11   -1    0    0    0    0 -0.00000000000E+00 -0.00000000000E+00 -0.45593999997E+02  0.45594000000E+02  0.51100000000E-03 0. -1.
    9900012    2    1    2    0    0 -0.25452717331E+02 -0.17053292815E+01 -0.35112307528E+02  0.47787272962E+02  0.20000008742E+02 0.  0.
        -12    1    1    2    0    0  0.25452717331E+02  0.17053292815E+01  0.35112307528E+02  0.43400727038E+02  0.00000000000E+00 0.  1.
         11    1    3    3    0    0 -0.82505439709E+01 -0.82428169104E+01 -0.11062384519E+02  0.16074571781E+02  0.51100000000E-03 0. -1.
        -11    1    3    3    0    0 -0.39671146214E+01 -0.18961522105E+01 -0.25131403459E+01  0.50645104684E+01  0.51100000000E-03 0.  1.
         12    1    3    3    0    0 -0.13235058739E+02  0.84336398393E+01 -0.21536782663E+02  0.26648190712E+02  0.00000000000E+00 0. -1.
</event>
<event>
 7    1  0.2655656E-009  0.4778727E+02  0.7816164E-02  0.1312668E+00
        -11   -1    0    0    0    0  0.00000000000E+00  0.00000000000E+00  0.45593999997E+02  0.45594000000E+02  0.51100000000E-03 0.  1.
         11   -1    0    0    0    0 -0.00000000000E+00 -0.00000000000E+00 -0.45593999997E+02  0.45594000000E+02  0.51100000000E-03 0. -1.
    9900012    2    1    2    0    0 -0.17405882868E+02 -0.14602340989E+02 -0.36978778164E+02  0.47787272411E+02  0.20000006230E+02 0.  0.
        -12    1    1    2    0    0  0.17405882868E+02  0.14602340989E+02  0.36978778164E+02  0.43400727589E+02  0.00000000000E+00 0.  1.
         11    1    3    3    0    0 -0.17216985461E+02 -0.13236661545E+02 -0.25996859165E+02  0.33874333705E+02  0.51100000000E-03 0. -1.
        -11    1    3    3    0    0 -0.21959618721E+00  0.11535072846E+01  0.10771901410E+01  0.15934680423E+01  0.51100000000E-03 0.  1.
         12    1    3    3    0    0  0.30698780854E-01 -0.25191867283E+01 -0.12059109140E+02  0.12319470663E+02  0.00000000000E+00 0. -1.
</event>
<event>
 7    1  0.2655656E-009  0.4778732E+02  0.7816164E-02  0.1312668E+00
        -11   -1    0    0    0    0  0.00000000000E+00  0.00000000000E+00  0.45593999997E+02  0.45594000000E+02  0.51100000000E-03 0. -1.
         11   -1    0    0    0    0 -0.00000000000E+00 -0.00000000000E+00 -0.45593999997E+02  0.45594000000E+02  0.51100000000E-03 0.  1.
    9900012    2    1    2    0    0  0.17654088897E+02  0.23716418817E+02  0.31772376207E+02  0.47787317216E+02  0.20000210512E+02 0.  0.
        -12    1    1    2    0    0 -0.17654088897E+02 -0.23716418817E+02 -0.31772376207E+02  0.43400682784E+02  0.00000000000E+00 0.  1.
         11    1    3    3    0    0  0.15545422521E+02  0.60188331351E+01  0.11869698066E+02  0.20464023214E+02  0.51100000000E-03 0. -1.
        -11    1    3    3    0    0 -0.81774427703E+00  0.12329314698E+01  0.21980424139E+00  0.14957071497E+01  0.51100000000E-03 0.  1.
         12    1    3    3    0    0  0.29264106530E+01  0.16464654212E+02  0.19682873900E+02  0.25827586852E+02  0.00000000000E+00 0. -1.
</event>
<event>
 7    1  0.2655656E-009  0.4778727E+02  0.7816164E-02  0.1312668E+00
        -11   -1    0    0    0    0  0.00000000000E+00  0.00000000000E+00  0.45593999997E+02  0.45594000000E+02  0.51100000000E-03 0. -1.
         11   -1    0    0    0    0 -0.00000000000E+00 -0.00000000000E+00 -0.45593999997E+02  0.45594000000E+02  0.51100000000E-03 0.  1.
    9900012    2    1    2    0    0 -0.27394298599E+02 -0.95380640798E+01  0.32283136624E+02  0.47787272213E+02  0.20000005328E+02 0.  0.
        -12    1    1    2    0    0  0.27394298599E+02  0.95380640798E+01 -0.32283136624E+02  0.43400727787E+02  0.00000000000E+00 0.  1.
         11    1    3    3    0    0 -0.29111158069E+01  0.27315232334E+01  0.10272427082E+02  0.11020824508E+02  0.51100000000E-03 0. -1.
        -11    1    3    3    0    0 -0.11941841053E+02 -0.61120468845E+01  0.40532141411E+01  0.14014036891E+02  0.51100000000E-03 0.  1.
        -12    1    3    3    0    0 -0.12541341739E+02 -0.61575404287E+01  0.17957495401E+02  0.22752410814E+02  0.00000000000E+00 0.  1.
</event>
<event>
 7    1  0.2655656E-009  0.4778727E+02  0.7816164E-02  0.1312668E+00
        -11   -1    0    0    0    0  0.00000000000E+00  0.00000000000E+00  0.45593999997E+02  0.45594000000E+02  0.51100000000E-03 0. -1.
         11   -1    0    0    0    0 -0.00000000000E+00 -0.00000000000E+00 -0.45593999997E+02  0.45594000000E+02  0.51100000000E-03 0.  1.
    9900012    2    1    2    0    0  0.90017009011E+01  0.21519752932E+02  0.36599081820E+02  0.47787272179E+02  0.20000005172E+02 0.  0.
        -12    1    1    2    0    0 -0.90017009011E+01 -0.21519752932E+02 -0.36599081820E+02  0.43400727821E+02  0.00000000000E+00 0.  1.
         11    1    3    3    0    0 -0.99979669520E+00 -0.11886947730E+01 -0.99091820855E+00  0.18424190219E+01  0.51100000000E-03 0. -1.
        -11    1    3    3    0    0  0.74547625234E+01  0.12719739357E+02  0.14597568006E+02  0.20747391295E+02  0.51100000000E-03 0.  1.
         12    1    3    3    0    0  0.25467350729E+01  0.99887083485E+01  0.22992432022E+02  0.25197461862E+02  0.00000000000E+00 0. -1.
</event>
<event>
 7    1  0.2655656E-009  0.4778727E+02  0.7816164E-02  0.1312668E+00
        -11   -1    0    0    0    0  0.00000000000E+00  0.00000000000E+00  0.45593999997E+02  0.45594000000E+02  0.51100000000E-03 0. -1.
         11   -1    0    0    0    0 -0.00000000000E+00 -0.00000000000E+00 -0.45593999997E+02  0.45594000000E+02  0.51100000000E-03 0.  1.
    9900012    2    1    2    0    0 -0.37149191897E+02  0.22439788033E+02 -0.12983368937E+00  0.47787269564E+02  0.19999993252E+02 0.  0.
        -12    1    1    2    0    0  0.37149191897E+02 -0.22439788033E+02  0.12983368937E+00  0.43400730436E+02  0.00000000000E+00 0.  1.
         11    1    3    3    0    0 -0.10286563342E+02  0.13369832703E+02 -0.48896049215E+01  0.17563429291E+02  0.51100000000E-03 0. -1.
        -11    1    3    3    0    0 -0.17372734473E+02  0.10355039944E+01  0.31394353036E+01  0.17684462838E+02  0.51100000000E-03 0.  1.
        -12    1    3    3    0    0 -0.94898940816E+01  0.80344513362E+01  0.16203359285E+01  0.12539377436E+02  0.00000000000E+00 0.  1.
</event>
<event>
 7    1  0.2655656E-009  0.4778727E+02  0.7816164E-02  0.1312668E+00
        -11   -1    0    0    0    0  0.00000000000E+00  0.00000000000E+00  0.45593999997E+02  0.45594000000E+02  0.51100000000E-03 0.  1.
         11   -1    0    0    0    0 -0.00000000000E+00 -0.00000000000E+00 -0.45593999997E+02  0.45594000000E+02  0.51100000000E-03 0. -1.
    9900012    2    1    2    0    0 -0.20517684997E+02  0.22315905580E+02 -0.31058784606E+02  0.47787272579E+02  0.20000006997E+02 0.  0.
        -12    1    1    2    0    0  0.20517684997E+02 -0.22315905580E+02  0.31058784606E+02  0.43400727421E+02  0.00000000000E+00 0.  1.
         11    1    3    3    0    0 -0.44989970286E+01  0.67583391701E+01 -0.19768318867E+02  0.21370600218E+02  0.51100000000E-03 0. -1.
        -11    1    3    3    0    0 -0.49976462224E+01  0.40254397058E+01  0.70820761006E+00  0.64561746312E+01  0.51100000000E-03 0.  1.
         12    1    3    3    0    0 -0.11021041746E+02  0.11532126704E+02 -0.11998673349E+02  0.19960497730E+02  0.00000000000E+00 0. -1.
</event>
<event>
 7    1  0.2655656E-009  0.4778727E+02  0.7816164E-02  0.1312668E+00
        -11   -1    0    0    0    0  0.00000000000E+00  0.00000000000E+00  0.45593999997E+02  0.45594000000E+02  0.51100000000E-03 0. -1.
         11   -1    0    0    0    0 -0.00000000000E+00 -0.00000000000E+00 -0.45593999997E+02  0.45594000000E+02  0.51100000000E-03 0.  1.
    9900012    2    1    2    0    0  0.36639525725E+02 -0.22168930879E+02 -0.70502990547E+01  0.47787273527E+02  0.20000011317E+02 0.  0.
        -12    1    1    2    0    0 -0.36639525725E+02  0.22168930879E+02  0.70502990547E+01  0.43400726473E+02  0.00000000000E+00 0.  1.
         11    1    3    3    0    0  0.60586852410E+01 -0.55343535904E+01  0.42049927972E+01  0.92205586164E+01  0.51100000000E-03 0. -1.
        -11    1    3    3    0    0  0.29141975348E+02 -0.11571695599E+02 -0.11222606749E+02  0.33303239613E+02  0.51100000000E-03 0.  1.
        -12    1    3    3    0    0  0.14388651358E+01 -0.50628816904E+01 -0.32685102681E-01  0.52634752974E+01  0.00000000000E+00 0.  1.
</event>
<event>
 7    1  0.2655656E-009  0.4778727E+02  0.7816164E-02  0.1312668E+00
        -11   -1    0    0    0    0  0.00000000000E+00  0.00000000000E+00  0.45593999997E+02  0.45594000000E+02  0.51100000000E-03 0. -1.
         11   -1    0    0    0    0 -0.00000000000E+00 -0.00000000000E+00 -0.45593999997E+02  0.45594000000E+02  0.51100000000E-03 0.  1.
    9900012    2    1    2    0    0  0.40019548786E+02  0.14563267538E+02  0.83648188305E+01  0.47787271429E+02  0.20000001752E+02 0.  0.
        -12    1    1    2    0    0 -0.40019548786E+02 -0.14563267538E+02 -0.83648188305E+01  0.43400728571E+02  0.00000000000E+00 0.  1.
         11    1    3    3    0    0  0.25335421164E+01  0.26569530681E+01 -0.15017185655E+01  0.39665342773E+01  0.51100000000E-03 0. -1.
        -11    1    3    3    0    0  0.77926081029E+01  0.97576928590E+01  0.58158620800E+01  0.13775397017E+02  0.51100000000E-03 0.  1.
        -12    1    3    3    0    0  0.29693398567E+02  0.21486216112E+01  0.40506753159E+01  0.30045340135E+02  0.00000000000E+00 0.  1.
</event>
<event>
 7    1  0.2655656E-009  0.4778727E+02  0.7816164E-02  0.1312668E+00
        -11   -1    0    0    0    0  0.00000000000E+00  0.00000000000E+00  0.45593999997E+02  0.45594000000E+02  0.51100000000E-03 0. -1.
         11   -1    0    0    0    0 -0.00000000000E+00 -0.00000000000E+00 -0.45593999997E+02  0.45594000000E+02  0.51100000000E-03 0.  1.
    9900012    2    1    2    0    0  0.31191498047E+02 -0.66154487912E+01  0.29444009865E+02  0.47787269245E+02  0.19999991795E+02 0.  0.
        -12    1    1    2    0    0 -0.31191498047E+02  0.66154487912E+01 -0.29444009865E+02  0.43400730755E+02  0.00000000000E+00 0.  1.
         11    1    3    3    0    0  0.11941947286E+02  0.49583208455E+01  0.91059724761E+01  0.15814986107E+02  0.51100000000E-03 0. -1.
        -11    1    3    3    0    0  0.17188880461E+02 -0.13445004945E+02  0.18726020288E+02  0.28755688230E+02  0.51100000000E-03 0.  1.
        -12    1    3    3    0    0  0.20606703011E+01  0.18712353083E+01  0.16120171005E+01  0.32165949079E+01  0.00000000000E+00 0.  1.
</event>
<event>
 7    1  0.2655656E-009  0.4778727E+02  0.7816164E-02  0.1312668E+00
        -11   -1    0    0    0    0  0.00000000000E+00  0.00000000000E+00  0.45593999997E+02  0.45594000000E+02  0.51100000000E-03 0. -1.
         11   -1    0    0    0    0 -0.00000000000E+00 -0.00000000000E+00 -0.45593999997E+02  0.45594000000E+02  0.51100000000E-03 0.  1.
    9900012    2    1    2    0    0 -0.20176093382E+02 -0.26218691261E+02  0.28091444124E+02  0.47787265576E+02  0.19999975066E+02 0.  0.
        -12    1    1    2    0    0  0.20176093382E+02  0.26218691261E+02 -0.28091444124E+02  0.43400734424E+02  0.00000000000E+00 0.  1.
         11    1    3    3    0    0 -0.56283271822E+00 -0.45419898428E+01  0.16606069758E+01  0.48686823875E+01  0.51100000000E-03 0. -1.
        -11    1    3    3    0    0 -0.23460198192E+01  0.14000011714E+01 -0.12071100875E+01  0.29867921415E+01  0.51100000000E-03 0.  1.
        -12    1    3    3    0    0 -0.17267240845E+02 -0.23076702589E+02  0.27637947236E+02  0.39931791047E+02  0.00000000000E+00 0.  1.
</event>
<event>
 7    1  0.2655656E-009  0.4778728E+02  0.7816164E-02  0.1312668E+00
        -11   -1    0    0    0    0  0.00000000000E+00  0.00000000000E+00  0.45593999997E+02  0.45594000000E+02  0.51100000000E-03 0.  1.
         11   -1    0    0    0    0 -0.00000000000E+00 -0.00000000000E+00 -0.45593999997E+02  0.45594000000E+02  0.51100000000E-03 0. -1.
    9900012    2    1    2    0    0 -0.19727397928E+02 -0.13766149844E+02  0.36124032090E+02  0.47787276446E+02  0.20000024628E+02 0.  0.
        -12    1    1    2    0    0  0.19727397928E+02  0.13766149844E+02 -0.36124032090E+02  0.43400723554E+02  0.00000000000E+00 0.  1.
         11    1    3    3    0    0  0.31299690136E+00 -0.95232620587E+01  0.71057026979E+01  0.11886189397E+02  0.51100000000E-03 0. -1.
        -11    1    3    3    0    0 -0.13257285156E+02 -0.47787120319E+01  0.21995370362E+02  0.26122557609E+02  0.51100000000E-03 0.  1.
        -12    1    3    3    0    0 -0.67831096736E+01  0.53582424668E+00  0.70229590303E+01  0.97785294400E+01  0.00000000000E+00 0.  1.
</event>
<event>
 7    1  0.2655656E-009  0.4778727E+02  0.7816164E-02  0.1312668E+00
        -11   -1    0    0    0    0  0.00000000000E+00  0.00000000000E+00  0.45593999997E+02  0.45594000000E+02  0.51100000000E-03 0.  1.
         11   -1    0    0    0    0 -0.00000000000E+00 -0.00000000000E+00 -0.45593999997E+02  0.45594000000E+02  0.51100000000E-03 0. -1.
    9900012    2    1    2    0    0 -0.17443511677E+02  0.39626259514E+02  0.30177768712E+01  0.47787268209E+02  0.19999987073E+02 0.  0.
        -12    1    1    2    0    0  0.17443511677E+02 -0.39626259514E+02 -0.30177768712E+01  0.43400731791E+02  0.00000000000E+00 0.  1.
         11    1    3    3    0    0 -0.10833214174E+02  0.24072731694E+02 -0.44092147743E+01  0.26763708931E+02  0.51100000000E-03 0. -1.
        -11    1    3    3    0    0 -0.69623972116E+01  0.45231499402E+01  0.51031146837E+01  0.97455446256E+01  0.51100000000E-03 0.  1.
        -12    1    3    3    0    0  0.35209970782E+00  0.11030377880E+02  0.23238769618E+01  0.11278014653E+02  0.00000000000E+00 0.  1.
</event>
<event>
 7    1  0.2655656E-009  0.4778727E+02  0.7816164E-02  0.1312668E+00
        -11   -1    0    0    0    0  0.00000000000E+00  0.00000000000E+00  0.45593999997E+02  0.45594000000E+02  0.51100000000E-03 0. -1.
         11   -1    0    0    0    0 -0.00000000000E+00 -0.00000000000E+00 -0.45593999997E+02  0.45594000000E+02  0.51100000000E-03 0.  1.
    9900012    2    1    2    0    0  0.32421720550E+02 -0.27498380562E+02  0.87346624142E+01  0.47787271613E+02  0.20000002594E+02 0.  0.
        -12    1    1    2    0    0 -0.32421720550E+02  0.27498380562E+02 -0.87346624142E+01  0.43400728387E+02  0.00000000000E+00 0.  1.
         11    1    3    3    0    0 -0.10995793931E+01 -0.75716131886E+01  0.18044021659E+01  0.78609330589E+01  0.51100000000E-03 0. -1.
        -11    1    3    3    0    0  0.25009551682E+02 -0.12247976275E+02  0.52982442944E+01  0.28347169012E+02  0.51100000000E-03 0.  1.
         12    1    3    3    0    0  0.85117482616E+01 -0.76787910991E+01  0.16320159539E+01  0.11579169542E+02  0.00000000000E+00 0. -1.
</event>
<event>
 7    1  0.2655656E-009  0.4778727E+02  0.7816164E-02  0.1312668E+00
        -11   -1    0    0    0    0  0.00000000000E+00  0.00000000000E+00  0.45593999997E+02  0.45594000000E+02  0.51100000000E-03 0. -1.
         11   -1    0    0    0    0 -0.00000000000E+00 -0.00000000000E+00 -0.45593999997E+02  0.45594000000E+02  0.51100000000E-03 0.  1.
    9900012    2    1    2    0    0 -0.16070932326E+02  0.40297464879E+02  0.12095153251E+01  0.47787268799E+02  0.19999989761E+02 0.  0.
        -12    1    1    2    0    0  0.16070932326E+02 -0.40297464879E+02 -0.12095153251E+01  0.43400731201E+02  0.00000000000E+00 0.  1.
         11    1    3    3    0    0 -0.64525307280E+01  0.25675994190E+02  0.69748550334E+00  0.26483548039E+02  0.51100000000E-03 0. -1.
        -11    1    3    3    0    0 -0.75376044711E+01  0.25206170699E+01 -0.30594189599E+01  0.85163980772E+01  0.51100000000E-03 0.  1.
        -12    1    3    3    0    0 -0.20807971265E+01  0.12100853619E+02  0.35714487816E+01  0.12787322683E+02  0.00000000000E+00 0.  1.
</event>
<event>
 7    1  0.2655656E-009  0.4778727E+02  0.7816164E-02  0.1312668E+00
        -11   -1    0    0    0    0  0.00000000000E+00  0.00000000000E+00  0.45593999997E+02  0.45594000000E+02  0.51100000000E-03 0.  1.
         11   -1    0    0    0    0 -0.00000000000E+00 -0.00000000000E+00 -0.45593999997E+02  0.45594000000E+02  0.51100000000E-03 0. -1.
    9900012    2    1    2    0    0  0.15138508658E+02  0.21106065295E+02 -0.34770429765E+02  0.47787271634E+02  0.20000002688E+02 0.  0.
        -12    1    1    2    0    0 -0.15138508658E+02 -0.21106065295E+02  0.34770429765E+02  0.43400728366E+02  0.00000000000E+00 0.  1.
         11    1    3    3    0    0 -0.90209480665E+00  0.11382689708E+02 -0.22460865921E+02  0.25196624738E+02  0.51100000000E-03 0. -1.
        -11    1    3    3    0    0  0.64630969266E+01  0.50484755643E+01 -0.43088106814E+01  0.92641555015E+01  0.51100000000E-03 0.  1.
         12    1    3    3    0    0  0.95775065377E+01  0.46749000235E+01 -0.80007531631E+01  0.13326491394E+02  0.00000000000E+00 0. -1.
</event>
<event>
 7    1  0.2655656E-009  0.4778726E+02  0.7816164E-02  0.1312668E+00
        -11   -1    0    0    0    0  0.00000000000E+00  0.00000000000E+00  0.45593999997E+02  0.45594000000E+02  0.51100000000E-03 0. -1.
         11   -1    0    0    0    0 -0.00000000000E+00 -0.00000000000E+00 -0.45593999997E+02  0.45594000000E+02  0.51100000000E-03 0.  1.
    9900012    2    1    2    0    0 -0.29482702623E+02 -0.21275452699E+02  0.23701252011E+02  0.47787262813E+02  0.19999962468E+02 0.  0.
        -12    1    1    2    0    0  0.29482702623E+02  0.21275452699E+02 -0.23701252011E+02  0.43400737187E+02  0.00000000000E+00 0.  1.
         11    1    3    3    0    0 -0.41924238283E+01 -0.19060686678E+01  0.10576008351E+02  0.11535227272E+02  0.51100000000E-03 0. -1.
        -11    1    3    3    0    0 -0.19042473259E+02 -0.19872835980E+02  0.10797396489E+02  0.29565675519E+02  0.51100000000E-03 0.  1.
        -12    1    3    3    0    0 -0.62478055360E+01  0.50345194889E+00  0.23278471713E+01  0.66863600212E+01  0.00000000000E+00 0.  1.
</event>
<event>
 7    1  0.2655656E-009  0.4778727E+02  0.7816164E-02  0.1312668E+00
        -11   -1    0    0    0    0  0.00000000000E+00  0.00000000000E+00  0.45593999997E+02  0.45594000000E+02  0.51100000000E-03 0. -1.
         11   -1    0    0    0    0 -0.00000000000E+00 -0.00000000000E+00 -0.45593999997E+02  0.45594000000E+02  0.51100000000E-03 0.  1.
    9900012    2    1    2    0    0  0.18112391263E+02 -0.15846204576E+01  0.39408798874E+02  0.47787272265E+02  0.20000005564E+02 0.  0.
        -12    1    1    2    0    0 -0.18112391263E+02  0.15846204576E+01 -0.39408798874E+02  0.43400727735E+02  0.00000000000E+00 0.  1.
         11    1    3    3    0    0  0.14162467450E+02  0.38414620520E+01  0.18701329484E+02  0.23771243966E+02  0.51100000000E-03 0. -1.
        -11    1    3    3    0    0  0.11972819349E+01 -0.81816941095E+01  0.13970068518E+02  0.16233804767E+02  0.51100000000E-03 0.  1.
        -12    1    3    3    0    0  0.27526418780E+01  0.27556115999E+01  0.67374008722E+01  0.77822235325E+01  0.00000000000E+00 0.  1.
</event>
<event>
 7    1  0.2655656E-009  0.4778727E+02  0.7816164E-02  0.1312668E+00
        -11   -1    0    0    0    0  0.00000000000E+00  0.00000000000E+00  0.45593999997E+02  0.45594000000E+02  0.51100000000E-03 0.  1.
         11   -1    0    0    0    0 -0.00000000000E+00 -0.00000000000E+00 -0.45593999997E+02  0.45594000000E+02  0.51100000000E-03 0. -1.
    9900012    2    1    2    0    0  0.82627169904E-01  0.38718229233E+02 -0.19609049988E+02  0.47787274849E+02  0.20000017348E+02 0.  0.
        -12    1    1    2    0    0 -0.82627169904E-01 -0.38718229233E+02  0.19609049988E+02  0.43400725151E+02  0.00000000000E+00 0.  1.
         11    1    3    3    0    0 -0.94158975189E+01  0.13205681508E+02 -0.60499336287E+01  0.17310425972E+02  0.51100000000E-03 0. -1.
        -11    1    3    3    0    0  0.64544762260E+01  0.14629283333E+02 -0.76987727178E+01  0.17746754515E+02  0.51100000000E-03 0.  1.
         12    1    3    3    0    0  0.30440484628E+01  0.10883264392E+02 -0.58603436417E+01  0.12730094362E+02  0.00000000000E+00 0. -1.
</event>
<event>
 7    1  0.2655656E-009  0.4778726E+02  0.7816164E-02  0.1312668E+00
        -11   -1    0    0    0    0  0.00000000000E+00  0.00000000000E+00  0.45593999997E+02  0.45594000000E+02  0.51100000000E-03 0.  1.
         11   -1    0    0    0    0 -0.00000000000E+00 -0.00000000000E+00 -0.45593999997E+02  0.45594000000E+02  0.51100000000E-03 0. -1.
    9900012    2    1    2    0    0  0.52256989660E+01 -0.34093393049E+02 -0.26343053828E+02  0.47787264243E+02  0.19999968988E+02 0.  0.
        -12    1    1    2    0    0 -0.52256989660E+01  0.34093393049E+02  0.26343053828E+02  0.43400735757E+02  0.00000000000E+00 0.  1.
         11    1    3    3    0    0  0.20309153621E+01 -0.19386660859E+01 -0.27695924560E+01  0.39438161765E+01  0.51100000000E-03 0. -1.
        -11    1    3    3    0    0 -0.29592288876E+00 -0.31329932711E+02 -0.24898356561E+02  0.40019750296E+02  0.51100000000E-03 0.  1.
        -12    1    3    3    0    0  0.34907064926E+01 -0.82479425247E+00  0.13248951893E+01  0.38236977703E+01  0.00000000000E+00 0.  1.
</event>
<event>
 7    1  0.2655656E-009  0.4778727E+02  0.7816164E-02  0.1312668E+00
        -11   -1    0    0    0    0  0.00000000000E+00  0.00000000000E+00  0.45593999997E+02  0.45594000000E+02  0.51100000000E-03 0. -1.
         11   -1    0    0    0    0 -0.00000000000E+00 -0.00000000000E+00 -0.45593999997E+02  0.45594000000E+02  0.51100000000E-03 0.  1.
    9900012    2    1    2    0    0 -0.83703692478E+01  0.24197701413E+02  0.35043279567E+02  0.47787270999E+02  0.19999999792E+02 0.  0.
        -12    1    1    2    0    0  0.83703692478E+01 -0.24197701413E+02 -0.35043279567E+02  0.43400729001E+02  0.00000000000E+00 0.  1.
         11    1    3    3    0    0 -0.22601528739E+01  0.80767619813E+01  0.10095535801E+02  0.13124870227E+02  0.51100000000E-03 0. -1.
        -11    1    3    3    0    0 -0.11738111935E+02  0.12934671486E+02  0.19746438788E+02  0.26363058307E+02  0.51100000000E-03 0.  1.
        -12    1    3    3    0    0  0.56278955608E+01  0.31862679461E+01  0.52013049782E+01  0.82993424646E+01  0.00000000000E+00 0.  1.
</event>
<event>
 7    1  0.2655656E-009  0.4778727E+02  0.7816164E-02  0.1312668E+00
        -11   -1    0    0    0    0  0.00000000000E+00  0.00000000000E+00  0.45593999997E+02  0.45594000000E+02  0.51100000000E-03 0.  1.
         11   -1    0    0    0    0 -0.00000000000E+00 -0.00000000000E+00 -0.45593999997E+02  0.45594000000E+02  0.51100000000E-03 0. -1.
    9900012    2    1    2    0    0  0.19481136265E+02  0.10199084654E+02 -0.37417740249E+02  0.47787270936E+02  0.19999999506E+02 0.  0.
        -12    1    1    2    0    0 -0.19481136265E+02 -0.10199084654E+02  0.37417740249E+02  0.43400729064E+02  0.00000000000E+00 0.  1.
         11    1    3    3    0    0 -0.28118822274E+01  0.51759061110E+01 -0.57312219223E+01  0.82184907809E+01  0.51100000000E-03 0. -1.
        -11    1    3    3    0    0  0.11501118069E+02  0.44010612248E+00 -0.11802711158E+02  0.16485551285E+02  0.51100000000E-03 0.  1.
         12    1    3    3    0    0  0.10791900424E+02  0.45830724208E+01 -0.19883807168E+02  0.23083228870E+02  0.00000000000E+00 0. -1.
</event>
<event>
 7    1  0.2655656E-009  0.4778727E+02  0.7816164E-02  0.1312668E+00
        -11   -1    0    0    0    0  0.00000000000E+00  0.00000000000E+00  0.45593999997E+02  0.45594000000E+02  0.51100000000E-03 0. -1.
         11   -1    0    0    0    0 -0.00000000000E+00 -0.00000000000E+00 -0.45593999997E+02  0.45594000000E+02  0.51100000000E-03 0.  1.
    9900012    2    1    2    0    0 -0.18971828720E+02  0.32193623803E+02  0.22074044150E+02  0.47787272774E+02  0.20000007888E+02 0.  0.
        -12    1    1    2    0    0  0.18971828720E+02 -0.32193623803E+02 -0.22074044150E+02  0.43400727226E+02  0.00000000000E+00 0.  1.
         11    1    3    3    0    0 -0.15397023769E+01  0.75259370749E+01  0.13313118872E+01  0.77963327191E+01  0.51100000000E-03 0. -1.
        -11    1    3    3    0    0 -0.61610526913E+01  0.17966822138E+02  0.52741421807E+01  0.19712479397E+02  0.51100000000E-03 0.  1.
        -12    1    3    3    0    0 -0.11271073652E+02  0.67008645907E+01  0.15468590082E+02  0.20278460658E+02  0.00000000000E+00 0.  1.
</event>
<event>
 7    1  0.2655656E-009  0.4778728E+02  0.7816164E-02  0.1312668E+00
        -11   -1    0    0    0    0  0.00000000000E+00  0.00000000000E+00  0.45593999997E+02  0.45594000000E+02  0.51100000000E-03 0.  1.
         11   -1    0    0    0    0 -0.00000000000E+00 -0.00000000000E+00 -0.45593999997E+02  0.45594000000E+02  0.51100000000E-03 0. -1.
    9900012    2    1    2    0    0 -0.29285672212E+01 -0.28398156264E+01 -0.43208585162E+02  0.47787275461E+02  0.20000020139E+02 0.  0.
        -12    1    1    2    0    0  0.29285672212E+01  0.28398156264E+01  0.43208585162E+02  0.43400724539E+02  0.00000000000E+00 0.  1.
         11    1    3    3    0    0  0.36011449869E+01 -0.19973609765E+01 -0.43140137204E+01  0.59639257815E+01  0.51100000000E-03 0. -1.
        -11    1    3    3    0    0 -0.42109376356E+01 -0.64350067447E+01 -0.30616867543E+02  0.31567924955E+02  0.51100000000E-03 0.  1.
        -12    1    3    3    0    0 -0.23187745725E+01  0.55925520948E+01 -0.82777038989E+01  0.10255424725E+02  0.00000000000E+00 0.  1.
</event>
<event>
 7    1  0.2655656E-009  0.4778728E+02  0.7816164E-02  0.1312668E+00
        -11   -1    0    0    0    0  0.00000000000E+00  0.00000000000E+00  0.45593999997E+02  0.45594000000E+02  0.51100000000E-03 0.  1.
         11   -1    0    0    0    0 -0.00000000000E+00 -0.00000000000E+00 -0.45593999997E+02  0.45594000000E+02  0.51100000000E-03 0. -1.
    9900012    2    1    2    0    0 -0.42397125747E+02  0.86742252997E+01  0.32961292372E+01  0.47787275074E+02  0.20000018371E+02 0.  0.
        -12    1    1    2    0    0  0.42397125747E+02 -0.86742252997E+01 -0.32961292372E+01  0.43400724926E+02  0.00000000000E+00 0.  1.
         11    1    3    3    0    0 -0.15469307791E+02 -0.31890193872E+00  0.35575866078E+01  0.15876322141E+02  0.51100000000E-03 0. -1.
        -11    1    3    3    0    0 -0.74285810899E+01  0.98826395168E+01 -0.74211896729E+00  0.12385520645E+02  0.51100000000E-03 0.  1.
        -12    1    3    3    0    0 -0.19499236866E+02 -0.88951227844E+00  0.48066159674E+00  0.19525432288E+02  0.00000000000E+00 0.  1.
</event>
<event>
 7    1  0.2655656E-009  0.4778727E+02  0.7816164E-02  0.1312668E+00
        -11   -1    0    0    0    0  0.00000000000E+00  0.00000000000E+00  0.45593999997E+02  0.45594000000E+02  0.51100000000E-03 0.  1.
         11   -1    0    0    0    0 -0.00000000000E+00 -0.00000000000E+00 -0.45593999997E+02  0.45594000000E+02  0.51100000000E-03 0. -1.
    9900012    2    1    2    0    0  0.36399867356E+02 -0.22224061529E+02 -0.80475997760E+01  0.47787272857E+02  0.20000008265E+02 0.  0.
        -12    1    1    2    0    0 -0.36399867356E+02  0.22224061529E+02  0.80475997760E+01  0.43400727143E+02  0.00000000000E+00 0.  1.
         11    1    3    3    0    0  0.15379142342E+02 -0.91517889642E+01 -0.10735501636E+02  0.20869217907E+02  0.51100000000E-03 0. -1.
        -11    1    3    3    0    0  0.11521285465E+02 -0.35585649067E+01  0.53845664155E+01  0.13205944067E+02  0.51100000000E-03 0.  1.
        -12    1    3    3    0    0  0.94994395483E+01 -0.95137076577E+01 -0.26966645560E+01  0.13712110883E+02  0.00000000000E+00 0.  1.
</event>
<event>
 7    1  0.2655656E-009  0.4778727E+02  0.7816164E-02  0.1312668E+00
        -11   -1    0    0    0    0  0.00000000000E+00  0.00000000000E+00  0.45593999997E+02  0.45594000000E+02  0.51100000000E-03 0.  1.
         11   -1    0    0    0    0 -0.00000000000E+00 -0.00000000000E+00 -0.45593999997E+02  0.45594000000E+02  0.51100000000E-03 0. -1.
    9900012    2    1    2    0    0  0.16363850495E+02 -0.21830404594E+02 -0.33753233376E+02  0.47787274993E+02  0.20000018004E+02 0.  0.
        -12    1    1    2    0    0 -0.16363850495E+02  0.21830404594E+02  0.33753233376E+02  0.43400725007E+02  0.00000000000E+00 0.  1.
         11    1    3    3    0    0  0.85211144980E+01 -0.10185295021E+02 -0.15853760595E+02  0.20680699994E+02  0.51100000000E-03 0. -1.
        -11    1    3    3    0    0  0.48391592222E+00 -0.12669236408E+02 -0.91914457867E+01  0.15659706310E+02  0.51100000000E-03 0.  1.
        -12    1    3    3    0    0  0.73588200745E+01  0.10241268355E+01 -0.87080269946E+01  0.11446868690E+02  0.00000000000E+00 0.  1.
</event>
<event>
 7    1  0.2655656E-009  0.4778727E+02  0.7816164E-02  0.1312668E+00
        -11   -1    0    0    0    0  0.00000000000E+00  0.00000000000E+00  0.45593999997E+02  0.45594000000E+02  0.51100000000E-03 0.  1.
         11   -1    0    0    0    0 -0.00000000000E+00 -0.00000000000E+00 -0.45593999997E+02  0.45594000000E+02  0.51100000000E-03 0. -1.
    9900012    2    1    2    0    0 -0.11003955824E+02  0.55436572551E+01 -0.41614949067E+02  0.47787272294E+02  0.20000005698E+02 0.  0.
        -12    1    1    2    0    0  0.11003955824E+02 -0.55436572551E+01  0.41614949067E+02  0.43400727706E+02  0.00000000000E+00 0.  1.
         11    1    3    3    0    0 -0.59406173960E+01  0.18206680117E+01 -0.33418098284E+02  0.33990808467E+02  0.51100000000E-03 0. -1.
        -11    1    3    3    0    0 -0.51146959873E+01  0.49202080650E+00 -0.90919067706E+01  0.10443417472E+02  0.51100000000E-03 0.  1.
         12    1    3    3    0    0  0.51357559232E-01  0.32309684369E+01  0.89505598742E+00  0.33530463552E+01  0.00000000000E+00 0. -1.
</event>
<event>
 7    1  0.2655656E-009  0.4778727E+02  0.7816164E-02  0.1312668E+00
        -11   -1    0    0    0    0  0.00000000000E+00  0.00000000000E+00  0.45593999997E+02  0.45594000000E+02  0.51100000000E-03 0.  1.
         11   -1    0    0    0    0 -0.00000000000E+00 -0.00000000000E+00 -0.45593999997E+02  0.45594000000E+02  0.51100000000E-03 0. -1.
    9900012    2    1    2    0    0 -0.83903193966E+01 -0.39012766624E+02 -0.17065460953E+02  0.47787269859E+02  0.19999994594E+02 0.  0.
        -12    1    1    2    0    0  0.83903193966E+01  0.39012766624E+02  0.17065460953E+02  0.43400730141E+02  0.00000000000E+00 0.  1.
         11    1    3    3    0    0 -0.35299259965E+01 -0.76110280493E+01 -0.53340911736E+01  0.99418637296E+01  0.51100000000E-03 0. -1.
        -11    1    3    3    0    0 -0.10774881716E+02 -0.14622088510E+02 -0.66520961490E+01  0.19343059009E+02  0.51100000000E-03 0.  1.
        -12    1    3    3    0    0  0.59144883159E+01 -0.16779650065E+02 -0.50792736300E+01  0.18502347120E+02  0.00000000000E+00 0.  1.
</event>
<event>
 7    1  0.2655656E-009  0.4778727E+02  0.7816164E-02  0.1312668E+00
        -11   -1    0    0    0    0  0.00000000000E+00  0.00000000000E+00  0.45593999997E+02  0.45594000000E+02  0.51100000000E-03 0. -1.
         11   -1    0    0    0    0 -0.00000000000E+00 -0.00000000000E+00 -0.45593999997E+02  0.45594000000E+02  0.51100000000E-03 0.  1.
    9900012    2    1    2    0    0  0.20968600053E+01  0.76997921708E+01  0.42660755579E+02  0.47787266275E+02  0.19999978253E+02 0.  0.
        -12    1    1    2    0    0 -0.20968600053E+01 -0.76997921708E+01 -0.42660755579E+02  0.43400733725E+02  0.00000000000E+00 0.  1.
         11    1    3    3    0    0  0.95487763547E+01  0.24093089988E+01  0.14263441268E+02  0.17332906761E+02  0.51100000000E-03 0. -1.
        -11    1    3    3    0    0 -0.47375108525E+01 -0.13099171013E+00  0.96496208646E+01  0.10750644213E+02  0.51100000000E-03 0.  1.
         12    1    3    3    0    0 -0.27144054968E+01  0.54214748821E+01  0.18747693446E+02  0.19703715301E+02  0.00000000000E+00 0. -1.
</event>
<event>
 7    1  0.2655656E-009  0.4778727E+02  0.7816164E-02  0.1312668E+00
        -11   -1    0    0    0    0  0.00000000000E+00  0.00000000000E+00  0.45593999997E+02  0.45594000000E+02  0.51100000000E-03 0.  1.
         11   -1    0    0    0    0 -0.00000000000E+00 -0.00000000000E+00 -0.45593999997E+02  0.45594000000E+02  0.51100000000E-03 0. -1.
    9900012    2    1    2    0    0 -0.79851758099E+01 -0.18094155852E+02 -0.38632393948E+02  0.47787269927E+02  0.19999994904E+02 0.  0.
        -12    1    1    2    0    0  0.79851758099E+01  0.18094155852E+02  0.38632393948E+02  0.43400730073E+02  0.00000000000E+00 0.  1.
         11    1    3    3    0    0 -0.15385748520E+01  0.26411074763E+01 -0.16287006069E+02  0.16571337551E+02  0.51100000000E-03 0. -1.
        -11    1    3    3    0    0 -0.49811449961E+01 -0.16099834895E+02 -0.18431099034E+02  0.24974424938E+02  0.51100000000E-03 0.  1.
         12    1    3    3    0    0 -0.14654559617E+01 -0.46354284334E+01 -0.39142888455E+01  0.62415074383E+01  0.00000000000E+00 0. -1.
</event>
<event>
 7    1  0.2655656E-009  0.4778727E+02  0.7816164E-02  0.1312668E+00
        -11   -1    0    0    0    0  0.00000000000E+00  0.00000000000E+00  0.45593999997E+02  0.45594000000E+02  0.51100000000E-03 0.  1.
         11   -1    0    0    0    0 -0.00000000000E+00 -0.00000000000E+00 -0.45593999997E+02  0.45594000000E+02  0.51100000000E-03 0. -1.
    9900012    2    1    2    0    0  0.22686821268E+02 -0.27996377162E+02  0.24189546921E+02  0.47787272199E+02  0.20000005265E+02 0.  0.
        -12    1    1    2    0    0 -0.22686821268E+02  0.27996377162E+02 -0.24189546921E+02  0.43400727801E+02  0.00000000000E+00 0.  1.
         11    1    3    3    0    0  0.51660309686E+01 -0.12744771215E+02  0.53288216894E+01  0.14748335843E+02  0.51100000000E-03 0. -1.
        -11    1    3    3    0    0  0.12769137469E+02 -0.13613130580E+02  0.20526799636E+02  0.27743786682E+02  0.51100000000E-03 0.  1.
        -12    1    3    3    0    0  0.47516528305E+01 -0.16384753672E+01 -0.16660744049E+01  0.52951496743E+01  0.00000000000E+00 0.  1.
</event>
<event>
 7    1  0.2655656E-009  0.4778727E+02  0.7816164E-02  0.1312668E+00
        -11   -1    0    0    0    0  0.00000000000E+00  0.00000000000E+00  0.45593999997E+02  0.45594000000E+02  0.51100000000E-03 0.  1.
         11   -1    0    0    0    0 -0.00000000000E+00 -0.00000000000E+00 -0.45593999997E+02  0.45594000000E+02  0.51100000000E-03 0. -1.
    9900012    2    1    2    0    0 -0.25912599051E+02 -0.17450934724E+02 -0.30126823850E+02  0.47787269274E+02  0.19999991927E+02 0.  0.
        -12    1    1    2    0    0  0.25912599051E+02  0.17450934724E+02  0.30126823850E+02  0.43400730726E+02  0.00000000000E+00 0.  1.
         11    1    3    3    0    0 -0.11092941685E+02 -0.71707183927E+01 -0.10768211784E+02  0.17041917227E+02  0.51100000000E-03 0. -1.
        -11    1    3    3    0    0 -0.10205760767E+02 -0.14305734255E+02 -0.12586798646E+02  0.21615713864E+02  0.51100000000E-03 0.  1.
        -12    1    3    3    0    0 -0.46138965987E+01  0.40255179230E+01 -0.67718134193E+01  0.91296381833E+01  0.00000000000E+00 0.  1.
</event>
<event>
 7    1  0.2655656E-009  0.4778727E+02  0.7816164E-02  0.1312668E+00
        -11   -1    0    0    0    0  0.00000000000E+00  0.00000000000E+00  0.45593999997E+02  0.45594000000E+02  0.51100000000E-03 0.  1.
         11   -1    0    0    0    0 -0.00000000000E+00 -0.00000000000E+00 -0.45593999997E+02  0.45594000000E+02  0.51100000000E-03 0. -1.
    9900012    2    1    2    0    0 -0.73828730111E+01 -0.23362172892E+02 -0.35823530352E+02  0.47787271169E+02  0.20000000570E+02 0.  0.
        -12    1    1    2    0    0  0.73828730111E+01  0.23362172892E+02  0.35823530352E+02  0.43400728831E+02  0.00000000000E+00 0.  1.
         11    1    3    3    0    0  0.61119625681E+01 -0.97022229231E+01 -0.16094293798E+02  0.19761465259E+02  0.51100000000E-03 0. -1.
        -11    1    3    3    0    0 -0.79551998340E+01 -0.10894832062E+02 -0.15388720633E+02  0.20464488585E+02  0.51100000000E-03 0.  1.
         12    1    3    3    0    0 -0.55396357452E+01 -0.27651179073E+01 -0.43405159211E+01  0.75613173252E+01  0.00000000000E+00 0. -1.
</event>
<event>
 7    1  0.2655656E-009  0.4778727E+02  0.7816164E-02  0.1312668E+00
        -11   -1    0    0    0    0  0.00000000000E+00  0.00000000000E+00  0.45593999997E+02  0.45594000000E+02  0.51100000000E-03 0.  1.
         11   -1    0    0    0    0 -0.00000000000E+00 -0.00000000000E+00 -0.45593999997E+02  0.45594000000E+02  0.51100000000E-03 0. -1.
    9900012    2    1    2    0    0 -0.26145347488E+02  0.27153558452E+02  0.21511123989E+02  0.47787269739E+02  0.19999994049E+02 0.  0.
        -12    1    1    2    0    0  0.26145347488E+02 -0.27153558452E+02 -0.21511123989E+02  0.43400730261E+02  0.00000000000E+00 0.  1.
         11    1    3    3    0    0 -0.23956898082E+02  0.19898978133E+02  0.19191198465E+02  0.36581476122E+02  0.51100000000E-03 0. -1.
        -11    1    3    3    0    0  0.27045768625E+01  0.75470042194E+00  0.30617526977E+00  0.28245446162E+01  0.51100000000E-03 0.  1.
         12    1    3    3    0    0 -0.48930262684E+01  0.64998798969E+01  0.20137502552E+01  0.83812490016E+01  0.00000000000E+00 0. -1.
</event>
<event>
 7    1  0.2655656E-009  0.4778727E+02  0.7816164E-02  0.1312668E+00
        -11   -1    0    0    0    0  0.00000000000E+00  0.00000000000E+00  0.45593999997E+02  0.45594000000E+02  0.51100000000E-03 0. -1.
         11   -1    0    0    0    0 -0.00000000000E+00 -0.00000000000E+00 -0.45593999997E+02  0.45594000000E+02  0.51100000000E-03 0.  1.
    9900012    2    1    2    0    0  0.43245599366E+02  0.34189400120E+01  0.13236632479E+01  0.47787273050E+02  0.20000009145E+02 0.  0.
        -12    1    1    2    0    0 -0.43245599366E+02 -0.34189400120E+01 -0.13236632479E+01  0.43400726950E+02  0.00000000000E+00 0.  1.
         11    1    3    3    0    0  0.28513499922E+02 -0.19379298228E+01  0.39934677247E+01  0.28856940838E+02  0.51100000000E-03 0. -1.
        -11    1    3    3    0    0  0.12738653340E+02  0.44255978608E+01 -0.61430813307E+01  0.14818793940E+02  0.51100000000E-03 0.  1.
        -12    1    3    3    0    0  0.19934461049E+01  0.93127197397E+00  0.34732768539E+01  0.41115382725E+01  0.00000000000E+00 0.  1.
</event>
<event>
 7    1  0.2655656E-009  0.4778727E+02  0.7816164E-02  0.1312668E+00
        -11   -1    0    0    0    0  0.00000000000E+00  0.00000000000E+00  0.45593999997E+02  0.45594000000E+02  0.51100000000E-03 0. -1.
         11   -1    0    0    0    0 -0.00000000000E+00 -0.00000000000E+00 -0.45593999997E+02  0.45594000000E+02  0.51100000000E-03 0.  1.
    9900012    2    1    2    0    0 -0.36488127042E+02 -0.44738845865E+01 -0.23069988001E+02  0.47787269538E+02  0.19999993129E+02 0.  0.
        -12    1    1    2    0    0  0.36488127042E+02  0.44738845865E+01  0.23069988001E+02  0.43400730462E+02  0.00000000000E+00 0.  1.
         11    1    3    3    0    0 -0.10940777652E+02 -0.24504867048E+00 -0.28981383807E+01  0.11320771653E+02  0.51100000000E-03 0. -1.
        -11    1    3    3    0    0 -0.26161853308E+02 -0.20486117099E+00 -0.16159578371E+02  0.30750878199E+02  0.51100000000E-03 0.  1.
        -12    1    3    3    0    0  0.61450391828E+00 -0.40239747450E+01 -0.40122712496E+01  0.57156196860E+01  0.00000000000E+00 0.  1.
</event>
<event>
 7    1  0.2655656E-009  0.4778727E+02  0.7816164E-02  0.1312668E+00
        -11   -1    0    0    0    0  0.00000000000E+00  0.00000000000E+00  0.45593999997E+02  0.45594000000E+02  0.51100000000E-03 0.  1.
         11   -1    0    0    0    0 -0.00000000000E+00 -0.00000000000E+00 -0.45593999997E+02  0.45594000000E+02  0.51100000000E-03 0. -1.
    9900012    2    1    2    0    0 -0.42429033357E+02  0.86136574311E+00  0.90916700414E+01  0.47787270897E+02  0.19999999326E+02 0.  0.
        -12    1    1    2    0    0  0.42429033357E+02 -0.86136574311E+00 -0.90916700414E+01  0.43400729103E+02  0.00000000000E+00 0.  1.
         11    1    3    3    0    0 -0.12685421287E+02 -0.42301615722E+01  0.68726420831E+01  0.15034872451E+02  0.51100000000E-03 0. -1.
        -11    1    3    3    0    0 -0.18732370162E+02  0.91654064082E+01  0.25318390419E+01  0.21007536164E+02  0.51100000000E-03 0.  1.
        -12    1    3    3    0    0 -0.11011241908E+02 -0.40738790929E+01 -0.31281108352E+00  0.11744862281E+02  0.00000000000E+00 0.  1.
</event>
<event>
 7    1  0.2655656E-009  0.4778725E+02  0.7816164E-02  0.1312668E+00
        -11   -1    0    0    0    0  0.00000000000E+00  0.00000000000E+00  0.45593999997E+02  0.45594000000E+02  0.51100000000E-03 0.  1.
         11   -1    0    0    0    0 -0.00000000000E+00 -0.00000000000E+00 -0.45593999997E+02  0.45594000000E+02  0.51100000000E-03 0. -1.
    9900012    2    1    2    0    0  0.21873651363E+02  0.21899645357E+01 -0.37421547529E+02  0.47787253600E+02  0.19999920462E+02 0.  0.
        -12    1    1    2    0    0 -0.21873651363E+02 -0.21899645357E+01  0.37421547529E+02  0.43400746400E+02  0.00000000000E+00 0.  1.
         11    1    3    3    0    0  0.64248997619E+01  0.39890620006E+01 -0.19615357955E+02  0.21022707261E+02  0.51100000000E-03 0. -1.
        -11    1    3    3    0    0  0.62491046892E+01 -0.77634221539E+00  0.43194498882E+00  0.63119405405E+01  0.51100000000E-03 0.  1.
        -12    1    3    3    0    0  0.91996469118E+01 -0.10227552495E+01 -0.18238134563E+02  0.20452605798E+02  0.00000000000E+00 0.  1.
</event>
<event>
 7    1  0.2655656E-009  0.4778728E+02  0.7816164E-02  0.1312668E+00
        -11   -1    0    0    0    0  0.00000000000E+00  0.00000000000E+00  0.45593999997E+02  0.45594000000E+02  0.51100000000E-03 0.  1.
         11   -1    0    0    0    0 -0.00000000000E+00 -0.00000000000E+00 -0.45593999997E+02  0.45594000000E+02  0.51100000000E-03 0. -1.
    9900012    2    1    2    0    0 -0.23445286390E+02  0.36410900610E+02 -0.28614177570E+01  0.47787275943E+02  0.20000022333E+02 0.  0.
        -12    1    1    2    0    0  0.23445286390E+02 -0.36410900610E+02  0.28614177570E+01  0.43400724057E+02  0.00000000000E+00 0.  1.
         11    1    3    3    0    0 -0.16939638903E+02  0.27696253758E+02  0.41461088842E+01  0.32729559385E+02  0.51100000000E-03 0. -1.
        -11    1    3    3    0    0 -0.54045591767E+01  0.88172679721E+01 -0.83688685460E+01  0.13303812814E+02  0.51100000000E-03 0.  1.
        -12    1    3    3    0    0 -0.11010883103E+01 -0.10262112009E+00  0.13613419048E+01  0.17539037440E+01  0.00000000000E+00 0.  1.
</event>
<event>
 7    1  0.2655656E-009  0.4778727E+02  0.7816164E-02  0.1312668E+00
        -11   -1    0    0    0    0  0.00000000000E+00  0.00000000000E+00  0.45593999997E+02  0.45594000000E+02  0.51100000000E-03 0. -1.
         11   -1    0    0    0    0 -0.00000000000E+00 -0.00000000000E+00 -0.45593999997E+02  0.45594000000E+02  0.51100000000E-03 0.  1.
    9900012    2    1    2    0    0  0.41477343642E+02  0.68867944199E+01 -0.10762236899E+02  0.47787265950E+02  0.19999976774E+02 0.  0.
        -12    1    1    2    0    0 -0.41477343642E+02 -0.68867944199E+01  0.10762236899E+02  0.43400734050E+02  0.00000000000E+00 0.  1.
         11    1    3    3    0    0  0.23289046909E+02 -0.40510740478E+01 -0.11046014428E+02  0.26092246777E+02  0.51100000000E-03 0. -1.
        -11    1    3    3    0    0  0.37558850140E+00 -0.64331661404E-01 -0.63246203497E+00  0.73838592338E+00  0.51100000000E-03 0.  1.
         12    1    3    3    0    0  0.17812708231E+02  0.11002200129E+02  0.91623956446E+00  0.20956633250E+02  0.00000000000E+00 0. -1.
</event>
<event>
 7    1  0.2655656E-009  0.4778728E+02  0.7816164E-02  0.1312668E+00
        -11   -1    0    0    0    0  0.00000000000E+00  0.00000000000E+00  0.45593999997E+02  0.45594000000E+02  0.51100000000E-03 0. -1.
         11   -1    0    0    0    0 -0.00000000000E+00 -0.00000000000E+00 -0.45593999997E+02  0.45594000000E+02  0.51100000000E-03 0.  1.
    9900012    2    1    2    0    0 -0.41796921907E+02 -0.11123430019E+02  0.35929638156E+01  0.47787276904E+02  0.20000026715E+02 0.  0.
        -12    1    1    2    0    0  0.41796921907E+02  0.11123430019E+02 -0.35929638156E+01  0.43400723096E+02  0.00000000000E+00 0.  1.
         11    1    3    3    0    0 -0.26696919451E+02 -0.90731665688E+01 -0.44285779006E+01  0.28542252228E+02  0.51100000000E-03 0. -1.
        -11    1    3    3    0    0 -0.93047988494E+00  0.24367591693E+01  0.85866501819E+00  0.27460688156E+01  0.51100000000E-03 0.  1.
        -12    1    3    3    0    0 -0.14169522571E+02 -0.44870226200E+01  0.71628766981E+01  0.16498955861E+02  0.00000000000E+00 0.  1.
</event>
<event>
 7    1  0.2655656E-009  0.4778727E+02  0.7816164E-02  0.1312668E+00
        -11   -1    0    0    0    0  0.00000000000E+00  0.00000000000E+00  0.45593999997E+02  0.45594000000E+02  0.51100000000E-03 0.  1.
         11   -1    0    0    0    0 -0.00000000000E+00 -0.00000000000E+00 -0.45593999997E+02  0.45594000000E+02  0.51100000000E-03 0. -1.
    9900012    2    1    2    0    0 -0.16931597638E+02  0.26420597762E+02 -0.29981600810E+02  0.47787269916E+02  0.19999994856E+02 0.  0.
        -12    1    1    2    0    0  0.16931597638E+02 -0.26420597762E+02  0.29981600810E+02  0.43400730084E+02  0.00000000000E+00 0.  1.
         11    1    3    3    0    0 -0.61197459774E+00 -0.22812385376E+01 -0.26881795641E+00  0.23771465097E+01  0.51100000000E-03 0. -1.
        -11    1    3    3    0    0 -0.14481022950E+02  0.18434838221E+02 -0.16954736084E+02  0.28931062231E+02  0.51100000000E-03 0.  1.
        -12    1    3    3    0    0 -0.18386000909E+01  0.10266998079E+02 -0.12758046769E+02  0.16479061175E+02  0.00000000000E+00 0.  1.
</event>
<event>
 7    1  0.2655656E-009  0.4778727E+02  0.7816164E-02  0.1312668E+00
        -11   -1    0    0    0    0  0.00000000000E+00  0.00000000000E+00  0.45593999997E+02  0.45594000000E+02  0.51100000000E-03 0. -1.
         11   -1    0    0    0    0 -0.00000000000E+00 -0.00000000000E+00 -0.45593999997E+02  0.45594000000E+02  0.51100000000E-03 0.  1.
    9900012    2    1    2    0    0  0.10381272329E+02 -0.35670416522E+02  0.22438226208E+02  0.47787269299E+02  0.19999992042E+02 0.  0.
        -12    1    1    2    0    0 -0.10381272329E+02  0.35670416522E+02 -0.22438226208E+02  0.43400730701E+02  0.00000000000E+00 0.  1.
         11    1    3    3    0    0  0.22809952822E+01 -0.22810813531E+02  0.13109012933E+02  0.26407998291E+02  0.51100000000E-03 0. -1.
        -11    1    3    3    0    0  0.93742627406E+01 -0.52127147377E+01  0.82927970176E+01  0.13558011635E+02  0.51100000000E-03 0.  1.
        -12    1    3    3    0    0 -0.12739856939E+01 -0.76468882535E+01  0.10364162571E+01  0.78212593723E+01  0.00000000000E+00 0.  1.
</event>
<event>
 7    1  0.2655656E-009  0.4778727E+02  0.7816164E-02  0.1312668E+00
        -11   -1    0    0    0    0  0.00000000000E+00  0.00000000000E+00  0.45593999997E+02  0.45594000000E+02  0.51100000000E-03 0.  1.
         11   -1    0    0    0    0 -0.00000000000E+00 -0.00000000000E+00 -0.45593999997E+02  0.45594000000E+02  0.51100000000E-03 0. -1.
    9900012    2    1    2    0    0  0.13287848432E+02  0.16918133999E+02 -0.37693941323E+02  0.47787269748E+02  0.19999994091E+02 0.  0.
        -12    1    1    2    0    0 -0.13287848432E+02 -0.16918133999E+02  0.37693941323E+02  0.43400730252E+02  0.00000000000E+00 0.  1.
         11    1    3    3    0    0  0.25235669821E+01  0.60890158561E+01 -0.16864273067E+02  0.18106579212E+02  0.51100000000E-03 0. -1.
        -11    1    3    3    0    0 -0.27597609233E+01 -0.31072671148E+00 -0.46488560098E+00  0.28158391869E+01  0.51100000000E-03 0.  1.
        -12    1    3    3    0    0  0.13524042373E+02  0.11139844854E+02 -0.20364782654E+02  0.26864851350E+02  0.00000000000E+00 0.  1.
</event>
<event>
 7    1  0.2655656E-009  0.4778727E+02  0.7816164E-02  0.1312668E+00
        -11   -1    0    0    0    0  0.00000000000E+00  0.00000000000E+00  0.45593999997E+02  0.45594000000E+02  0.51100000000E-03 0.  1.
         11   -1    0    0    0    0 -0.00000000000E+00 -0.00000000000E+00 -0.45593999997E+02  0.45594000000E+02  0.51100000000E-03 0. -1.
    9900012    2    1    2    0    0 -0.28041024898E+02  0.18246023112E+02 -0.27647906773E+02  0.47787272061E+02  0.20000004635E+02 0.  0.
        -12    1    1    2    0    0  0.28041024898E+02 -0.18246023112E+02  0.27647906773E+02  0.43400727939E+02  0.00000000000E+00 0.  1.
         11    1    3    3    0    0 -0.14005905757E+02  0.14055300135E+02 -0.72175100948E+01  0.21114196887E+02  0.51100000000E-03 0.  1.
        -11    1    3    3    0    0 -0.87514269973E+01 -0.17493319018E+01 -0.13154854319E+02  0.15896472219E+02  0.51100000000E-03 0. -1.
         12    1    3    3    0    0 -0.52836921436E+01  0.59400548795E+01 -0.72755423590E+01  0.10776602955E+02  0.00000000000E+00 0. -1.
</event>
<event>
 7    1  0.2655656E-009  0.4778727E+02  0.7816164E-02  0.1312668E+00
        -11   -1    0    0    0    0  0.00000000000E+00  0.00000000000E+00  0.45593999997E+02  0.45594000000E+02  0.51100000000E-03 0.  1.
         11   -1    0    0    0    0 -0.00000000000E+00 -0.00000000000E+00 -0.45593999997E+02  0.45594000000E+02  0.51100000000E-03 0. -1.
    9900012    2    1    2    0    0  0.66802579129E+01 -0.30427047827E+02 -0.30219073448E+02  0.47787268608E+02  0.19999988893E+02 0.  0.
        -12    1    1    2    0    0 -0.66802579129E+01  0.30427047827E+02  0.30219073448E+02  0.43400731392E+02  0.00000000000E+00 0.  1.
         11    1    3    3    0    0 -0.46283603513E+01 -0.14677383147E+02 -0.76903501436E+01  0.17204324490E+02  0.51100000000E-03 0.  1.
        -11    1    3    3    0    0  0.10573602491E+02 -0.16202376840E+02 -0.19643938367E+02  0.27571768165E+02  0.51100000000E-03 0. -1.
         12    1    3    3    0    0  0.73501577302E+00  0.45271215923E+00 -0.28847849378E+01  0.30111759535E+01  0.00000000000E+00 0. -1.
</event>
<event>
 7    1  0.2655656E-009  0.4778727E+02  0.7816164E-02  0.1312668E+00
        -11   -1    0    0    0    0  0.00000000000E+00  0.00000000000E+00  0.45593999997E+02  0.45594000000E+02  0.51100000000E-03 0.  1.
         11   -1    0    0    0    0 -0.00000000000E+00 -0.00000000000E+00 -0.45593999997E+02  0.45594000000E+02  0.51100000000E-03 0. -1.
    9900012    2    1    2    0    0 -0.27621548611E+02 -0.24795792837E+02 -0.22490931278E+02  0.47787270976E+02  0.19999999687E+02 0.  0.
        -12    1    1    2    0    0  0.27621548611E+02  0.24795792837E+02  0.22490931278E+02  0.43400729024E+02  0.00000000000E+00 0.  1.
         11    1    3    3    0    0 -0.67642413284E+01 -0.14689404545E+02 -0.14109808976E+02  0.21462065983E+02  0.51100000000E-03 0. -1.
        -11    1    3    3    0    0 -0.76609768419E+01 -0.76335025142E+01 -0.65458898382E+00  0.10834639533E+02  0.51100000000E-03 0.  1.
         12    1    3    3    0    0 -0.13196330440E+02 -0.24728857782E+01 -0.77265333177E+01  0.15490565460E+02  0.00000000000E+00 0. -1.
</event>
<event>
 7    1  0.2655656E-009  0.4778727E+02  0.7816164E-02  0.1312668E+00
        -11   -1    0    0    0    0  0.00000000000E+00  0.00000000000E+00  0.45593999997E+02  0.45594000000E+02  0.51100000000E-03 0. -1.
         11   -1    0    0    0    0 -0.00000000000E+00 -0.00000000000E+00 -0.45593999997E+02  0.45594000000E+02  0.51100000000E-03 0.  1.
    9900012    2    1    2    0    0  0.41618502143E+01  0.39518225533E+02  0.17453143414E+02  0.47787270035E+02  0.19999995398E+02 0.  0.
        -12    1    1    2    0    0 -0.41618502143E+01 -0.39518225533E+02 -0.17453143414E+02  0.43400729965E+02  0.00000000000E+00 0.  1.
         11    1    3    3    0    0 -0.26359403886E+01  0.12286652560E+02  0.81204929684E+00  0.12592435713E+02  0.51100000000E-03 0. -1.
        -11    1    3    3    0    0  0.61029917836E+01  0.30624885917E+01  0.39214592942E+01  0.78742103313E+01  0.51100000000E-03 0.  1.
        -12    1    3    3    0    0  0.69479881928E+00  0.24169084381E+02  0.12719634823E+02  0.27320623991E+02  0.00000000000E+00 0.  1.
</event>
<event>
 7    1  0.2655656E-009  0.4778727E+02  0.7816164E-02  0.1312668E+00
        -11   -1    0    0    0    0  0.00000000000E+00  0.00000000000E+00  0.45593999997E+02  0.45594000000E+02  0.51100000000E-03 0. -1.
         11   -1    0    0    0    0 -0.00000000000E+00 -0.00000000000E+00 -0.45593999997E+02  0.45594000000E+02  0.51100000000E-03 0.  1.
    9900012    2    1    2    0    0 -0.40057731419E+02  0.13547576079E+02 -0.97706050104E+01  0.47787269749E+02  0.19999994092E+02 0.  0.
        -12    1    1    2    0    0  0.40057731419E+02 -0.13547576079E+02  0.97706050104E+01  0.43400730251E+02  0.00000000000E+00 0.  1.
         11    1    3    3    0    0 -0.10622060647E+02  0.94506307009E+00  0.29498249708E+01  0.11064483007E+02  0.51100000000E-03 0. -1.
        -11    1    3    3    0    0 -0.28453842645E+02  0.14235437375E+02 -0.13628364465E+02  0.34612153310E+02  0.51100000000E-03 0.  1.
        -12    1    3    3    0    0 -0.98182812740E+00 -0.16329243656E+01  0.90793448359E+00  0.21106334314E+01  0.00000000000E+00 0.  1.
</event>
<event>
 7    1  0.2655656E-009  0.4778728E+02  0.7816164E-02  0.1312668E+00
        -11   -1    0    0    0    0  0.00000000000E+00  0.00000000000E+00  0.45593999997E+02  0.45594000000E+02  0.51100000000E-03 0.  1.
         11   -1    0    0    0    0 -0.00000000000E+00 -0.00000000000E+00 -0.45593999997E+02  0.45594000000E+02  0.51100000000E-03 0. -1.
    9900012    2    1    2    0    0 -0.29517956919E+02  0.30478957005E+02  0.91294123607E+01  0.47787276839E+02  0.20000026421E+02 0.  0.
        -12    1    1    2    0    0  0.29517956919E+02 -0.30478957005E+02 -0.91294123607E+01  0.43400723161E+02  0.00000000000E+00 0.  1.
         11    1    3    3    0    0 -0.19090299866E+02  0.21850325045E+02  0.94027163552E+01  0.30500611939E+02  0.51100000000E-03 0. -1.
        -11    1    3    3    0    0 -0.57356519114E+01  0.45117948275E+01 -0.55058353846E+01  0.91415654544E+01  0.51100000000E-03 0.  1.
        -12    1    3    3    0    0 -0.46920051416E+01  0.41168371333E+01  0.52325313901E+01  0.81450994456E+01  0.00000000000E+00 0.  1.
</event>
<event>
 7    1  0.2655656E-009  0.4778727E+02  0.7816164E-02  0.1312668E+00
        -11   -1    0    0    0    0  0.00000000000E+00  0.00000000000E+00  0.45593999997E+02  0.45594000000E+02  0.51100000000E-03 0.  1.
         11   -1    0    0    0    0 -0.00000000000E+00 -0.00000000000E+00 -0.45593999997E+02  0.45594000000E+02  0.51100000000E-03 0. -1.
    9900012    2    1    2    0    0  0.12175406685E+02  0.38723258296E+02 -0.15358774554E+02  0.47787271702E+02  0.20000002999E+02 0.  0.
        -12    1    1    2    0    0 -0.12175406685E+02 -0.38723258296E+02  0.15358774554E+02  0.43400728298E+02  0.00000000000E+00 0.  1.
         11    1    3    3    0    0  0.57052066718E+01  0.48992095664E+01 -0.98653359386E+01  0.12404696328E+02  0.51100000000E-03 0. -1.
        -11    1    3    3    0    0  0.56571084659E+01  0.14155357633E+02 -0.17462085695E+01  0.15343606829E+02  0.51100000000E-03 0.  1.
         12    1    3    3    0    0  0.81309154683E+00  0.19668691097E+02 -0.37472300456E+01  0.20038968545E+02  0.00000000000E+00 0. -1.
</event>
<event>
 7    1  0.2655656E-009  0.4778727E+02  0.7816164E-02  0.1312668E+00
        -11   -1    0    0    0    0  0.00000000000E+00  0.00000000000E+00  0.45593999997E+02  0.45594000000E+02  0.51100000000E-03 0.  1.
         11   -1    0    0    0    0 -0.00000000000E+00 -0.00000000000E+00 -0.45593999997E+02  0.45594000000E+02  0.51100000000E-03 0. -1.
    9900012    2    1    2    0    0  0.52261123518E+01 -0.40458806008E+02 -0.14812023949E+02  0.47787270889E+02  0.19999999292E+02 0.  0.
        -12    1    1    2    0    0 -0.52261123518E+01  0.40458806008E+02  0.14812023949E+02  0.43400729111E+02  0.00000000000E+00 0.  1.
         11    1    3    3    0    0  0.64737898411E+01 -0.23931122089E+02 -0.10551143963E+02  0.26943184640E+02  0.51100000000E-03 0. -1.
        -11    1    3    3    0    0 -0.37044157526E+01 -0.44195123969E+01 -0.60526015392E+01  0.83599504513E+01  0.51100000000E-03 0.  1.
        -12    1    3    3    0    0  0.24567382634E+01 -0.12108171521E+02  0.17917215536E+01  0.12484135798E+02  0.00000000000E+00 0.  1.
</event>
<event>
 7    1  0.2655656E-009  0.4778728E+02  0.7816164E-02  0.1312668E+00
        -11   -1    0    0    0    0  0.00000000000E+00  0.00000000000E+00  0.45593999997E+02  0.45594000000E+02  0.51100000000E-03 0.  1.
         11   -1    0    0    0    0 -0.00000000000E+00 -0.00000000000E+00 -0.45593999997E+02  0.45594000000E+02  0.51100000000E-03 0. -1.
    9900012    2    1    2    0    0  0.30320237818E+02  0.17131006494E+02 -0.25900476631E+02  0.47787275415E+02  0.20000019926E+02 0.  0.
        -12    1    1    2    0    0 -0.30320237818E+02 -0.17131006494E+02  0.25900476631E+02  0.43400724585E+02  0.00000000000E+00 0.  1.
         11    1    3    3    0    0  0.25922506987E+02  0.14564734737E+02 -0.12967283358E+02  0.32438531169E+02  0.51100000000E-03 0. -1.
        -11    1    3    3    0    0  0.13763486856E+01 -0.17666776470E+00 -0.10513229900E+02  0.10604411836E+02  0.51100000000E-03 0.  1.
        -12    1    3    3    0    0  0.30213821451E+01  0.27429395218E+01 -0.24199633727E+01  0.47443324095E+01  0.00000000000E+00 0.  1.
</event>
<event>
 7    1  0.2655656E-009  0.4778727E+02  0.7816164E-02  0.1312668E+00
        -11   -1    0    0    0    0  0.00000000000E+00  0.00000000000E+00  0.45593999997E+02  0.45594000000E+02  0.51100000000E-03 0.  1.
         11   -1    0    0    0    0 -0.00000000000E+00 -0.00000000000E+00 -0.45593999997E+02  0.45594000000E+02  0.51100000000E-03 0. -1.
    9900012    2    1    2    0    0 -0.84405677257E+01  0.36185007276E+02 -0.22428221992E+02  0.47787273315E+02  0.20000010351E+02 0.  0.
        -12    1    1    2    0    0  0.84405677257E+01 -0.36185007276E+02  0.22428221992E+02  0.43400726685E+02  0.00000000000E+00 0.  1.
         11    1    3    3    0    0 -0.25497065564E+01  0.16414677371E+02 -0.44709836190E+01  0.17202683846E+02  0.51100000000E-03 0. -1.
        -11    1    3    3    0    0  0.26774115825E+01 -0.87615809025E-01 -0.41030404222E+01  0.49001173740E+01  0.51100000000E-03 0.  1.
        -12    1    3    3    0    0 -0.85682727518E+01  0.19857945714E+02 -0.13854197951E+02  0.25684472095E+02  0.00000000000E+00 0.  1.
</event>
<event>
 7    1  0.2655656E-009  0.4778728E+02  0.7816164E-02  0.1312668E+00
        -11   -1    0    0    0    0  0.00000000000E+00  0.00000000000E+00  0.45593999997E+02  0.45594000000E+02  0.51100000000E-03 0.  1.
         11   -1    0    0    0    0 -0.00000000000E+00 -0.00000000000E+00 -0.45593999997E+02  0.45594000000E+02  0.51100000000E-03 0. -1.
    9900012    2    1    2    0    0  0.22360555667E+02  0.21966200104E+01 -0.37132235282E+02  0.47787280119E+02  0.20000041372E+02 0.  0.
        -12    1    1    2    0    0 -0.22360555667E+02 -0.21966200104E+01  0.37132235282E+02  0.43400719881E+02  0.00000000000E+00 0.  1.
         11    1    3    3    0    0  0.89181312549E+01  0.29157516762E+01 -0.34289437788E+01  0.99896110343E+01  0.51100000000E-03 0. -1.
        -11    1    3    3    0    0  0.24894913608E-01 -0.17881535068E+01 -0.12875392971E+02  0.12998994467E+02  0.51100000000E-03 0.  1.
        -12    1    3    3    0    0  0.13417529499E+02  0.10690218410E+01 -0.20827898532E+02  0.24798674618E+02  0.00000000000E+00 0.  1.
</event>
<event>
 7    1  0.2655656E-009  0.4778727E+02  0.7816164E-02  0.1312668E+00
        -11   -1    0    0    0    0  0.00000000000E+00  0.00000000000E+00  0.45593999997E+02  0.45594000000E+02  0.51100000000E-03 0. -1.
         11   -1    0    0    0    0 -0.00000000000E+00 -0.00000000000E+00 -0.45593999997E+02  0.45594000000E+02  0.51100000000E-03 0.  1.
    9900012    2    1    2    0    0 -0.20483676409E+02  0.33279138456E+02  0.18882300005E+02  0.47787270639E+02  0.19999998153E+02 0.  0.
        -12    1    1    2    0    0  0.20483676409E+02 -0.33279138456E+02 -0.18882300005E+02  0.43400729361E+02  0.00000000000E+00 0.  1.
         11    1    3    3    0    0  0.29220082169E+01  0.50483961659E+01  0.44306147738E+00  0.58498495367E+01  0.51100000000E-03 0.  1.
        -11    1    3    3    0    0 -0.15625624791E+02  0.24397134589E+02  0.14772955094E+02  0.32521078222E+02  0.51100000000E-03 0. -1.
        -12    1    3    3    0    0 -0.77800598340E+01  0.38336077010E+01  0.36662834337E+01  0.94163428804E+01  0.00000000000E+00 0.  1.
</event>
<event>
 7    1  0.2655656E-009  0.4778727E+02  0.7816164E-02  0.1312668E+00
        -11   -1    0    0    0    0  0.00000000000E+00  0.00000000000E+00  0.45593999997E+02  0.45594000000E+02  0.51100000000E-03 0.  1.
         11   -1    0    0    0    0 -0.00000000000E+00 -0.00000000000E+00 -0.45593999997E+02  0.45594000000E+02  0.51100000000E-03 0. -1.
    9900012    2    1    2    0    0 -0.26506795054E+02 -0.47874507954E+01 -0.34030769648E+02  0.47787272449E+02  0.20000006402E+02 0.  0.
        -12    1    1    2    0    0  0.26506795054E+02  0.47874507954E+01  0.34030769648E+02  0.43400727551E+02  0.00000000000E+00 0.  1.
         11    1    3    3    0    0 -0.10407775471E+02  0.40525839656E+01 -0.21402523714E+02  0.24141525400E+02  0.51100000000E-03 0. -1.
        -11    1    3    3    0    0 -0.46194817636E+01 -0.69282585372E+01 -0.46698570468E+01  0.95471431968E+01  0.51100000000E-03 0.  1.
        -12    1    3    3    0    0 -0.11479537819E+02 -0.19117762238E+01 -0.79583888873E+01  0.14098603851E+02  0.00000000000E+00 0.  1.
</event>
<event>
 7    1  0.2655656E-009  0.4778727E+02  0.7816164E-02  0.1312668E+00
        -11   -1    0    0    0    0  0.00000000000E+00  0.00000000000E+00  0.45593999997E+02  0.45594000000E+02  0.51100000000E-03 0.  1.
         11   -1    0    0    0    0 -0.00000000000E+00 -0.00000000000E+00 -0.45593999997E+02  0.45594000000E+02  0.51100000000E-03 0. -1.
    9900012    2    1    2    0    0  0.32616612806E+02  0.23442344808E+02 -0.16438859294E+02  0.47787273555E+02  0.20000011447E+02 0.  0.
        -12    1    1    2    0    0 -0.32616612806E+02 -0.23442344808E+02  0.16438859294E+02  0.43400726445E+02  0.00000000000E+00 0.  1.
         11    1    3    3    0    0  0.25050345074E+02  0.20535367880E+02 -0.15696813879E+02  0.35994598046E+02  0.51100000000E-03 0. -1.
        -11    1    3    3    0    0 -0.17573349101E+01 -0.46590018902E+00 -0.45252636265E+00  0.18735179055E+01  0.51100000000E-03 0.  1.
        -12    1    3    3    0    0  0.93236026426E+01  0.33728771167E+01 -0.28951905303E+00  0.99191576035E+01  0.00000000000E+00 0.  1.
</event>
<event>
 7    1  0.2655656E-009  0.4778727E+02  0.7816164E-02  0.1312668E+00
        -11   -1    0    0    0    0  0.00000000000E+00  0.00000000000E+00  0.45593999997E+02  0.45594000000E+02  0.51100000000E-03 0.  1.
         11   -1    0    0    0    0 -0.00000000000E+00 -0.00000000000E+00 -0.45593999997E+02  0.45594000000E+02  0.51100000000E-03 0. -1.
    9900012    2    1    2    0    0  0.16302163949E+02  0.87126368846E+01 -0.39267706099E+02  0.47787270361E+02  0.19999996883E+02 0.  0.
        -12    1    1    2    0    0 -0.16302163949E+02 -0.87126368846E+01  0.39267706099E+02  0.43400729639E+02  0.00000000000E+00 0.  1.
         11    1    3    3    0    0  0.81619733424E+00  0.57894271876E+01 -0.19924924548E+02  0.20765025012E+02  0.51100000000E-03 0. -1.
        -11    1    3    3    0    0  0.16956859150E+02  0.27148103428E+01 -0.16501676720E+02  0.23816183621E+02  0.51100000000E-03 0.  1.
        -12    1    3    3    0    0 -0.14708925351E+01  0.20839935428E+00 -0.28411048313E+01  0.32060617279E+01  0.00000000000E+00 0.  1.
</event>
<event>
 7    1  0.2655656E-009  0.4778726E+02  0.7816164E-02  0.1312668E+00
        -11   -1    0    0    0    0  0.00000000000E+00  0.00000000000E+00  0.45593999997E+02  0.45594000000E+02  0.51100000000E-03 0. -1.
         11   -1    0    0    0    0 -0.00000000000E+00 -0.00000000000E+00 -0.45593999997E+02  0.45594000000E+02  0.51100000000E-03 0.  1.
    9900012    2    1    2    0    0  0.21205038952E+02 -0.18612746334E+02  0.32977818525E+02  0.47787256715E+02  0.19999934665E+02 0.  0.
        -12    1    1    2    0    0 -0.21205038952E+02  0.18612746334E+02 -0.32977818525E+02  0.43400743285E+02  0.00000000000E+00 0.  1.
         11    1    3    3    0    0  0.25272711496E+01  0.30419711748E+01  0.25675084632E+00  0.39631564883E+01  0.51100000000E-03 0. -1.
        -11    1    3    3    0    0  0.24439309065E+01 -0.85493464035E+00  0.44871957906E+01  0.51806020730E+01  0.51100000000E-03 0.  1.
         12    1    3    3    0    0  0.16233836896E+02 -0.20799782869E+02  0.28233871888E+02  0.38643498153E+02  0.00000000000E+00 0. -1.
</event>
<event>
 7    1  0.2655656E-009  0.4778725E+02  0.7816164E-02  0.1312668E+00
        -11   -1    0    0    0    0  0.00000000000E+00  0.00000000000E+00  0.45593999997E+02  0.45594000000E+02  0.51100000000E-03 0.  1.
         11   -1    0    0    0    0 -0.00000000000E+00 -0.00000000000E+00 -0.45593999997E+02  0.45594000000E+02  0.51100000000E-03 0. -1.
    9900012    2    1    2    0    0 -0.36881685446E+02  0.80416922902E+01 -0.21417220022E+02  0.47787252890E+02  0.19999917227E+02 0.  0.
        -12    1    1    2    0    0  0.36881685446E+02 -0.80416922902E+01  0.21417220022E+02  0.43400747110E+02  0.00000000000E+00 0.  1.
         11    1    3    3    0    0 -0.17095365313E+02  0.49014574958E+01 -0.25663877605E+01  0.17968365178E+02  0.51100000000E-03 0.  1.
        -11    1    3    3    0    0 -0.71451707116E+01  0.12527154372E+01 -0.14679592981E+02  0.16374162904E+02  0.51100000000E-03 0. -1.
        -12    1    3    3    0    0 -0.12641149421E+02  0.18875193573E+01 -0.41712392802E+01  0.13444724808E+02  0.00000000000E+00 0.  1.
</event>
<event>
 7    1  0.2655656E-009  0.4778725E+02  0.7816164E-02  0.1312668E+00
        -11   -1    0    0    0    0  0.00000000000E+00  0.00000000000E+00  0.45593999997E+02  0.45594000000E+02  0.51100000000E-03 0. -1.
         11   -1    0    0    0    0 -0.00000000000E+00 -0.00000000000E+00 -0.45593999997E+02  0.45594000000E+02  0.51100000000E-03 0.  1.
    9900012    2    1    2    0    0 -0.42668105837E+02 -0.57741807841E+01 -0.54512613010E+01  0.47787254969E+02  0.19999926707E+02 0.  0.
        -12    1    1    2    0    0  0.42668105837E+02  0.57741807841E+01  0.54512613010E+01  0.43400745031E+02  0.00000000000E+00 0.  1.
         11    1    3    3    0    0 -0.13802520747E+02  0.15151815819E+01 -0.78411919193E+01  0.15946461839E+02  0.51100000000E-03 0. -1.
        -11    1    3    3    0    0 -0.28000108245E+02 -0.70009263513E+01 -0.44209911518E+00  0.28865454845E+02  0.51100000000E-03 0.  1.
        -12    1    3    3    0    0 -0.86547684476E+00 -0.28843601466E+00  0.28320297335E+01  0.29753382858E+01  0.00000000000E+00 0.  1.
</event>
<event>
 7    1  0.2655656E-009  0.4778727E+02  0.7816164E-02  0.1312668E+00
        -11   -1    0    0    0    0  0.00000000000E+00  0.00000000000E+00  0.45593999997E+02  0.45594000000E+02  0.51100000000E-03 0.  1.
         11   -1    0    0    0    0 -0.00000000000E+00 -0.00000000000E+00 -0.45593999997E+02  0.45594000000E+02  0.51100000000E-03 0. -1.
    9900012    2    1    2    0    0  0.40893517638E+02 -0.47911363650E+01  0.13725457038E+02  0.47787274852E+02  0.20000017358E+02 0.  0.
        -12    1    1    2    0    0 -0.40893517638E+02  0.47911363650E+01 -0.13725457038E+02  0.43400725148E+02  0.00000000000E+00 0.  1.
         11    1    3    3    0    0  0.32267350966E+02 -0.92975330040E+01  0.12418396943E+02  0.35802830072E+02  0.51100000000E-03 0. -1.
        -11    1    3    3    0    0  0.59688420016E+01  0.57529812245E+01  0.27227742515E+01  0.87256729079E+01  0.51100000000E-03 0.  1.
         12    1    3    3    0    0  0.26573246713E+01 -0.12465845855E+01 -0.14157141564E+01  0.32587718714E+01  0.00000000000E+00 0. -1.
</event>
<event>
 7    1  0.2655656E-009  0.4778727E+02  0.7816164E-02  0.1312668E+00
        -11   -1    0    0    0    0  0.00000000000E+00  0.00000000000E+00  0.45593999997E+02  0.45594000000E+02  0.51100000000E-03 0. -1.
         11   -1    0    0    0    0 -0.00000000000E+00 -0.00000000000E+00 -0.45593999997E+02  0.45594000000E+02  0.51100000000E-03 0.  1.
    9900012    2    1    2    0    0 -0.16181809275E+02 -0.15932478427E+02  0.36985514835E+02  0.47787272727E+02  0.20000007672E+02 0.  0.
        -12    1    1    2    0    0  0.16181809275E+02  0.15932478427E+02 -0.36985514835E+02  0.43400727273E+02  0.00000000000E+00 0.  1.
         11    1    3    3    0    0 -0.17899366132E+02 -0.11941127797E+02  0.33297174228E+02  0.39644415153E+02  0.51100000000E-03 0. -1.
        -11    1    3    3    0    0  0.20364686786E+01 -0.26006642886E+01 -0.82898439078E+00  0.34055652691E+01  0.51100000000E-03 0.  1.
        -12    1    3    3    0    0 -0.31891182188E+00 -0.13906863406E+01  0.45173249981E+01  0.47372923053E+01  0.00000000000E+00 0.  1.
</event>
<event>
 7    1  0.2655656E-009  0.4778727E+02  0.7816164E-02  0.1312668E+00
        -11   -1    0    0    0    0  0.00000000000E+00  0.00000000000E+00  0.45593999997E+02  0.45594000000E+02  0.51100000000E-03 0.  1.
         11   -1    0    0    0    0 -0.00000000000E+00 -0.00000000000E+00 -0.45593999997E+02  0.45594000000E+02  0.51100000000E-03 0. -1.
    9900012    2    1    2    0    0  0.90978421738E+01 -0.38217174654E+02 -0.18447229378E+02  0.47787269102E+02  0.19999991144E+02 0.  0.
        -12    1    1    2    0    0 -0.90978421738E+01  0.38217174654E+02  0.18447229378E+02  0.43400730898E+02  0.00000000000E+00 0.  1.
         11    1    3    3    0    0  0.38337622967E+00 -0.28118528036E+02 -0.98963228977E+01  0.29811672268E+02  0.51100000000E-03 0. -1.
        -11    1    3    3    0    0  0.50566698206E+01 -0.43869983930E+01  0.44512419849E+00  0.67092324739E+01  0.51100000000E-03 0.  1.
         12    1    3    3    0    0  0.36577961235E+01 -0.57116482251E+01 -0.89960306788E+01  0.11266364360E+02  0.00000000000E+00 0. -1.
</event>
<event>
 7    1  0.2655656E-009  0.4778727E+02  0.7816164E-02  0.1312668E+00
        -11   -1    0    0    0    0  0.00000000000E+00  0.00000000000E+00  0.45593999997E+02  0.45594000000E+02  0.51100000000E-03 0.  1.
         11   -1    0    0    0    0 -0.00000000000E+00 -0.00000000000E+00 -0.45593999997E+02  0.45594000000E+02  0.51100000000E-03 0. -1.
    9900012    2    1    2    0    0  0.46129221941E+01  0.31233050186E+02 -0.29779868899E+02  0.47787273431E+02  0.20000010881E+02 0.  0.
        -12    1    1    2    0    0 -0.46129221941E+01 -0.31233050186E+02  0.29779868899E+02  0.43400726569E+02  0.00000000000E+00 0.  1.
         11    1    3    3    0    0 -0.46840518532E+01  0.15352641681E+02 -0.15212609886E+02  0.22114869391E+02  0.51100000000E-03 0. -1.
        -11    1    3    3    0    0 -0.21516846250E+01  0.26580265804E+01 -0.10808424876E+01  0.35865126198E+01  0.51100000000E-03 0.  1.
         12    1    3    3    0    0  0.11448658672E+02  0.13222381924E+02 -0.13486416525E+02  0.22085891421E+02  0.00000000000E+00 0. -1.
</event>
<event>
 7    1  0.2655656E-009  0.4778724E+02  0.7816164E-02  0.1312668E+00
        -11   -1    0    0    0    0  0.00000000000E+00  0.00000000000E+00  0.45593999997E+02  0.45594000000E+02  0.51100000000E-03 0. -1.
         11   -1    0    0    0    0 -0.00000000000E+00 -0.00000000000E+00 -0.45593999997E+02  0.45594000000E+02  0.51100000000E-03 0.  1.
    9900012    2    1    2    0    0 -0.37188761261E+02  0.12401051449E+02  0.18623525100E+02  0.47787242768E+02  0.19999871077E+02 0.  0.
        -12    1    1    2    0    0  0.37188761261E+02 -0.12401051449E+02 -0.18623525100E+02  0.43400757232E+02  0.00000000000E+00 0.  1.
         11    1    3    3    0    0 -0.12821273148E+02  0.12329356728E+02  0.64881758153E+01  0.18933951202E+02  0.51100000000E-03 0. -1.
        -11    1    3    3    0    0 -0.54032660477E+01 -0.36838636010E+01  0.12208452077E+01  0.66525632876E+01  0.51100000000E-03 0.  1.
         12    1    3    3    0    0 -0.18964222066E+02  0.37555583222E+01  0.10914504077E+02  0.22200728279E+02  0.00000000000E+00 0. -1.
</event>
<event>
 7    1  0.2655656E-009  0.4778727E+02  0.7816164E-02  0.1312668E+00
        -11   -1    0    0    0    0  0.00000000000E+00  0.00000000000E+00  0.45593999997E+02  0.45594000000E+02  0.51100000000E-03 0.  1.
         11   -1    0    0    0    0 -0.00000000000E+00 -0.00000000000E+00 -0.45593999997E+02  0.45594000000E+02  0.51100000000E-03 0. -1.
    9900012    2    1    2    0    0  0.22089616327E+02  0.19265588297E+02 -0.32007960173E+02  0.47787267790E+02  0.19999985163E+02 0.  0.
        -12    1    1    2    0    0 -0.22089616327E+02 -0.19265588297E+02  0.32007960173E+02  0.43400732210E+02  0.00000000000E+00 0.  1.
         11    1    3    3    0    0  0.83805105081E+01  0.13073964779E+02 -0.15882964943E+02  0.22213286273E+02  0.51100000000E-03 0. -1.
        -11    1    3    3    0    0  0.11160278368E+02  0.10719413188E+01 -0.35511224719E+01  0.11760584276E+02  0.51100000000E-03 0.  1.
        -12    1    3    3    0    0  0.25488274507E+01  0.51196821998E+01 -0.12573872759E+02  0.13813397241E+02  0.00000000000E+00 0.  1.
</event>
<event>
 7    1  0.2655656E-009  0.4778727E+02  0.7816164E-02  0.1312668E+00
        -11   -1    0    0    0    0  0.00000000000E+00  0.00000000000E+00  0.45593999997E+02  0.45594000000E+02  0.51100000000E-03 0. -1.
         11   -1    0    0    0    0 -0.00000000000E+00 -0.00000000000E+00 -0.45593999997E+02  0.45594000000E+02  0.51100000000E-03 0.  1.
    9900012    2    1    2    0    0  0.60195241646E+00 -0.21592954998E+02  0.37643132450E+02  0.47787268752E+02  0.19999989546E+02 0.  0.
        -12    1    1    2    0    0 -0.60195241646E+00  0.21592954998E+02 -0.37643132450E+02  0.43400731248E+02  0.00000000000E+00 0.  1.
         11    1    3    3    0    0  0.61673017450E+01 -0.15539737972E+02  0.18897871965E+02  0.25231897117E+02  0.51100000000E-03 0. -1.
        -11    1    3    3    0    0 -0.70664246574E+01 -0.46340352849E+01  0.18664161795E+02  0.20488034953E+02  0.51100000000E-03 0.  1.
        -12    1    3    3    0    0  0.15010753288E+01 -0.14191817411E+01  0.81098689506E-01  0.20673366815E+01  0.00000000000E+00 0.  1.
</event>
<event>
 7    1  0.2655656E-009  0.4778726E+02  0.7816164E-02  0.1312668E+00
        -11   -1    0    0    0    0  0.00000000000E+00  0.00000000000E+00  0.45593999997E+02  0.45594000000E+02  0.51100000000E-03 0.  1.
         11   -1    0    0    0    0 -0.00000000000E+00 -0.00000000000E+00 -0.45593999997E+02  0.45594000000E+02  0.51100000000E-03 0. -1.
    9900012    2    1    2    0    0 -0.36959924525E+02  0.22748301749E+02 -0.32023435030E+00  0.47787264944E+02  0.19999972186E+02 0.  0.
        -12    1    1    2    0    0  0.36959924525E+02 -0.22748301749E+02  0.32023435030E+00  0.43400735056E+02  0.00000000000E+00 0.  1.
         11    1    3    3    0    0 -0.14568500920E+02  0.92980915977E+01 -0.83656333089E+01  0.19201029851E+02  0.51100000000E-03 0. -1.
        -11    1    3    3    0    0 -0.21163126675E+02  0.10319077989E+02  0.50456691849E+01  0.24079453461E+02  0.51100000000E-03 0.  1.
        -12    1    3    3    0    0 -0.12282969304E+01  0.31311321625E+01  0.29997297738E+01  0.45067816325E+01  0.00000000000E+00 0.  1.
</event>
<event>
 7    1  0.2655656E-009  0.4778727E+02  0.7816164E-02  0.1312668E+00
        -11   -1    0    0    0    0  0.00000000000E+00  0.00000000000E+00  0.45593999997E+02  0.45594000000E+02  0.51100000000E-03 0.  1.
         11   -1    0    0    0    0 -0.00000000000E+00 -0.00000000000E+00 -0.45593999997E+02  0.45594000000E+02  0.51100000000E-03 0. -1.
    9900012    2    1    2    0    0 -0.86925645944E+01 -0.40797008682E+02 -0.11986110352E+02  0.47787269154E+02  0.19999991379E+02 0.  0.
        -12    1    1    2    0    0  0.86925645944E+01  0.40797008682E+02  0.11986110352E+02  0.43400730846E+02  0.00000000000E+00 0.  1.
         11    1    3    3    0    0  0.35231189535E+01 -0.10642190277E+02  0.17515396520E+01  0.11346209608E+02  0.51100000000E-03 0.  1.
        -11    1    3    3    0    0 -0.79712297709E+01 -0.27480712660E+02 -0.10545054408E+02  0.30494724873E+02  0.51100000000E-03 0. -1.
        -12    1    3    3    0    0 -0.42444537771E+01 -0.26741057453E+01 -0.31925955958E+01  0.59463346728E+01  0.00000000000E+00 0.  1.
</event>
<event>
 7    1  0.2655656E-009  0.4778727E+02  0.7816164E-02  0.1312668E+00
        -11   -1    0    0    0    0  0.00000000000E+00  0.00000000000E+00  0.45593999997E+02  0.45594000000E+02  0.51100000000E-03 0. -1.
         11   -1    0    0    0    0 -0.00000000000E+00 -0.00000000000E+00 -0.45593999997E+02  0.45594000000E+02  0.51100000000E-03 0.  1.
    9900012    2    1    2    0    0  0.38190224770E+02  0.20554413015E+02 -0.16267898660E+01  0.47787267199E+02  0.19999982469E+02 0.  0.
        -12    1    1    2    0    0 -0.38190224770E+02 -0.20554413015E+02  0.16267898660E+01  0.43400732801E+02  0.00000000000E+00 0.  1.
         11    1    3    3    0    0  0.15806267227E+02 -0.83776088459E+00 -0.13654587553E+00  0.15829042043E+02  0.51100000000E-03 0. -1.
        -11    1    3    3    0    0  0.16442754670E+02  0.17555611129E+02  0.18745941964E+01  0.24126287881E+02  0.51100000000E-03 0.  1.
         12    1    3    3    0    0  0.59412028726E+01  0.38365627708E+01 -0.33648381869E+01  0.78319372758E+01  0.00000000000E+00 0. -1.
</event>
<event>
 7    1  0.2655656E-009  0.4778727E+02  0.7816164E-02  0.1312668E+00
        -11   -1    0    0    0    0  0.00000000000E+00  0.00000000000E+00  0.45593999997E+02  0.45594000000E+02  0.51100000000E-03 0.  1.
         11   -1    0    0    0    0 -0.00000000000E+00 -0.00000000000E+00 -0.45593999997E+02  0.45594000000E+02  0.51100000000E-03 0. -1.
    9900012    2    1    2    0    0  0.32110431647E+02 -0.22735334130E+02 -0.18320706235E+02  0.47787268260E+02  0.19999987306E+02 0.  0.
        -12    1    1    2    0    0 -0.32110431647E+02  0.22735334130E+02  0.18320706235E+02  0.43400731740E+02  0.00000000000E+00 0.  1.
         11    1    3    3    0    0  0.22667508041E+02 -0.18787798799E+02 -0.74248920744E+01  0.30363239733E+02  0.51100000000E-03 0. -1.
        -11    1    3    3    0    0  0.48709666625E+01 -0.52661771010E+00 -0.10633482572E+02  0.11707885988E+02  0.51100000000E-03 0.  1.
         12    1    3    3    0    0  0.45719569434E+01 -0.34209176211E+01 -0.26233158871E+00  0.57161425389E+01  0.00000000000E+00 0. -1.
</event>
<event>
 7    1  0.2655656E-009  0.4778727E+02  0.7816164E-02  0.1312668E+00
        -11   -1    0    0    0    0  0.00000000000E+00  0.00000000000E+00  0.45593999997E+02  0.45594000000E+02  0.51100000000E-03 0.  1.
         11   -1    0    0    0    0 -0.00000000000E+00 -0.00000000000E+00 -0.45593999997E+02  0.45594000000E+02  0.51100000000E-03 0. -1.
    9900012    2    1    2    0    0 -0.85836614543E+01  0.38932305208E+02 -0.17152825542E+02  0.47787273545E+02  0.20000011402E+02 0.  0.
        -12    1    1    2    0    0  0.85836614543E+01 -0.38932305208E+02  0.17152825542E+02  0.43400726455E+02  0.00000000000E+00 0.  1.
         11    1    3    3    0    0  0.46202276354E-01  0.26959759892E+02 -0.50852056444E+01  0.27435198282E+02  0.51100000000E-03 0. -1.
        -11    1    3    3    0    0 -0.37996162428E+01  0.15751787691E+01 -0.62860598078E+01  0.75121781073E+01  0.51100000000E-03 0.  1.
         12    1    3    3    0    0 -0.48302474879E+01  0.10397366547E+02 -0.57815600896E+01  0.12839897156E+02  0.00000000000E+00 0. -1.
</event>
<event>
 7    1  0.2655656E-009  0.4778727E+02  0.7816164E-02  0.1312668E+00
        -11   -1    0    0    0    0  0.00000000000E+00  0.00000000000E+00  0.45593999997E+02  0.45594000000E+02  0.51100000000E-03 0. -1.
         11   -1    0    0    0    0 -0.00000000000E+00 -0.00000000000E+00 -0.45593999997E+02  0.45594000000E+02  0.51100000000E-03 0.  1.
    9900012    2    1    2    0    0  0.13369136810E+01 -0.25359308255E+02  0.35195764771E+02  0.47787266007E+02  0.19999977031E+02 0.  0.
        -12    1    1    2    0    0 -0.13369136810E+01  0.25359308255E+02 -0.35195764771E+02  0.43400733993E+02  0.00000000000E+00 0.  1.
         11    1    3    3    0    0  0.67837225092E+01 -0.18107646425E+02  0.22380191036E+02  0.29576658047E+02  0.51100000000E-03 0. -1.
        -11    1    3    3    0    0 -0.41325285734E+01 -0.49246092164E+01  0.15238776332E+01  0.66069487395E+01  0.51100000000E-03 0.  1.
        -12    1    3    3    0    0 -0.13142802548E+01 -0.23270526133E+01  0.11291696102E+02  0.11603659221E+02  0.00000000000E+00 0.  1.
</event>
<event>
 7    1  0.2655656E-009  0.4778727E+02  0.7816164E-02  0.1312668E+00
        -11   -1    0    0    0    0  0.00000000000E+00  0.00000000000E+00  0.45593999997E+02  0.45594000000E+02  0.51100000000E-03 0. -1.
         11   -1    0    0    0    0 -0.00000000000E+00 -0.00000000000E+00 -0.45593999997E+02  0.45594000000E+02  0.51100000000E-03 0.  1.
    9900012    2    1    2    0    0  0.15285616968E+02 -0.64267705190E+00  0.40614779072E+02  0.47787269603E+02  0.19999993430E+02 0.  0.
        -12    1    1    2    0    0 -0.15285616968E+02  0.64267705190E+00 -0.40614779072E+02  0.43400730397E+02  0.00000000000E+00 0.  1.
         11    1    3    3    0    0  0.90009363572E+01  0.53709958472E+00  0.26355840943E+02  0.27855622113E+02  0.51100000000E-03 0. -1.
        -11    1    3    3    0    0 -0.14066608268E+01  0.24325576405E+01  0.10076020251E+02  0.10460507431E+02  0.51100000000E-03 0.  1.
         12    1    3    3    0    0  0.76913414380E+01 -0.36123342771E+01  0.41829178787E+01  0.94711400594E+01  0.00000000000E+00 0. -1.
</event>
<event>
 7    1  0.2655656E-009  0.4778727E+02  0.7816164E-02  0.1312668E+00
        -11   -1    0    0    0    0  0.00000000000E+00  0.00000000000E+00  0.45593999997E+02  0.45594000000E+02  0.51100000000E-03 0.  1.
         11   -1    0    0    0    0 -0.00000000000E+00 -0.00000000000E+00 -0.45593999997E+02  0.45594000000E+02  0.51100000000E-03 0. -1.
    9900012    2    1    2    0    0 -0.13393489745E+02 -0.37823741250E+02 -0.16540931947E+02  0.47787269599E+02  0.19999993408E+02 0.  0.
        -12    1    1    2    0    0  0.13393489745E+02  0.37823741250E+02  0.16540931947E+02  0.43400730401E+02  0.00000000000E+00 0.  1.
         11    1    3    3    0    0 -0.10577648788E+02 -0.22036663210E+02 -0.10663631154E+02  0.26668599681E+02  0.51100000000E-03 0. -1.
        -11    1    3    3    0    0  0.22975361344E+01 -0.88252763837E+00  0.22976385804E+01  0.33669972719E+01  0.51100000000E-03 0.  1.
        -12    1    3    3    0    0 -0.51133770910E+01 -0.14904550401E+02 -0.81749393740E+01  0.17751672645E+02  0.00000000000E+00 0.  1.
</event>
<event>
 7    1  0.2655656E-009  0.4778727E+02  0.7816164E-02  0.1312668E+00
        -11   -1    0    0    0    0  0.00000000000E+00  0.00000000000E+00  0.45593999997E+02  0.45594000000E+02  0.51100000000E-03 0.  1.
         11   -1    0    0    0    0 -0.00000000000E+00 -0.00000000000E+00 -0.45593999997E+02  0.45594000000E+02  0.51100000000E-03 0. -1.
    9900012    2    1    2    0    0  0.26545217997E+02  0.33842040036E+02  0.58043843592E+01  0.47787272470E+02  0.20000006500E+02 0.  0.
        -12    1    1    2    0    0 -0.26545217997E+02 -0.33842040036E+02 -0.58043843592E+01  0.43400727530E+02  0.00000000000E+00 0.  1.
         11    1    3    3    0    0  0.85996340971E+01  0.10447875190E+02  0.44529858627E+01  0.14245732201E+02  0.51100000000E-03 0. -1.
        -11    1    3    3    0    0  0.18930247098E+02  0.24748824312E+02  0.28573023839E+01  0.31289339035E+02  0.51100000000E-03 0.  1.
        -12    1    3    3    0    0 -0.98466319855E+00 -0.13546594658E+01 -0.15059038874E+01  0.22522012346E+01  0.00000000000E+00 0.  1.
</event>
<event>
 7    1  0.2655656E-009  0.4778727E+02  0.7816164E-02  0.1312668E+00
        -11   -1    0    0    0    0  0.00000000000E+00  0.00000000000E+00  0.45593999997E+02  0.45594000000E+02  0.51100000000E-03 0.  1.
         11   -1    0    0    0    0 -0.00000000000E+00 -0.00000000000E+00 -0.45593999997E+02  0.45594000000E+02  0.51100000000E-03 0. -1.
    9900012    2    1    2    0    0  0.20581512023E+02 -0.38207744761E+02 -0.43927693728E+00  0.47787270040E+02  0.19999995418E+02 0.  0.
        -12    1    1    2    0    0 -0.20581512023E+02  0.38207744761E+02  0.43927693728E+00  0.43400729960E+02  0.00000000000E+00 0.  1.
         11    1    3    3    0    0  0.19287457182E+02 -0.25464787786E+02 -0.43693073873E+01  0.32242088469E+02  0.51100000000E-03 0. -1.
        -11    1    3    3    0    0  0.33074135580E-01  0.88746068472E+00  0.13494234809E+01  0.16154331795E+01  0.51100000000E-03 0.  1.
         12    1    3    3    0    0  0.12609807060E+01 -0.13630417659E+02  0.25806069691E+01  0.13929748391E+02  0.00000000000E+00 0. -1.
</event>
<event>
 7    1  0.2655656E-009  0.4778726E+02  0.7816164E-02  0.1312668E+00
        -11   -1    0    0    0    0  0.00000000000E+00  0.00000000000E+00  0.45593999997E+02  0.45594000000E+02  0.51100000000E-03 0. -1.
         11   -1    0    0    0    0 -0.00000000000E+00 -0.00000000000E+00 -0.45593999997E+02  0.45594000000E+02  0.51100000000E-03 0.  1.
    9900012    2    1    2    0    0  0.84075056917E+01  0.67426189278E+01  0.42041352557E+02  0.47787258223E+02  0.19999941541E+02 0.  0.
        -12    1    1    2    0    0 -0.84075056917E+01 -0.67426189278E+01 -0.42041352557E+02  0.43400741777E+02  0.00000000000E+00 0.  1.
         11    1    3    3    0    0 -0.13125955630E+01 -0.95800037260E+00  0.66952973663E+01  0.68896791587E+01  0.51100000000E-03 0. -1.
        -11    1    3    3    0    0 -0.12128476806E+01  0.59589815677E+01  0.31443763607E+01  0.68459888825E+01  0.51100000000E-03 0.  1.
        -12    1    3    3    0    0  0.10932948935E+02  0.17416377327E+01  0.32201678830E+02  0.34051590182E+02  0.00000000000E+00 0.  1.
</event>
<event>
 7    1  0.2655656E-009  0.4778727E+02  0.7816164E-02  0.1312668E+00
        -11   -1    0    0    0    0  0.00000000000E+00  0.00000000000E+00  0.45593999997E+02  0.45594000000E+02  0.51100000000E-03 0.  1.
         11   -1    0    0    0    0 -0.00000000000E+00 -0.00000000000E+00 -0.45593999997E+02  0.45594000000E+02  0.51100000000E-03 0. -1.
    9900012    2    1    2    0    0  0.19780030794E+02  0.35730164323E+02 -0.14687717984E+02  0.47787270509E+02  0.19999997559E+02 0.  0.
        -12    1    1    2    0    0 -0.19780030794E+02 -0.35730164323E+02  0.14687717984E+02  0.43400729491E+02  0.00000000000E+00 0.  1.
         11    1    3    3    0    0  0.12286293540E+02  0.29923553414E+02 -0.97800285185E+01  0.33793801443E+02  0.51100000000E-03 0. -1.
        -11    1    3    3    0    0 -0.13685643381E+01 -0.10600763588E+00  0.11032774729E+01  0.17610869966E+01  0.51100000000E-03 0.  1.
         12    1    3    3    0    0  0.88623015914E+01  0.59126185448E+01 -0.60109669387E+01  0.12232382069E+02  0.00000000000E+00 0. -1.
</event>
<event>
 7    1  0.2655656E-009  0.4778727E+02  0.7816164E-02  0.1312668E+00
        -11   -1    0    0    0    0  0.00000000000E+00  0.00000000000E+00  0.45593999997E+02  0.45594000000E+02  0.51100000000E-03 0. -1.
         11   -1    0    0    0    0 -0.00000000000E+00 -0.00000000000E+00 -0.45593999997E+02  0.45594000000E+02  0.51100000000E-03 0.  1.
    9900012    2    1    2    0    0 -0.13196176542E+02 -0.36623795671E+02  0.19188063706E+02  0.47787271049E+02  0.20000000023E+02 0.  0.
        -12    1    1    2    0    0  0.13196176542E+02  0.36623795671E+02 -0.19188063706E+02  0.43400728951E+02  0.00000000000E+00 0.  1.
         11    1    3    3    0    0 -0.18243596390E+01  0.19727128139E+01  0.10356606660E+01  0.28796661638E+01  0.51100000000E-03 0. -1.
        -11    1    3    3    0    0 -0.83536347483E+00 -0.32674705629E+01  0.44347572424E+01  0.55714691127E+01  0.51100000000E-03 0.  1.
         12    1    3    3    0    0 -0.10536453428E+02 -0.35329037922E+02  0.13717645798E+02  0.39336135773E+02  0.00000000000E+00 0. -1.
</event>
<event>
 7    1  0.2655656E-009  0.4778727E+02  0.7816164E-02  0.1312668E+00
        -11   -1    0    0    0    0  0.00000000000E+00  0.00000000000E+00  0.45593999997E+02  0.45594000000E+02  0.51100000000E-03 0.  1.
         11   -1    0    0    0    0 -0.00000000000E+00 -0.00000000000E+00 -0.45593999997E+02  0.45594000000E+02  0.51100000000E-03 0. -1.
    9900012    2    1    2    0    0  0.40476312204E+02  0.54466027871E+01 -0.14684213108E+02  0.47787269060E+02  0.19999990951E+02 0.  0.
        -12    1    1    2    0    0 -0.40476312204E+02 -0.54466027871E+01  0.14684213108E+02  0.43400730940E+02  0.00000000000E+00 0.  1.
         11    1    3    3    0    0  0.66902773864E+01 -0.24674694843E+01 -0.75898807909E+01  0.10414149406E+02  0.51100000000E-03 0. -1.
        -11    1    3    3    0    0  0.23108352395E+02  0.10670935221E+02 -0.30867774271E+01  0.25639676364E+02  0.51100000000E-03 0.  1.
        -12    1    3    3    0    0  0.10677682423E+02 -0.27568629498E+01 -0.40075548899E+01  0.11733443290E+02  0.00000000000E+00 0.  1.
</event>
<event>
 7    1  0.2655656E-009  0.4778727E+02  0.7816164E-02  0.1312668E+00
        -11   -1    0    0    0    0  0.00000000000E+00  0.00000000000E+00  0.45593999997E+02  0.45594000000E+02  0.51100000000E-03 0. -1.
         11   -1    0    0    0    0 -0.00000000000E+00 -0.00000000000E+00 -0.45593999997E+02  0.45594000000E+02  0.51100000000E-03 0.  1.
    9900012    2    1    2    0    0 -0.31201744106E+02 -0.26914081292E+02  0.13627431821E+02  0.47787268381E+02  0.19999987856E+02 0.  0.
        -12    1    1    2    0    0  0.31201744106E+02  0.26914081292E+02 -0.13627431821E+02  0.43400731619E+02  0.00000000000E+00 0.  1.
         11    1    3    3    0    0 -0.21506985872E+02 -0.13868573917E+02  0.19755774428E+01  0.25666918208E+02  0.51100000000E-03 0. -1.
        -11    1    3    3    0    0 -0.98262229139E+01 -0.76052368526E+01  0.11080684163E+02  0.16648598924E+02  0.51100000000E-03 0.  1.
        -12    1    3    3    0    0  0.13146468028E+00 -0.54402705229E+01  0.57117021546E+00  0.54717512497E+01  0.00000000000E+00 0.  1.
</event>
<event>
 7    1  0.2655656E-009  0.4778727E+02  0.7816164E-02  0.1312668E+00
        -11   -1    0    0    0    0  0.00000000000E+00  0.00000000000E+00  0.45593999997E+02  0.45594000000E+02  0.51100000000E-03 0. -1.
         11   -1    0    0    0    0 -0.00000000000E+00 -0.00000000000E+00 -0.45593999997E+02  0.45594000000E+02  0.51100000000E-03 0.  1.
    9900012    2    1    2    0    0 -0.35235802287E+02  0.23188103925E+02  0.10216334755E+02  0.47787269334E+02  0.19999992203E+02 0.  0.
        -12    1    1    2    0    0  0.35235802287E+02 -0.23188103925E+02 -0.10216334755E+02  0.43400730666E+02  0.00000000000E+00 0.  1.
         11    1    3    3    0    0 -0.15790906525E+02  0.77534110591E+01 -0.38890156014E+01  0.18016452329E+02  0.51100000000E-03 0. -1.
        -11    1    3    3    0    0 -0.10685322647E+02  0.34291528562E+01  0.45921575518E+01  0.12125309094E+02  0.51100000000E-03 0.  1.
         12    1    3    3    0    0 -0.87595731155E+01  0.12005540010E+02  0.95131928045E+01  0.17645507911E+02  0.00000000000E+00 0. -1.
</event>
<event>
 7    1  0.2655656E-009  0.4778727E+02  0.7816164E-02  0.1312668E+00
        -11   -1    0    0    0    0  0.00000000000E+00  0.00000000000E+00  0.45593999997E+02  0.45594000000E+02  0.51100000000E-03 0.  1.
         11   -1    0    0    0    0 -0.00000000000E+00 -0.00000000000E+00 -0.45593999997E+02  0.45594000000E+02  0.51100000000E-03 0. -1.
    9900012    2    1    2    0    0  0.53180130858E+01  0.25732768177E+02 -0.34542243429E+02  0.47787271869E+02  0.20000003757E+02 0.  0.
        -12    1    1    2    0    0 -0.53180130858E+01 -0.25732768177E+02  0.34542243429E+02  0.43400728131E+02  0.00000000000E+00 0.  1.
         11    1    3    3    0    0  0.46355659516E+00  0.16468138595E+02 -0.16886720980E+02  0.23591859173E+02  0.51100000000E-03 0. -1.
        -11    1    3    3    0    0  0.20631693971E+01  0.21713803763E+00  0.16777827218E+01  0.26681026988E+01  0.51100000000E-03 0.  1.
         12    1    3    3    0    0  0.27912870936E+01  0.90474915440E+01 -0.19333305170E+02  0.21527309997E+02  0.00000000000E+00 0. -1.
</event>
<event>
 7    1  0.2655656E-009  0.4778727E+02  0.7816164E-02  0.1312668E+00
        -11   -1    0    0    0    0  0.00000000000E+00  0.00000000000E+00  0.45593999997E+02  0.45594000000E+02  0.51100000000E-03 0.  1.
         11   -1    0    0    0    0 -0.00000000000E+00 -0.00000000000E+00 -0.45593999997E+02  0.45594000000E+02  0.51100000000E-03 0. -1.
    9900012    2    1    2    0    0  0.40771545413E+02 -0.13878139064E+02  0.53574010146E+01  0.47787269535E+02  0.19999993119E+02 0.  0.
        -12    1    1    2    0    0 -0.40771545413E+02  0.13878139064E+02 -0.53574010146E+01  0.43400730465E+02  0.00000000000E+00 0.  1.
         11    1    3    3    0    0  0.33688895606E+02 -0.14174882783E+02  0.60371148277E-01  0.36549591434E+02  0.51100000000E-03 0. -1.
        -11    1    3    3    0    0  0.76344652098E+01 -0.10397911511E+00  0.63853650930E+01  0.99533290073E+01  0.51100000000E-03 0.  1.
        -12    1    3    3    0    0 -0.55181540296E+00  0.40072283402E+00 -0.10883352266E+01  0.12843490936E+01  0.00000000000E+00 0.  1.
</event>
<event>
 7    1  0.2655656E-009  0.4778727E+02  0.7816164E-02  0.1312668E+00
        -11   -1    0    0    0    0  0.00000000000E+00  0.00000000000E+00  0.45593999997E+02  0.45594000000E+02  0.51100000000E-03 0. -1.
         11   -1    0    0    0    0 -0.00000000000E+00 -0.00000000000E+00 -0.45593999997E+02  0.45594000000E+02  0.51100000000E-03 0.  1.
    9900012    2    1    2    0    0  0.95102842686E+01  0.17911668519E+02  0.38371217613E+02  0.47787265938E+02  0.19999976718E+02 0.  0.
        -12    1    1    2    0    0 -0.95102842686E+01 -0.17911668519E+02 -0.38371217613E+02  0.43400734062E+02  0.00000000000E+00 0.  1.
         11    1    3    3    0    0  0.72394139699E+01  0.15331522261E+02  0.23463159336E+02  0.28947962550E+02  0.51100000000E-03 0. -1.
        -11    1    3    3    0    0 -0.40207657832E+00 -0.24410132165E+01 -0.40229645375E+00  0.25064025606E+01  0.51100000000E-03 0.  1.
         12    1    3    3    0    0  0.26729468770E+01  0.50211594747E+01  0.15310354730E+02  0.16332900828E+02  0.00000000000E+00 0. -1.
</event>
<event>
 7    1  0.2655656E-009  0.4778727E+02  0.7816164E-02  0.1312668E+00
        -11   -1    0    0    0    0  0.00000000000E+00  0.00000000000E+00  0.45593999997E+02  0.45594000000E+02  0.51100000000E-03 0.  1.
         11   -1    0    0    0    0 -0.00000000000E+00 -0.00000000000E+00 -0.45593999997E+02  0.45594000000E+02  0.51100000000E-03 0. -1.
    9900012    2    1    2    0    0  0.60293166457E+01  0.37822699909E+02 -0.20413578895E+02  0.47787268544E+02  0.19999988598E+02 0.  0.
        -12    1    1    2    0    0 -0.60293166457E+01 -0.37822699909E+02  0.20413578895E+02  0.43400731456E+02  0.00000000000E+00 0.  1.
         11    1    3    3    0    0  0.35593728519E+01  0.32271074049E+02 -0.16396110767E+02  0.36372019519E+02  0.51100000000E-03 0. -1.
        -11    1    3    3    0    0 -0.40892163159E+00  0.10209855607E+01 -0.56880304451E+01  0.57933857995E+01  0.51100000000E-03 0.  1.
        -12    1    3    3    0    0  0.28788654253E+01  0.45306402997E+01  0.16705623174E+01  0.56218632248E+01  0.00000000000E+00 0.  1.
</event>
<event>
 7    1  0.2655656E-009  0.4778727E+02  0.7816164E-02  0.1312668E+00
        -11   -1    0    0    0    0  0.00000000000E+00  0.00000000000E+00  0.45593999997E+02  0.45594000000E+02  0.51100000000E-03 0. -1.
         11   -1    0    0    0    0 -0.00000000000E+00 -0.00000000000E+00 -0.45593999997E+02  0.45594000000E+02  0.51100000000E-03 0.  1.
    9900012    2    1    2    0    0 -0.18738011929E+02 -0.38343474496E+02 -0.78922876776E+01  0.47787270372E+02  0.19999996934E+02 0.  0.
        -12    1    1    2    0    0  0.18738011929E+02  0.38343474496E+02  0.78922876776E+01  0.43400729628E+02  0.00000000000E+00 0.  1.
         11    1    3    3    0    0 -0.59879018789E+01 -0.21653206560E+02 -0.72639921845E+00  0.22477632868E+02  0.51100000000E-03 0. -1.
        -11    1    3    3    0    0 -0.90982877478E+01 -0.47154578921E+01 -0.76387858105E+01  0.12781448744E+02  0.51100000000E-03 0.  1.
        -12    1    3    3    0    0 -0.36518223019E+01 -0.11974810043E+02  0.47289735131E+00  0.12528188760E+02  0.00000000000E+00 0.  1.
</event>
<event>
 7    1  0.2655656E-009  0.4778727E+02  0.7816164E-02  0.1312668E+00
        -11   -1    0    0    0    0  0.00000000000E+00  0.00000000000E+00  0.45593999997E+02  0.45594000000E+02  0.51100000000E-03 0. -1.
         11   -1    0    0    0    0 -0.00000000000E+00 -0.00000000000E+00 -0.45593999997E+02  0.45594000000E+02  0.51100000000E-03 0.  1.
    9900012    2    1    2    0    0  0.21431493604E+01 -0.39288346145E+02  0.18315461588E+02  0.47787269992E+02  0.19999995202E+02 0.  0.
        -12    1    1    2    0    0 -0.21431493604E+01  0.39288346145E+02 -0.18315461588E+02  0.43400730008E+02  0.00000000000E+00 0.  1.
         11    1    3    3    0    0 -0.17186341561E+01 -0.66795154796E+01  0.10735991624E+02  0.12760530821E+02  0.51100000000E-03 0. -1.
        -11    1    3    3    0    0  0.34262587401E+01 -0.32806532614E+02  0.84351701869E+01  0.34046437809E+02  0.51100000000E-03 0.  1.
        -12    1    3    3    0    0  0.43552477643E+00  0.19770194821E+00 -0.85570022265E+00  0.98030136298E+00  0.00000000000E+00 0.  1.
</event>
<event>
 7    1  0.2655656E-009  0.4778727E+02  0.7816164E-02  0.1312668E+00
        -11   -1    0    0    0    0  0.00000000000E+00  0.00000000000E+00  0.45593999997E+02  0.45594000000E+02  0.51100000000E-03 0.  1.
         11   -1    0    0    0    0 -0.00000000000E+00 -0.00000000000E+00 -0.45593999997E+02  0.45594000000E+02  0.51100000000E-03 0. -1.
    9900012    2    1    2    0    0 -0.20848624251E+02  0.91031863590E+01 -0.36960657971E+02  0.47787269906E+02  0.19999994809E+02 0.  0.
        -12    1    1    2    0    0  0.20848624251E+02 -0.91031863590E+01  0.36960657971E+02  0.43400730094E+02  0.00000000000E+00 0.  1.
         11    1    3    3    0    0 -0.20926947403E+02  0.54464956554E+01 -0.34070039103E+02  0.40353054498E+02  0.51100000000E-03 0. -1.
        -11    1    3    3    0    0  0.24166693631E+01  0.15328910085E+01 -0.31607271796E+01  0.42638295252E+01  0.51100000000E-03 0.  1.
         12    1    3    3    0    0 -0.23383462106E+01  0.21237996951E+01  0.27010831186E+00  0.31703858828E+01  0.00000000000E+00 0. -1.
</event>
<event>
 7    1  0.2655656E-009  0.4778727E+02  0.7816164E-02  0.1312668E+00
        -11   -1    0    0    0    0  0.00000000000E+00  0.00000000000E+00  0.45593999997E+02  0.45594000000E+02  0.51100000000E-03 0. -1.
         11   -1    0    0    0    0 -0.00000000000E+00 -0.00000000000E+00 -0.45593999997E+02  0.45594000000E+02  0.51100000000E-03 0.  1.
    9900012    2    1    2    0    0  0.40291022746E+02 -0.12887206710E+02  0.97044553496E+01  0.47787273458E+02  0.20000011006E+02 0.  0.
        -12    1    1    2    0    0 -0.40291022746E+02  0.12887206710E+02 -0.97044553496E+01  0.43400726542E+02  0.00000000000E+00 0.  1.
         11    1    3    3    0    0  0.63901824905E+01 -0.32824965407E+01 -0.12853829492E+00  0.71851052989E+01  0.51100000000E-03 0. -1.
        -11    1    3    3    0    0  0.22201302457E+02 -0.78660742485E+00 -0.12217714745E+01  0.22248804638E+02  0.51100000000E-03 0.  1.
        -12    1    3    3    0    0  0.11699537798E+02 -0.88181027444E+01  0.11054765119E+02  0.18353363521E+02  0.00000000000E+00 0.  1.
</event>
<event>
 7    1  0.2655656E-009  0.4778727E+02  0.7816164E-02  0.1312668E+00
        -11   -1    0    0    0    0  0.00000000000E+00  0.00000000000E+00  0.45593999997E+02  0.45594000000E+02  0.51100000000E-03 0. -1.
         11   -1    0    0    0    0 -0.00000000000E+00 -0.00000000000E+00 -0.45593999997E+02  0.45594000000E+02  0.51100000000E-03 0.  1.
    9900012    2    1    2    0    0  0.12989083198E+02 -0.30564874090E+02  0.27940931310E+02  0.47787268981E+02  0.19999990594E+02 0.  0.
        -12    1    1    2    0    0 -0.12989083198E+02  0.30564874090E+02 -0.27940931310E+02  0.43400731019E+02  0.00000000000E+00 0.  1.
         11    1    3    3    0    0  0.14514278941E+02 -0.13166578079E+02  0.14250445550E+02  0.24230110816E+02  0.51100000000E-03 0.  1.
        -11    1    3    3    0    0 -0.97537939649E+00 -0.78715444696E+01  0.14940706218E+01  0.80712343906E+01  0.51100000000E-03 0. -1.
         12    1    3    3    0    0 -0.54981634672E+00 -0.95267515414E+01  0.12196415138E+02  0.15485923775E+02  0.00000000000E+00 0. -1.
</event>
<event>
 7    1  0.2655656E-009  0.4778727E+02  0.7816164E-02  0.1312668E+00
        -11   -1    0    0    0    0  0.00000000000E+00  0.00000000000E+00  0.45593999997E+02  0.45594000000E+02  0.51100000000E-03 0. -1.
         11   -1    0    0    0    0 -0.00000000000E+00 -0.00000000000E+00 -0.45593999997E+02  0.45594000000E+02  0.51100000000E-03 0.  1.
    9900012    2    1    2    0    0  0.21350332547E+02 -0.38730978430E+01  0.37587039927E+02  0.47787272388E+02  0.20000006128E+02 0.  0.
        -12    1    1    2    0    0 -0.21350332547E+02  0.38730978430E+01 -0.37587039927E+02  0.43400727612E+02  0.00000000000E+00 0.  1.
         11    1    3    3    0    0  0.24495702810E+01  0.21817022130E-02  0.18587200142E+02  0.18747917450E+02  0.51100000000E-03 0. -1.
        -11    1    3    3    0    0  0.18153246293E+02 -0.27319738186E+01  0.20146471909E+02  0.27255905096E+02  0.51100000000E-03 0.  1.
        -12    1    3    3    0    0  0.74751597273E+00 -0.11433057266E+01 -0.11466321246E+01  0.17834498431E+01  0.00000000000E+00 0.  1.
</event>
<event>
 7    1  0.2655656E-009  0.4778727E+02  0.7816164E-02  0.1312668E+00
        -11   -1    0    0    0    0  0.00000000000E+00  0.00000000000E+00  0.45593999997E+02  0.45594000000E+02  0.51100000000E-03 0.  1.
         11   -1    0    0    0    0 -0.00000000000E+00 -0.00000000000E+00 -0.45593999997E+02  0.45594000000E+02  0.51100000000E-03 0. -1.
    9900012    2    1    2    0    0  0.41388901437E+02 -0.83919450883E+01 -0.10007863993E+02  0.47787271363E+02  0.20000001454E+02 0.  0.
        -12    1    1    2    0    0 -0.41388901437E+02  0.83919450883E+01  0.10007863993E+02  0.43400728637E+02  0.00000000000E+00 0.  1.
         11    1    3    3    0    0  0.27382234396E+02 -0.16458638629E+01 -0.82215344061E+01  0.28637200572E+02  0.51100000000E-03 0. -1.
        -11    1    3    3    0    0  0.55568188842E+01 -0.45890909191E+00  0.42498552915E+01  0.70107135104E+01  0.51100000000E-03 0.  1.
        -12    1    3    3    0    0  0.84498481568E+01 -0.62871721335E+01 -0.60361848780E+01  0.12139357281E+02  0.00000000000E+00 0.  1.
</event>
<event>
 7    1  0.2655656E-009  0.4778727E+02  0.7816164E-02  0.1312668E+00
        -11   -1    0    0    0    0  0.00000000000E+00  0.00000000000E+00  0.45593999997E+02  0.45594000000E+02  0.51100000000E-03 0.  1.
         11   -1    0    0    0    0 -0.00000000000E+00 -0.00000000000E+00 -0.45593999997E+02  0.45594000000E+02  0.51100000000E-03 0. -1.
    9900012    2    1    2    0    0 -0.39162046634E+02 -0.12465682083E+02 -0.13948631627E+02  0.47787269008E+02  0.19999990716E+02 0.  0.
        -12    1    1    2    0    0  0.39162046634E+02  0.12465682083E+02  0.13948631627E+02  0.43400730992E+02  0.00000000000E+00 0.  1.
         11    1    3    3    0    0 -0.22466657532E+02 -0.44250666153E+01 -0.13844581521E+02  0.26758257659E+02  0.51100000000E-03 0. -1.
        -11    1    3    3    0    0 -0.39825078495E+01  0.88299247954E+00  0.31570424918E+01  0.51581936806E+01  0.51100000000E-03 0.  1.
        -12    1    3    3    0    0 -0.12712881252E+02 -0.89236079472E+01 -0.32610925978E+01  0.15870817668E+02  0.00000000000E+00 0.  1.
</event>
<event>
 7    1  0.2655656E-009  0.4778727E+02  0.7816164E-02  0.1312668E+00
        -11   -1    0    0    0    0  0.00000000000E+00  0.00000000000E+00  0.45593999997E+02  0.45594000000E+02  0.51100000000E-03 0. -1.
         11   -1    0    0    0    0 -0.00000000000E+00 -0.00000000000E+00 -0.45593999997E+02  0.45594000000E+02  0.51100000000E-03 0.  1.
    9900012    2    1    2    0    0  0.55091382084E+01 -0.37708474543E+02  0.20768814913E+02  0.47787270409E+02  0.19999997105E+02 0.  0.
        -12    1    1    2    0    0 -0.55091382084E+01  0.37708474543E+02 -0.20768814913E+02  0.43400729591E+02  0.00000000000E+00 0.  1.
         11    1    3    3    0    0 -0.36448095577E+01 -0.10484449154E+02 -0.31199687948E+00  0.11104307862E+02  0.51100000000E-03 0. -1.
        -11    1    3    3    0    0  0.32002327067E+01 -0.53690996775E+01  0.91513881366E+01  0.11082266276E+02  0.51100000000E-03 0.  1.
         12    1    3    3    0    0  0.59537150595E+01 -0.21854925711E+02  0.11929423655E+02  0.25600696272E+02  0.00000000000E+00 0. -1.
</event>
<event>
 7    1  0.2655656E-009  0.4778727E+02  0.7816164E-02  0.1312668E+00
        -11   -1    0    0    0    0  0.00000000000E+00  0.00000000000E+00  0.45593999997E+02  0.45594000000E+02  0.51100000000E-03 0.  1.
         11   -1    0    0    0    0 -0.00000000000E+00 -0.00000000000E+00 -0.45593999997E+02  0.45594000000E+02  0.51100000000E-03 0. -1.
    9900012    2    1    2    0    0  0.42794369483E+02 -0.72113016482E+01  0.51254759007E+00  0.47787266873E+02  0.19999980980E+02 0.  0.
        -12    1    1    2    0    0 -0.42794369483E+02  0.72113016482E+01 -0.51254759007E+00  0.43400733127E+02  0.00000000000E+00 0.  1.
         11    1    3    3    0    0  0.38992339300E+02 -0.59098894455E+01 -0.67064101434E+00  0.39443365436E+02  0.51100000000E-03 0. -1.
        -11    1    3    3    0    0 -0.50214720021E+00 -0.19468588545E+01  0.30132941922E+01  0.36224788971E+01  0.51100000000E-03 0.  1.
        -12    1    3    3    0    0  0.43041773838E+01  0.64544665171E+00 -0.18301055878E+01  0.47214225392E+01  0.00000000000E+00 0.  1.
</event>
<event>
 7    1  0.2655656E-009  0.4778727E+02  0.7816164E-02  0.1312668E+00
        -11   -1    0    0    0    0  0.00000000000E+00  0.00000000000E+00  0.45593999997E+02  0.45594000000E+02  0.51100000000E-03 0.  1.
         11   -1    0    0    0    0 -0.00000000000E+00 -0.00000000000E+00 -0.45593999997E+02  0.45594000000E+02  0.51100000000E-03 0. -1.
    9900012    2    1    2    0    0  0.31031048299E+02 -0.23096724040E+01 -0.30254963349E+02  0.47787270140E+02  0.19999995874E+02 0.  0.
        -12    1    1    2    0    0 -0.31031048299E+02  0.23096724040E+01  0.30254963349E+02  0.43400729860E+02  0.00000000000E+00 0.  1.
         11    1    3    3    0    0  0.28725763627E+02 -0.31891115545E+01 -0.21923646201E+02  0.36276523972E+02  0.51100000000E-03 0. -1.
        -11    1    3    3    0    0 -0.74783662491E+00  0.27975593996E+01 -0.71538286703E+01  0.77176980452E+01  0.51100000000E-03 0.  1.
        -12    1    3    3    0    0  0.30531212966E+01 -0.19181202491E+01 -0.11774884777E+01  0.37930481221E+01  0.00000000000E+00 0.  1.
</event>
<event>
 7    1  0.2655656E-009  0.4778725E+02  0.7816164E-02  0.1312668E+00
        -11   -1    0    0    0    0  0.00000000000E+00  0.00000000000E+00  0.45593999997E+02  0.45594000000E+02  0.51100000000E-03 0.  1.
         11   -1    0    0    0    0 -0.00000000000E+00 -0.00000000000E+00 -0.45593999997E+02  0.45594000000E+02  0.51100000000E-03 0. -1.
    9900012    2    1    2    0    0  0.37135528631E+02 -0.14985852861E+02 -0.16733250389E+02  0.47787251836E+02  0.19999912419E+02 0.  0.
        -12    1    1    2    0    0 -0.37135528631E+02  0.14985852861E+02  0.16733250389E+02  0.43400748164E+02  0.00000000000E+00 0.  1.
         11    1    3    3    0    0  0.27900567311E+02 -0.10040302444E+02 -0.17118117264E+02  0.34238564053E+02  0.51100000000E-03 0. -1.
        -11    1    3    3    0    0 -0.35329968510E+00 -0.35493152223E+01  0.13446191926E+01  0.38118840812E+01  0.51100000000E-03 0.  1.
         12    1    3    3    0    0  0.95882610048E+01 -0.13962351944E+01 -0.95975231713E+00  0.97368037017E+01  0.00000000000E+00 0. -1.
</event>
<event>
 7    1  0.2655656E-009  0.4778728E+02  0.7816164E-02  0.1312668E+00
        -11   -1    0    0    0    0  0.00000000000E+00  0.00000000000E+00  0.45593999997E+02  0.45594000000E+02  0.51100000000E-03 0.  1.
         11   -1    0    0    0    0 -0.00000000000E+00 -0.00000000000E+00 -0.45593999997E+02  0.45594000000E+02  0.51100000000E-03 0. -1.
    9900012    2    1    2    0    0  0.80278749205E+01  0.27993530391E+02 -0.32179778399E+02  0.47787278148E+02  0.20000032386E+02 0.  0.
        -12    1    1    2    0    0 -0.80278749205E+01 -0.27993530391E+02  0.32179778399E+02  0.43400721852E+02  0.00000000000E+00 0.  1.
         11    1    3    3    0    0  0.83819509134E+01  0.77616431847E+01 -0.17797120257E+02  0.21147995076E+02  0.51100000000E-03 0. -1.
        -11    1    3    3    0    0  0.17685830752E+01 -0.23877370922E+00 -0.65704105790E+00  0.19017366251E+01  0.51100000000E-03 0.  1.
         12    1    3    3    0    0 -0.21226590682E+01  0.20470660916E+02 -0.13725617084E+02  0.24737546446E+02  0.00000000000E+00 0. -1.
</event>
<event>
 7    1  0.2655656E-009  0.4778727E+02  0.7816164E-02  0.1312668E+00
        -11   -1    0    0    0    0  0.00000000000E+00  0.00000000000E+00  0.45593999997E+02  0.45594000000E+02  0.51100000000E-03 0. -1.
         11   -1    0    0    0    0 -0.00000000000E+00 -0.00000000000E+00 -0.45593999997E+02  0.45594000000E+02  0.51100000000E-03 0.  1.
    9900012    2    1    2    0    0  0.41984317764E+02  0.35021251422E+01 -0.10424750468E+02  0.47787271424E+02  0.20000001729E+02 0.  0.
        -12    1    1    2    0    0 -0.41984317764E+02 -0.35021251422E+01  0.10424750468E+02  0.43400728576E+02  0.00000000000E+00 0.  1.
         11    1    3    3    0    0  0.16469975026E+02  0.92296539114E+01 -0.34231855616E+01  0.19187620706E+02  0.51100000000E-03 0. -1.
        -11    1    3    3    0    0  0.16088576774E+02 -0.79765708231E+01 -0.55878480263E+01  0.18806701745E+02  0.51100000000E-03 0.  1.
        -12    1    3    3    0    0  0.94257659639E+01  0.22490420539E+01 -0.14137168797E+01  0.97929489727E+01  0.00000000000E+00 0.  1.
</event>
<event>
 7    1  0.2655656E-009  0.4778727E+02  0.7816164E-02  0.1312668E+00
        -11   -1    0    0    0    0  0.00000000000E+00  0.00000000000E+00  0.45593999997E+02  0.45594000000E+02  0.51100000000E-03 0.  1.
         11   -1    0    0    0    0 -0.00000000000E+00 -0.00000000000E+00 -0.45593999997E+02  0.45594000000E+02  0.51100000000E-03 0. -1.
    9900012    2    1    2    0    0 -0.23504758197E+02 -0.51992789953E+01 -0.36112562259E+02  0.47787270595E+02  0.19999997950E+02 0.  0.
        -12    1    1    2    0    0  0.23504758197E+02  0.51992789953E+01  0.36112562259E+02  0.43400729405E+02  0.00000000000E+00 0.  1.
         11    1    3    3    0    0 -0.40857517066E+00 -0.89059986891E+00 -0.14006024227E+02  0.14040257003E+02  0.51100000000E-03 0. -1.
        -11    1    3    3    0    0 -0.16791880358E+02 -0.60424708428E+01 -0.20162149710E+02  0.26925656557E+02  0.51100000000E-03 0.  1.
        -12    1    3    3    0    0 -0.63043026677E+01  0.17337917164E+01 -0.19443883220E+01  0.68213570343E+01  0.00000000000E+00 0.  1.
</event>
<event>
 7    1  0.2655656E-009  0.4778729E+02  0.7816164E-02  0.1312668E+00
        -11   -1    0    0    0    0  0.00000000000E+00  0.00000000000E+00  0.45593999997E+02  0.45594000000E+02  0.51100000000E-03 0.  1.
         11   -1    0    0    0    0 -0.00000000000E+00 -0.00000000000E+00 -0.45593999997E+02  0.45594000000E+02  0.51100000000E-03 0. -1.
    9900012    2    1    2    0    0 -0.73838975438E+01  0.23002914993E+02 -0.36055030063E+02  0.47787294545E+02  0.20000107150E+02 0.  0.
        -12    1    1    2    0    0  0.73838975438E+01 -0.23002914993E+02  0.36055030063E+02  0.43400705455E+02  0.00000000000E+00 0.  1.
         11    1    3    3    0    0  0.47044139113E+01  0.12480398036E+02 -0.12513936906E+02  0.18289080418E+02  0.51100000000E-03 0. -1.
        -11    1    3    3    0    0 -0.11979174879E+02  0.73815478491E+01 -0.15877234467E+02  0.21214958261E+02  0.51100000000E-03 0.  1.
        -12    1    3    3    0    0 -0.10913657588E+00  0.31409691076E+01 -0.76638586903E+01  0.82832558666E+01  0.00000000000E+00 0.  1.
</event>
<event>
 7    1  0.2655656E-009  0.4778727E+02  0.7816164E-02  0.1312668E+00
        -11   -1    0    0    0    0  0.00000000000E+00  0.00000000000E+00  0.45593999997E+02  0.45594000000E+02  0.51100000000E-03 0.  1.
         11   -1    0    0    0    0 -0.00000000000E+00 -0.00000000000E+00 -0.45593999997E+02  0.45594000000E+02  0.51100000000E-03 0. -1.
    9900012    2    1    2    0    0 -0.93321270476E+01 -0.28217978726E+02 -0.31627209995E+02  0.47787270390E+02  0.19999997017E+02 0.  0.
        -12    1    1    2    0    0  0.93321270476E+01  0.28217978726E+02  0.31627209995E+02  0.43400729610E+02  0.00000000000E+00 0.  1.
         11    1    3    3    0    0 -0.49819433890E+01  0.82171328447E-01 -0.70071721314E+00  0.50316515114E+01  0.51100000000E-03 0. -1.
        -11    1    3    3    0    0 -0.57880872344E+01 -0.26769192562E+02 -0.29226999295E+02  0.40053827686E+02  0.51100000000E-03 0.  1.
        -12    1    3    3    0    0  0.14379035758E+01 -0.15309574923E+01 -0.16994934865E+01  0.27017911924E+01  0.00000000000E+00 0.  1.
</event>
<event>
 7    1  0.2655656E-009  0.4778727E+02  0.7816164E-02  0.1312668E+00
        -11   -1    0    0    0    0  0.00000000000E+00  0.00000000000E+00  0.45593999997E+02  0.45594000000E+02  0.51100000000E-03 0. -1.
         11   -1    0    0    0    0 -0.00000000000E+00 -0.00000000000E+00 -0.45593999997E+02  0.45594000000E+02  0.51100000000E-03 0.  1.
    9900012    2    1    2    0    0  0.29034555709E+02  0.30104131034E+02  0.11591346467E+02  0.47787269091E+02  0.19999991094E+02 0.  0.
        -12    1    1    2    0    0 -0.29034555709E+02 -0.30104131034E+02 -0.11591346467E+02  0.43400730909E+02  0.00000000000E+00 0.  1.
         11    1    3    3    0    0  0.21831689842E+02  0.16229486978E+02  0.13461484189E+02  0.30351778955E+02  0.51100000000E-03 0. -1.
        -11    1    3    3    0    0  0.49600049875E+00 -0.60409204455E+00  0.95136020119E+00  0.12312717761E+01  0.51100000000E-03 0.  1.
         12    1    3    3    0    0  0.67068653688E+01  0.14478736100E+02 -0.28214979231E+01  0.16204218360E+02  0.00000000000E+00 0. -1.
</event>
<event>
 7    1  0.2655656E-009  0.4778726E+02  0.7816164E-02  0.1312668E+00
        -11   -1    0    0    0    0  0.00000000000E+00  0.00000000000E+00  0.45593999997E+02  0.45594000000E+02  0.51100000000E-03 0.  1.
         11   -1    0    0    0    0 -0.00000000000E+00 -0.00000000000E+00 -0.45593999997E+02  0.45594000000E+02  0.51100000000E-03 0. -1.
    9900012    2    1    2    0    0  0.19272846493E+02 -0.38839337277E+02 -0.19203335653E+01  0.47787257920E+02  0.19999940162E+02 0.  0.
        -12    1    1    2    0    0 -0.19272846493E+02  0.38839337277E+02  0.19203335653E+01  0.43400742080E+02  0.00000000000E+00 0.  1.
         11    1    3    3    0    0  0.16801576810E+01 -0.11186085166E+02 -0.69352298856E+00  0.11332802194E+02  0.51100000000E-03 0. -1.
        -11    1    3    3    0    0 -0.52628588510E+00 -0.93081035659E+01  0.40011099914E+01  0.10145277239E+02  0.51100000000E-03 0.  1.
        -12    1    3    3    0    0  0.18118974697E+02 -0.18345148545E+02 -0.52279205681E+01  0.26309178487E+02  0.00000000000E+00 0.  1.
</event>
<event>
 7    1  0.2655656E-009  0.4778727E+02  0.7816164E-02  0.1312668E+00
        -11   -1    0    0    0    0  0.00000000000E+00  0.00000000000E+00  0.45593999997E+02  0.45594000000E+02  0.51100000000E-03 0.  1.
         11   -1    0    0    0    0 -0.00000000000E+00 -0.00000000000E+00 -0.45593999997E+02  0.45594000000E+02  0.51100000000E-03 0. -1.
    9900012    2    1    2    0    0 -0.37723865024E+02 -0.12161080536E+02 -0.17681669725E+02  0.47787270555E+02  0.19999997768E+02 0.  0.
        -12    1    1    2    0    0  0.37723865024E+02  0.12161080536E+02  0.17681669725E+02  0.43400729445E+02  0.00000000000E+00 0.  1.
         11    1    3    3    0    0 -0.14242354877E+02 -0.12872585961E+02 -0.98672411723E+01  0.21584962135E+02  0.51100000000E-03 0. -1.
        -11    1    3    3    0    0 -0.20111499326E-01 -0.89862179914E+00  0.75415480504E+00  0.11733180905E+01  0.51100000000E-03 0.  1.
         12    1    3    3    0    0 -0.23461398647E+02  0.16101272234E+01 -0.85685833573E+01  0.25028990329E+02  0.00000000000E+00 0. -1.
</event>
<event>
 7    1  0.2655656E-009  0.4778727E+02  0.7816164E-02  0.1312668E+00
        -11   -1    0    0    0    0  0.00000000000E+00  0.00000000000E+00  0.45593999997E+02  0.45594000000E+02  0.51100000000E-03 0. -1.
         11   -1    0    0    0    0 -0.00000000000E+00 -0.00000000000E+00 -0.45593999997E+02  0.45594000000E+02  0.51100000000E-03 0.  1.
    9900012    2    1    2    0    0 -0.32785549528E+02 -0.25383237284E+02  0.12822736722E+02  0.47787267634E+02  0.19999984450E+02 0.  0.
        -12    1    1    2    0    0  0.32785549528E+02  0.25383237284E+02 -0.12822736722E+02  0.43400732366E+02  0.00000000000E+00 0.  1.
         11    1    3    3    0    0 -0.22809705124E+02 -0.21136985424E+02  0.13006337513E+02  0.33707856895E+02  0.51100000000E-03 0. -1.
        -11    1    3    3    0    0 -0.87153357419E+01  0.48587215044E+00 -0.18190801589E+01  0.89164007159E+01  0.51100000000E-03 0.  1.
         12    1    3    3    0    0 -0.12605086615E+01 -0.47321240106E+01  0.16354793682E+01  0.51630100233E+01  0.00000000000E+00 0. -1.
</event>
<event>
 7    1  0.2655656E-009  0.4778727E+02  0.7816164E-02  0.1312668E+00
        -11   -1    0    0    0    0  0.00000000000E+00  0.00000000000E+00  0.45593999997E+02  0.45594000000E+02  0.51100000000E-03 0. -1.
         11   -1    0    0    0    0 -0.00000000000E+00 -0.00000000000E+00 -0.45593999997E+02  0.45594000000E+02  0.51100000000E-03 0.  1.
    9900012    2    1    2    0    0  0.71389068582E+01 -0.42323199903E+02 -0.64347654673E+01  0.47787269041E+02  0.19999990865E+02 0.  0.
        -12    1    1    2    0    0 -0.71389068582E+01  0.42323199903E+02  0.64347654673E+01  0.43400730959E+02  0.00000000000E+00 0.  1.
         11    1    3    3    0    0  0.82177719436E+01 -0.24831816375E+02  0.13179687635E+01  0.26189462043E+02  0.51100000000E-03 0. -1.
        -11    1    3    3    0    0 -0.13346185594E+01 -0.36165653189E+01 -0.66376783945E+01  0.76759055580E+01  0.51100000000E-03 0.  1.
        -12    1    3    3    0    0  0.25575347397E+00 -0.13874818209E+02 -0.11150558363E+01  0.13921901440E+02  0.00000000000E+00 0.  1.
</event>
<event>
 7    1  0.2655656E-009  0.4778727E+02  0.7816164E-02  0.1312668E+00
        -11   -1    0    0    0    0  0.00000000000E+00  0.00000000000E+00  0.45593999997E+02  0.45594000000E+02  0.51100000000E-03 0. -1.
         11   -1    0    0    0    0 -0.00000000000E+00 -0.00000000000E+00 -0.45593999997E+02  0.45594000000E+02  0.51100000000E-03 0.  1.
    9900012    2    1    2    0    0  0.43259625421E+02  0.10586935409E+01 -0.33327578902E+01  0.47787270758E+02  0.19999998695E+02 0.  0.
        -12    1    1    2    0    0 -0.43259625421E+02 -0.10586935409E+01  0.33327578902E+01  0.43400729242E+02  0.00000000000E+00 0.  1.
         11    1    3    3    0    0  0.13967034922E+02 -0.68144307297E+01  0.23765054518E+01  0.15721396538E+02  0.51100000000E-03 0. -1.
        -11    1    3    3    0    0  0.72790187428E+01  0.54365967316E+01  0.38945568562E+00  0.90935347292E+01  0.51100000000E-03 0.  1.
         12    1    3    3    0    0  0.22013571756E+02  0.24365275389E+01 -0.60987190276E+01  0.22972339491E+02  0.00000000000E+00 0. -1.
</event>
<event>
 7    1  0.2655656E-009  0.4778727E+02  0.7816164E-02  0.1312668E+00
        -11   -1    0    0    0    0  0.00000000000E+00  0.00000000000E+00  0.45593999997E+02  0.45594000000E+02  0.51100000000E-03 0.  1.
         11   -1    0    0    0    0 -0.00000000000E+00 -0.00000000000E+00 -0.45593999997E+02  0.45594000000E+02  0.51100000000E-03 0. -1.
    9900012    2    1    2    0    0 -0.16785024275E+02  0.98073980831E+01 -0.38803364794E+02  0.47787271707E+02  0.20000003019E+02 0.  0.
        -12    1    1    2    0    0  0.16785024275E+02 -0.98073980831E+01  0.38803364794E+02  0.43400728293E+02  0.00000000000E+00 0.  1.
         11    1    3    3    0    0 -0.36656879143E+01 -0.29141722239E+01 -0.17527013072E+02  0.18141826125E+02  0.51100000000E-03 0. -1.
        -11    1    3    3    0    0 -0.14505960082E+02  0.12225203202E+02 -0.20661324121E+02  0.28049399030E+02  0.51100000000E-03 0.  1.
        -12    1    3    3    0    0  0.13866237214E+01  0.49636710521E+00 -0.61502759991E+00  0.15960465521E+01  0.00000000000E+00 0.  1.
</event>
<event>
 7    1  0.2655656E-009  0.4778727E+02  0.7816164E-02  0.1312668E+00
        -11   -1    0    0    0    0  0.00000000000E+00  0.00000000000E+00  0.45593999997E+02  0.45594000000E+02  0.51100000000E-03 0.  1.
         11   -1    0    0    0    0 -0.00000000000E+00 -0.00000000000E+00 -0.45593999997E+02  0.45594000000E+02  0.51100000000E-03 0. -1.
    9900012    2    1    2    0    0  0.38984797121E+02  0.57507267565E+01 -0.18186199429E+02  0.47787272881E+02  0.20000008373E+02 0.  0.
        -12    1    1    2    0    0 -0.38984797121E+02 -0.57507267565E+01  0.18186199429E+02  0.43400727119E+02  0.00000000000E+00 0.  1.
         11    1    3    3    0    0  0.11965556683E+02  0.64393155562E+01 -0.99229669464E+01  0.16825712610E+02  0.51100000000E-03 0.  1.
        -11    1    3    3    0    0  0.23889472277E+02 -0.15429551378E+01 -0.21434597238E+01  0.24035016457E+02  0.51100000000E-03 0. -1.
        -12    1    3    3    0    0  0.31297681611E+01  0.85436633813E+00 -0.61197727592E+01  0.69265438139E+01  0.00000000000E+00 0.  1.
</event>
<event>
 7    1  0.2655656E-009  0.4778727E+02  0.7816164E-02  0.1312668E+00
        -11   -1    0    0    0    0  0.00000000000E+00  0.00000000000E+00  0.45593999997E+02  0.45594000000E+02  0.51100000000E-03 0. -1.
         11   -1    0    0    0    0 -0.00000000000E+00 -0.00000000000E+00 -0.45593999997E+02  0.45594000000E+02  0.51100000000E-03 0.  1.
    9900012    2    1    2    0    0 -0.27020912457E+01 -0.14015336120E+02  0.40986493767E+02  0.47787267115E+02  0.19999982084E+02 0.  0.
        -12    1    1    2    0    0  0.27020912457E+01  0.14015336120E+02 -0.40986493767E+02  0.43400732885E+02  0.00000000000E+00 0.  1.
         11    1    3    3    0    0  0.39239232113E+01 -0.31174370731E+01  0.16319700986E+02  0.17071854843E+02  0.51100000000E-03 0. -1.
        -11    1    3    3    0    0 -0.85597447613E+01 -0.17424790736E+01  0.96010305240E+01  0.12980186866E+02  0.51100000000E-03 0.  1.
        -12    1    3    3    0    0  0.19337303043E+01 -0.91554199735E+01  0.15065762257E+02  0.17735225405E+02  0.00000000000E+00 0.  1.
</event>
<event>
 7    1  0.2655656E-009  0.4778728E+02  0.7816164E-02  0.1312668E+00
        -11   -1    0    0    0    0  0.00000000000E+00  0.00000000000E+00  0.45593999997E+02  0.45594000000E+02  0.51100000000E-03 0.  1.
         11   -1    0    0    0    0 -0.00000000000E+00 -0.00000000000E+00 -0.45593999997E+02  0.45594000000E+02  0.51100000000E-03 0. -1.
    9900012    2    1    2    0    0  0.31015245007E+02 -0.25670765922E+02 -0.16207688035E+02  0.47787276535E+02  0.20000025033E+02 0.  0.
        -12    1    1    2    0    0 -0.31015245007E+02  0.25670765922E+02  0.16207688035E+02  0.43400723465E+02  0.00000000000E+00 0.  1.
         11    1    3    3    0    0  0.21654083496E+02 -0.23093685404E+02 -0.18570723135E+02  0.36702716461E+02  0.51100000000E-03 0. -1.
        -11    1    3    3    0    0  0.23944593209E+01 -0.68003725807E+00  0.29268901211E+01  0.38422092803E+01  0.51100000000E-03 0.  1.
         12    1    3    3    0    0  0.69667021903E+01 -0.18970432600E+01 -0.56385502066E+00  0.72423507939E+01  0.00000000000E+00 0. -1.
</event>
<event>
 7    1  0.2655656E-009  0.4778726E+02  0.7816164E-02  0.1312668E+00
        -11   -1    0    0    0    0  0.00000000000E+00  0.00000000000E+00  0.45593999997E+02  0.45594000000E+02  0.51100000000E-03 0.  1.
         11   -1    0    0    0    0 -0.00000000000E+00 -0.00000000000E+00 -0.45593999997E+02  0.45594000000E+02  0.51100000000E-03 0. -1.
    9900012    2    1    2    0    0 -0.33793066616E+02  0.22265529119E+02 -0.15681167312E+02  0.47787260991E+02  0.19999954162E+02 0.  0.
        -12    1    1    2    0    0  0.33793066616E+02 -0.22265529119E+02  0.15681167312E+02  0.43400739009E+02  0.00000000000E+00 0.  1.
         11    1    3    3    0    0 -0.20945004623E+02  0.14212341974E+02 -0.18513514341E+02  0.31359752814E+02  0.51100000000E-03 0. -1.
        -11    1    3    3    0    0 -0.87951260103E+01  0.76441986761E+01  0.35171834333E+00  0.11658118244E+02  0.51100000000E-03 0.  1.
         12    1    3    3    0    0 -0.40529359831E+01  0.40898846920E+00  0.24806286866E+01  0.47693899329E+01  0.00000000000E+00 0. -1.
</event>
<event>
 7    1  0.2655656E-009  0.4778727E+02  0.7816164E-02  0.1312668E+00
        -11   -1    0    0    0    0  0.00000000000E+00  0.00000000000E+00  0.45593999997E+02  0.45594000000E+02  0.51100000000E-03 0. -1.
         11   -1    0    0    0    0 -0.00000000000E+00 -0.00000000000E+00 -0.45593999997E+02  0.45594000000E+02  0.51100000000E-03 0.  1.
    9900012    2    1    2    0    0 -0.25073454258E+02 -0.47981259457E+01  0.35098759759E+02  0.47787273536E+02  0.20000011359E+02 0.  0.
        -12    1    1    2    0    0  0.25073454258E+02  0.47981259457E+01 -0.35098759759E+02  0.43400726464E+02  0.00000000000E+00 0.  1.
         11    1    3    3    0    0 -0.25085958251E+02 -0.66911928211E+01  0.22967090132E+02  0.34663591737E+02  0.51100000000E-03 0. -1.
        -11    1    3    3    0    0  0.41064091228E+00  0.17570034873E+01  0.11624306958E+01  0.21463766205E+01  0.51100000000E-03 0.  1.
         12    1    3    3    0    0 -0.39813691957E+00  0.13606338810E+00  0.10969238931E+02  0.10977305178E+02  0.00000000000E+00 0. -1.
</event>
<event>
 7    1  0.2655656E-009  0.4778727E+02  0.7816164E-02  0.1312668E+00
        -11   -1    0    0    0    0  0.00000000000E+00  0.00000000000E+00  0.45593999997E+02  0.45594000000E+02  0.51100000000E-03 0.  1.
         11   -1    0    0    0    0 -0.00000000000E+00 -0.00000000000E+00 -0.45593999997E+02  0.45594000000E+02  0.51100000000E-03 0. -1.
    9900012    2    1    2    0    0  0.39366851799E+02  0.94510722229E+01 -0.15638145676E+02  0.47787269743E+02  0.19999994064E+02 0.  0.
        -12    1    1    2    0    0 -0.39366851799E+02 -0.94510722229E+01  0.15638145676E+02  0.43400730257E+02  0.00000000000E+00 0.  1.
         11    1    3    3    0    0  0.23514858948E+02  0.25952123702E+01 -0.38164961214E+01  0.23963500611E+02  0.51100000000E-03 0.  1.
        -11    1    3    3    0    0 -0.29266505949E-01 -0.54443238912E+00 -0.49875950264E+01  0.50173068038E+01  0.51100000000E-03 0. -1.
         12    1    3    3    0    0  0.15881259356E+02  0.74002922418E+01 -0.68340545284E+01  0.18806462328E+02  0.00000000000E+00 0. -1.
</event>
<event>
 7    1  0.2655656E-009  0.4778727E+02  0.7816164E-02  0.1312668E+00
        -11   -1    0    0    0    0  0.00000000000E+00  0.00000000000E+00  0.45593999997E+02  0.45594000000E+02  0.51100000000E-03 0. -1.
         11   -1    0    0    0    0 -0.00000000000E+00 -0.00000000000E+00 -0.45593999997E+02  0.45594000000E+02  0.51100000000E-03 0.  1.
    9900012    2    1    2    0    0 -0.21687456575E+02 -0.31290796217E+02 -0.20836591928E+02  0.47787271160E+02  0.20000000529E+02 0.  0.
        -12    1    1    2    0    0  0.21687456575E+02  0.31290796217E+02  0.20836591928E+02  0.43400728840E+02  0.00000000000E+00 0.  1.
         11    1    3    3    0    0 -0.37581815410E+01 -0.17234190287E+02 -0.12965227995E+02  0.21891513894E+02  0.51100000000E-03 0. -1.
        -11    1    3    3    0    0  0.11289356527E+00 -0.16063228056E+01 -0.30527444370E+01  0.34514151839E+01  0.51100000000E-03 0.  1.
         12    1    3    3    0    0 -0.18042168600E+02 -0.12450283124E+02 -0.48186194958E+01  0.22444342082E+02  0.00000000000E+00 0. -1.
</event>
<event>
 7    1  0.2655656E-009  0.4778727E+02  0.7816164E-02  0.1312668E+00
        -11   -1    0    0    0    0  0.00000000000E+00  0.00000000000E+00  0.45593999997E+02  0.45594000000E+02  0.51100000000E-03 0. -1.
         11   -1    0    0    0    0 -0.00000000000E+00 -0.00000000000E+00 -0.45593999997E+02  0.45594000000E+02  0.51100000000E-03 0.  1.
    9900012    2    1    2    0    0  0.36664310575E+01  0.21450427895E+02  0.37550760281E+02  0.47787272226E+02  0.20000005389E+02 0.  0.
        -12    1    1    2    0    0 -0.36664310575E+01 -0.21450427895E+02 -0.37550760281E+02  0.43400727774E+02  0.00000000000E+00 0.  1.
         11    1    3    3    0    0 -0.67684804901E+00  0.21978317675E+02  0.20918188880E+02  0.30349220704E+02  0.51100000000E-03 0. -1.
        -11    1    3    3    0    0  0.38682098395E+01 -0.13139010061E+01  0.11061503801E+02  0.11791787388E+02  0.51100000000E-03 0.  1.
        -12    1    3    3    0    0  0.47506926703E+00  0.78601122660E+00  0.55710676008E+01  0.56462641339E+01  0.00000000000E+00 0.  1.
</event>
<event>
 7    1  0.2655656E-009  0.4778726E+02  0.7816164E-02  0.1312668E+00
        -11   -1    0    0    0    0  0.00000000000E+00  0.00000000000E+00  0.45593999997E+02  0.45594000000E+02  0.51100000000E-03 0. -1.
         11   -1    0    0    0    0 -0.00000000000E+00 -0.00000000000E+00 -0.45593999997E+02  0.45594000000E+02  0.51100000000E-03 0.  1.
    9900012    2    1    2    0    0 -0.30970831991E+02  0.22256790040E+02  0.20713925081E+02  0.47787264645E+02  0.19999970821E+02 0.  0.
        -12    1    1    2    0    0  0.30970831991E+02 -0.22256790040E+02 -0.20713925081E+02  0.43400735355E+02  0.00000000000E+00 0.  1.
         11    1    3    3    0    0 -0.21271628418E+02  0.13283353452E+02  0.98026287222E+01  0.26926217421E+02  0.51100000000E-03 0. -1.
        -11    1    3    3    0    0 -0.77512345059E+01  0.40017364483E+01  0.11161075567E-01  0.87232823982E+01  0.51100000000E-03 0.  1.
         12    1    3    3    0    0 -0.19479690672E+01  0.49717001393E+01  0.10900135283E+02  0.12137764825E+02  0.00000000000E+00 0. -1.
</event>
<event>
 7    1  0.2655656E-009  0.4778727E+02  0.7816164E-02  0.1312668E+00
        -11   -1    0    0    0    0  0.00000000000E+00  0.00000000000E+00  0.45593999997E+02  0.45594000000E+02  0.51100000000E-03 0.  1.
         11   -1    0    0    0    0 -0.00000000000E+00 -0.00000000000E+00 -0.45593999997E+02  0.45594000000E+02  0.51100000000E-03 0. -1.
    9900012    2    1    2    0    0 -0.11944849150E+01  0.34605989088E+02 -0.26165283943E+02  0.47787270066E+02  0.19999995539E+02 0.  0.
        -12    1    1    2    0    0  0.11944849150E+01 -0.34605989088E+02  0.26165283943E+02  0.43400729934E+02  0.00000000000E+00 0.  1.
         11    1    3    3    0    0  0.54111045055E+01  0.18762576339E+02 -0.16275587565E+02  0.25420642669E+02  0.51100000000E-03 0. -1.
        -11    1    3    3    0    0 -0.35215140843E+01 -0.38231185739E+00 -0.18942740229E+01  0.40169015593E+01  0.51100000000E-03 0.  1.
        -12    1    3    3    0    0 -0.30840753362E+01  0.16225724607E+02 -0.79954223545E+01  0.18349725838E+02  0.00000000000E+00 0.  1.
</event>
<event>
 7    1  0.2655656E-009  0.4778727E+02  0.7816164E-02  0.1312668E+00
        -11   -1    0    0    0    0  0.00000000000E+00  0.00000000000E+00  0.45593999997E+02  0.45594000000E+02  0.51100000000E-03 0.  1.
         11   -1    0    0    0    0 -0.00000000000E+00 -0.00000000000E+00 -0.45593999997E+02  0.45594000000E+02  0.51100000000E-03 0. -1.
    9900012    2    1    2    0    0 -0.15302419124E+02  0.16754101889E+02 -0.36996749149E+02  0.47787269491E+02  0.19999992916E+02 0.  0.
        -12    1    1    2    0    0  0.15302419124E+02 -0.16754101889E+02  0.36996749149E+02  0.43400730509E+02  0.00000000000E+00 0.  1.
         11    1    3    3    0    0 -0.43858112922E+01 -0.26488249599E+01 -0.21104383561E+01  0.55412602064E+01  0.51100000000E-03 0. -1.
        -11    1    3    3    0    0 -0.56452799374E+01  0.61992823276E+01 -0.69118597705E+01  0.10866190349E+02  0.51100000000E-03 0.  1.
         12    1    3    3    0    0 -0.52713278947E+01  0.13203644522E+02 -0.27974451022E+02  0.31379818935E+02  0.00000000000E+00 0. -1.
</event>
<event>
 7    1  0.2655656E-009  0.4778727E+02  0.7816164E-02  0.1312668E+00
        -11   -1    0    0    0    0  0.00000000000E+00  0.00000000000E+00  0.45593999997E+02  0.45594000000E+02  0.51100000000E-03 0.  1.
         11   -1    0    0    0    0 -0.00000000000E+00 -0.00000000000E+00 -0.45593999997E+02  0.45594000000E+02  0.51100000000E-03 0. -1.
    9900012    2    1    2    0    0  0.22336834077E+02 -0.21862002127E+02 -0.30112156190E+02  0.47787271388E+02  0.20000001568E+02 0.  0.
        -12    1    1    2    0    0 -0.22336834077E+02  0.21862002127E+02  0.30112156190E+02  0.43400728612E+02  0.00000000000E+00 0.  1.
         11    1    3    3    0    0  0.82647028634E+01 -0.18157204680E+01 -0.18334763734E+02  0.20193209643E+02  0.51100000000E-03 0. -1.
        -11    1    3    3    0    0  0.83284772964E+01 -0.15622620211E+02 -0.84560326647E+01  0.19619742226E+02  0.51100000000E-03 0.  1.
        -12    1    3    3    0    0  0.57436539176E+01 -0.44236614482E+01 -0.33213597914E+01  0.79743195193E+01  0.00000000000E+00 0.  1.
</event>
<event>
 7    1  0.2655656E-009  0.4778728E+02  0.7816164E-02  0.1312668E+00
        -11   -1    0    0    0    0  0.00000000000E+00  0.00000000000E+00  0.45593999997E+02  0.45594000000E+02  0.51100000000E-03 0. -1.
         11   -1    0    0    0    0 -0.00000000000E+00 -0.00000000000E+00 -0.45593999997E+02  0.45594000000E+02  0.51100000000E-03 0.  1.
    9900012    2    1    2    0    0  0.29342665063E+01  0.37732796338E+02  0.21242622114E+02  0.47787276115E+02  0.20000023121E+02 0.  0.
        -12    1    1    2    0    0 -0.29342665063E+01 -0.37732796338E+02 -0.21242622114E+02  0.43400723885E+02  0.00000000000E+00 0.  1.
         11    1    3    3    0    0  0.90368072921E+01  0.30082794274E+02  0.16716792650E+02  0.35582152185E+02  0.51100000000E-03 0. -1.
        -11    1    3    3    0    0 -0.55898260813E+00 -0.32422642085E+00  0.20968485919E+01  0.21941646717E+01  0.51100000000E-03 0.  1.
         12    1    3    3    0    0 -0.55435581776E+01  0.79742284853E+01  0.24289808720E+01  0.10010959259E+02  0.00000000000E+00 0. -1.
</event>
<event>
 7    1  0.2655656E-009  0.4778728E+02  0.7816164E-02  0.1312668E+00
        -11   -1    0    0    0    0  0.00000000000E+00  0.00000000000E+00  0.45593999997E+02  0.45594000000E+02  0.51100000000E-03 0.  1.
         11   -1    0    0    0    0 -0.00000000000E+00 -0.00000000000E+00 -0.45593999997E+02  0.45594000000E+02  0.51100000000E-03 0. -1.
    9900012    2    1    2    0    0 -0.40542696522E+02  0.76257559746E+01  0.13481858992E+02  0.47787275152E+02  0.20000018729E+02 0.  0.
        -12    1    1    2    0    0  0.40542696522E+02 -0.76257559746E+01 -0.13481858992E+02  0.43400724848E+02  0.00000000000E+00 0.  1.
         11    1    3    3    0    0 -0.29615673291E+00  0.28315958211E+01  0.39754699060E+01  0.48897857764E+01  0.51100000000E-03 0.  1.
        -11    1    3    3    0    0 -0.39403547680E+02  0.63593522534E+01  0.83522789808E+01  0.40777953545E+02  0.51100000000E-03 0. -1.
         12    1    3    3    0    0 -0.84299210858E+00 -0.15651920999E+01  0.11541101052E+01  0.21195358312E+01  0.00000000000E+00 0. -1.
</event>
<event>
 7    1  0.2655656E-009  0.4778727E+02  0.7816164E-02  0.1312668E+00
        -11   -1    0    0    0    0  0.00000000000E+00  0.00000000000E+00  0.45593999997E+02  0.45594000000E+02  0.51100000000E-03 0.  1.
         11   -1    0    0    0    0 -0.00000000000E+00 -0.00000000000E+00 -0.45593999997E+02  0.45594000000E+02  0.51100000000E-03 0. -1.
    9900012    2    1    2    0    0 -0.36185109639E+02 -0.82840404164E+01 -0.22486344243E+02  0.47787272326E+02  0.20000005845E+02 0.  0.
        -12    1    1    2    0    0  0.36185109639E+02  0.82840404164E+01  0.22486344243E+02  0.43400727674E+02  0.00000000000E+00 0.  1.
         11    1    3    3    0    0 -0.15333525337E+02  0.10570519742E+01 -0.14595033125E+02  0.21195503069E+02  0.51100000000E-03 0. -1.
        -11    1    3    3    0    0 -0.61449700889E+01 -0.32575046282E+01  0.27150395080E+01  0.74661525291E+01  0.51100000000E-03 0.  1.
        -12    1    3    3    0    0 -0.14706614213E+02 -0.60835877624E+01 -0.10606350625E+02  0.19125616729E+02  0.00000000000E+00 0.  1.
</event>
<event>
 7    1  0.2655656E-009  0.4778727E+02  0.7816164E-02  0.1312668E+00
        -11   -1    0    0    0    0  0.00000000000E+00  0.00000000000E+00  0.45593999997E+02  0.45594000000E+02  0.51100000000E-03 0.  1.
         11   -1    0    0    0    0 -0.00000000000E+00 -0.00000000000E+00 -0.45593999997E+02  0.45594000000E+02  0.51100000000E-03 0. -1.
    9900012    2    1    2    0    0  0.19491241310E+00  0.40597574944E+02 -0.15343471421E+02  0.47787271925E+02  0.20000004015E+02 0.  0.
        -12    1    1    2    0    0 -0.19491241310E+00 -0.40597574944E+02  0.15343471421E+02  0.43400728075E+02  0.00000000000E+00 0.  1.
         11    1    3    3    0    0  0.63476864655E+01  0.21137898528E+02 -0.32767870507E+01  0.22312355574E+02  0.51100000000E-03 0. -1.
        -11    1    3    3    0    0  0.10887982343E+01  0.10939947284E+02 -0.40488321840E+01  0.11715842714E+02  0.51100000000E-03 0.  1.
        -12    1    3    3    0    0 -0.72415722867E+01  0.85197291320E+01 -0.80178521865E+01  0.13759073637E+02  0.00000000000E+00 0.  1.
</event>
<event>
 7    1  0.2655656E-009  0.4778727E+02  0.7816164E-02  0.1312668E+00
        -11   -1    0    0    0    0  0.00000000000E+00  0.00000000000E+00  0.45593999997E+02  0.45594000000E+02  0.51100000000E-03 0.  1.
         11   -1    0    0    0    0 -0.00000000000E+00 -0.00000000000E+00 -0.45593999997E+02  0.45594000000E+02  0.51100000000E-03 0. -1.
    9900012    2    1    2    0    0  0.20440767070E+02 -0.19970475192E+02 -0.32664632942E+02  0.47787273243E+02  0.20000010024E+02 0.  0.
        -12    1    1    2    0    0 -0.20440767070E+02  0.19970475192E+02  0.32664632942E+02  0.43400726757E+02  0.00000000000E+00 0.  1.
         11    1    3    3    0    0  0.37600959610E+01 -0.90502502612E+00 -0.14461093239E+02  0.14969322291E+02  0.51100000000E-03 0.  1.
        -11    1    3    3    0    0  0.15876638846E+02 -0.16210956189E+02 -0.19164203100E+02  0.29700664005E+02  0.51100000000E-03 0. -1.
        -12    1    3    3    0    0  0.80403226265E+00 -0.28544939769E+01  0.96066339739E+00  0.31172869464E+01  0.00000000000E+00 0.  1.
</event>
<event>
 7    1  0.2655656E-009  0.4778726E+02  0.7816164E-02  0.1312668E+00
        -11   -1    0    0    0    0  0.00000000000E+00  0.00000000000E+00  0.45593999997E+02  0.45594000000E+02  0.51100000000E-03 0. -1.
         11   -1    0    0    0    0 -0.00000000000E+00 -0.00000000000E+00 -0.45593999997E+02  0.45594000000E+02  0.51100000000E-03 0.  1.
    9900012    2    1    2    0    0  0.52750762645E+01 -0.38357112794E+02 -0.19609432789E+02  0.47787258234E+02  0.19999941593E+02 0.  0.
        -12    1    1    2    0    0 -0.52750762645E+01  0.38357112794E+02  0.19609432789E+02  0.43400741766E+02  0.00000000000E+00 0.  1.
         11    1    3    3    0    0  0.11117647657E+01 -0.12707969979E+02 -0.85190529972E+01  0.15339582332E+02  0.51100000000E-03 0. -1.
        -11    1    3    3    0    0  0.26324501606E+01 -0.24118496189E+02 -0.34491108034E+01  0.24505673177E+02  0.51100000000E-03 0.  1.
        -12    1    3    3    0    0  0.15308613382E+01 -0.15306466260E+01 -0.76412689888E+01  0.79420027254E+01  0.00000000000E+00 0.  1.
</event>
<event>
 7    1  0.2655656E-009  0.4778727E+02  0.7816164E-02  0.1312668E+00
        -11   -1    0    0    0    0  0.00000000000E+00  0.00000000000E+00  0.45593999997E+02  0.45594000000E+02  0.51100000000E-03 0. -1.
         11   -1    0    0    0    0 -0.00000000000E+00 -0.00000000000E+00 -0.45593999997E+02  0.45594000000E+02  0.51100000000E-03 0.  1.
    9900012    2    1    2    0    0  0.41211225039E+02 -0.74133221775E+01  0.11414948546E+02  0.47787268840E+02  0.19999989951E+02 0.  0.
        -12    1    1    2    0    0 -0.41211225039E+02  0.74133221775E+01 -0.11414948546E+02  0.43400731160E+02  0.00000000000E+00 0.  1.
         11    1    3    3    0    0  0.31580393616E+02 -0.11126445742E+02  0.11421533434E+02  0.35377542058E+02  0.51100000000E-03 0. -1.
        -11    1    3    3    0    0  0.96262972119E+01  0.26150940484E+01 -0.19627541933E+01  0.10166450668E+02  0.51100000000E-03 0.  1.
        -12    1    3    3    0    0  0.45342106446E-02  0.10980295163E+01  0.19561693051E+01  0.22432761149E+01  0.00000000000E+00 0.  1.
</event>
<event>
 7    1  0.2655656E-009  0.4778727E+02  0.7816164E-02  0.1312668E+00
        -11   -1    0    0    0    0  0.00000000000E+00  0.00000000000E+00  0.45593999997E+02  0.45594000000E+02  0.51100000000E-03 0.  1.
         11   -1    0    0    0    0 -0.00000000000E+00 -0.00000000000E+00 -0.45593999997E+02  0.45594000000E+02  0.51100000000E-03 0. -1.
    9900012    2    1    2    0    0  0.29210150118E+02 -0.12232199350E+02 -0.29677662751E+02  0.47787271467E+02  0.20000001927E+02 0.  0.
        -12    1    1    2    0    0 -0.29210150118E+02  0.12232199350E+02  0.29677662751E+02  0.43400728533E+02  0.00000000000E+00 0.  1.
         11    1    3    3    0    0  0.23820870753E+02 -0.13608636330E+02 -0.20537187215E+02  0.34269591844E+02  0.51100000000E-03 0. -1.
        -11    1    3    3    0    0  0.30501664915E+01  0.43397329932E+01 -0.24662799209E+01  0.58497294799E+01  0.51100000000E-03 0.  1.
        -12    1    3    3    0    0  0.23391128738E+01 -0.29632960132E+01 -0.66741956147E+01  0.76679501433E+01  0.00000000000E+00 0.  1.
</event>
<event>
 7    1  0.2655656E-009  0.4778728E+02  0.7816164E-02  0.1312668E+00
        -11   -1    0    0    0    0  0.00000000000E+00  0.00000000000E+00  0.45593999997E+02  0.45594000000E+02  0.51100000000E-03 0.  1.
         11   -1    0    0    0    0 -0.00000000000E+00 -0.00000000000E+00 -0.45593999997E+02  0.45594000000E+02  0.51100000000E-03 0. -1.
    9900012    2    1    2    0    0 -0.25719098800E+01 -0.22205921342E+02 -0.37200876677E+02  0.47787275483E+02  0.20000020237E+02 0.  0.
        -12    1    1    2    0    0  0.25719098800E+01  0.22205921342E+02  0.37200876677E+02  0.43400724517E+02  0.00000000000E+00 0.  1.
         11    1    3    3    0    0 -0.17352810333E+01 -0.65977129600E+01 -0.20234816934E+02  0.21353895036E+02  0.51100000000E-03 0.  1.
        -11    1    3    3    0    0 -0.54790013791E+01 -0.98974786570E+01 -0.49627388793E+01  0.12353473897E+02  0.51100000000E-03 0. -1.
        -12    1    3    3    0    0  0.46423725324E+01 -0.57107297252E+01 -0.12003320863E+02  0.14079906550E+02  0.00000000000E+00 0.  1.
</event>
<event>
 7    1  0.2655656E-009  0.4778727E+02  0.7816164E-02  0.1312668E+00
        -11   -1    0    0    0    0  0.00000000000E+00  0.00000000000E+00  0.45593999997E+02  0.45594000000E+02  0.51100000000E-03 0. -1.
         11   -1    0    0    0    0 -0.00000000000E+00 -0.00000000000E+00 -0.45593999997E+02  0.45594000000E+02  0.51100000000E-03 0.  1.
    9900012    2    1    2    0    0 -0.18278980294E+02  0.15492250983E+02  0.36186907840E+02  0.47787271203E+02  0.20000000723E+02 0.  0.
        -12    1    1    2    0    0  0.18278980294E+02 -0.15492250983E+02 -0.36186907840E+02  0.43400728797E+02  0.00000000000E+00 0.  1.
         11    1    3    3    0    0 -0.12985788436E+02  0.70950264329E+01  0.78757077492E+01  0.16762961379E+02  0.51100000000E-03 0. -1.
        -11    1    3    3    0    0 -0.37853537863E+01 -0.19611696183E+00  0.63745386262E+01  0.74163406143E+01  0.51100000000E-03 0.  1.
         12    1    3    3    0    0 -0.15078380715E+01  0.85933415118E+01  0.21936661465E+02  0.23607969210E+02  0.00000000000E+00 0. -1.
</event>
<event>
 7    1  0.2655656E-009  0.4778727E+02  0.7816164E-02  0.1312668E+00
        -11   -1    0    0    0    0  0.00000000000E+00  0.00000000000E+00  0.45593999997E+02  0.45594000000E+02  0.51100000000E-03 0.  1.
         11   -1    0    0    0    0 -0.00000000000E+00 -0.00000000000E+00 -0.45593999997E+02  0.45594000000E+02  0.51100000000E-03 0. -1.
    9900012    2    1    2    0    0  0.30196453586E+02  0.27740544163E+02 -0.14221801143E+02  0.47787271580E+02  0.20000002442E+02 0.  0.
        -12    1    1    2    0    0 -0.30196453586E+02 -0.27740544163E+02  0.14221801143E+02  0.43400728420E+02  0.00000000000E+00 0.  1.
         11    1    3    3    0    0  0.63556054400E+01  0.54827505711E+01 -0.13969989088E+00  0.83948669230E+01  0.51100000000E-03 0. -1.
        -11    1    3    3    0    0  0.24742341402E+02  0.14788380466E+02 -0.13547343368E+02  0.31849806396E+02  0.51100000000E-03 0.  1.
        -12    1    3    3    0    0 -0.90149325613E+00  0.74694131253E+01 -0.53475788398E+00  0.75425982607E+01  0.00000000000E+00 0.  1.
</event>
<event>
 7    1  0.2655656E-009  0.4778727E+02  0.7816164E-02  0.1312668E+00
        -11   -1    0    0    0    0  0.00000000000E+00  0.00000000000E+00  0.45593999997E+02  0.45594000000E+02  0.51100000000E-03 0.  1.
         11   -1    0    0    0    0 -0.00000000000E+00 -0.00000000000E+00 -0.45593999997E+02  0.45594000000E+02  0.51100000000E-03 0. -1.
    9900012    2    1    2    0    0 -0.74232424202E+01 -0.90608380844E+01 -0.41790195798E+02  0.47787265218E+02  0.19999973434E+02 0.  0.
        -12    1    1    2    0    0  0.74232424202E+01  0.90608380844E+01  0.41790195798E+02  0.43400734782E+02  0.00000000000E+00 0.  1.
         11    1    3    3    0    0 -0.92577358916E+01 -0.12658589337E+01 -0.20492713888E+02  0.22522419840E+02  0.51100000000E-03 0. -1.
        -11    1    3    3    0    0  0.41871098193E+01 -0.37332281450E+01 -0.29731863873E+01  0.63489147558E+01  0.51100000000E-03 0.  1.
         12    1    3    3    0    0 -0.23526163478E+01 -0.40617510057E+01 -0.18324295522E+02  0.18915930622E+02  0.00000000000E+00 0. -1.
</event>
<event>
 7    1  0.2655656E-009  0.4778727E+02  0.7816164E-02  0.1312668E+00
        -11   -1    0    0    0    0  0.00000000000E+00  0.00000000000E+00  0.45593999997E+02  0.45594000000E+02  0.51100000000E-03 0.  1.
         11   -1    0    0    0    0 -0.00000000000E+00 -0.00000000000E+00 -0.45593999997E+02  0.45594000000E+02  0.51100000000E-03 0. -1.
    9900012    2    1    2    0    0 -0.25489020303E+02  0.22210642127E+02 -0.27214346619E+02  0.47787269113E+02  0.19999991192E+02 0.  0.
        -12    1    1    2    0    0  0.25489020303E+02 -0.22210642127E+02  0.27214346619E+02  0.43400730887E+02  0.00000000000E+00 0.  1.
         11    1    3    3    0    0 -0.15481406773E+01  0.68956627983E+01 -0.25059167024E+00  0.70717537734E+01  0.51100000000E-03 0. -1.
        -11    1    3    3    0    0 -0.15057114754E+02  0.34344058008E+01 -0.16238010129E+02  0.22409480609E+02  0.51100000000E-03 0.  1.
         12    1    3    3    0    0 -0.88837648708E+01  0.11880573528E+02 -0.10725744819E+02  0.18306034731E+02  0.00000000000E+00 0. -1.
</event>
<event>
 7    1  0.2655656E-009  0.4778728E+02  0.7816164E-02  0.1312668E+00
        -11   -1    0    0    0    0  0.00000000000E+00  0.00000000000E+00  0.45593999997E+02  0.45594000000E+02  0.51100000000E-03 0.  1.
         11   -1    0    0    0    0 -0.00000000000E+00 -0.00000000000E+00 -0.45593999997E+02  0.45594000000E+02  0.51100000000E-03 0. -1.
    9900012    2    1    2    0    0 -0.15072596665E+02  0.23550067049E+02 -0.33193883788E+02  0.47787277090E+02  0.20000027563E+02 0.  0.
        -12    1    1    2    0    0  0.15072596665E+02 -0.23550067049E+02  0.33193883788E+02  0.43400722910E+02  0.00000000000E+00 0.  1.
         11    1    3    3    0    0 -0.12227423978E+02  0.42239333381E+01 -0.12613098087E+02  0.18067699178E+02  0.51100000000E-03 0. -1.
        -11    1    3    3    0    0  0.31901483025E+01  0.56591681375E+01 -0.59879182608E+01  0.88350662454E+01  0.51100000000E-03 0.  1.
        -12    1    3    3    0    0 -0.60353209896E+01  0.13666965573E+02 -0.14592867440E+02  0.20884511666E+02  0.00000000000E+00 0.  1.
</event>
<event>
 7    1  0.2655656E-009  0.4778727E+02  0.7816164E-02  0.1312668E+00
        -11   -1    0    0    0    0  0.00000000000E+00  0.00000000000E+00  0.45593999997E+02  0.45594000000E+02  0.51100000000E-03 0. -1.
         11   -1    0    0    0    0 -0.00000000000E+00 -0.00000000000E+00 -0.45593999997E+02  0.45594000000E+02  0.51100000000E-03 0.  1.
    9900012    2    1    2    0    0 -0.25586100334E+02  0.34876232646E+02  0.35528976361E+01  0.47787271717E+02  0.20000003065E+02 0.  0.
        -12    1    1    2    0    0  0.25586100334E+02 -0.34876232646E+02 -0.35528976361E+01  0.43400728283E+02  0.00000000000E+00 0.  1.
         11    1    3    3    0    0 -0.63219723714E+01  0.21741928689E+02  0.36388555650E+01  0.22932947212E+02  0.51100000000E-03 0. -1.
        -11    1    3    3    0    0 -0.15465273208E+02  0.94133582723E+01 -0.36283531035E+01  0.18464856779E+02  0.51100000000E-03 0.  1.
         12    1    3    3    0    0 -0.37988547548E+01  0.37209456854E+01  0.35423951747E+01  0.63894677255E+01  0.00000000000E+00 0. -1.
</event>
<event>
 7    1  0.2655656E-009  0.4778725E+02  0.7816164E-02  0.1312668E+00
        -11   -1    0    0    0    0  0.00000000000E+00  0.00000000000E+00  0.45593999997E+02  0.45594000000E+02  0.51100000000E-03 0.  1.
         11   -1    0    0    0    0 -0.00000000000E+00 -0.00000000000E+00 -0.45593999997E+02  0.45594000000E+02  0.51100000000E-03 0. -1.
    9900012    2    1    2    0    0 -0.31278614753E+02 -0.13890909587E+02 -0.26689254165E+02  0.47787246574E+02  0.19999888431E+02 0.  0.
        -12    1    1    2    0    0  0.31278614753E+02  0.13890909587E+02  0.26689254165E+02  0.43400753426E+02  0.00000000000E+00 0.  1.
         11    1    3    3    0    0 -0.19506023468E+02 -0.84158522037E+01 -0.55590266997E+01  0.21959378360E+02  0.51100000000E-03 0. -1.
        -11    1    3    3    0    0  0.71072310720E+00 -0.11589027893E+01 -0.38144695523E+01  0.40494890094E+01  0.51100000000E-03 0.  1.
         12    1    3    3    0    0 -0.12483314392E+02 -0.43161545944E+01 -0.17315757913E+02  0.21778379205E+02  0.00000000000E+00 0. -1.
</event>
<event>
 7    1  0.2655656E-009  0.4778727E+02  0.7816164E-02  0.1312668E+00
        -11   -1    0    0    0    0  0.00000000000E+00  0.00000000000E+00  0.45593999997E+02  0.45594000000E+02  0.51100000000E-03 0.  1.
         11   -1    0    0    0    0 -0.00000000000E+00 -0.00000000000E+00 -0.45593999997E+02  0.45594000000E+02  0.51100000000E-03 0. -1.
    9900012    2    1    2    0    0  0.34469979799E+02  0.12836488424E+02 -0.23036246412E+02  0.47787267389E+02  0.19999983334E+02 0.  0.
        -12    1    1    2    0    0 -0.34469979799E+02 -0.12836488424E+02  0.23036246412E+02  0.43400732611E+02  0.00000000000E+00 0.  1.
         11    1    3    3    0    0  0.12250683328E+02 -0.69359606868E+00  0.43199454474E+00  0.12277904424E+02  0.51100000000E-03 0. -1.
        -11    1    3    3    0    0  0.79826356250E+01  0.81778566129E+01 -0.10580051097E+02  0.15573608823E+02  0.51100000000E-03 0.  1.
         12    1    3    3    0    0  0.14236660846E+02  0.53522278800E+01 -0.12888189860E+02  0.19935754142E+02  0.00000000000E+00 0. -1.
</event>
<event>
 7    1  0.2655656E-009  0.4778725E+02  0.7816164E-02  0.1312668E+00
        -11   -1    0    0    0    0  0.00000000000E+00  0.00000000000E+00  0.45593999997E+02  0.45594000000E+02  0.51100000000E-03 0. -1.
         11   -1    0    0    0    0 -0.00000000000E+00 -0.00000000000E+00 -0.45593999997E+02  0.45594000000E+02  0.51100000000E-03 0.  1.
    9900012    2    1    2    0    0  0.41256687859E+02 -0.19241025249E+01  0.13334496335E+02  0.47787248208E+02  0.19999895879E+02 0.  0.
        -12    1    1    2    0    0 -0.41256687859E+02  0.19241025249E+01 -0.13334496335E+02  0.43400751792E+02  0.00000000000E+00 0.  1.
         11    1    3    3    0    0  0.63914799246E+01  0.64111494125E+01  0.78716973399E+00  0.90869955908E+01  0.51100000000E-03 0.  1.
        -11    1    3    3    0    0  0.28698969736E+02 -0.80181234269E+01  0.75051136345E+01  0.30728616925E+02  0.51100000000E-03 0. -1.
         12    1    3    3    0    0  0.61662381977E+01 -0.31712851052E+00  0.50422129665E+01  0.79716356918E+01  0.00000000000E+00 0. -1.
</event>
<event>
 7    1  0.2655656E-009  0.4778727E+02  0.7816164E-02  0.1312668E+00
        -11   -1    0    0    0    0  0.00000000000E+00  0.00000000000E+00  0.45593999997E+02  0.45594000000E+02  0.51100000000E-03 0.  1.
         11   -1    0    0    0    0 -0.00000000000E+00 -0.00000000000E+00 -0.45593999997E+02  0.45594000000E+02  0.51100000000E-03 0. -1.
    9900012    2    1    2    0    0 -0.24309767626E+02 -0.18859935886E+01 -0.35904064208E+02  0.47787267282E+02  0.19999982844E+02 0.  0.
        -12    1    1    2    0    0  0.24309767626E+02  0.18859935886E+01  0.35904064208E+02  0.43400732718E+02  0.00000000000E+00 0.  1.
         11    1    3    3    0    0 -0.94744222818E+01 -0.81187636011E+00 -0.29221934919E+02  0.30730201781E+02  0.51100000000E-03 0. -1.
        -11    1    3    3    0    0 -0.12359009086E+02  0.53020956243E+00 -0.67766599251E+01  0.14104940545E+02  0.51100000000E-03 0.  1.
         12    1    3    3    0    0 -0.24763362580E+01 -0.16043267909E+01  0.94530636448E-01  0.29521249560E+01  0.00000000000E+00 0. -1.
</event>
<event>
 7    1  0.2655656E-009  0.4778727E+02  0.7816164E-02  0.1312668E+00
        -11   -1    0    0    0    0  0.00000000000E+00  0.00000000000E+00  0.45593999997E+02  0.45594000000E+02  0.51100000000E-03 0.  1.
         11   -1    0    0    0    0 -0.00000000000E+00 -0.00000000000E+00 -0.45593999997E+02  0.45594000000E+02  0.51100000000E-03 0. -1.
    9900012    2    1    2    0    0  0.29523171085E+02  0.55923493121E+01 -0.31316627795E+02  0.47787272147E+02  0.20000005026E+02 0.  0.
        -12    1    1    2    0    0 -0.29523171085E+02 -0.55923493121E+01  0.31316627795E+02  0.43400727853E+02  0.00000000000E+00 0.  1.
         11    1    3    3    0    0  0.56698836407E+01  0.69554562766E+00 -0.16859370184E+02  0.17800835022E+02  0.51100000000E-03 0. -1.
        -11    1    3    3    0    0  0.21560218218E+02  0.26809073622E+01 -0.15435272601E+02  0.26651039650E+02  0.51100000000E-03 0.  1.
        -12    1    3    3    0    0  0.22930692268E+01  0.22158963223E+01  0.97801499093E+00  0.33353974744E+01  0.00000000000E+00 0.  1.
</event>
<event>
 7    1  0.2655656E-009  0.4778727E+02  0.7816164E-02  0.1312668E+00
        -11   -1    0    0    0    0  0.00000000000E+00  0.00000000000E+00  0.45593999997E+02  0.45594000000E+02  0.51100000000E-03 0.  1.
         11   -1    0    0    0    0 -0.00000000000E+00 -0.00000000000E+00 -0.45593999997E+02  0.45594000000E+02  0.51100000000E-03 0. -1.
    9900012    2    1    2    0    0  0.13234190826E+02 -0.37430311953E+02 -0.17534282594E+02  0.47787272750E+02  0.20000007777E+02 0.  0.
        -12    1    1    2    0    0 -0.13234190826E+02  0.37430311953E+02  0.17534282594E+02  0.43400727250E+02  0.00000000000E+00 0.  1.
         11    1    3    3    0    0  0.94956064741E+01 -0.27068459096E+02 -0.15134409569E+02  0.32433291128E+02  0.51100000000E-03 0. -1.
        -11    1    3    3    0    0  0.41752334805E+01  0.28199279254E+00  0.73652899645E+00  0.42490669300E+01  0.51100000000E-03 0.  1.
        -12    1    3    3    0    0 -0.43664912832E+00 -0.10643845650E+02 -0.31364020213E+01  0.11104914692E+02  0.00000000000E+00 0.  1.
</event>
<event>
 7    1  0.2655656E-009  0.4778727E+02  0.7816164E-02  0.1312668E+00
        -11   -1    0    0    0    0  0.00000000000E+00  0.00000000000E+00  0.45593999997E+02  0.45594000000E+02  0.51100000000E-03 0.  1.
         11   -1    0    0    0    0 -0.00000000000E+00 -0.00000000000E+00 -0.45593999997E+02  0.45594000000E+02  0.51100000000E-03 0. -1.
    9900012    2    1    2    0    0 -0.30157138401E+02 -0.14280262809E+02 -0.27753273826E+02  0.47787272927E+02  0.20000008582E+02 0.  0.
        -12    1    1    2    0    0  0.30157138401E+02  0.14280262809E+02  0.27753273826E+02  0.43400727073E+02  0.00000000000E+00 0.  1.
         11    1    3    3    0    0 -0.65573961630E+01 -0.97043941833E+01 -0.23652878105E+01  0.11948610697E+02  0.51100000000E-03 0.  1.
        -11    1    3    3    0    0 -0.19909533398E+02 -0.66953560546E+01 -0.20384694475E+02  0.29270344753E+02  0.51100000000E-03 0. -1.
        -12    1    3    3    0    0 -0.36902088399E+01  0.21194874290E+01 -0.50032915402E+01  0.65683174772E+01  0.00000000000E+00 0.  1.
</event>
<event>
 7    1  0.2655656E-009  0.4778727E+02  0.7816164E-02  0.1312668E+00
        -11   -1    0    0    0    0  0.00000000000E+00  0.00000000000E+00  0.45593999997E+02  0.45594000000E+02  0.51100000000E-03 0.  1.
         11   -1    0    0    0    0 -0.00000000000E+00 -0.00000000000E+00 -0.45593999997E+02  0.45594000000E+02  0.51100000000E-03 0. -1.
    9900012    2    1    2    0    0 -0.19011719113E+02 -0.27603147827E+02 -0.27572520581E+02  0.47787272762E+02  0.20000007833E+02 0.  0.
        -12    1    1    2    0    0  0.19011719113E+02  0.27603147827E+02  0.27572520581E+02  0.43400727238E+02  0.00000000000E+00 0.  1.
         11    1    3    3    0    0 -0.79061098448E+01 -0.88731964810E+01 -0.11724731674E+01  0.11942147305E+02  0.51100000000E-03 0. -1.
        -11    1    3    3    0    0  0.32469885585E+00 -0.37545381503E+01 -0.47564943761E+00  0.37984508312E+01  0.51100000000E-03 0.  1.
         12    1    3    3    0    0 -0.11430308124E+02 -0.14975413195E+02 -0.25924397976E+02  0.32046674626E+02  0.00000000000E+00 0. -1.
</event>
<event>
 7    1  0.2655656E-009  0.4778729E+02  0.7816164E-02  0.1312668E+00
        -11   -1    0    0    0    0  0.00000000000E+00  0.00000000000E+00  0.45593999997E+02  0.45594000000E+02  0.51100000000E-03 0.  1.
         11   -1    0    0    0    0 -0.00000000000E+00 -0.00000000000E+00 -0.45593999997E+02  0.45594000000E+02  0.51100000000E-03 0. -1.
    9900012    2    1    2    0    0 -0.11009102517E+02 -0.35251668547E+02 -0.22797829902E+02  0.47787291229E+02  0.20000092029E+02 0.  0.
        -12    1    1    2    0    0  0.11009102517E+02  0.35251668547E+02  0.22797829902E+02  0.43400708771E+02  0.00000000000E+00 0.  1.
         11    1    3    3    0    0 -0.11797737880E+02 -0.33646158323E+02 -0.19752392754E+02  0.40760368114E+02  0.51100000000E-03 0. -1.
        -11    1    3    3    0    0  0.29541687546E+01 -0.15445017476E+01 -0.34782038759E+01  0.48177277987E+01  0.51100000000E-03 0.  1.
         12    1    3    3    0    0 -0.21655333919E+01 -0.61008476392E-01  0.43276672818E+00  0.22091953166E+01  0.00000000000E+00 0. -1.
</event>
<event>
 7    1  0.2655656E-009  0.4778727E+02  0.7816164E-02  0.1312668E+00
        -11   -1    0    0    0    0  0.00000000000E+00  0.00000000000E+00  0.45593999997E+02  0.45594000000E+02  0.51100000000E-03 0.  1.
         11   -1    0    0    0    0 -0.00000000000E+00 -0.00000000000E+00 -0.45593999997E+02  0.45594000000E+02  0.51100000000E-03 0. -1.
    9900012    2    1    2    0    0  0.30466530711E+01  0.42661094231E+02 -0.73737804933E+01  0.47787266196E+02  0.19999977894E+02 0.  0.
        -12    1    1    2    0    0 -0.30466530711E+01 -0.42661094231E+02  0.73737804933E+01  0.43400733804E+02  0.00000000000E+00 0.  1.
         11    1    3    3    0    0  0.52975630922E+01  0.30667330420E+02 -0.11010916404E+02  0.33011961622E+02  0.51100000000E-03 0. -1.
        -11    1    3    3    0    0 -0.90973134478E+00  0.10823058052E+01  0.35066552147E+01  0.37809559680E+01  0.51100000000E-03 0.  1.
        -12    1    3    3    0    0 -0.13411786764E+01  0.10911458006E+02  0.13048069614E+00  0.10994348606E+02  0.00000000000E+00 0.  1.
</event>
<event>
 7    1  0.2655656E-009  0.4778727E+02  0.7816164E-02  0.1312668E+00
        -11   -1    0    0    0    0  0.00000000000E+00  0.00000000000E+00  0.45593999997E+02  0.45594000000E+02  0.51100000000E-03 0.  1.
         11   -1    0    0    0    0 -0.00000000000E+00 -0.00000000000E+00 -0.45593999997E+02  0.45594000000E+02  0.51100000000E-03 0. -1.
    9900012    2    1    2    0    0 -0.97103289102E-02 -0.25777938274E+02 -0.34915914697E+02  0.47787270800E+02  0.19999998887E+02 0.  0.
        -12    1    1    2    0    0  0.97103289102E-02  0.25777938274E+02  0.34915914697E+02  0.43400729200E+02  0.00000000000E+00 0.  1.
         11    1    3    3    0    0  0.29314018112E+01 -0.17585878315E+02 -0.29005199138E+02  0.34046406712E+02  0.51100000000E-03 0. -1.
        -11    1    3    3    0    0  0.16563285634E-01 -0.17671686517E+01  0.23020704476E+01  0.29021867605E+01  0.51100000000E-03 0.  1.
         12    1    3    3    0    0 -0.29576754257E+01 -0.64248913067E+01 -0.82127860062E+01  0.10838677328E+02  0.00000000000E+00 0. -1.
</event>
<event>
 7    1  0.2655656E-009  0.4778727E+02  0.7816164E-02  0.1312668E+00
        -11   -1    0    0    0    0  0.00000000000E+00  0.00000000000E+00  0.45593999997E+02  0.45594000000E+02  0.51100000000E-03 0.  1.
         11   -1    0    0    0    0 -0.00000000000E+00 -0.00000000000E+00 -0.45593999997E+02  0.45594000000E+02  0.51100000000E-03 0. -1.
    9900012    2    1    2    0    0  0.32050151130E+01  0.38472878204E+02 -0.19828988602E+02  0.47787271111E+02  0.20000000302E+02 0.  0.
        -12    1    1    2    0    0 -0.32050151130E+01 -0.38472878204E+02  0.19828988602E+02  0.43400728889E+02  0.00000000000E+00 0.  1.
         11    1    3    3    0    0  0.62902116745E+01  0.30724535468E+02 -0.16717304864E+02  0.35539163254E+02  0.51100000000E-03 0. -1.
        -11    1    3    3    0    0  0.44470656201E+00  0.20596108621E+00  0.22770062530E+01  0.23291504100E+01  0.51100000000E-03 0.  1.
        -12    1    3    3    0    0 -0.35299031235E+01  0.75423816490E+01 -0.53886899912E+01  0.99189574463E+01  0.00000000000E+00 0.  1.
</event>
<event>
 7    1  0.2655656E-009  0.4778727E+02  0.7816164E-02  0.1312668E+00
        -11   -1    0    0    0    0  0.00000000000E+00  0.00000000000E+00  0.45593999997E+02  0.45594000000E+02  0.51100000000E-03 0. -1.
         11   -1    0    0    0    0 -0.00000000000E+00 -0.00000000000E+00 -0.45593999997E+02  0.45594000000E+02  0.51100000000E-03 0.  1.
    9900012    2    1    2    0    0 -0.37892239649E+02  0.20982747737E+02 -0.27433677440E+01  0.47787267348E+02  0.19999983145E+02 0.  0.
        -12    1    1    2    0    0  0.37892239649E+02 -0.20982747737E+02  0.27433677440E+01  0.43400732652E+02  0.00000000000E+00 0.  1.
         11    1    3    3    0    0 -0.34227151860E+02  0.17311360148E+02  0.20432929003E+01  0.38410365278E+02  0.51100000000E-03 0. -1.
        -11    1    3    3    0    0 -0.13069134227E+01  0.50796662496E+01 -0.25365923505E+01  0.58262623453E+01  0.51100000000E-03 0.  1.
         12    1    3    3    0    0 -0.23581743655E+01 -0.14082786612E+01 -0.22500682937E+01  0.35506397243E+01  0.00000000000E+00 0. -1.
</event>
<event>
 7    1  0.2655656E-009  0.4778727E+02  0.7816164E-02  0.1312668E+00
        -11   -1    0    0    0    0  0.00000000000E+00  0.00000000000E+00  0.45593999997E+02  0.45594000000E+02  0.51100000000E-03 0. -1.
         11   -1    0    0    0    0 -0.00000000000E+00 -0.00000000000E+00 -0.45593999997E+02  0.45594000000E+02  0.51100000000E-03 0.  1.
    9900012    2    1    2    0    0 -0.14335258856E+01 -0.37185325459E+02  0.22334285928E+02  0.47787265514E+02  0.19999974785E+02 0.  0.
        -12    1    1    2    0    0  0.14335258856E+01  0.37185325459E+02 -0.22334285928E+02  0.43400734486E+02  0.00000000000E+00 0.  1.
         11    1    3    3    0    0  0.78177661874E+01 -0.23536655602E+02  0.10511773168E+02  0.26936759279E+02  0.51100000000E-03 0. -1.
        -11    1    3    3    0    0 -0.45896466575E+01 -0.52232284375E+01  0.77035313634E+01  0.10377445133E+02  0.51100000000E-03 0.  1.
         12    1    3    3    0    0 -0.46616454156E+01 -0.84254414199E+01  0.41189813971E+01  0.10473061102E+02  0.00000000000E+00 0. -1.
</event>
<event>
 7    1  0.2655656E-009  0.4778726E+02  0.7816164E-02  0.1312668E+00
        -11   -1    0    0    0    0  0.00000000000E+00  0.00000000000E+00  0.45593999997E+02  0.45594000000E+02  0.51100000000E-03 0.  1.
         11   -1    0    0    0    0 -0.00000000000E+00 -0.00000000000E+00 -0.45593999997E+02  0.45594000000E+02  0.51100000000E-03 0. -1.
    9900012    2    1    2    0    0 -0.21256852005E+02 -0.37460406187E+02 -0.53374678468E+01  0.47787258626E+02  0.19999943377E+02 0.  0.
        -12    1    1    2    0    0  0.21256852005E+02  0.37460406187E+02  0.53374678468E+01  0.43400741374E+02  0.00000000000E+00 0.  1.
         11    1    3    3    0    0 -0.13926446470E+01  0.18655541747E+01 -0.82180368806E+00  0.24688282756E+01  0.51100000000E-03 0. -1.
        -11    1    3    3    0    0 -0.24956370244E+01 -0.70427651533E+01  0.27214232849E+01  0.79520368535E+01  0.51100000000E-03 0.  1.
         12    1    3    3    0    0 -0.17368570333E+02 -0.32283195208E+02 -0.72370874436E+01  0.37366393497E+02  0.00000000000E+00 0. -1.
</event>
<event>
 7    1  0.2655656E-009  0.4778727E+02  0.7816164E-02  0.1312668E+00
        -11   -1    0    0    0    0  0.00000000000E+00  0.00000000000E+00  0.45593999997E+02  0.45594000000E+02  0.51100000000E-03 0.  1.
         11   -1    0    0    0    0 -0.00000000000E+00 -0.00000000000E+00 -0.45593999997E+02  0.45594000000E+02  0.51100000000E-03 0. -1.
    9900012    2    1    2    0    0 -0.28022839413E+02 -0.28157894703E+02 -0.17477883913E+02  0.47787274327E+02  0.20000014968E+02 0.  0.
        -12    1    1    2    0    0  0.28022839413E+02  0.28157894703E+02  0.17477883913E+02  0.43400725673E+02  0.00000000000E+00 0.  1.
         11    1    3    3    0    0 -0.45864795460E+01 -0.58900299580E+01 -0.51028049249E+01  0.90425032980E+01  0.51100000000E-03 0. -1.
        -11    1    3    3    0    0 -0.15280353888E+02 -0.22976802207E+02 -0.13061879376E+02  0.30529253965E+02  0.51100000000E-03 0.  1.
        -12    1    3    3    0    0 -0.81560059792E+01  0.70893746234E+00  0.68680038785E+00  0.82155170642E+01  0.00000000000E+00 0.  1.
</event>
<event>
 7    1  0.2655656E-009  0.4778727E+02  0.7816164E-02  0.1312668E+00
        -11   -1    0    0    0    0  0.00000000000E+00  0.00000000000E+00  0.45593999997E+02  0.45594000000E+02  0.51100000000E-03 0.  1.
         11   -1    0    0    0    0 -0.00000000000E+00 -0.00000000000E+00 -0.45593999997E+02  0.45594000000E+02  0.51100000000E-03 0. -1.
    9900012    2    1    2    0    0 -0.11520354831E+02  0.92079153731E+01 -0.40818118675E+02  0.47787273127E+02  0.20000009494E+02 0.  0.
        -12    1    1    2    0    0  0.11520354831E+02 -0.92079153731E+01  0.40818118675E+02  0.43400726873E+02  0.00000000000E+00 0.  1.
         11    1    3    3    0    0 -0.72828111340E+01  0.19893447561E+01 -0.14245700516E+02  0.16122556063E+02  0.51100000000E-03 0. -1.
        -11    1    3    3    0    0  0.48710632851E+01 -0.47161794295E+00 -0.48714712820E+01  0.69051367636E+01  0.51100000000E-03 0.  1.
        -12    1    3    3    0    0 -0.91086069825E+01  0.76901885599E+01 -0.21700946877E+02  0.24759580300E+02  0.00000000000E+00 0.  1.
</event>
<event>
 7    1  0.2655656E-009  0.4778727E+02  0.7816164E-02  0.1312668E+00
        -11   -1    0    0    0    0  0.00000000000E+00  0.00000000000E+00  0.45593999997E+02  0.45594000000E+02  0.51100000000E-03 0.  1.
         11   -1    0    0    0    0 -0.00000000000E+00 -0.00000000000E+00 -0.45593999997E+02  0.45594000000E+02  0.51100000000E-03 0. -1.
    9900012    2    1    2    0    0 -0.15709428902E+02  0.30024834466E+02 -0.27117274786E+02  0.47787269212E+02  0.19999991645E+02 0.  0.
        -12    1    1    2    0    0  0.15709428902E+02 -0.30024834466E+02  0.27117274786E+02  0.43400730788E+02  0.00000000000E+00 0.  1.
         11    1    3    3    0    0 -0.17520099975E+02  0.20845364868E+02 -0.14330476184E+02  0.30770857765E+02  0.51100000000E-03 0. -1.
        -11    1    3    3    0    0  0.28335690842E+01  0.94441281407E+01 -0.12501594085E+02  0.15922013849E+02  0.51100000000E-03 0.  1.
         12    1    3    3    0    0 -0.10228980116E+01 -0.26465854326E+00 -0.28520451645E+00  0.10943975982E+01  0.00000000000E+00 0. -1.
</event>
<event>
 7    1  0.2655656E-009  0.4778728E+02  0.7816164E-02  0.1312668E+00
        -11   -1    0    0    0    0  0.00000000000E+00  0.00000000000E+00  0.45593999997E+02  0.45594000000E+02  0.51100000000E-03 0.  1.
         11   -1    0    0    0    0 -0.00000000000E+00 -0.00000000000E+00 -0.45593999997E+02  0.45594000000E+02  0.51100000000E-03 0. -1.
    9900012    2    1    2    0    0 -0.20925961146E+02  0.28455704110E+02 -0.25219038122E+02  0.47787276157E+02  0.20000023311E+02 0.  0.
        -12    1    1    2    0    0  0.20925961146E+02 -0.28455704110E+02  0.25219038122E+02  0.43400723843E+02  0.00000000000E+00 0.  1.
         11    1    3    3    0    0 -0.81449032323E+01  0.26193232096E+02 -0.16128264524E+02  0.31820524400E+02  0.51100000000E-03 0. -1.
        -11    1    3    3    0    0 -0.10719425569E+02  0.24775351290E+01 -0.81421312171E+01  0.13687167927E+02  0.51100000000E-03 0.  1.
         12    1    3    3    0    0 -0.20616323446E+01 -0.21506311549E+00 -0.94864238166E+00  0.22795838296E+01  0.00000000000E+00 0. -1.
</event>
<event>
 7    1  0.2655656E-009  0.4778727E+02  0.7816164E-02  0.1312668E+00
        -11   -1    0    0    0    0  0.00000000000E+00  0.00000000000E+00  0.45593999997E+02  0.45594000000E+02  0.51100000000E-03 0.  1.
         11   -1    0    0    0    0 -0.00000000000E+00 -0.00000000000E+00 -0.45593999997E+02  0.45594000000E+02  0.51100000000E-03 0. -1.
    9900012    2    1    2    0    0  0.13699576941E+02 -0.93498243762E+01 -0.40106427394E+02  0.47787272557E+02  0.20000006898E+02 0.  0.
        -12    1    1    2    0    0 -0.13699576941E+02  0.93498243762E+01  0.40106427394E+02  0.43400727443E+02  0.00000000000E+00 0.  1.
         11    1    3    3    0    0  0.12884319619E+02 -0.49798941710E+01 -0.37091811949E+02  0.39580393529E+02  0.51100000000E-03 0. -1.
        -11    1    3    3    0    0  0.14334120269E+01 -0.61070966288E+00  0.15929733993E+01  0.22282730630E+01  0.51100000000E-03 0.  1.
        -12    1    3    3    0    0 -0.61815470515E+00 -0.37592205423E+01 -0.46075888446E+01  0.59786059651E+01  0.00000000000E+00 0.  1.
</event>
<event>
 7    1  0.2655656E-009  0.4778727E+02  0.7816164E-02  0.1312668E+00
        -11   -1    0    0    0    0  0.00000000000E+00  0.00000000000E+00  0.45593999997E+02  0.45594000000E+02  0.51100000000E-03 0. -1.
         11   -1    0    0    0    0 -0.00000000000E+00 -0.00000000000E+00 -0.45593999997E+02  0.45594000000E+02  0.51100000000E-03 0.  1.
    9900012    2    1    2    0    0 -0.57757088804E+01  0.35620638867E+02  0.24112953923E+02  0.47787271051E+02  0.20000000031E+02 0.  0.
        -12    1    1    2    0    0  0.57757088804E+01 -0.35620638867E+02 -0.24112953923E+02  0.43400728949E+02  0.00000000000E+00 0.  1.
         11    1    3    3    0    0 -0.50948712951E+00 -0.19144313541E+01 -0.36305026618E-01  0.19813992179E+01  0.51100000000E-03 0.  1.
        -11    1    3    3    0    0 -0.92183477873E+00  0.26141380678E+02  0.12693132994E+02  0.29074682949E+02  0.51100000000E-03 0. -1.
        -12    1    3    3    0    0 -0.43443869721E+01  0.11393689543E+02  0.11456125955E+02  0.16731188884E+02  0.00000000000E+00 0.  1.
</event>
<event>
 7    1  0.2655656E-009  0.4778727E+02  0.7816164E-02  0.1312668E+00
        -11   -1    0    0    0    0  0.00000000000E+00  0.00000000000E+00  0.45593999997E+02  0.45594000000E+02  0.51100000000E-03 0. -1.
         11   -1    0    0    0    0 -0.00000000000E+00 -0.00000000000E+00 -0.45593999997E+02  0.45594000000E+02  0.51100000000E-03 0.  1.
    9900012    2    1    2    0    0  0.21699314430E+02 -0.36950320016E+02  0.68874189058E+01  0.47787274946E+02  0.20000017789E+02 0.  0.
        -12    1    1    2    0    0 -0.21699314430E+02  0.36950320016E+02 -0.68874189058E+01  0.43400725054E+02  0.00000000000E+00 0.  1.
         11    1    3    3    0    0  0.41528815091E+01 -0.32702184707E+01  0.11936197607E+01  0.54189927172E+01  0.51100000000E-03 0.  1.
        -11    1    3    3    0    0  0.16545831793E+02 -0.20143958711E+02  0.10308352994E+02  0.28032227239E+02  0.51100000000E-03 0. -1.
        -12    1    3    3    0    0  0.10006011284E+01 -0.13536142835E+02 -0.46145538488E+01  0.14336054990E+02  0.00000000000E+00 0.  1.
</event>
<event>
 7    1  0.2655656E-009  0.4778727E+02  0.7816164E-02  0.1312668E+00
        -11   -1    0    0    0    0  0.00000000000E+00  0.00000000000E+00  0.45593999997E+02  0.45594000000E+02  0.51100000000E-03 0. -1.
         11   -1    0    0    0    0 -0.00000000000E+00 -0.00000000000E+00 -0.45593999997E+02  0.45594000000E+02  0.51100000000E-03 0.  1.
    9900012    2    1    2    0    0 -0.74589282909E+00 -0.43291236035E+02 -0.29892905971E+01  0.47787270377E+02  0.19999996956E+02 0.  0.
        -12    1    1    2    0    0  0.74589282909E+00  0.43291236035E+02  0.29892905971E+01  0.43400729623E+02  0.00000000000E+00 0.  1.
         11    1    3    3    0    0 -0.14120977099E+01  0.51584360917E+00 -0.18651089892E+00  0.15148931144E+01  0.51100000000E-03 0. -1.
        -11    1    3    3    0    0  0.30840788547E+01 -0.42869060992E+02 -0.78599034504E+00  0.42987041231E+02  0.51100000000E-03 0.  1.
        -12    1    3    3    0    0 -0.24178739739E+01 -0.93801865255E+00 -0.20167893531E+01  0.32853360317E+01  0.00000000000E+00 0.  1.
</event>
<event>
 7    1  0.2655656E-009  0.4778727E+02  0.7816164E-02  0.1312668E+00
        -11   -1    0    0    0    0  0.00000000000E+00  0.00000000000E+00  0.45593999997E+02  0.45594000000E+02  0.51100000000E-03 0. -1.
         11   -1    0    0    0    0 -0.00000000000E+00 -0.00000000000E+00 -0.45593999997E+02  0.45594000000E+02  0.51100000000E-03 0.  1.
    9900012    2    1    2    0    0 -0.13074936707E+02 -0.41367950434E+02  0.11669350980E+01  0.47787273848E+02  0.20000012783E+02 0.  0.
        -12    1    1    2    0    0  0.13074936707E+02  0.41367950434E+02 -0.11669350980E+01  0.43400726152E+02  0.00000000000E+00 0.  1.
         11    1    3    3    0    0 -0.10353823589E+02 -0.31669724063E+02 -0.75392363264E+01  0.34161574463E+02  0.51100000000E-03 0. -1.
        -11    1    3    3    0    0 -0.29061935650E+01 -0.90442382299E+01  0.70331067111E+01  0.11819847565E+02  0.51100000000E-03 0.  1.
        -12    1    3    3    0    0  0.18508044690E+00 -0.65398814043E+00  0.16730647132E+01  0.18058518196E+01  0.00000000000E+00 0.  1.
</event>
<event>
 7    1  0.2655656E-009  0.4778727E+02  0.7816164E-02  0.1312668E+00
        -11   -1    0    0    0    0  0.00000000000E+00  0.00000000000E+00  0.45593999997E+02  0.45594000000E+02  0.51100000000E-03 0.  1.
         11   -1    0    0    0    0 -0.00000000000E+00 -0.00000000000E+00 -0.45593999997E+02  0.45594000000E+02  0.51100000000E-03 0. -1.
    9900012    2    1    2    0    0 -0.22613678918E+02  0.22225626080E+02 -0.29635561124E+02  0.47787269453E+02  0.19999992746E+02 0.  0.
        -12    1    1    2    0    0  0.22613678918E+02 -0.22225626080E+02  0.29635561124E+02  0.43400730547E+02  0.00000000000E+00 0.  1.
         11    1    3    3    0    0 -0.64167637005E+01  0.68953601071E+01 -0.51853284708E+01  0.10752138346E+02  0.51100000000E-03 0. -1.
        -11    1    3    3    0    0 -0.15577554755E+02  0.15054127498E+02 -0.12390187575E+02  0.24956035649E+02  0.51100000000E-03 0.  1.
        -12    1    3    3    0    0 -0.61936046264E+00  0.27613847498E+00 -0.12060045077E+02  0.12079095459E+02  0.00000000000E+00 0.  1.
</event>
<event>
 7    1  0.2655656E-009  0.4778729E+02  0.7816164E-02  0.1312668E+00
        -11   -1    0    0    0    0  0.00000000000E+00  0.00000000000E+00  0.45593999997E+02  0.45594000000E+02  0.51100000000E-03 0.  1.
         11   -1    0    0    0    0 -0.00000000000E+00 -0.00000000000E+00 -0.45593999997E+02  0.45594000000E+02  0.51100000000E-03 0. -1.
    9900012    2    1    2    0    0  0.13103035284E+01 -0.12281782021E+02 -0.41606041436E+02  0.47787288612E+02  0.20000080099E+02 0.  0.
        -12    1    1    2    0    0 -0.13103035284E+01  0.12281782021E+02  0.41606041436E+02  0.43400711388E+02  0.00000000000E+00 0.  1.
         11    1    3    3    0    0 -0.10716188234E+01 -0.12365475671E+02 -0.34548864979E+02  0.36710726322E+02  0.51100000000E-03 0. -1.
        -11    1    3    3    0    0  0.21871824119E+01  0.36883902458E+01 -0.58840056672E+01  0.72807631785E+01  0.51100000000E-03 0.  1.
         12    1    3    3    0    0  0.19473993985E+00 -0.36046965966E+01 -0.11731707902E+01  0.37957991123E+01  0.00000000000E+00 0. -1.
</event>
<event>
 7    1  0.2655656E-009  0.4778727E+02  0.7816164E-02  0.1312668E+00
        -11   -1    0    0    0    0  0.00000000000E+00  0.00000000000E+00  0.45593999997E+02  0.45594000000E+02  0.51100000000E-03 0.  1.
         11   -1    0    0    0    0 -0.00000000000E+00 -0.00000000000E+00 -0.45593999997E+02  0.45594000000E+02  0.51100000000E-03 0. -1.
    9900012    2    1    2    0    0  0.18421534806E+02  0.24198267256E+02 -0.30963113586E+02  0.47787268604E+02  0.19999988871E+02 0.  0.
        -12    1    1    2    0    0 -0.18421534806E+02 -0.24198267256E+02  0.30963113586E+02  0.43400731396E+02  0.00000000000E+00 0.  1.
         11    1    3    3    0    0  0.15330147481E+02  0.19557331122E+02 -0.28479310183E+02  0.37796477761E+02  0.51100000000E-03 0. -1.
        -11    1    3    3    0    0  0.52299773375E+01  0.82087334296E+00 -0.11969803541E+01  0.54276383654E+01  0.51100000000E-03 0.  1.
         12    1    3    3    0    0 -0.21385900126E+01  0.38200627908E+01 -0.12868230492E+01  0.45631524769E+01  0.00000000000E+00 0. -1.
</event>
<event>
 7    1  0.2655656E-009  0.4778727E+02  0.7816164E-02  0.1312668E+00
        -11   -1    0    0    0    0  0.00000000000E+00  0.00000000000E+00  0.45593999997E+02  0.45594000000E+02  0.51100000000E-03 0.  1.
         11   -1    0    0    0    0 -0.00000000000E+00 -0.00000000000E+00 -0.45593999997E+02  0.45594000000E+02  0.51100000000E-03 0. -1.
    9900012    2    1    2    0    0 -0.64736449235E+01 -0.10721625304E+02 -0.41554326669E+02  0.47787269676E+02  0.19999993760E+02 0.  0.
        -12    1    1    2    0    0  0.64736449235E+01  0.10721625304E+02  0.41554326669E+02  0.43400730324E+02  0.00000000000E+00 0.  1.
         11    1    3    3    0    0 -0.23948567867E+01 -0.15277521767E+01 -0.10765132373E+02  0.11133617606E+02  0.51100000000E-03 0.  1.
        -11    1    3    3    0    0 -0.77680757357E+01 -0.96324872740E+00 -0.24334221219E+02  0.25562182445E+02  0.51100000000E-03 0. -1.
        -12    1    3    3    0    0  0.36892875988E+01 -0.82306244002E+01 -0.64549730772E+01  0.11091469625E+02  0.00000000000E+00 0.  1.
</event>
<event>
 7    1  0.2655656E-009  0.4778723E+02  0.7816164E-02  0.1312668E+00
        -11   -1    0    0    0    0  0.00000000000E+00  0.00000000000E+00  0.45593999997E+02  0.45594000000E+02  0.51100000000E-03 0.  1.
         11   -1    0    0    0    0 -0.00000000000E+00 -0.00000000000E+00 -0.45593999997E+02  0.45594000000E+02  0.51100000000E-03 0. -1.
    9900012    2    1    2    0    0 -0.14153098928E+02  0.29122888532E+01 -0.40924752823E+02  0.47787227781E+02  0.19999802742E+02 0.  0.
        -12    1    1    2    0    0  0.14153098928E+02 -0.29122888532E+01  0.40924752823E+02  0.43400772219E+02  0.00000000000E+00 0.  1.
         11    1    3    3    0    0 -0.74717373036E+01 -0.73429729976E+01 -0.23462180318E+02  0.25694746862E+02  0.51100000000E-03 0. -1.
        -11    1    3    3    0    0 -0.68537901225E+01  0.74353563733E+01 -0.15956416915E+02  0.18890902691E+02  0.51100000000E-03 0.  1.
         12    1    3    3    0    0  0.17242849830E+00  0.28199054775E+01 -0.15061555900E+01  0.32015782280E+01  0.00000000000E+00 0. -1.
</event>
<event>
 7    1  0.2655656E-009  0.4778727E+02  0.7816164E-02  0.1312668E+00
        -11   -1    0    0    0    0  0.00000000000E+00  0.00000000000E+00  0.45593999997E+02  0.45594000000E+02  0.51100000000E-03 0.  1.
         11   -1    0    0    0    0 -0.00000000000E+00 -0.00000000000E+00 -0.45593999997E+02  0.45594000000E+02  0.51100000000E-03 0. -1.
    9900012    2    1    2    0    0  0.18637741780E+02  0.47524114846E+00 -0.39192243754E+02  0.47787271397E+02  0.20000001607E+02 0.  0.
        -12    1    1    2    0    0 -0.18637741780E+02 -0.47524114846E+00  0.39192243754E+02  0.43400728603E+02  0.00000000000E+00 0.  1.
         11    1    3    3    0    0 -0.26916202623E+01  0.64229702716E+00 -0.27557498141E+01  0.39053197573E+01  0.51100000000E-03 0. -1.
        -11    1    3    3    0    0  0.14139050364E+02 -0.56261787071E+01 -0.20020684484E+02  0.25147453936E+02  0.51100000000E-03 0.  1.
         12    1    3    3    0    0  0.71903116791E+01  0.54591228285E+01 -0.16415809456E+02  0.18734497703E+02  0.00000000000E+00 0. -1.
</event>
<event>
 7    1  0.2655656E-009  0.4778727E+02  0.7816164E-02  0.1312668E+00
        -11   -1    0    0    0    0  0.00000000000E+00  0.00000000000E+00  0.45593999997E+02  0.45594000000E+02  0.51100000000E-03 0. -1.
         11   -1    0    0    0    0 -0.00000000000E+00 -0.00000000000E+00 -0.45593999997E+02  0.45594000000E+02  0.51100000000E-03 0.  1.
    9900012    2    1    2    0    0  0.30892709644E+01 -0.85203582088E+01  0.42443881439E+02  0.47787272233E+02  0.20000005417E+02 0.  0.
        -12    1    1    2    0    0 -0.30892709644E+01  0.85203582088E+01 -0.42443881439E+02  0.43400727767E+02  0.00000000000E+00 0.  1.
         11    1    3    3    0    0 -0.16121198553E+01 -0.55649501154E+01  0.34239146254E+02  0.34725879927E+02  0.51100000000E-03 0. -1.
        -11    1    3    3    0    0  0.43821493559E+00 -0.15088454677E+00  0.79379631913E+01  0.79514815200E+01  0.51100000000E-03 0.  1.
         12    1    3    3    0    0  0.42631758841E+01 -0.28045235466E+01  0.26677199403E+00  0.51099107858E+01  0.00000000000E+00 0. -1.
</event>
<event>
 7    1  0.2655656E-009  0.4778727E+02  0.7816164E-02  0.1312668E+00
        -11   -1    0    0    0    0  0.00000000000E+00  0.00000000000E+00  0.45593999997E+02  0.45594000000E+02  0.51100000000E-03 0.  1.
         11   -1    0    0    0    0 -0.00000000000E+00 -0.00000000000E+00 -0.45593999997E+02  0.45594000000E+02  0.51100000000E-03 0. -1.
    9900012    2    1    2    0    0  0.27128587344E+02  0.32261451094E+02 -0.10337391414E+02  0.47787272595E+02  0.20000007071E+02 0.  0.
        -12    1    1    2    0    0 -0.27128587344E+02 -0.32261451094E+02  0.10337391414E+02  0.43400727405E+02  0.00000000000E+00 0.  1.
         11    1    3    3    0    0  0.12914302850E+02  0.17170132106E+02 -0.57613728448E+01  0.22243787266E+02  0.51100000000E-03 0. -1.
        -11    1    3    3    0    0  0.96782278487E+01  0.25663121098E+01 -0.67091687826E+01  0.12052675975E+02  0.51100000000E-03 0.  1.
        -12    1    3    3    0    0  0.45360566454E+01  0.12525006879E+02  0.21331502130E+01  0.13490809354E+02  0.00000000000E+00 0.  1.
</event>
<event>
 7    1  0.2655656E-009  0.4778729E+02  0.7816164E-02  0.1312668E+00
        -11   -1    0    0    0    0  0.00000000000E+00  0.00000000000E+00  0.45593999997E+02  0.45594000000E+02  0.51100000000E-03 0.  1.
         11   -1    0    0    0    0 -0.00000000000E+00 -0.00000000000E+00 -0.45593999997E+02  0.45594000000E+02  0.51100000000E-03 0. -1.
    9900012    2    1    2    0    0  0.24784516792E+02  0.28022031276E+02 -0.22002612136E+02  0.47787292053E+02  0.20000095787E+02 0.  0.
        -12    1    1    2    0    0 -0.24784516792E+02 -0.28022031276E+02  0.22002612136E+02  0.43400707947E+02  0.00000000000E+00 0.  1.
         11    1    3    3    0    0  0.88142158279E+01  0.98607970320E+01 -0.18212005525E+02  0.22507840062E+02  0.51100000000E-03 0. -1.
        -11    1    3    3    0    0  0.14126765237E+02  0.11916070359E+02 -0.27162338841E+01  0.18679832859E+02  0.51100000000E-03 0.  1.
         12    1    3    3    0    0  0.18435357267E+01  0.62451638850E+01 -0.10743727276E+01  0.65996191318E+01  0.00000000000E+00 0. -1.
</event>
<event>
 7    1  0.2655656E-009  0.4778728E+02  0.7816164E-02  0.1312668E+00
        -11   -1    0    0    0    0  0.00000000000E+00  0.00000000000E+00  0.45593999997E+02  0.45594000000E+02  0.51100000000E-03 0. -1.
         11   -1    0    0    0    0 -0.00000000000E+00 -0.00000000000E+00 -0.45593999997E+02  0.45594000000E+02  0.51100000000E-03 0.  1.
    9900012    2    1    2    0    0 -0.69737582391E+01  0.42737286669E+02 -0.29178438923E+01  0.47787276633E+02  0.20000025479E+02 0.  0.
        -12    1    1    2    0    0  0.69737582391E+01 -0.42737286669E+02  0.29178438923E+01  0.43400723367E+02  0.00000000000E+00 0.  1.
         11    1    3    3    0    0 -0.25947618731E+01  0.19688365582E+02  0.16697399538E+01  0.19928686867E+02  0.51100000000E-03 0. -1.
        -11    1    3    3    0    0 -0.82503771052E+01  0.16399066491E+02 -0.72196911013E+01  0.19726176620E+02  0.51100000000E-03 0.  1.
        -12    1    3    3    0    0  0.38713807392E+01  0.66498545960E+01  0.26321072552E+01  0.81324131461E+01  0.00000000000E+00 0.  1.
</event>
<event>
 7    1  0.2655656E-009  0.4778727E+02  0.7816164E-02  0.1312668E+00
        -11   -1    0    0    0    0  0.00000000000E+00  0.00000000000E+00  0.45593999997E+02  0.45594000000E+02  0.51100000000E-03 0.  1.
         11   -1    0    0    0    0 -0.00000000000E+00 -0.00000000000E+00 -0.45593999997E+02  0.45594000000E+02  0.51100000000E-03 0. -1.
    9900012    2    1    2    0    0  0.42776515628E+02 -0.71083374080E+01  0.18068536685E+01  0.47787268783E+02  0.19999989689E+02 0.  0.
        -12    1    1    2    0    0 -0.42776515628E+02  0.71083374080E+01 -0.18068536685E+01  0.43400731217E+02  0.00000000000E+00 0.  1.
         11    1    3    3    0    0  0.24075770038E+02 -0.42359010405E+01 -0.41194264984E+01  0.24790224596E+02  0.51100000000E-03 0. -1.
        -11    1    3    3    0    0 -0.13988445338E+01 -0.15342868125E+01  0.55113161205E+00  0.21481499873E+01  0.51100000000E-03 0.  1.
         12    1    3    3    0    0  0.20099590124E+02 -0.13381495550E+01  0.53751485549E+01  0.20848894200E+02  0.00000000000E+00 0. -1.
</event>
<event>
 7    1  0.2655656E-009  0.4778727E+02  0.7816164E-02  0.1312668E+00
        -11   -1    0    0    0    0  0.00000000000E+00  0.00000000000E+00  0.45593999997E+02  0.45594000000E+02  0.51100000000E-03 0.  1.
         11   -1    0    0    0    0 -0.00000000000E+00 -0.00000000000E+00 -0.45593999997E+02  0.45594000000E+02  0.51100000000E-03 0. -1.
    9900012    2    1    2    0    0  0.40120191280E+02  0.30100547802E+01 -0.16276755176E+02  0.47787274924E+02  0.20000017687E+02 0.  0.
        -12    1    1    2    0    0 -0.40120191280E+02 -0.30100547802E+01  0.16276755176E+02  0.43400725076E+02  0.00000000000E+00 0.  1.
         11    1    3    3    0    0  0.17184605095E+02 -0.52197839295E+01 -0.87493982914E+01  0.19977706757E+02  0.51100000000E-03 0. -1.
        -11    1    3    3    0    0  0.22090155284E+02  0.10087122457E+02 -0.54313012422E+01  0.24884212533E+02  0.51100000000E-03 0.  1.
        -12    1    3    3    0    0  0.84543090075E+00 -0.18572837476E+01 -0.20960556428E+01  0.29253556339E+01  0.00000000000E+00 0.  1.
</event>
<event>
 7    1  0.2655656E-009  0.4778726E+02  0.7816164E-02  0.1312668E+00
        -11   -1    0    0    0    0  0.00000000000E+00  0.00000000000E+00  0.45593999997E+02  0.45594000000E+02  0.51100000000E-03 0. -1.
         11   -1    0    0    0    0 -0.00000000000E+00 -0.00000000000E+00 -0.45593999997E+02  0.45594000000E+02  0.51100000000E-03 0.  1.
    9900012    2    1    2    0    0  0.73198848835E+01  0.32939212979E+02  0.27295630135E+02  0.47787263936E+02  0.19999967591E+02 0.  0.
        -12    1    1    2    0    0 -0.73198848835E+01 -0.32939212979E+02 -0.27295630135E+02  0.43400736064E+02  0.00000000000E+00 0.  1.
         11    1    3    3    0    0 -0.43550901185E+01  0.12664612764E+02  0.87278996728E+01  0.15985476514E+02  0.51100000000E-03 0. -1.
        -11    1    3    3    0    0  0.11749392296E+02  0.18945233259E+02  0.19925769811E+02  0.29899939555E+02  0.51100000000E-03 0.  1.
        -12    1    3    3    0    0 -0.74417294400E-01  0.13293669566E+01 -0.13580393490E+01  0.19018478678E+01  0.00000000000E+00 0.  1.
</event>
<event>
 7    1  0.2655656E-009  0.4778727E+02  0.7816164E-02  0.1312668E+00
        -11   -1    0    0    0    0  0.00000000000E+00  0.00000000000E+00  0.45593999997E+02  0.45594000000E+02  0.51100000000E-03 0.  1.
         11   -1    0    0    0    0 -0.00000000000E+00 -0.00000000000E+00 -0.45593999997E+02  0.45594000000E+02  0.51100000000E-03 0. -1.
    9900012    2    1    2    0    0 -0.22143305944E+02  0.48989142673E+01 -0.37004023335E+02  0.47787273023E+02  0.20000009021E+02 0.  0.
        -12    1    1    2    0    0  0.22143305944E+02 -0.48989142673E+01  0.37004023335E+02  0.43400726977E+02  0.00000000000E+00 0.  1.
         11    1    3    3    0    0 -0.84024051371E+01  0.53675022997E+01 -0.80980979303E+01  0.12844830998E+02  0.51100000000E-03 0. -1.
        -11    1    3    3    0    0  0.79925159005E-01 -0.25454316534E+00 -0.16091839450E+02  0.16094050994E+02  0.51100000000E-03 0.  1.
        -12    1    3    3    0    0 -0.13820825966E+02 -0.21404486707E+00 -0.12814085955E+02  0.18848391031E+02  0.00000000000E+00 0.  1.
</event>
<event>
 7    1  0.2655656E-009  0.4778729E+02  0.7816164E-02  0.1312668E+00
        -11   -1    0    0    0    0  0.00000000000E+00  0.00000000000E+00  0.45593999997E+02  0.45594000000E+02  0.51100000000E-03 0.  1.
         11   -1    0    0    0    0 -0.00000000000E+00 -0.00000000000E+00 -0.45593999997E+02  0.45594000000E+02  0.51100000000E-03 0. -1.
    9900012    2    1    2    0    0 -0.37736090148E+02  0.16961623987E+02 -0.13111552448E+02  0.47787285772E+02  0.20000067147E+02 0.  0.
        -12    1    1    2    0    0  0.37736090148E+02 -0.16961623987E+02  0.13111552448E+02  0.43400714228E+02  0.00000000000E+00 0.  1.
         11    1    3    3    0    0 -0.28876686986E+02  0.89382901326E+01 -0.90494251439E+01  0.31553893222E+02  0.51100000000E-03 0. -1.
        -11    1    3    3    0    0 -0.10804495965E+02  0.46517496858E+01 -0.24249269081E+01  0.12010669381E+02  0.51100000000E-03 0.  1.
         12    1    3    3    0    0  0.19450928035E+01  0.33715841691E+01 -0.16372003958E+01  0.42227231687E+01  0.00000000000E+00 0. -1.
</event>
<event>
 7    1  0.2655656E-009  0.4778729E+02  0.7816164E-02  0.1312668E+00
        -11   -1    0    0    0    0  0.00000000000E+00  0.00000000000E+00  0.45593999997E+02  0.45594000000E+02  0.51100000000E-03 0. -1.
         11   -1    0    0    0    0 -0.00000000000E+00 -0.00000000000E+00 -0.45593999997E+02  0.45594000000E+02  0.51100000000E-03 0.  1.
    9900012    2    1    2    0    0  0.43017281959E+02  0.43678426379E+01  0.37493022349E+01  0.47787287290E+02  0.20000074072E+02 0.  0.
        -12    1    1    2    0    0 -0.43017281959E+02 -0.43678426379E+01 -0.37493022349E+01  0.43400712710E+02  0.00000000000E+00 0.  1.
         11    1    3    3    0    0  0.23905771926E+02 -0.20380272049E+01  0.95053272846E+01  0.25806796262E+02  0.51100000000E-03 0. -1.
        -11    1    3    3    0    0  0.92178232249E+01  0.69814828762E+00 -0.50571171201E+01  0.10537082607E+02  0.51100000000E-03 0.  1.
         12    1    3    3    0    0  0.98936868084E+01  0.57077215552E+01 -0.69890792959E+00  0.11443408422E+02  0.00000000000E+00 0. -1.
</event>
<event>
 7    1  0.2655656E-009  0.4778727E+02  0.7816164E-02  0.1312668E+00
        -11   -1    0    0    0    0  0.00000000000E+00  0.00000000000E+00  0.45593999997E+02  0.45594000000E+02  0.51100000000E-03 0.  1.
         11   -1    0    0    0    0 -0.00000000000E+00 -0.00000000000E+00 -0.45593999997E+02  0.45594000000E+02  0.51100000000E-03 0. -1.
    9900012    2    1    2    0    0  0.30475533941E+02  0.74928707118E+00 -0.30891805368E+02  0.47787271447E+02  0.20000001834E+02 0.  0.
        -12    1    1    2    0    0 -0.30475533941E+02 -0.74928707118E+00  0.30891805368E+02  0.43400728553E+02  0.00000000000E+00 0.  1.
         11    1    3    3    0    0  0.28918935562E+01 -0.13268356834E+01 -0.80301291624E+01  0.86375063471E+01  0.51100000000E-03 0. -1.
        -11    1    3    3    0    0  0.51758499544E+01  0.46006218968E+01 -0.12594600998E+02  0.14372860507E+02  0.51100000000E-03 0.  1.
        -12    1    3    3    0    0  0.22407790430E+02 -0.25244991423E+01 -0.10267075207E+02  0.24776904593E+02  0.00000000000E+00 0.  1.
</event>
<event>
 7    1  0.2655656E-009  0.4778728E+02  0.7816164E-02  0.1312668E+00
        -11   -1    0    0    0    0  0.00000000000E+00  0.00000000000E+00  0.45593999997E+02  0.45594000000E+02  0.51100000000E-03 0.  1.
         11   -1    0    0    0    0 -0.00000000000E+00 -0.00000000000E+00 -0.45593999997E+02  0.45594000000E+02  0.51100000000E-03 0. -1.
    9900012    2    1    2    0    0 -0.14482786044E+02  0.26957123966E+02 -0.30776372882E+02  0.47787277058E+02  0.20000027419E+02 0.  0.
        -12    1    1    2    0    0  0.14482786044E+02 -0.26957123966E+02  0.30776372882E+02  0.43400722942E+02  0.00000000000E+00 0.  1.
         11    1    3    3    0    0  0.16004553220E+01  0.36339861198E+01 -0.24766617692E+00  0.39785237405E+01  0.51100000000E-03 0.  1.
        -11    1    3    3    0    0 -0.14680315026E+02  0.94160629307E+01 -0.16728473743E+02  0.24166417285E+02  0.51100000000E-03 0. -1.
        -12    1    3    3    0    0 -0.14029263402E+01  0.13907074915E+02 -0.13800232962E+02  0.19642336032E+02  0.00000000000E+00 0.  1.
</event>
<event>
 7    1  0.2655656E-009  0.4778727E+02  0.7816164E-02  0.1312668E+00
        -11   -1    0    0    0    0  0.00000000000E+00  0.00000000000E+00  0.45593999997E+02  0.45594000000E+02  0.51100000000E-03 0.  1.
         11   -1    0    0    0    0 -0.00000000000E+00 -0.00000000000E+00 -0.45593999997E+02  0.45594000000E+02  0.51100000000E-03 0. -1.
    9900012    2    1    2    0    0  0.27785561002E+01 -0.17270978993E+02 -0.39719214848E+02  0.47787272846E+02  0.20000008214E+02 0.  0.
        -12    1    1    2    0    0 -0.27785561002E+01  0.17270978993E+02  0.39719214848E+02  0.43400727154E+02  0.00000000000E+00 0.  1.
         11    1    3    3    0    0 -0.99859846721E-01  0.35395950044E+01 -0.26072751337E+01  0.43973388167E+01  0.51100000000E-03 0. -1.
        -11    1    3    3    0    0  0.39994295004E+00 -0.11614952053E+01  0.10359629235E+00  0.12327846235E+01  0.51100000000E-03 0.  1.
         12    1    3    3    0    0  0.24784729969E+01 -0.19649078792E+02 -0.37215536007E+02  0.42157149406E+02  0.00000000000E+00 0. -1.
</event>
<event>
 7    1  0.2655656E-009  0.4778729E+02  0.7816164E-02  0.1312668E+00
        -11   -1    0    0    0    0  0.00000000000E+00  0.00000000000E+00  0.45593999997E+02  0.45594000000E+02  0.51100000000E-03 0.  1.
         11   -1    0    0    0    0 -0.00000000000E+00 -0.00000000000E+00 -0.45593999997E+02  0.45594000000E+02  0.51100000000E-03 0. -1.
    9900012    2    1    2    0    0 -0.21104113694E+02  0.73446059555E+01 -0.37206112657E+02  0.47787289516E+02  0.20000084218E+02 0.  0.
        -12    1    1    2    0    0  0.21104113694E+02 -0.73446059555E+01  0.37206112657E+02  0.43400710484E+02  0.00000000000E+00 0.  1.
         11    1    3    3    0    0 -0.14894627219E+02  0.80429606495E+01 -0.25308666025E+02  0.30447786656E+02  0.51100000000E-03 0. -1.
        -11    1    3    3    0    0  0.27520745530E+01 -0.18290170541E+01 -0.16972446458E+01  0.37148159279E+01  0.51100000000E-03 0.  1.
         12    1    3    3    0    0 -0.89615610281E+01  0.11306623601E+01 -0.10200201987E+02  0.13624686932E+02  0.00000000000E+00 0. -1.
</event>
<event>
 7    1  0.2655656E-009  0.4778727E+02  0.7816164E-02  0.1312668E+00
        -11   -1    0    0    0    0  0.00000000000E+00  0.00000000000E+00  0.45593999997E+02  0.45594000000E+02  0.51100000000E-03 0. -1.
         11   -1    0    0    0    0 -0.00000000000E+00 -0.00000000000E+00 -0.45593999997E+02  0.45594000000E+02  0.51100000000E-03 0.  1.
    9900012    2    1    2    0    0 -0.11469765133E+02  0.39680764923E+02  0.13323075380E+02  0.47787274722E+02  0.20000016768E+02 0.  0.
        -12    1    1    2    0    0  0.11469765133E+02 -0.39680764923E+02 -0.13323075380E+02  0.43400725278E+02  0.00000000000E+00 0.  1.
         11    1    3    3    0    0  0.65717571913E+00  0.12751376785E+02  0.15701774047E+01  0.12864483945E+02  0.51100000000E-03 0. -1.
        -11    1    3    3    0    0 -0.58671692336E+01  0.87408853131E+00  0.34835329383E+01  0.68791502070E+01  0.51100000000E-03 0.  1.
        -12    1    3    3    0    0 -0.62597716181E+01  0.26055299606E+02  0.82693650374E+01  0.28043640570E+02  0.00000000000E+00 0.  1.
</event>
<event>
 7    1  0.2655656E-009  0.4778727E+02  0.7816164E-02  0.1312668E+00
        -11   -1    0    0    0    0  0.00000000000E+00  0.00000000000E+00  0.45593999997E+02  0.45594000000E+02  0.51100000000E-03 0. -1.
         11   -1    0    0    0    0 -0.00000000000E+00 -0.00000000000E+00 -0.45593999997E+02  0.45594000000E+02  0.51100000000E-03 0.  1.
    9900012    2    1    2    0    0  0.21369950375E+02  0.34632676668E+01  0.37615876687E+02  0.47787272116E+02  0.20000004886E+02 0.  0.
        -12    1    1    2    0    0 -0.21369950375E+02 -0.34632676668E+01 -0.37615876687E+02  0.43400727884E+02  0.00000000000E+00 0.  1.
         11    1    3    3    0    0  0.61528476647E+01  0.35685227130E+01  0.24869349026E+02  0.25866511361E+02  0.51100000000E-03 0. -1.
        -11    1    3    3    0    0  0.64188293983E+01  0.41707744858E+01  0.33475193688E+01  0.83547960383E+01  0.51100000000E-03 0.  1.
         12    1    3    3    0    0  0.87982733120E+01 -0.42760295320E+01  0.93990082914E+01  0.13565964717E+02  0.00000000000E+00 0. -1.
</event>
<event>
 7    1  0.2655656E-009  0.4778727E+02  0.7816164E-02  0.1312668E+00
        -11   -1    0    0    0    0  0.00000000000E+00  0.00000000000E+00  0.45593999997E+02  0.45594000000E+02  0.51100000000E-03 0.  1.
         11   -1    0    0    0    0 -0.00000000000E+00 -0.00000000000E+00 -0.45593999997E+02  0.45594000000E+02  0.51100000000E-03 0. -1.
    9900012    2    1    2    0    0 -0.14718991079E+02  0.39675296075E+02 -0.96356245415E+01  0.47787273309E+02  0.20000010323E+02 0.  0.
        -12    1    1    2    0    0  0.14718991079E+02 -0.39675296075E+02  0.96356245415E+01  0.43400726691E+02  0.00000000000E+00 0.  1.
         11    1    3    3    0    0 -0.34875776907E+01  0.14715575060E+02 -0.17468956773E+01  0.15223764064E+02  0.51100000000E-03 0. -1.
        -11    1    3    3    0    0 -0.10435549604E+02  0.26248032409E+02 -0.41754942389E+01  0.28553365008E+02  0.51100000000E-03 0.  1.
        -12    1    3    3    0    0 -0.79586378463E+00 -0.12883113946E+01 -0.37132346254E+01  0.40101442364E+01  0.00000000000E+00 0.  1.
</event>
<event>
 7    1  0.2655656E-009  0.4778727E+02  0.7816164E-02  0.1312668E+00
        -11   -1    0    0    0    0  0.00000000000E+00  0.00000000000E+00  0.45593999997E+02  0.45594000000E+02  0.51100000000E-03 0.  1.
         11   -1    0    0    0    0 -0.00000000000E+00 -0.00000000000E+00 -0.45593999997E+02  0.45594000000E+02  0.51100000000E-03 0. -1.
    9900012    2    1    2    0    0  0.26936706205E+02 -0.14941915849E+02 -0.30574109736E+02  0.47787272166E+02  0.20000005113E+02 0.  0.
        -12    1    1    2    0    0 -0.26936706205E+02  0.14941915849E+02  0.30574109736E+02  0.43400727834E+02  0.00000000000E+00 0.  1.
         11    1    3    3    0    0  0.13482717089E+02 -0.12789274241E+02 -0.17703580379E+02  0.25666436336E+02  0.51100000000E-03 0. -1.
        -11    1    3    3    0    0  0.14834926456E+02  0.65877646493E+00 -0.10354065309E+02  0.18102919600E+02  0.51100000000E-03 0.  1.
         12    1    3    3    0    0 -0.13809373403E+01 -0.28114180730E+01 -0.25164640482E+01  0.40179162292E+01  0.00000000000E+00 0. -1.
</event>
<event>
 7    1  0.2655656E-009  0.4778726E+02  0.7816164E-02  0.1312668E+00
        -11   -1    0    0    0    0  0.00000000000E+00  0.00000000000E+00  0.45593999997E+02  0.45594000000E+02  0.51100000000E-03 0. -1.
         11   -1    0    0    0    0 -0.00000000000E+00 -0.00000000000E+00 -0.45593999997E+02  0.45594000000E+02  0.51100000000E-03 0.  1.
    9900012    2    1    2    0    0  0.38483948051E+02  0.14938692240E+02  0.13395710636E+02  0.47787264443E+02  0.19999969900E+02 0.  0.
        -12    1    1    2    0    0 -0.38483948051E+02 -0.14938692240E+02 -0.13395710636E+02  0.43400735557E+02  0.00000000000E+00 0.  1.
         11    1    3    3    0    0  0.12204238682E+02  0.86438046026E+01  0.12706010301E+02  0.19624003105E+02  0.51100000000E-03 0. -1.
        -11    1    3    3    0    0  0.14338093506E+02  0.73520081803E+01 -0.46200607082E+00  0.16119751845E+02  0.51100000000E-03 0.  1.
         12    1    3    3    0    0  0.11941615864E+02 -0.10571205429E+01  0.11517064056E+01  0.12043509494E+02  0.00000000000E+00 0. -1.
</event>
<event>
 7    1  0.2655656E-009  0.4778727E+02  0.7816164E-02  0.1312668E+00
        -11   -1    0    0    0    0  0.00000000000E+00  0.00000000000E+00  0.45593999997E+02  0.45594000000E+02  0.51100000000E-03 0. -1.
         11   -1    0    0    0    0 -0.00000000000E+00 -0.00000000000E+00 -0.45593999997E+02  0.45594000000E+02  0.51100000000E-03 0.  1.
    9900012    2    1    2    0    0  0.25488466894E+02  0.89110448609E+01  0.33978742040E+02  0.47787267567E+02  0.19999984144E+02 0.  0.
        -12    1    1    2    0    0 -0.25488466894E+02 -0.89110448609E+01 -0.33978742040E+02  0.43400732433E+02  0.00000000000E+00 0.  1.
         11    1    3    3    0    0  0.84113446933E+01  0.11907675790E+02  0.16054683953E+02  0.21686316869E+02  0.51100000000E-03 0. -1.
        -11    1    3    3    0    0  0.10118088100E+02 -0.54472472962E+01  0.95608806864E+01  0.14948533361E+02  0.51100000000E-03 0.  1.
        -12    1    3    3    0    0  0.69590341007E+01  0.24506163673E+01  0.83631774012E+01  0.11152417336E+02  0.00000000000E+00 0.  1.
</event>
<event>
 7    1  0.2655656E-009  0.4778727E+02  0.7816164E-02  0.1312668E+00
        -11   -1    0    0    0    0  0.00000000000E+00  0.00000000000E+00  0.45593999997E+02  0.45594000000E+02  0.51100000000E-03 0. -1.
         11   -1    0    0    0    0 -0.00000000000E+00 -0.00000000000E+00 -0.45593999997E+02  0.45594000000E+02  0.51100000000E-03 0.  1.
    9900012    2    1    2    0    0 -0.38277952574E+02  0.84225436817E+01  0.18640879358E+02  0.47787270990E+02  0.19999999751E+02 0.  0.
        -12    1    1    2    0    0  0.38277952574E+02 -0.84225436817E+01 -0.18640879358E+02  0.43400729010E+02  0.00000000000E+00 0.  1.
         11    1    3    3    0    0 -0.28171736487E+01  0.43697775915E+00 -0.30208308955E+01  0.41536533906E+01  0.51100000000E-03 0.  1.
        -11    1    3    3    0    0 -0.28589122993E+02  0.99050685336E+01  0.14598771266E+02  0.33594232524E+02  0.51100000000E-03 0. -1.
         12    1    3    3    0    0 -0.68716559330E+01 -0.19195026110E+01  0.70629389877E+01  0.10039385075E+02  0.00000000000E+00 0. -1.
</event>
<event>
 7    1  0.2655656E-009  0.4778727E+02  0.7816164E-02  0.1312668E+00
        -11   -1    0    0    0    0  0.00000000000E+00  0.00000000000E+00  0.45593999997E+02  0.45594000000E+02  0.51100000000E-03 0.  1.
         11   -1    0    0    0    0 -0.00000000000E+00 -0.00000000000E+00 -0.45593999997E+02  0.45594000000E+02  0.51100000000E-03 0. -1.
    9900012    2    1    2    0    0 -0.10077617846E+01  0.19109822949E+02 -0.38954105937E+02  0.47787270901E+02  0.19999999345E+02 0.  0.
        -12    1    1    2    0    0  0.10077617846E+01 -0.19109822949E+02  0.38954105937E+02  0.43400729099E+02  0.00000000000E+00 0.  1.
         11    1    3    3    0    0 -0.46556329669E+01  0.73003909089E+01 -0.27245441699E+01  0.90771012411E+01  0.51100000000E-03 0.  1.
        -11    1    3    3    0    0  0.26040875058E+01  0.91955731960E+01 -0.33313762650E+02  0.34657562238E+02  0.51100000000E-03 0. -1.
         12    1    3    3    0    0  0.10437836765E+01  0.26138588438E+01 -0.29157991174E+01  0.40526074214E+01  0.00000000000E+00 0. -1.
</event>
<event>
 7    1  0.2655656E-009  0.4778727E+02  0.7816164E-02  0.1312668E+00
        -11   -1    0    0    0    0  0.00000000000E+00  0.00000000000E+00  0.45593999997E+02  0.45594000000E+02  0.51100000000E-03 0.  1.
         11   -1    0    0    0    0 -0.00000000000E+00 -0.00000000000E+00 -0.45593999997E+02  0.45594000000E+02  0.51100000000E-03 0. -1.
    9900012    2    1    2    0    0  0.21022056866E+02  0.21987497646E+02 -0.30955554976E+02  0.47787270611E+02  0.19999998024E+02 0.  0.
        -12    1    1    2    0    0 -0.21022056866E+02 -0.21987497646E+02  0.30955554976E+02  0.43400729389E+02  0.00000000000E+00 0.  1.
         11    1    3    3    0    0  0.78024190698E+01  0.90079721724E+01 -0.16225252715E+02  0.20131570528E+02  0.51100000000E-03 0. -1.
        -11    1    3    3    0    0  0.35062712077E+01  0.12510562460E+02 -0.11660996874E+02  0.17458148791E+02  0.51100000000E-03 0.  1.
        -12    1    3    3    0    0  0.97133665888E+01  0.46896301355E+00 -0.30693053867E+01  0.10197551292E+02  0.00000000000E+00 0.  1.
</event>
<event>
 7    1  0.2655656E-009  0.4778727E+02  0.7816164E-02  0.1312668E+00
        -11   -1    0    0    0    0  0.00000000000E+00  0.00000000000E+00  0.45593999997E+02  0.45594000000E+02  0.51100000000E-03 0.  1.
         11   -1    0    0    0    0 -0.00000000000E+00 -0.00000000000E+00 -0.45593999997E+02  0.45594000000E+02  0.51100000000E-03 0. -1.
    9900012    2    1    2    0    0 -0.40971276668E+01  0.59769980778E+01 -0.42791500493E+02  0.47787268720E+02  0.19999989404E+02 0.  0.
        -12    1    1    2    0    0  0.40971276668E+01 -0.59769980778E+01  0.42791500493E+02  0.43400731280E+02  0.00000000000E+00 0.  1.
         11    1    3    3    0    0 -0.64834126695E+01  0.95315439691E+01 -0.16687422535E+02  0.20281889493E+02  0.51100000000E-03 0. -1.
        -11    1    3    3    0    0  0.35861051544E+01 -0.83497798838E-01 -0.20457038991E+02  0.20769149395E+02  0.51100000000E-03 0.  1.
         12    1    3    3    0    0 -0.11998201517E+01 -0.34710480924E+01 -0.56470389675E+01  0.67362298325E+01  0.00000000000E+00 0. -1.
</event>
<event>
 7    1  0.2655656E-009  0.4778727E+02  0.7816164E-02  0.1312668E+00
        -11   -1    0    0    0    0  0.00000000000E+00  0.00000000000E+00  0.45593999997E+02  0.45594000000E+02  0.51100000000E-03 0.  1.
         11   -1    0    0    0    0 -0.00000000000E+00 -0.00000000000E+00 -0.45593999997E+02  0.45594000000E+02  0.51100000000E-03 0. -1.
    9900012    2    1    2    0    0  0.58681684650E+01  0.40215661918E+02 -0.15227887006E+02  0.47787269507E+02  0.19999992991E+02 0.  0.
        -12    1    1    2    0    0 -0.58681684650E+01 -0.40215661918E+02  0.15227887006E+02  0.43400730493E+02  0.00000000000E+00 0.  1.
         11    1    3    3    0    0  0.68127109614E+01  0.36973417213E+02 -0.85292618648E+01  0.38551198675E+02  0.51100000000E-03 0. -1.
        -11    1    3    3    0    0  0.43237373837E+00  0.36295117388E+01 -0.68835597860E+01  0.77938243565E+01  0.51100000000E-03 0.  1.
         12    1    3    3    0    0 -0.13769162348E+01 -0.38726703415E+00  0.18493464447E+00  0.14422464755E+01  0.00000000000E+00 0. -1.
</event>
<event>
 7    1  0.2655656E-009  0.4778727E+02  0.7816164E-02  0.1312668E+00
        -11   -1    0    0    0    0  0.00000000000E+00  0.00000000000E+00  0.45593999997E+02  0.45594000000E+02  0.51100000000E-03 0.  1.
         11   -1    0    0    0    0 -0.00000000000E+00 -0.00000000000E+00 -0.45593999997E+02  0.45594000000E+02  0.51100000000E-03 0. -1.
    9900012    2    1    2    0    0 -0.33746963979E+02  0.24529164728E+02 -0.11961844419E+02  0.47787271642E+02  0.20000002725E+02 0.  0.
        -12    1    1    2    0    0  0.33746963979E+02 -0.24529164728E+02  0.11961844419E+02  0.43400728358E+02  0.00000000000E+00 0.  1.
         11    1    3    3    0    0 -0.32132930960E+01  0.35379067672E+00 -0.67496558058E+01  0.74838675911E+01  0.51100000000E-03 0. -1.
        -11    1    3    3    0    0 -0.16662315297E+02  0.10692532314E+02  0.14322533968E+01  0.19849794669E+02  0.51100000000E-03 0.  1.
        -12    1    3    3    0    0 -0.13871355586E+02  0.13482841738E+02 -0.66444420100E+01  0.20453609382E+02  0.00000000000E+00 0.  1.
</event>
<event>
 7    1  0.2655656E-009  0.4778724E+02  0.7816164E-02  0.1312668E+00
        -11   -1    0    0    0    0  0.00000000000E+00  0.00000000000E+00  0.45593999997E+02  0.45594000000E+02  0.51100000000E-03 0. -1.
         11   -1    0    0    0    0 -0.00000000000E+00 -0.00000000000E+00 -0.45593999997E+02  0.45594000000E+02  0.51100000000E-03 0.  1.
    9900012    2    1    2    0    0  0.34897290924E+02  0.25795330996E+02 -0.63704563526E+00  0.47787241456E+02  0.19999865096E+02 0.  0.
        -12    1    1    2    0    0 -0.34897290924E+02 -0.25795330996E+02  0.63704563526E+00  0.43400758544E+02  0.00000000000E+00 0.  1.
         11    1    3    3    0    0  0.10126045038E+02  0.11458790290E+02 -0.27535226312E+01  0.15537778160E+02  0.51100000000E-03 0. -1.
        -11    1    3    3    0    0  0.56325265811E+01 -0.70330119009E+00 -0.42483231850E+01  0.70900097599E+01  0.51100000000E-03 0.  1.
        -12    1    3    3    0    0  0.19138719305E+02  0.15039841896E+02  0.63648001810E+01  0.25159453536E+02  0.00000000000E+00 0.  1.
</event>
<event>
 7    1  0.2655656E-009  0.4778727E+02  0.7816164E-02  0.1312668E+00
        -11   -1    0    0    0    0  0.00000000000E+00  0.00000000000E+00  0.45593999997E+02  0.45594000000E+02  0.51100000000E-03 0. -1.
         11   -1    0    0    0    0 -0.00000000000E+00 -0.00000000000E+00 -0.45593999997E+02  0.45594000000E+02  0.51100000000E-03 0.  1.
    9900012    2    1    2    0    0 -0.13572390675E+02  0.27447420050E+02  0.30757965179E+02  0.47787273301E+02  0.20000010289E+02 0.  0.
        -12    1    1    2    0    0  0.13572390675E+02 -0.27447420050E+02 -0.30757965179E+02  0.43400726699E+02  0.00000000000E+00 0.  1.
         11    1    3    3    0    0 -0.97044372823E+01  0.24047638697E+02  0.31440553379E+02  0.40755041736E+02  0.51100000000E-03 0. -1.
        -11    1    3    3    0    0 -0.17231659923E+01 -0.41676863887E+00 -0.17869409720E+01  0.25171721105E+01  0.51100000000E-03 0.  1.
         12    1    3    3    0    0 -0.21447873999E+01  0.38165499918E+01  0.11043527717E+01  0.45150594542E+01  0.00000000000E+00 0. -1.
</event>
<event>
 7    1  0.2655656E-009  0.4778726E+02  0.7816164E-02  0.1312668E+00
        -11   -1    0    0    0    0  0.00000000000E+00  0.00000000000E+00  0.45593999997E+02  0.45594000000E+02  0.51100000000E-03 0. -1.
         11   -1    0    0    0    0 -0.00000000000E+00 -0.00000000000E+00 -0.45593999997E+02  0.45594000000E+02  0.51100000000E-03 0.  1.
    9900012    2    1    2    0    0  0.32208252584E+02  0.18874020177E+02  0.22136489132E+02  0.47787258955E+02  0.19999944879E+02 0.  0.
        -12    1    1    2    0    0 -0.32208252584E+02 -0.18874020177E+02 -0.22136489132E+02  0.43400741045E+02  0.00000000000E+00 0.  1.
         11    1    3    3    0    0  0.21244428618E+02  0.86124292966E+01  0.18939384539E+02  0.29735500209E+02  0.51100000000E-03 0. -1.
        -11    1    3    3    0    0  0.12063430180E+02  0.95136455530E+01  0.46794565013E+01  0.16060296162E+02  0.51100000000E-03 0.  1.
         12    1    3    3    0    0 -0.10996062143E+01  0.74794532780E+00 -0.14823519084E+01  0.19914625832E+01  0.00000000000E+00 0. -1.
</event>
<event>
 7    1  0.2655656E-009  0.4778727E+02  0.7816164E-02  0.1312668E+00
        -11   -1    0    0    0    0  0.00000000000E+00  0.00000000000E+00  0.45593999997E+02  0.45594000000E+02  0.51100000000E-03 0. -1.
         11   -1    0    0    0    0 -0.00000000000E+00 -0.00000000000E+00 -0.45593999997E+02  0.45594000000E+02  0.51100000000E-03 0.  1.
    9900012    2    1    2    0    0 -0.21105479206E+02  0.37367085120E+02  0.64717071560E+01  0.47787270785E+02  0.19999998818E+02 0.  0.
        -12    1    1    2    0    0  0.21105479206E+02 -0.37367085120E+02 -0.64717071560E+01  0.43400729215E+02  0.00000000000E+00 0.  1.
         11    1    3    3    0    0 -0.15400852472E+02  0.18401211769E+02  0.71221070438E+01  0.25030286863E+02  0.51100000000E-03 0. -1.
        -11    1    3    3    0    0 -0.36912525839E+01  0.88918182099E+01 -0.58265595453E+01  0.11253380519E+02  0.51100000000E-03 0.  1.
        -12    1    3    3    0    0 -0.20133741500E+01  0.10074055141E+02  0.51761596575E+01  0.11503603403E+02  0.00000000000E+00 0.  1.
</event>
<event>
 7    1  0.2655656E-009  0.4778727E+02  0.7816164E-02  0.1312668E+00
        -11   -1    0    0    0    0  0.00000000000E+00  0.00000000000E+00  0.45593999997E+02  0.45594000000E+02  0.51100000000E-03 0. -1.
         11   -1    0    0    0    0 -0.00000000000E+00 -0.00000000000E+00 -0.45593999997E+02  0.45594000000E+02  0.51100000000E-03 0.  1.
    9900012    2    1    2    0    0 -0.17733430904E+02  0.24535452437E+01  0.39536425776E+02  0.47787269372E+02  0.19999992376E+02 0.  0.
        -12    1    1    2    0    0  0.17733430904E+02 -0.24535452437E+01 -0.39536425776E+02  0.43400730628E+02  0.00000000000E+00 0.  1.
         11    1    3    3    0    0  0.29975534310E+01 -0.42256588985E+00  0.14045074393E+01  0.33371439752E+01  0.51100000000E-03 0. -1.
        -11    1    3    3    0    0 -0.53500894673E+01 -0.26878242383E+01  0.14715421798E+02  0.15886834027E+02  0.51100000000E-03 0.  1.
         12    1    3    3    0    0 -0.15380894868E+02  0.55639353718E+01  0.23416496539E+02  0.28563291370E+02  0.00000000000E+00 0. -1.
</event>
<event>
 7    1  0.2655656E-009  0.4778727E+02  0.7816164E-02  0.1312668E+00
        -11   -1    0    0    0    0  0.00000000000E+00  0.00000000000E+00  0.45593999997E+02  0.45594000000E+02  0.51100000000E-03 0.  1.
         11   -1    0    0    0    0 -0.00000000000E+00 -0.00000000000E+00 -0.45593999997E+02  0.45594000000E+02  0.51100000000E-03 0. -1.
    9900012    2    1    2    0    0 -0.22264214657E+02  0.24490173735E+02 -0.28074172931E+02  0.47787273628E+02  0.20000011781E+02 0.  0.
        -12    1    1    2    0    0  0.22264214657E+02 -0.24490173735E+02  0.28074172931E+02  0.43400726372E+02  0.00000000000E+00 0.  1.
         11    1    3    3    0    0  0.35326736962E+00  0.27390282493E+00  0.18575128006E+01  0.19105430269E+01  0.51100000000E-03 0. -1.
        -11    1    3    3    0    0  0.10495664763E+01  0.14932521805E+01 -0.25872938793E+01  0.31663041139E+01  0.51100000000E-03 0.  1.
         12    1    3    3    0    0 -0.23667048503E+02  0.22723018729E+02 -0.27344391852E+02  0.42710426488E+02  0.00000000000E+00 0. -1.
</event>
<event>
 7    1  0.2655656E-009  0.4778727E+02  0.7816164E-02  0.1312668E+00
        -11   -1    0    0    0    0  0.00000000000E+00  0.00000000000E+00  0.45593999997E+02  0.45594000000E+02  0.51100000000E-03 0.  1.
         11   -1    0    0    0    0 -0.00000000000E+00 -0.00000000000E+00 -0.45593999997E+02  0.45594000000E+02  0.51100000000E-03 0. -1.
    9900012    2    1    2    0    0  0.16093156942E+02  0.27493118126E+02 -0.29474768062E+02  0.47787271931E+02  0.20000004041E+02 0.  0.
        -12    1    1    2    0    0 -0.16093156942E+02 -0.27493118126E+02  0.29474768062E+02  0.43400728069E+02  0.00000000000E+00 0.  1.
         11    1    3    3    0    0  0.51500326973E+01  0.18795429861E+02 -0.15279605683E+02  0.24764033810E+02  0.51100000000E-03 0. -1.
        -11    1    3    3    0    0  0.35008510076E+01 -0.27491861174E+01 -0.39828240369E+01  0.59730117743E+01  0.51100000000E-03 0.  1.
        -12    1    3    3    0    0  0.74422732373E+01  0.11446874382E+02 -0.10212338342E+02  0.17050226347E+02  0.00000000000E+00 0.  1.
</event>
<event>
 7    1  0.2655656E-009  0.4778727E+02  0.7816164E-02  0.1312668E+00
        -11   -1    0    0    0    0  0.00000000000E+00  0.00000000000E+00  0.45593999997E+02  0.45594000000E+02  0.51100000000E-03 0.  1.
         11   -1    0    0    0    0 -0.00000000000E+00 -0.00000000000E+00 -0.45593999997E+02  0.45594000000E+02  0.51100000000E-03 0. -1.
    9900012    2    1    2    0    0  0.31630684099E+02  0.15219856897E+02 -0.25524091297E+02  0.47787268934E+02  0.19999990380E+02 0.  0.
        -12    1    1    2    0    0 -0.31630684099E+02 -0.15219856897E+02  0.25524091297E+02  0.43400731066E+02  0.00000000000E+00 0.  1.
         11    1    3    3    0    0  0.28354271504E+02  0.86744308369E+01 -0.16537711125E+02  0.33951529456E+02  0.51100000000E-03 0. -1.
        -11    1    3    3    0    0  0.34228628972E+01  0.79765408604E+01 -0.60946659148E+01  0.10605948679E+02  0.51100000000E-03 0.  1.
         12    1    3    3    0    0 -0.14645030275E+00 -0.14311148008E+01 -0.28917142571E+01  0.32297907996E+01  0.00000000000E+00 0. -1.
</event>
<event>
 7    1  0.2655656E-009  0.4778726E+02  0.7816164E-02  0.1312668E+00
        -11   -1    0    0    0    0  0.00000000000E+00  0.00000000000E+00  0.45593999997E+02  0.45594000000E+02  0.51100000000E-03 0.  1.
         11   -1    0    0    0    0 -0.00000000000E+00 -0.00000000000E+00 -0.45593999997E+02  0.45594000000E+02  0.51100000000E-03 0. -1.
    9900012    2    1    2    0    0 -0.37075954161E+02 -0.18186167493E+02 -0.13351440242E+02  0.47787262431E+02  0.19999960726E+02 0.  0.
        -12    1    1    2    0    0  0.37075954161E+02  0.18186167493E+02  0.13351440242E+02  0.43400737569E+02  0.00000000000E+00 0.  1.
         11    1    3    3    0    0 -0.22243536895E+02 -0.49891329930E+01 -0.69219351704E+01  0.23823928484E+02  0.51100000000E-03 0. -1.
        -11    1    3    3    0    0 -0.21342819297E+01 -0.34475566015E+01  0.33013621535E+01  0.52287472884E+01  0.51100000000E-03 0.  1.
        -12    1    3    3    0    0 -0.12698135336E+02 -0.97494778988E+01 -0.97308672248E+01  0.18734586658E+02  0.00000000000E+00 0.  1.
</event>
<event>
 7    1  0.2655656E-009  0.4778725E+02  0.7816164E-02  0.1312668E+00
        -11   -1    0    0    0    0  0.00000000000E+00  0.00000000000E+00  0.45593999997E+02  0.45594000000E+02  0.51100000000E-03 0. -1.
         11   -1    0    0    0    0 -0.00000000000E+00 -0.00000000000E+00 -0.45593999997E+02  0.45594000000E+02  0.51100000000E-03 0.  1.
    9900012    2    1    2    0    0 -0.10266417028E+02  0.32554927099E+02  0.26803037244E+02  0.47787246521E+02  0.19999888189E+02 0.  0.
        -12    1    1    2    0    0  0.10266417028E+02 -0.32554927099E+02 -0.26803037244E+02  0.43400753479E+02  0.00000000000E+00 0.  1.
         11    1    3    3    0    0 -0.71238874377E+01  0.94843040602E+01  0.19514175292E+02  0.22836480318E+02  0.51100000000E-03 0. -1.
        -11    1    3    3    0    0  0.10611913140E+01  0.75365896174E+01  0.10151589709E+01  0.76783369334E+01  0.51100000000E-03 0.  1.
         12    1    3    3    0    0 -0.42037209047E+01  0.15534033422E+02  0.62737029805E+01  0.17272429270E+02  0.00000000000E+00 0. -1.
</event>
<event>
 7    1  0.2655656E-009  0.4778729E+02  0.7816164E-02  0.1312668E+00
        -11   -1    0    0    0    0  0.00000000000E+00  0.00000000000E+00  0.45593999997E+02  0.45594000000E+02  0.51100000000E-03 0. -1.
         11   -1    0    0    0    0 -0.00000000000E+00 -0.00000000000E+00 -0.45593999997E+02  0.45594000000E+02  0.51100000000E-03 0.  1.
    9900012    2    1    2    0    0  0.38557413265E+02 -0.17228832156E+02  0.10005737712E+02  0.47787290763E+02  0.20000089903E+02 0.  0.
        -12    1    1    2    0    0 -0.38557413265E+02  0.17228832156E+02 -0.10005737712E+02  0.43400709237E+02  0.00000000000E+00 0.  1.
         11    1    3    3    0    0  0.68340993235E+01 -0.13402594242E+01  0.90597078898E+01  0.11427139458E+02  0.51100000000E-03 0. -1.
        -11    1    3    3    0    0  0.29330407809E+02 -0.14865227516E+02  0.30361601071E+01  0.33022205859E+02  0.51100000000E-03 0.  1.
        -12    1    3    3    0    0  0.23929061319E+01 -0.10233452157E+01 -0.20901302846E+01  0.33379454450E+01  0.00000000000E+00 0.  1.
</event>
<event>
 7    1  0.2655656E-009  0.4778727E+02  0.7816164E-02  0.1312668E+00
        -11   -1    0    0    0    0  0.00000000000E+00  0.00000000000E+00  0.45593999997E+02  0.45594000000E+02  0.51100000000E-03 0.  1.
         11   -1    0    0    0    0 -0.00000000000E+00 -0.00000000000E+00 -0.45593999997E+02  0.45594000000E+02  0.51100000000E-03 0. -1.
    9900012    2    1    2    0    0  0.33336130697E+02 -0.19477601562E+02 -0.19822930131E+02  0.47787272685E+02  0.20000007479E+02 0.  0.
        -12    1    1    2    0    0 -0.33336130697E+02  0.19477601562E+02  0.19822930131E+02  0.43400727315E+02  0.00000000000E+00 0.  1.
         11    1    3    3    0    0  0.25209904140E+02 -0.36993091386E+01 -0.11923177468E+02  0.28131589291E+02  0.51100000000E-03 0. -1.
        -11    1    3    3    0    0  0.26027876798E+01 -0.79774554851E+01 -0.29735948388E+01  0.89026156970E+01  0.51100000000E-03 0.  1.
         12    1    3    3    0    0  0.55234388777E+01 -0.78008369386E+01 -0.49261578243E+01  0.10753067697E+02  0.00000000000E+00 0. -1.
</event>
<event>
 7    1  0.2655656E-009  0.4778726E+02  0.7816164E-02  0.1312668E+00
        -11   -1    0    0    0    0  0.00000000000E+00  0.00000000000E+00  0.45593999997E+02  0.45594000000E+02  0.51100000000E-03 0.  1.
         11   -1    0    0    0    0 -0.00000000000E+00 -0.00000000000E+00 -0.45593999997E+02  0.45594000000E+02  0.51100000000E-03 0. -1.
    9900012    2    1    2    0    0 -0.34406225124E+02 -0.66810040075E+01  0.25596870769E+02  0.47787263428E+02  0.19999965275E+02 0.  0.
        -12    1    1    2    0    0  0.34406225124E+02  0.66810040075E+01 -0.25596870769E+02  0.43400736572E+02  0.00000000000E+00 0.  1.
         11    1    3    3    0    0 -0.10771213097E+02 -0.60959112743E+00  0.42980013668E+01  0.11613072330E+02  0.51100000000E-03 0. -1.
        -11    1    3    3    0    0 -0.11796838323E+02  0.51937470450E+01  0.89698619864E+01  0.15703465449E+02  0.51100000000E-03 0.  1.
        -12    1    3    3    0    0 -0.11838173703E+02 -0.11265159925E+02  0.12329007416E+02  0.20470725650E+02  0.00000000000E+00 0.  1.
</event>
<event>
 7    1  0.2655656E-009  0.4778727E+02  0.7816164E-02  0.1312668E+00
        -11   -1    0    0    0    0  0.00000000000E+00  0.00000000000E+00  0.45593999997E+02  0.45594000000E+02  0.51100000000E-03 0. -1.
         11   -1    0    0    0    0 -0.00000000000E+00 -0.00000000000E+00 -0.45593999997E+02  0.45594000000E+02  0.51100000000E-03 0.  1.
    9900012    2    1    2    0    0  0.10106074075E+02  0.25567636385E-01  0.42207700030E+02  0.47787270413E+02  0.19999997120E+02 0.  0.
        -12    1    1    2    0    0 -0.10106074075E+02 -0.25567636385E-01 -0.42207700030E+02  0.43400729587E+02  0.00000000000E+00 0.  1.
         11    1    3    3    0    0  0.59010677411E+00  0.26343576673E+01  0.67351451643E+01  0.72560489917E+01  0.51100000000E-03 0. -1.
        -11    1    3    3    0    0  0.46214124873E+01  0.66626041240E+01  0.93088070175E+01  0.12345105728E+02  0.51100000000E-03 0.  1.
        -12    1    3    3    0    0  0.48945548138E+01 -0.92713941550E+01  0.26163747848E+02  0.28186115693E+02  0.00000000000E+00 0.  1.
</event>
<event>
 7    1  0.2655656E-009  0.4778727E+02  0.7816164E-02  0.1312668E+00
        -11   -1    0    0    0    0  0.00000000000E+00  0.00000000000E+00  0.45593999997E+02  0.45594000000E+02  0.51100000000E-03 0.  1.
         11   -1    0    0    0    0 -0.00000000000E+00 -0.00000000000E+00 -0.45593999997E+02  0.45594000000E+02  0.51100000000E-03 0. -1.
    9900012    2    1    2    0    0 -0.13065059263E+02 -0.33838185923E+02 -0.23830755561E+02  0.47787268315E+02  0.19999987557E+02 0.  0.
        -12    1    1    2    0    0  0.13065059263E+02  0.33838185923E+02  0.23830755561E+02  0.43400731685E+02  0.00000000000E+00 0.  1.
         11    1    3    3    0    0 -0.17873418734E+01 -0.11035362848E+02  0.26731853436E+00  0.11182364850E+02  0.51100000000E-03 0. -1.
        -11    1    3    3    0    0 -0.11047671295E+02 -0.11812858648E+02 -0.11279443311E+02  0.19718532201E+02  0.51100000000E-03 0.  1.
         12    1    3    3    0    0 -0.23004609453E+00 -0.10989964427E+02 -0.12818630785E+02  0.16886371265E+02  0.00000000000E+00 0. -1.
</event>
<event>
 7    1  0.2655656E-009  0.4778725E+02  0.7816164E-02  0.1312668E+00
        -11   -1    0    0    0    0  0.00000000000E+00  0.00000000000E+00  0.45593999997E+02  0.45594000000E+02  0.51100000000E-03 0.  1.
         11   -1    0    0    0    0 -0.00000000000E+00 -0.00000000000E+00 -0.45593999997E+02  0.45594000000E+02  0.51100000000E-03 0. -1.
    9900012    2    1    2    0    0 -0.22553319336E+02  0.36994832801E+02 -0.25209153252E+01  0.47787252528E+02  0.19999915577E+02 0.  0.
        -12    1    1    2    0    0  0.22553319336E+02 -0.36994832801E+02  0.25209153252E+01  0.43400747472E+02  0.00000000000E+00 0.  1.
         11    1    3    3    0    0 -0.96270027391E+01  0.12730203062E+02 -0.56518166873E+01  0.16931635593E+02  0.51100000000E-03 0. -1.
        -11    1    3    3    0    0 -0.42593265905E+01  0.18700978159E+02  0.61181410966E+01  0.20132066408E+02  0.51100000000E-03 0.  1.
        -12    1    3    3    0    0 -0.86669900067E+01  0.55636515794E+01 -0.29872397345E+01  0.10723550527E+02  0.00000000000E+00 0.  1.
</event>
<event>
 7    1  0.2655656E-009  0.4778727E+02  0.7816164E-02  0.1312668E+00
        -11   -1    0    0    0    0  0.00000000000E+00  0.00000000000E+00  0.45593999997E+02  0.45594000000E+02  0.51100000000E-03 0.  1.
         11   -1    0    0    0    0 -0.00000000000E+00 -0.00000000000E+00 -0.45593999997E+02  0.45594000000E+02  0.51100000000E-03 0. -1.
    9900012    2    1    2    0    0 -0.24644146584E+02  0.25288227164E+01 -0.35635579540E+02  0.47787269196E+02  0.19999991571E+02 0.  0.
        -12    1    1    2    0    0  0.24644146584E+02 -0.25288227164E+01  0.35635579540E+02  0.43400730804E+02  0.00000000000E+00 0.  1.
         11    1    3    3    0    0 -0.70204115741E+00  0.50906732786E+01 -0.67142717706E+00  0.51825313247E+01  0.51100000000E-03 0. -1.
        -11    1    3    3    0    0 -0.21489274453E+02 -0.29747383690E+01 -0.32695652392E+02  0.39238293419E+02  0.51100000000E-03 0.  1.
         12    1    3    3    0    0 -0.24528309738E+01  0.41288780682E+00 -0.22684999712E+01  0.33664444518E+01  0.00000000000E+00 0. -1.
</event>
<event>
 7    1  0.2655656E-009  0.4778727E+02  0.7816164E-02  0.1312668E+00
        -11   -1    0    0    0    0  0.00000000000E+00  0.00000000000E+00  0.45593999997E+02  0.45594000000E+02  0.51100000000E-03 0.  1.
         11   -1    0    0    0    0 -0.00000000000E+00 -0.00000000000E+00 -0.45593999997E+02  0.45594000000E+02  0.51100000000E-03 0. -1.
    9900012    2    1    2    0    0  0.29613278113E+02  0.31697789219E+02  0.13882503778E+01  0.47787270500E+02  0.19999997519E+02 0.  0.
        -12    1    1    2    0    0 -0.29613278113E+02 -0.31697789219E+02 -0.13882503778E+01  0.43400729500E+02  0.00000000000E+00 0.  1.
         11    1    3    3    0    0  0.50771143631E+01  0.11866693864E+02  0.10248910177E+01  0.12947815081E+02  0.51100000000E-03 0. -1.
        -11    1    3    3    0    0  0.22875731294E+02  0.10795177538E+02  0.24654510839E+01  0.25414826177E+02  0.51100000000E-03 0.  1.
        -12    1    3    3    0    0  0.16604324568E+01  0.90359178172E+01 -0.21020917238E+01  0.94246292425E+01  0.00000000000E+00 0.  1.
</event>
<event>
 7    1  0.2655656E-009  0.4778727E+02  0.7816164E-02  0.1312668E+00
        -11   -1    0    0    0    0  0.00000000000E+00  0.00000000000E+00  0.45593999997E+02  0.45594000000E+02  0.51100000000E-03 0.  1.
         11   -1    0    0    0    0 -0.00000000000E+00 -0.00000000000E+00 -0.45593999997E+02  0.45594000000E+02  0.51100000000E-03 0. -1.
    9900012    2    1    2    0    0  0.23122195650E+02 -0.79372542022E+01 -0.35860664199E+02  0.47787272210E+02  0.20000005313E+02 0.  0.
        -12    1    1    2    0    0 -0.23122195650E+02  0.79372542022E+01  0.35860664199E+02  0.43400727790E+02  0.00000000000E+00 0.  1.
         11    1    3    3    0    0 -0.24773803650E+01 -0.21444413573E+01 -0.90296838137E+01  0.96057915990E+01  0.51100000000E-03 0. -1.
        -11    1    3    3    0    0  0.14821932737E+02 -0.45219065780E+01 -0.11064232579E+02  0.19040865841E+02  0.51100000000E-03 0.  1.
        -12    1    3    3    0    0  0.10777643278E+02 -0.12709062669E+01 -0.15766747807E+02  0.19140614770E+02  0.00000000000E+00 0.  1.
</event>
<event>
 7    1  0.2762004E-009  0.4778727E+02  0.7816164E-02  0.1312668E+00
        -11   -1    0    0    0    0  0.00000000000E+00  0.00000000000E+00  0.45593999997E+02  0.45594000000E+02  0.51100000000E-03 0. -1.
         11   -1    0    0    0    0 -0.00000000000E+00 -0.00000000000E+00 -0.45593999997E+02  0.45594000000E+02  0.51100000000E-03 0.  1.
    9900012    2    1    2    0    0  0.23497092307E+01 -0.20444203303E+02  0.38211737926E+02  0.47787268468E+02  0.19999988255E+02 0.  0.
        -12    1    1    2    0    0 -0.23497092307E+01  0.20444203303E+02 -0.38211737926E+02  0.43400731532E+02  0.00000000000E+00 0.  1.
         11    1    3    3    0    0  0.48615442959E+01 -0.11392618411E+02  0.28737203442E+02  0.31293022052E+02  0.51100000000E-03 0. -1.
        -11    1    3    3    0    0 -0.44374883972E+01 -0.34594002976E+00  0.42823851778E+01  0.61765525054E+01  0.51100000000E-03 0.  1.
         12    1    3    3    0    0  0.19256533320E+01 -0.87056448628E+01  0.51921493059E+01  0.10317693911E+02  0.00000000000E+00 0. -1.
</event>
<event>
 7    1  0.2655656E-009  0.4778727E+02  0.7816164E-02  0.1312668E+00
        -11   -1    0    0    0    0  0.00000000000E+00  0.00000000000E+00  0.45593999997E+02  0.45594000000E+02  0.51100000000E-03 0.  1.
         11   -1    0    0    0    0 -0.00000000000E+00 -0.00000000000E+00 -0.45593999997E+02  0.45594000000E+02  0.51100000000E-03 0. -1.
    9900012    2    1    2    0    0 -0.18435207951E+02 -0.20244383146E+02 -0.33673898599E+02  0.47787269729E+02  0.19999994004E+02 0.  0.
        -12    1    1    2    0    0  0.18435207951E+02  0.20244383146E+02  0.33673898599E+02  0.43400730271E+02  0.00000000000E+00 0.  1.
         11    1    3    3    0    0 -0.51862986894E+01 -0.12576366517E+01 -0.16138037001E+02  0.16997516953E+02  0.51100000000E-03 0. -1.
        -11    1    3    3    0    0 -0.10097264900E+02 -0.66079447589E+01 -0.55846237605E+01  0.13296906227E+02  0.51100000000E-03 0.  1.
         12    1    3    3    0    0 -0.31516443619E+01 -0.12378801735E+02 -0.11951237838E+02  0.17492846550E+02  0.00000000000E+00 0. -1.
</event>
<event>
 7    1  0.2655656E-009  0.4778727E+02  0.7816164E-02  0.1312668E+00
        -11   -1    0    0    0    0  0.00000000000E+00  0.00000000000E+00  0.45593999997E+02  0.45594000000E+02  0.51100000000E-03 0.  1.
         11   -1    0    0    0    0 -0.00000000000E+00 -0.00000000000E+00 -0.45593999997E+02  0.45594000000E+02  0.51100000000E-03 0. -1.
    9900012    2    1    2    0    0 -0.32406158681E+02 -0.12303889015E+02  0.26116631641E+02  0.47787271277E+02  0.20000001061E+02 0.  0.
        -12    1    1    2    0    0  0.32406158681E+02  0.12303889015E+02 -0.26116631641E+02  0.43400728723E+02  0.00000000000E+00 0.  1.
         11    1    3    3    0    0 -0.17994689534E+01 -0.77459436371E+01  0.64148560339E+01  0.10217049943E+02  0.51100000000E-03 0.  1.
        -11    1    3    3    0    0 -0.18908353169E+02 -0.17275523705E+01  0.74523216180E+01  0.20397238895E+02  0.51100000000E-03 0. -1.
        -12    1    3    3    0    0 -0.11698336559E+02 -0.28303930073E+01  0.12249453990E+02  0.17172982439E+02  0.00000000000E+00 0.  1.
</event>
<event>
 7    1  0.2655656E-009  0.4778728E+02  0.7816164E-02  0.1312668E+00
        -11   -1    0    0    0    0  0.00000000000E+00  0.00000000000E+00  0.45593999997E+02  0.45594000000E+02  0.51100000000E-03 0.  1.
         11   -1    0    0    0    0 -0.00000000000E+00 -0.00000000000E+00 -0.45593999997E+02  0.45594000000E+02  0.51100000000E-03 0. -1.
    9900012    2    1    2    0    0 -0.31034958931E+02  0.36441394200E+01 -0.30119337438E+02  0.47787275172E+02  0.20000018818E+02 0.  0.
        -12    1    1    2    0    0  0.31034958931E+02 -0.36441394200E+01  0.30119337438E+02  0.43400724828E+02  0.00000000000E+00 0.  1.
         11    1    3    3    0    0 -0.21747217344E+02  0.56034657708E+01 -0.99205620729E+01  0.24551127122E+02  0.51100000000E-03 0. -1.
        -11    1    3    3    0    0 -0.73623593852E+01  0.10195955126E+01 -0.16575837993E+02  0.18165965875E+02  0.51100000000E-03 0.  1.
        -12    1    3    3    0    0 -0.19253822018E+01 -0.29789218634E+01 -0.36229373712E+01  0.50701821749E+01  0.00000000000E+00 0.  1.
</event>
<event>
 7    1  0.2655656E-009  0.4778727E+02  0.7816164E-02  0.1312668E+00
        -11   -1    0    0    0    0  0.00000000000E+00  0.00000000000E+00  0.45593999997E+02  0.45594000000E+02  0.51100000000E-03 0. -1.
         11   -1    0    0    0    0 -0.00000000000E+00 -0.00000000000E+00 -0.45593999997E+02  0.45594000000E+02  0.51100000000E-03 0.  1.
    9900012    2    1    2    0    0  0.30819600755E+02  0.97380677366E+01  0.28964558047E+02  0.47787269859E+02  0.19999994593E+02 0.  0.
        -12    1    1    2    0    0 -0.30819600755E+02 -0.97380677366E+01 -0.28964558047E+02  0.43400730141E+02  0.00000000000E+00 0.  1.
         11    1    3    3    0    0  0.51419956390E+01  0.56376665489E+01  0.76190015647E+00  0.76683697992E+01  0.51100000000E-03 0. -1.
        -11    1    3    3    0    0  0.12464064438E+02 -0.68511364681E+00  0.20740355286E+02  0.24207119214E+02  0.51100000000E-03 0.  1.
         12    1    3    3    0    0  0.13213540679E+02  0.47855148345E+01  0.74623026044E+01  0.15911780845E+02  0.00000000000E+00 0. -1.
</event>
<event>
 7    1  0.2655656E-009  0.4778727E+02  0.7816164E-02  0.1312668E+00
        -11   -1    0    0    0    0  0.00000000000E+00  0.00000000000E+00  0.45593999997E+02  0.45594000000E+02  0.51100000000E-03 0.  1.
         11   -1    0    0    0    0 -0.00000000000E+00 -0.00000000000E+00 -0.45593999997E+02  0.45594000000E+02  0.51100000000E-03 0. -1.
    9900012    2    1    2    0    0 -0.28234700319E+02  0.32644449013E+02 -0.45568270460E+01  0.47787273897E+02  0.20000013007E+02 0.  0.
        -12    1    1    2    0    0  0.28234700319E+02 -0.32644449013E+02  0.45568270460E+01  0.43400726103E+02  0.00000000000E+00 0.  1.
         11    1    3    3    0    0 -0.23384796329E+02  0.31805587700E+02  0.62243517178E+00  0.39482040652E+02  0.51100000000E-03 0. -1.
        -11    1    3    3    0    0 -0.12725461345E+01  0.77626253421E+00 -0.43970177364E+01  0.46428140628E+01  0.51100000000E-03 0.  1.
         12    1    3    3    0    0 -0.35773578560E+01  0.62598779410E-01 -0.78224448140E+00  0.36624191821E+01  0.00000000000E+00 0. -1.
</event>
<event>
 7    1  0.2655656E-009  0.4778727E+02  0.7816164E-02  0.1312668E+00
        -11   -1    0    0    0    0  0.00000000000E+00  0.00000000000E+00  0.45593999997E+02  0.45594000000E+02  0.51100000000E-03 0.  1.
         11   -1    0    0    0    0 -0.00000000000E+00 -0.00000000000E+00 -0.45593999997E+02  0.45594000000E+02  0.51100000000E-03 0. -1.
    9900012    2    1    2    0    0  0.19594966881E+02  0.28323457934E+02 -0.26409129961E+02  0.47787272567E+02  0.20000006941E+02 0.  0.
        -12    1    1    2    0    0 -0.19594966881E+02 -0.28323457934E+02  0.26409129961E+02  0.43400727433E+02  0.00000000000E+00 0.  1.
         11    1    3    3    0    0  0.26026303526E+01  0.15925636326E+02 -0.83141157674E+01  0.18152798638E+02  0.51100000000E-03 0. -1.
        -11    1    3    3    0    0  0.70819385604E+01 -0.59730918684E-01 -0.29822516986E+01  0.76844809200E+01  0.51100000000E-03 0.  1.
        -12    1    3    3    0    0  0.99103979681E+01  0.12457552527E+02 -0.15112762495E+02  0.21949993009E+02  0.00000000000E+00 0.  1.
</event>
<event>
 7    1  0.2655656E-009  0.4778730E+02  0.7816164E-02  0.1312668E+00
        -11   -1    0    0    0    0  0.00000000000E+00  0.00000000000E+00  0.45593999997E+02  0.45594000000E+02  0.51100000000E-03 0. -1.
         11   -1    0    0    0    0 -0.00000000000E+00 -0.00000000000E+00 -0.45593999997E+02  0.45594000000E+02  0.51100000000E-03 0.  1.
    9900012    2    1    2    0    0 -0.16998232760E+02 -0.24880038353E+02  0.31235630998E+02  0.47787298747E+02  0.20000126306E+02 0.  0.
        -12    1    1    2    0    0  0.16998232760E+02  0.24880038353E+02 -0.31235630998E+02  0.43400701253E+02  0.00000000000E+00 0.  1.
         11    1    3    3    0    0 -0.75549027777E+01 -0.28227949581E+01  0.47193700611E+01  0.93443662916E+01  0.51100000000E-03 0. -1.
        -11    1    3    3    0    0 -0.22810894242E+00 -0.17161883380E+02  0.14011849112E+02  0.22156583460E+02  0.51100000000E-03 0.  1.
        -12    1    3    3    0    0 -0.92152210402E+01 -0.48953600152E+01  0.12504411825E+02  0.16286348995E+02  0.00000000000E+00 0.  1.
</event>
<event>
 7    1  0.2655656E-009  0.4778727E+02  0.7816164E-02  0.1312668E+00
        -11   -1    0    0    0    0  0.00000000000E+00  0.00000000000E+00  0.45593999997E+02  0.45594000000E+02  0.51100000000E-03 0.  1.
         11   -1    0    0    0    0 -0.00000000000E+00 -0.00000000000E+00 -0.45593999997E+02  0.45594000000E+02  0.51100000000E-03 0. -1.
    9900012    2    1    2    0    0 -0.21925456377E+02 -0.33251922200E+02 -0.17239701128E+02  0.47787271177E+02  0.20000000606E+02 0.  0.
        -12    1    1    2    0    0  0.21925456377E+02  0.33251922200E+02  0.17239701128E+02  0.43400728823E+02  0.00000000000E+00 0.  1.
         11    1    3    3    0    0 -0.18344380753E+02 -0.31003432746E+02 -0.16860694020E+02  0.39774516343E+02  0.51100000000E-03 0. -1.
        -11    1    3    3    0    0 -0.55681469791E+01 -0.10072970919E+01 -0.17874755593E+00  0.56613478220E+01  0.51100000000E-03 0.  1.
        -12    1    3    3    0    0  0.19870713549E+01 -0.12411923626E+01 -0.20025955236E+00  0.23514070125E+01  0.00000000000E+00 0.  1.
</event>
<event>
 7    1  0.2655656E-009  0.4778727E+02  0.7816164E-02  0.1312668E+00
        -11   -1    0    0    0    0  0.00000000000E+00  0.00000000000E+00  0.45593999997E+02  0.45594000000E+02  0.51100000000E-03 0. -1.
         11   -1    0    0    0    0 -0.00000000000E+00 -0.00000000000E+00 -0.45593999997E+02  0.45594000000E+02  0.51100000000E-03 0.  1.
    9900012    2    1    2    0    0 -0.20501795096E+02 -0.37421387737E+02  0.79334303908E+01  0.47787272125E+02  0.20000004927E+02 0.  0.
        -12    1    1    2    0    0  0.20501795096E+02  0.37421387737E+02 -0.79334303908E+01  0.43400727875E+02  0.00000000000E+00 0.  1.
         11    1    3    3    0    0 -0.11924688655E+02 -0.93183806957E+01  0.58085874638E+01  0.16210185283E+02  0.51100000000E-03 0. -1.
        -11    1    3    3    0    0 -0.11897418935E+01 -0.20615526486E+02 -0.78146580667E+00  0.20664610016E+02  0.51100000000E-03 0.  1.
        -12    1    3    3    0    0 -0.73873645473E+01 -0.74874805554E+01  0.29063087337E+01  0.10912476826E+02  0.00000000000E+00 0.  1.
</event>
<event>
 7    1  0.2655656E-009  0.4778727E+02  0.7816164E-02  0.1312668E+00
        -11   -1    0    0    0    0  0.00000000000E+00  0.00000000000E+00  0.45593999997E+02  0.45594000000E+02  0.51100000000E-03 0.  1.
         11   -1    0    0    0    0 -0.00000000000E+00 -0.00000000000E+00 -0.45593999997E+02  0.45594000000E+02  0.51100000000E-03 0. -1.
    9900012    2    1    2    0    0  0.33928725322E+01  0.30815801755E+02 -0.30372651077E+02  0.47787272411E+02  0.20000006230E+02 0.  0.
        -12    1    1    2    0    0 -0.33928725322E+01 -0.30815801755E+02  0.30372651077E+02  0.43400727589E+02  0.00000000000E+00 0.  1.
         11    1    3    3    0    0 -0.45712113260E+01  0.16582316567E+02 -0.24061740244E+02  0.29577635801E+02  0.51100000000E-03 0. -1.
        -11    1    3    3    0    0  0.50216952467E+01  0.39656003474E+01 -0.22591069515E+01  0.67857920500E+01  0.51100000000E-03 0.  1.
         12    1    3    3    0    0  0.29423886114E+01  0.10267884841E+02 -0.40518038813E+01  0.11423844560E+02  0.00000000000E+00 0. -1.
</event>
<event>
 7    1  0.3264911E-009  0.4778727E+02  0.7816164E-02  0.1312668E+00
        -11   -1    0    0    0    0  0.00000000000E+00  0.00000000000E+00  0.45593999997E+02  0.45594000000E+02  0.51100000000E-03 0. -1.
         11   -1    0    0    0    0 -0.00000000000E+00 -0.00000000000E+00 -0.45593999997E+02  0.45594000000E+02  0.51100000000E-03 0.  1.
    9900012    2    1    2    0    0 -0.33123755079E+02 -0.16681677338E+01  0.27993881981E+02  0.47787270024E+02  0.19999995345E+02 0.  0.
        -12    1    1    2    0    0  0.33123755079E+02  0.16681677338E+01 -0.27993881981E+02  0.43400729976E+02  0.00000000000E+00 0.  1.
         11    1    3    3    0    0 -0.21758712199E+02  0.59745107824E+01  0.19447961465E+02  0.29788580716E+02  0.51100000000E-03 0.  1.
        -11    1    3    3    0    0  0.30591500245E+00 -0.28558155222E+01  0.31950707164E+01  0.42962475987E+01  0.51100000000E-03 0. -1.
         12    1    3    3    0    0 -0.11670957882E+02 -0.47868629940E+01  0.53508497997E+01  0.13702441709E+02  0.00000000000E+00 0. -1.
</event>
<event>
 7    1  0.2655656E-009  0.4778727E+02  0.7816164E-02  0.1312668E+00
        -11   -1    0    0    0    0  0.00000000000E+00  0.00000000000E+00  0.45593999997E+02  0.45594000000E+02  0.51100000000E-03 0. -1.
         11   -1    0    0    0    0 -0.00000000000E+00 -0.00000000000E+00 -0.45593999997E+02  0.45594000000E+02  0.51100000000E-03 0.  1.
    9900012    2    1    2    0    0  0.24983077218E+01 -0.41855963056E+02 -0.11200886075E+02  0.47787273811E+02  0.20000012615E+02 0.  0.
        -12    1    1    2    0    0 -0.24983077218E+01  0.41855963056E+02  0.11200886075E+02  0.43400726189E+02  0.00000000000E+00 0.  1.
         11    1    3    3    0    0 -0.28238247390E-01 -0.31170813056E+02 -0.12742877675E+02  0.33674936016E+02  0.51100000000E-03 0. -1.
        -11    1    3    3    0    0  0.28835846017E+01 -0.14466293729E+01 -0.24409375703E+01  0.40454880028E+01  0.51100000000E-03 0.  1.
         12    1    3    3    0    0 -0.35703863245E+00 -0.92385206271E+01  0.39829291706E+01  0.10066849792E+02  0.00000000000E+00 0. -1.
</event>
<event>
 7    1  0.2655656E-009  0.4778727E+02  0.7816164E-02  0.1312668E+00
        -11   -1    0    0    0    0  0.00000000000E+00  0.00000000000E+00  0.45593999997E+02  0.45594000000E+02  0.51100000000E-03 0. -1.
         11   -1    0    0    0    0 -0.00000000000E+00 -0.00000000000E+00 -0.45593999997E+02  0.45594000000E+02  0.51100000000E-03 0.  1.
    9900012    2    1    2    0    0 -0.39571130087E+02  0.40727734104E+01  0.17354007871E+02  0.47787269490E+02  0.19999992911E+02 0.  0.
        -12    1    1    2    0    0  0.39571130087E+02 -0.40727734104E+01 -0.17354007871E+02  0.43400730510E+02  0.00000000000E+00 0.  1.
         11    1    3    3    0    0 -0.26978426151E+02  0.30482270623E+01  0.11176047309E+02  0.29360367837E+02  0.51100000000E-03 0. -1.
        -11    1    3    3    0    0 -0.37220488966E+00  0.45718329253E+01  0.22530065984E+01  0.51104042668E+01  0.51100000000E-03 0.  1.
         12    1    3    3    0    0 -0.12220499047E+02 -0.35472865772E+01  0.39249539639E+01  0.13316497386E+02  0.00000000000E+00 0. -1.
</event>
<event>
 7    1  0.2655656E-009  0.4778727E+02  0.7816164E-02  0.1312668E+00
        -11   -1    0    0    0    0  0.00000000000E+00  0.00000000000E+00  0.45593999997E+02  0.45594000000E+02  0.51100000000E-03 0.  1.
         11   -1    0    0    0    0 -0.00000000000E+00 -0.00000000000E+00 -0.45593999997E+02  0.45594000000E+02  0.51100000000E-03 0. -1.
    9900012    2    1    2    0    0  0.85629386093E+01 -0.17537998970E+01 -0.42511449275E+02  0.47787273610E+02  0.20000011696E+02 0.  0.
        -12    1    1    2    0    0 -0.85629386093E+01  0.17537998970E+01  0.42511449275E+02  0.43400726390E+02  0.00000000000E+00 0.  1.
         11    1    3    3    0    0  0.54625763170E+01 -0.21458525413E+01 -0.37623261571E+01  0.69713357057E+01  0.51100000000E-03 0. -1.
        -11    1    3    3    0    0  0.45171936921E+01 -0.49926745156E+01 -0.15319111128E+02  0.16733409804E+02  0.51100000000E-03 0.  1.
         12    1    3    3    0    0 -0.14168313998E+01  0.53847271600E+01 -0.23430011991E+02  0.24082528100E+02  0.00000000000E+00 0. -1.
</event>
<event>
 7    1  0.2655656E-009  0.4778727E+02  0.7816164E-02  0.1312668E+00
        -11   -1    0    0    0    0  0.00000000000E+00  0.00000000000E+00  0.45593999997E+02  0.45594000000E+02  0.51100000000E-03 0. -1.
         11   -1    0    0    0    0 -0.00000000000E+00 -0.00000000000E+00 -0.45593999997E+02  0.45594000000E+02  0.51100000000E-03 0.  1.
    9900012    2    1    2    0    0 -0.30174652184E+02 -0.16110894391E+01  0.31153138113E+02  0.47787271229E+02  0.20000000840E+02 0.  0.
        -12    1    1    2    0    0  0.30174652184E+02  0.16110894391E+01 -0.31153138113E+02  0.43400728771E+02  0.00000000000E+00 0.  1.
         11    1    3    3    0    0 -0.64812959534E+01 -0.78143157762E+01  0.95271743572E+01  0.13922563693E+02  0.51100000000E-03 0. -1.
        -11    1    3    3    0    0 -0.14903473919E+02  0.45474063176E+01  0.18939621593E+02  0.24525531705E+02  0.51100000000E-03 0.  1.
         12    1    3    3    0    0 -0.87898823112E+01  0.16558200195E+01  0.26863421628E+01  0.93391758307E+01  0.00000000000E+00 0. -1.
</event>
<event>
 7    1  0.2655656E-009  0.4778728E+02  0.7816164E-02  0.1312668E+00
        -11   -1    0    0    0    0  0.00000000000E+00  0.00000000000E+00  0.45593999997E+02  0.45594000000E+02  0.51100000000E-03 0. -1.
         11   -1    0    0    0    0 -0.00000000000E+00 -0.00000000000E+00 -0.45593999997E+02  0.45594000000E+02  0.51100000000E-03 0.  1.
    9900012    2    1    2    0    0 -0.23900235488E+02  0.34369014519E+02  0.11453055394E+02  0.47787275429E+02  0.20000019993E+02 0.  0.
        -12    1    1    2    0    0  0.23900235488E+02 -0.34369014519E+02 -0.11453055394E+02  0.43400724571E+02  0.00000000000E+00 0.  1.
         11    1    3    3    0    0 -0.84028754465E+01  0.17297644938E+02  0.58423325231E+01  0.20098499589E+02  0.51100000000E-03 0. -1.
        -11    1    3    3    0    0 -0.55594241398E+01 -0.11854041828E+01  0.37702980040E+01  0.68211089379E+01  0.51100000000E-03 0.  1.
        -12    1    3    3    0    0 -0.99379359017E+01  0.18256773764E+02  0.18404248672E+01  0.20867666902E+02  0.00000000000E+00 0.  1.
</event>
<event>
 7    1  0.2655656E-009  0.4778727E+02  0.7816164E-02  0.1312668E+00
        -11   -1    0    0    0    0  0.00000000000E+00  0.00000000000E+00  0.45593999997E+02  0.45594000000E+02  0.51100000000E-03 0.  1.
         11   -1    0    0    0    0 -0.00000000000E+00 -0.00000000000E+00 -0.45593999997E+02  0.45594000000E+02  0.51100000000E-03 0. -1.
    9900012    2    1    2    0    0  0.56521229632E+01  0.20067365715E+02 -0.38065438195E+02  0.47787271369E+02  0.20000001478E+02 0.  0.
        -12    1    1    2    0    0 -0.56521229632E+01 -0.20067365715E+02  0.38065438195E+02  0.43400728631E+02  0.00000000000E+00 0.  1.
         11    1    3    3    0    0  0.19793890683E+01  0.17793479263E+02 -0.29579021962E+02  0.34575199578E+02  0.51100000000E-03 0. -1.
        -11    1    3    3    0    0  0.23416707122E+00 -0.42605162318E+00  0.18903868522E+01  0.19519008466E+01  0.51100000000E-03 0.  1.
        -12    1    3    3    0    0  0.34385668236E+01  0.26999380749E+01 -0.10376803085E+02  0.11260170944E+02  0.00000000000E+00 0.  1.
</event>
<event>
 7    1  0.2655656E-009  0.4778727E+02  0.7816164E-02  0.1312668E+00
        -11   -1    0    0    0    0  0.00000000000E+00  0.00000000000E+00  0.45593999997E+02  0.45594000000E+02  0.51100000000E-03 0.  1.
         11   -1    0    0    0    0 -0.00000000000E+00 -0.00000000000E+00 -0.45593999997E+02  0.45594000000E+02  0.51100000000E-03 0. -1.
    9900012    2    1    2    0    0 -0.42851962675E+02 -0.54873104369E+00 -0.68579640561E+01  0.47787268649E+02  0.19999989076E+02 0.  0.
        -12    1    1    2    0    0  0.42851962675E+02  0.54873104369E+00  0.68579640561E+01  0.43400731351E+02  0.00000000000E+00 0.  1.
         11    1    3    3    0    0 -0.12689607394E+02  0.21491944636E+01 -0.93960514936E+01  0.15935211219E+02  0.51100000000E-03 0. -1.
        -11    1    3    3    0    0 -0.20721746321E+01  0.17602110799E+01 -0.15316531658E+01  0.31206109070E+01  0.51100000000E-03 0.  1.
         12    1    3    3    0    0 -0.28090180649E+02 -0.44581365872E+01  0.40697406033E+01  0.28731446523E+02  0.00000000000E+00 0. -1.
</event>
<event>
 7    1  0.2655656E-009  0.4778723E+02  0.7816164E-02  0.1312668E+00
        -11   -1    0    0    0    0  0.00000000000E+00  0.00000000000E+00  0.45593999997E+02  0.45594000000E+02  0.51100000000E-03 0. -1.
         11   -1    0    0    0    0 -0.00000000000E+00 -0.00000000000E+00 -0.45593999997E+02  0.45594000000E+02  0.51100000000E-03 0.  1.
    9900012    2    1    2    0    0 -0.43100534309E+02 -0.17314273887E+00  0.50932056047E+01  0.47787230658E+02  0.19999815861E+02 0.  0.
        -12    1    1    2    0    0  0.43100534309E+02  0.17314273887E+00 -0.50932056047E+01  0.43400769342E+02  0.00000000000E+00 0.  1.
         11    1    3    3    0    0 -0.31291239223E+02 -0.55625633664E-01 -0.23197106045E+01  0.31377154171E+02  0.51100000000E-03 0. -1.
        -11    1    3    3    0    0  0.97675778090E-01 -0.17774685180E+01  0.32171520418E+01  0.36768196055E+01  0.51100000000E-03 0.  1.
        -12    1    3    3    0    0 -0.11906970865E+02  0.16599514128E+01  0.41957641674E+01  0.12733256882E+02  0.00000000000E+00 0.  1.
</event>
<event>
 7    1  0.2655656E-009  0.4778727E+02  0.7816164E-02  0.1312668E+00
        -11   -1    0    0    0    0  0.00000000000E+00  0.00000000000E+00  0.45593999997E+02  0.45594000000E+02  0.51100000000E-03 0.  1.
         11   -1    0    0    0    0 -0.00000000000E+00 -0.00000000000E+00 -0.45593999997E+02  0.45594000000E+02  0.51100000000E-03 0. -1.
    9900012    2    1    2    0    0 -0.56319040263E+01  0.42822611353E+02  0.42578011374E+01  0.47787271244E+02  0.20000000911E+02 0.  0.
        -12    1    1    2    0    0  0.56319040263E+01 -0.42822611353E+02 -0.42578011374E+01  0.43400728756E+02  0.00000000000E+00 0.  1.
         11    1    3    3    0    0 -0.69496449255E+01  0.31043336661E+01  0.15440743501E+01  0.77665061618E+01  0.51100000000E-03 0. -1.
        -11    1    3    3    0    0 -0.82251965645E+00  0.28205947649E+02  0.20547114441E+01  0.28292646761E+02  0.51100000000E-03 0.  1.
         12    1    3    3    0    0  0.21402605557E+01  0.11512330037E+02  0.65901534324E+00  0.11728118321E+02  0.00000000000E+00 0. -1.
</event>
<event>
 7    1 -0.2655656E-009  0.4778727E+02  0.7816164E-02  0.1312668E+00
        -11   -1    0    0    0    0  0.00000000000E+00  0.00000000000E+00  0.45593999997E+02  0.45594000000E+02  0.51100000000E-03 0.  1.
         11   -1    0    0    0    0 -0.00000000000E+00 -0.00000000000E+00 -0.45593999997E+02  0.45594000000E+02  0.51100000000E-03 0. -1.
    9900012    2    1    2    0    0 -0.64494686963E+01 -0.13522951348E+02 -0.40732760115E+02  0.47787267216E+02  0.19999982544E+02 0.  0.
        -12    1    1    2    0    0  0.64494686963E+01  0.13522951348E+02  0.40732760115E+02  0.43400732784E+02  0.00000000000E+00 0.  1.
         11    1    3    3    0    0  0.61441413777E+01 -0.19110014366E+01 -0.13534047315E+02  0.14985754460E+02  0.51100000000E-03 0. -1.
        -11    1    3    3    0    0 -0.20945014297E+01 -0.59415271163E+01 -0.77968026473E+01  0.10023912035E+02  0.51100000000E-03 0.  1.
         12    1    3    3    0    0 -0.10499108644E+02 -0.56704227948E+01 -0.19401910153E+02  0.22777600720E+02  0.00000000000E+00 0. -1.
</event>
<event>
 7    1  0.2655656E-009  0.4778727E+02  0.7816164E-02  0.1312668E+00
        -11   -1    0    0    0    0  0.00000000000E+00  0.00000000000E+00  0.45593999997E+02  0.45594000000E+02  0.51100000000E-03 0.  1.
         11   -1    0    0    0    0 -0.00000000000E+00 -0.00000000000E+00 -0.45593999997E+02  0.45594000000E+02  0.51100000000E-03 0. -1.
    9900012    2    1    2    0    0 -0.37280233841E+02 -0.69178667624E+01 -0.21117533725E+02  0.47787274817E+02  0.20000017202E+02 0.  0.
        -12    1    1    2    0    0  0.37280233841E+02  0.69178667624E+01  0.21117533725E+02  0.43400725183E+02  0.00000000000E+00 0.  1.
         11    1    3    3    0    0 -0.20841973666E+02 -0.26143252442E+01 -0.18574404901E+02  0.28039812419E+02  0.51100000000E-03 0. -1.
        -11    1    3    3    0    0 -0.82901546525E+01  0.93270620128E+00  0.26555444278E+01  0.87549141337E+01  0.51100000000E-03 0.  1.
        -12    1    3    3    0    0 -0.81481055220E+01 -0.52362477195E+01 -0.51986732515E+01  0.10992548265E+02  0.00000000000E+00 0.  1.
</event>
<event>
 7    1  0.2655656E-009  0.4778728E+02  0.7816164E-02  0.1312668E+00
        -11   -1    0    0    0    0  0.00000000000E+00  0.00000000000E+00  0.45593999997E+02  0.45594000000E+02  0.51100000000E-03 0. -1.
         11   -1    0    0    0    0 -0.00000000000E+00 -0.00000000000E+00 -0.45593999997E+02  0.45594000000E+02  0.51100000000E-03 0.  1.
    9900012    2    1    2    0    0  0.35325136237E+02  0.24631372324E+02  0.53900442236E+01  0.47787281925E+02  0.20000049607E+02 0.  0.
        -12    1    1    2    0    0 -0.35325136237E+02 -0.24631372324E+02 -0.53900442236E+01  0.43400718075E+02  0.00000000000E+00 0.  1.
         11    1    3    3    0    0  0.14860952140E+02  0.81481490823E+01  0.90306465915E+01  0.19203979017E+02  0.51100000000E-03 0. -1.
        -11    1    3    3    0    0  0.21646927793E+02  0.15875611315E+02 -0.27544703456E+01  0.26985396507E+02  0.51100000000E-03 0.  1.
        -12    1    3    3    0    0 -0.11827436957E+01  0.60761192644E+00 -0.88613202235E+00  0.15979064002E+01  0.00000000000E+00 0.  1.
</event>
<event>
 7    1  0.2655656E-009  0.4778727E+02  0.7816164E-02  0.1312668E+00
        -11   -1    0    0    0    0  0.00000000000E+00  0.00000000000E+00  0.45593999997E+02  0.45594000000E+02  0.51100000000E-03 0. -1.
         11   -1    0    0    0    0 -0.00000000000E+00 -0.00000000000E+00 -0.45593999997E+02  0.45594000000E+02  0.51100000000E-03 0.  1.
    9900012    2    1    2    0    0 -0.27696360255E+02 -0.29480643206E+02  0.15729791620E+02  0.47787273743E+02  0.20000012302E+02 0.  0.
        -12    1    1    2    0    0  0.27696360255E+02  0.29480643206E+02 -0.15729791620E+02  0.43400726257E+02  0.00000000000E+00 0.  1.
         11    1    3    3    0    0 -0.12236502948E+02 -0.19277351140E+02  0.12782350275E+02  0.26167475044E+02  0.51100000000E-03 0. -1.
        -11    1    3    3    0    0 -0.53273350345E+01 -0.52408889901E+01 -0.38923349920E+01  0.84260125758E+01  0.51100000000E-03 0.  1.
        -12    1    3    3    0    0 -0.10132522273E+02 -0.49624030759E+01  0.68397763376E+01  0.13193786123E+02  0.00000000000E+00 0.  1.
</event>
<event>
 7    1  0.2655656E-009  0.4778727E+02  0.7816164E-02  0.1312668E+00
        -11   -1    0    0    0    0  0.00000000000E+00  0.00000000000E+00  0.45593999997E+02  0.45594000000E+02  0.51100000000E-03 0. -1.
         11   -1    0    0    0    0 -0.00000000000E+00 -0.00000000000E+00 -0.45593999997E+02  0.45594000000E+02  0.51100000000E-03 0.  1.
    9900012    2    1    2    0    0 -0.37790761170E+02 -0.20655863711E+02  0.53681433338E+01  0.47787270763E+02  0.19999998718E+02 0.  0.
        -12    1    1    2    0    0  0.37790761170E+02  0.20655863711E+02 -0.53681433338E+01  0.43400729237E+02  0.00000000000E+00 0.  1.
         11    1    3    3    0    0 -0.21863761275E+02 -0.10253255079E+02 -0.16698945009E+01  0.24206235657E+02  0.51100000000E-03 0. -1.
        -11    1    3    3    0    0 -0.10731518046E+02 -0.48506282163E+01  0.99712276913E+01  0.15431119713E+02  0.51100000000E-03 0.  1.
         12    1    3    3    0    0 -0.51954818497E+01 -0.55519804155E+01 -0.29331898567E+01  0.81499153934E+01  0.00000000000E+00 0. -1.
</event>
<event>
 7    1  0.2655656E-009  0.4778727E+02  0.7816164E-02  0.1312668E+00
        -11   -1    0    0    0    0  0.00000000000E+00  0.00000000000E+00  0.45593999997E+02  0.45594000000E+02  0.51100000000E-03 0.  1.
         11   -1    0    0    0    0 -0.00000000000E+00 -0.00000000000E+00 -0.45593999997E+02  0.45594000000E+02  0.51100000000E-03 0. -1.
    9900012    2    1    2    0    0  0.15264289802E+02 -0.39662077515E+02  0.88059131377E+01  0.47787273714E+02  0.20000012172E+02 0.  0.
        -12    1    1    2    0    0 -0.15264289802E+02  0.39662077515E+02 -0.88059131377E+01  0.43400726286E+02  0.00000000000E+00 0.  1.
         11    1    3    3    0    0  0.67288743749E+01 -0.47441725816E+01  0.46179167295E+01  0.94398135055E+01  0.51100000000E-03 0. -1.
        -11    1    3    3    0    0 -0.26637337101E+01 -0.13024282821E+02 -0.54232872793E+00  0.13304944231E+02  0.51100000000E-03 0.  1.
        -12    1    3    3    0    0  0.11199149137E+02 -0.21893622112E+02  0.47303251361E+01  0.25042515978E+02  0.00000000000E+00 0.  1.
</event>
<event>
 7    1  0.2655656E-009  0.4778725E+02  0.7816164E-02  0.1312668E+00
        -11   -1    0    0    0    0  0.00000000000E+00  0.00000000000E+00  0.45593999997E+02  0.45594000000E+02  0.51100000000E-03 0.  1.
         11   -1    0    0    0    0 -0.00000000000E+00 -0.00000000000E+00 -0.45593999997E+02  0.45594000000E+02  0.51100000000E-03 0. -1.
    9900012    2    1    2    0    0 -0.99569661531E+01 -0.17773457907E+02 -0.38322160441E+02  0.47787251599E+02  0.19999911338E+02 0.  0.
        -12    1    1    2    0    0  0.99569661531E+01  0.17773457907E+02  0.38322160441E+02  0.43400748401E+02  0.00000000000E+00 0.  1.
         11    1    3    3    0    0 -0.85834255264E+01 -0.24790204370E+01 -0.12614901890E+02  0.15458217428E+02  0.51100000000E-03 0. -1.
        -11    1    3    3    0    0  0.30014816502E+01 -0.14761325941E+02 -0.18216044827E+02  0.23637468668E+02  0.51100000000E-03 0.  1.
        -12    1    3    3    0    0 -0.43750222769E+01 -0.53311152888E+00 -0.74912137241E+01  0.86915655025E+01  0.00000000000E+00 0.  1.
</event>
<event>
 7    1  0.2655656E-009  0.4778727E+02  0.7816164E-02  0.1312668E+00
        -11   -1    0    0    0    0  0.00000000000E+00  0.00000000000E+00  0.45593999997E+02  0.45594000000E+02  0.51100000000E-03 0. -1.
         11   -1    0    0    0    0 -0.00000000000E+00 -0.00000000000E+00 -0.45593999997E+02  0.45594000000E+02  0.51100000000E-03 0.  1.
    9900012    2    1    2    0    0 -0.30998133247E+02  0.23973819036E+02  0.18654629067E+02  0.47787269020E+02  0.19999990769E+02 0.  0.
        -12    1    1    2    0    0  0.30998133247E+02 -0.23973819036E+02 -0.18654629067E+02  0.43400730980E+02  0.00000000000E+00 0.  1.
         11    1    3    3    0    0  0.17238119194E+01  0.27499009407E+01  0.46612291623E+00  0.32788341756E+01  0.51100000000E-03 0. -1.
        -11    1    3    3    0    0 -0.18266281335E+02  0.56847463174E+01  0.11180233010E+02  0.22157865080E+02  0.51100000000E-03 0.  1.
        -12    1    3    3    0    0 -0.14455663832E+02  0.15539171778E+02  0.70082731409E+01  0.22350569764E+02  0.00000000000E+00 0.  1.
</event>
<event>
 7    1  0.2655656E-009  0.4778727E+02  0.7816164E-02  0.1312668E+00
        -11   -1    0    0    0    0  0.00000000000E+00  0.00000000000E+00  0.45593999997E+02  0.45594000000E+02  0.51100000000E-03 0.  1.
         11   -1    0    0    0    0 -0.00000000000E+00 -0.00000000000E+00 -0.45593999997E+02  0.45594000000E+02  0.51100000000E-03 0. -1.
    9900012    2    1    2    0    0 -0.17933638895E+02 -0.24417594028E+02 -0.31077150444E+02  0.47787267496E+02  0.19999983822E+02 0.  0.
        -12    1    1    2    0    0  0.17933638895E+02  0.24417594028E+02  0.31077150444E+02  0.43400732504E+02  0.00000000000E+00 0.  1.
         11    1    3    3    0    0 -0.50083845569E+01 -0.10003470928E+02 -0.24572299874E+02  0.26999097538E+02  0.51100000000E-03 0. -1.
        -11    1    3    3    0    0 -0.97535357457E+01 -0.12868963828E+02 -0.46578579206E+01  0.16805871897E+02  0.51100000000E-03 0.  1.
         12    1    3    3    0    0 -0.31717185919E+01 -0.15451592718E+01 -0.18469926491E+01  0.39822980611E+01  0.00000000000E+00 0. -1.
</event>
<event>
 7    1  0.2655656E-009  0.4778727E+02  0.7816164E-02  0.1312668E+00
        -11   -1    0    0    0    0  0.00000000000E+00  0.00000000000E+00  0.45593999997E+02  0.45594000000E+02  0.51100000000E-03 0.  1.
         11   -1    0    0    0    0 -0.00000000000E+00 -0.00000000000E+00 -0.45593999997E+02  0.45594000000E+02  0.51100000000E-03 0. -1.
    9900012    2    1    2    0    0  0.26691625821E+01  0.39425853835E+02 -0.17947174883E+02  0.47787268834E+02  0.19999989921E+02 0.  0.
        -12    1    1    2    0    0 -0.26691625821E+01 -0.39425853835E+02  0.17947174883E+02  0.43400731166E+02  0.00000000000E+00 0.  1.
         11    1    3    3    0    0 -0.58817597574E+01  0.83010089228E+01 -0.73025775340E+01  0.12523157984E+02  0.51100000000E-03 0. -1.
        -11    1    3    3    0    0  0.88531705967E+01  0.15647069947E+02 -0.39999888369E+01  0.18417636615E+02  0.51100000000E-03 0.  1.
        -12    1    3    3    0    0 -0.30224825717E+00  0.15477774965E+02 -0.66446085116E+01  0.16846474235E+02  0.00000000000E+00 0.  1.
</event>
<event>
 7    1  0.2655656E-009  0.4778727E+02  0.7816164E-02  0.1312668E+00
        -11   -1    0    0    0    0  0.00000000000E+00  0.00000000000E+00  0.45593999997E+02  0.45594000000E+02  0.51100000000E-03 0.  1.
         11   -1    0    0    0    0 -0.00000000000E+00 -0.00000000000E+00 -0.45593999997E+02  0.45594000000E+02  0.51100000000E-03 0. -1.
    9900012    2    1    2    0    0 -0.28826542324E+02 -0.27062415123E+02 -0.17896350375E+02  0.47787271764E+02  0.20000003281E+02 0.  0.
        -12    1    1    2    0    0  0.28826542324E+02  0.27062415123E+02  0.17896350375E+02  0.43400728236E+02  0.00000000000E+00 0.  1.
         11    1    3    3    0    0 -0.11357696772E+02 -0.17442080150E+02 -0.12376543308E+02  0.24215744061E+02  0.51100000000E-03 0. -1.
        -11    1    3    3    0    0 -0.86805976283E+01 -0.47103389366E+01  0.30653650585E+01  0.10341012102E+02  0.51100000000E-03 0.  1.
        -12    1    3    3    0    0 -0.87882479247E+01 -0.49099960365E+01 -0.85851721248E+01  0.13230515601E+02  0.00000000000E+00 0.  1.
</event>
<event>
 7    1  0.2655656E-009  0.4778727E+02  0.7816164E-02  0.1312668E+00
        -11   -1    0    0    0    0  0.00000000000E+00  0.00000000000E+00  0.45593999997E+02  0.45594000000E+02  0.51100000000E-03 0.  1.
         11   -1    0    0    0    0 -0.00000000000E+00 -0.00000000000E+00 -0.45593999997E+02  0.45594000000E+02  0.51100000000E-03 0. -1.
    9900012    2    1    2    0    0  0.23953826112E+02  0.26248033987E+02 -0.24917426532E+02  0.47787271681E+02  0.20000002904E+02 0.  0.
        -12    1    1    2    0    0 -0.23953826112E+02 -0.26248033987E+02  0.24917426532E+02  0.43400728319E+02  0.00000000000E+00 0.  1.
         11    1    3    3    0    0  0.53795473150E+01 -0.14603034039E+01 -0.27113857324E+01  0.61986795526E+01  0.51100000000E-03 0. -1.
        -11    1    3    3    0    0  0.53457461481E-01 -0.99690776444E+00 -0.52806845819E+00  0.11293977814E+01  0.51100000000E-03 0.  1.
         12    1    3    3    0    0  0.18520821335E+02  0.28705245156E+02 -0.21677972342E+02  0.40459194347E+02  0.00000000000E+00 0. -1.
</event>
<event>
 7    1  0.2655656E-009  0.4778727E+02  0.7816164E-02  0.1312668E+00
        -11   -1    0    0    0    0  0.00000000000E+00  0.00000000000E+00  0.45593999997E+02  0.45594000000E+02  0.51100000000E-03 0.  1.
         11   -1    0    0    0    0 -0.00000000000E+00 -0.00000000000E+00 -0.45593999997E+02  0.45594000000E+02  0.51100000000E-03 0. -1.
    9900012    2    1    2    0    0  0.15669777345E+02  0.37214275049E+02 -0.15911613911E+02  0.47787266749E+02  0.19999980415E+02 0.  0.
        -12    1    1    2    0    0 -0.15669777345E+02 -0.37214275049E+02  0.15911613911E+02  0.43400733251E+02  0.00000000000E+00 0.  1.
         11    1    3    3    0    0  0.91626072645E+01  0.59010834529E+01 -0.94122258777E+01  0.14400213680E+02  0.51100000000E-03 0. -1.
        -11    1    3    3    0    0  0.79097842480E+01  0.28784457631E+02 -0.57558335889E+01  0.30401304389E+02  0.51100000000E-03 0.  1.
        -12    1    3    3    0    0 -0.14026141671E+01  0.25287339653E+01 -0.74355444431E+00  0.29857486801E+01  0.00000000000E+00 0.  1.
</event>
<event>
 7    1  0.2655656E-009  0.4778728E+02  0.7816164E-02  0.1312668E+00
        -11   -1    0    0    0    0  0.00000000000E+00  0.00000000000E+00  0.45593999997E+02  0.45594000000E+02  0.51100000000E-03 0.  1.
         11   -1    0    0    0    0 -0.00000000000E+00 -0.00000000000E+00 -0.45593999997E+02  0.45594000000E+02  0.51100000000E-03 0. -1.
    9900012    2    1    2    0    0  0.41145588786E+02  0.10995477732E+02  0.83523997857E+01  0.47787278931E+02  0.20000035959E+02 0.  0.
        -12    1    1    2    0    0 -0.41145588786E+02 -0.10995477732E+02 -0.83523997857E+01  0.43400721069E+02  0.00000000000E+00 0.  1.
         11    1    3    3    0    0  0.41991106725E+02  0.12369440770E+02  0.71941372383E+01  0.44362278118E+02  0.51100000000E-03 0. -1.
        -11    1    3    3    0    0  0.83343581717E+00 -0.30367393572E+00 -0.32230281837E+00  0.94377565577E+00  0.51100000000E-03 0.  1.
         12    1    3    3    0    0 -0.16789537564E+01 -0.10702891023E+01  0.14805653658E+01  0.24812251572E+01  0.00000000000E+00 0. -1.
</event>
<event>
 7    1  0.2655656E-009  0.4778727E+02  0.7816164E-02  0.1312668E+00
        -11   -1    0    0    0    0  0.00000000000E+00  0.00000000000E+00  0.45593999997E+02  0.45594000000E+02  0.51100000000E-03 0.  1.
         11   -1    0    0    0    0 -0.00000000000E+00 -0.00000000000E+00 -0.45593999997E+02  0.45594000000E+02  0.51100000000E-03 0. -1.
    9900012    2    1    2    0    0  0.80233094915E+01  0.15245662118E+02 -0.39834903708E+02  0.47787271180E+02  0.20000000620E+02 0.  0.
        -12    1    1    2    0    0 -0.80233094915E+01 -0.15245662118E+02  0.39834903708E+02  0.43400728820E+02  0.00000000000E+00 0.  1.
         11    1    3    3    0    0  0.25355398481E+01  0.90285324437E+01 -0.30103532670E+02  0.31530398664E+02  0.51100000000E-03 0. -1.
        -11    1    3    3    0    0  0.11109050792E+01 -0.19623905405E+01  0.63785028237E+00  0.23434888462E+01  0.51100000000E-03 0.  1.
         12    1    3    3    0    0  0.43768645642E+01  0.81795202152E+01 -0.10369221320E+02  0.13913383670E+02  0.00000000000E+00 0. -1.
</event>
<event>
 7    1  0.2655656E-009  0.4778727E+02  0.7816164E-02  0.1312668E+00
        -11   -1    0    0    0    0  0.00000000000E+00  0.00000000000E+00  0.45593999997E+02  0.45594000000E+02  0.51100000000E-03 0.  1.
         11   -1    0    0    0    0 -0.00000000000E+00 -0.00000000000E+00 -0.45593999997E+02  0.45594000000E+02  0.51100000000E-03 0. -1.
    9900012    2    1    2    0    0  0.19851230324E+02 -0.31788700361E+02 -0.21886769491E+02  0.47787268499E+02  0.19999988396E+02 0.  0.
        -12    1    1    2    0    0 -0.19851230324E+02  0.31788700361E+02  0.21886769491E+02  0.43400731501E+02  0.00000000000E+00 0.  1.
         11    1    3    3    0    0  0.81019621481E+01 -0.21597263230E+02 -0.15778752059E+02  0.27947318056E+02  0.51100000000E-03 0. -1.
        -11    1    3    3    0    0  0.29301049150E+01  0.22015780504E+01 -0.11221689485E+01  0.38329784940E+01  0.51100000000E-03 0.  1.
        -12    1    3    3    0    0  0.88191632613E+01 -0.12393015181E+02 -0.49858484839E+01  0.16006971950E+02  0.00000000000E+00 0.  1.
</event>
<event>
 7    1  0.2655656E-009  0.4778726E+02  0.7816164E-02  0.1312668E+00
        -11   -1    0    0    0    0  0.00000000000E+00  0.00000000000E+00  0.45593999997E+02  0.45594000000E+02  0.51100000000E-03 0.  1.
         11   -1    0    0    0    0 -0.00000000000E+00 -0.00000000000E+00 -0.45593999997E+02  0.45594000000E+02  0.51100000000E-03 0. -1.
    9900012    2    1    2    0    0 -0.34404192008E+01  0.23815049948E+01 -0.43198562335E+02  0.47787264544E+02  0.19999970363E+02 0.  0.
        -12    1    1    2    0    0  0.34404192008E+01 -0.23815049948E+01  0.43198562335E+02  0.43400735456E+02  0.00000000000E+00 0.  1.
         11    1    3    3    0    0 -0.54752653237E+01  0.90486948036E+01 -0.32456852347E+02  0.34136559178E+02  0.51100000000E-03 0. -1.
        -11    1    3    3    0    0  0.28130023835E+01 -0.25594277394E+01 -0.29684669613E+01  0.48244636100E+01  0.51100000000E-03 0.  1.
         12    1    3    3    0    0 -0.77815626054E+00 -0.41077620694E+01 -0.77732430267E+01  0.88262417561E+01  0.00000000000E+00 0. -1.
</event>
<event>
 7    1  0.2655656E-009  0.4778727E+02  0.7816164E-02  0.1312668E+00
        -11   -1    0    0    0    0  0.00000000000E+00  0.00000000000E+00  0.45593999997E+02  0.45594000000E+02  0.51100000000E-03 0.  1.
         11   -1    0    0    0    0 -0.00000000000E+00 -0.00000000000E+00 -0.45593999997E+02  0.45594000000E+02  0.51100000000E-03 0. -1.
    9900012    2    1    2    0    0  0.20647107612E+02 -0.37831212490E+02  0.51107314004E+01  0.47787271128E+02  0.20000000382E+02 0.  0.
        -12    1    1    2    0    0 -0.20647107612E+02  0.37831212490E+02 -0.51107314004E+01  0.43400728872E+02  0.00000000000E+00 0.  1.
         11    1    3    3    0    0  0.52957603429E+01 -0.32821316702E+01 -0.14169231626E+01  0.63894551739E+01  0.51100000000E-03 0. -1.
        -11    1    3    3    0    0  0.15516930265E+02 -0.23445151302E+02 -0.74213711988E+00  0.28124740216E+02  0.51100000000E-03 0.  1.
        -12    1    3    3    0    0 -0.16558299622E+00 -0.11103929517E+02  0.72697916829E+01  0.13273075738E+02  0.00000000000E+00 0.  1.
</event>
<event>
 7    1  0.2655656E-009  0.4778727E+02  0.7816164E-02  0.1312668E+00
        -11   -1    0    0    0    0  0.00000000000E+00  0.00000000000E+00  0.45593999997E+02  0.45594000000E+02  0.51100000000E-03 0.  1.
         11   -1    0    0    0    0 -0.00000000000E+00 -0.00000000000E+00 -0.45593999997E+02  0.45594000000E+02  0.51100000000E-03 0. -1.
    9900012    2    1    2    0    0 -0.42840814480E+02  0.67264414211E+01 -0.17444201045E+01  0.47787269580E+02  0.19999993323E+02 0.  0.
        -12    1    1    2    0    0  0.42840814480E+02 -0.67264414211E+01  0.17444201045E+01  0.43400730420E+02  0.00000000000E+00 0.  1.
         11    1    3    3    0    0 -0.20052664750E+02 -0.32016793682E+01 -0.10661850389E+01  0.20334622327E+02  0.51100000000E-03 0.  1.
        -11    1    3    3    0    0 -0.14503304657E+02  0.10553423771E+02  0.33053813174E+01  0.18238589452E+02  0.51100000000E-03 0. -1.
         12    1    3    3    0    0 -0.82848450722E+01 -0.62530298133E+00 -0.39836163831E+01  0.92140578018E+01  0.00000000000E+00 0. -1.
</event>
<event>
 7    1  0.2655656E-009  0.4778730E+02  0.7816164E-02  0.1312668E+00
        -11   -1    0    0    0    0  0.00000000000E+00  0.00000000000E+00  0.45593999997E+02  0.45594000000E+02  0.51100000000E-03 0. -1.
         11   -1    0    0    0    0 -0.00000000000E+00 -0.00000000000E+00 -0.45593999997E+02  0.45594000000E+02  0.51100000000E-03 0.  1.
    9900012    2    1    2    0    0 -0.14031409557E+02  0.27913383185E+02 -0.30126124569E+02  0.47787299585E+02  0.20000130129E+02 0.  0.
        -12    1    1    2    0    0  0.14031409557E+02 -0.27913383185E+02  0.30126124569E+02  0.43400700415E+02  0.00000000000E+00 0.  1.
         11    1    3    3    0    0  0.15851348624E+01  0.70559432560E+01 -0.11041517750E+02  0.13199018988E+02  0.51100000000E-03 0. -1.
        -11    1    3    3    0    0 -0.15593952844E+02  0.11371361499E+02 -0.13836928310E+02  0.23747416974E+02  0.51100000000E-03 0.  1.
         12    1    3    3    0    0 -0.22591575368E-01  0.94860784298E+01 -0.52476785084E+01  0.10840863623E+02  0.00000000000E+00 0. -1.
</event>
<event>
 7    1  0.2655656E-009  0.4778727E+02  0.7816164E-02  0.1312668E+00
        -11   -1    0    0    0    0  0.00000000000E+00  0.00000000000E+00  0.45593999997E+02  0.45594000000E+02  0.51100000000E-03 0. -1.
         11   -1    0    0    0    0 -0.00000000000E+00 -0.00000000000E+00 -0.45593999997E+02  0.45594000000E+02  0.51100000000E-03 0.  1.
    9900012    2    1    2    0    0 -0.14414234389E+01  0.20965189782E+01  0.43326093323E+02  0.47787268946E+02  0.19999990434E+02 0.  0.
        -12    1    1    2    0    0  0.14414234389E+01 -0.20965189782E+01 -0.43326093323E+02  0.43400731054E+02  0.00000000000E+00 0.  1.
         11    1    3    3    0    0 -0.70323453602E+01  0.22516079802E+01  0.36870841188E+02  0.37602959324E+02  0.51100000000E-03 0. -1.
        -11    1    3    3    0    0  0.45536109301E+01 -0.25260074603E+01  0.49806882621E+01  0.72057853159E+01  0.51100000000E-03 0.  1.
         12    1    3    3    0    0  0.10373109912E+01  0.23709184582E+01  0.14745638731E+01  0.29785243064E+01  0.00000000000E+00 0. -1.
</event>
<event>
 7    1  0.2655656E-009  0.4778727E+02  0.7816164E-02  0.1312668E+00
        -11   -1    0    0    0    0  0.00000000000E+00  0.00000000000E+00  0.45593999997E+02  0.45594000000E+02  0.51100000000E-03 0.  1.
         11   -1    0    0    0    0 -0.00000000000E+00 -0.00000000000E+00 -0.45593999997E+02  0.45594000000E+02  0.51100000000E-03 0. -1.
    9900012    2    1    2    0    0 -0.27983751362E+02  0.28818900946E+02 -0.16431793701E+02  0.47787271478E+02  0.20000001976E+02 0.  0.
        -12    1    1    2    0    0  0.27983751362E+02 -0.28818900946E+02  0.16431793701E+02  0.43400728522E+02  0.00000000000E+00 0.  1.
         11    1    3    3    0    0 -0.24201496417E+02  0.24038748250E+02 -0.12888852154E+02  0.36465001801E+02  0.51100000000E-03 0. -1.
        -11    1    3    3    0    0  0.28478815003E+01  0.22166218148E+01 -0.75723675076E+00  0.36874447884E+01  0.51100000000E-03 0.  1.
         12    1    3    3    0    0 -0.66301364455E+01  0.25635308818E+01 -0.27857047956E+01  0.76348248884E+01  0.00000000000E+00 0. -1.
</event>
<event>
 7    1  0.2655656E-009  0.4778727E+02  0.7816164E-02  0.1312668E+00
        -11   -1    0    0    0    0  0.00000000000E+00  0.00000000000E+00  0.45593999997E+02  0.45594000000E+02  0.51100000000E-03 0.  1.
         11   -1    0    0    0    0 -0.00000000000E+00 -0.00000000000E+00 -0.45593999997E+02  0.45594000000E+02  0.51100000000E-03 0. -1.
    9900012    2    1    2    0    0  0.10696122388E+02  0.37817345864E+02 -0.18413714762E+02  0.47787267591E+02  0.19999984254E+02 0.  0.
        -12    1    1    2    0    0 -0.10696122388E+02 -0.37817345864E+02  0.18413714762E+02  0.43400732409E+02  0.00000000000E+00 0.  1.
         11    1    3    3    0    0  0.76295222747E+01  0.26633066358E+02 -0.13365478801E+02  0.30759809128E+02  0.51100000000E-03 0. -1.
        -11    1    3    3    0    0  0.40140323526E+00  0.30668892467E+01  0.36843376018E+01  0.48105382271E+01  0.51100000000E-03 0.  1.
        -12    1    3    3    0    0  0.26651968779E+01  0.81173902592E+01 -0.87325735627E+01  0.12216920236E+02  0.00000000000E+00 0.  1.
</event>
<event>
 7    1  0.2655656E-009  0.4778727E+02  0.7816164E-02  0.1312668E+00
        -11   -1    0    0    0    0  0.00000000000E+00  0.00000000000E+00  0.45593999997E+02  0.45594000000E+02  0.51100000000E-03 0. -1.
         11   -1    0    0    0    0 -0.00000000000E+00 -0.00000000000E+00 -0.45593999997E+02  0.45594000000E+02  0.51100000000E-03 0.  1.
    9900012    2    1    2    0    0 -0.25358577963E+02  0.25919178619E+02 -0.23848727538E+02  0.47787273027E+02  0.20000009038E+02 0.  0.
        -12    1    1    2    0    0  0.25358577963E+02 -0.25919178619E+02  0.23848727538E+02  0.43400726973E+02  0.00000000000E+00 0.  1.
         11    1    3    3    0    0 -0.17031438831E+02  0.22840734544E+02 -0.17859441217E+02  0.33626309699E+02  0.51100000000E-03 0. -1.
        -11    1    3    3    0    0 -0.90827580649E+01  0.50754020268E+01 -0.37315797027E+01  0.11053546360E+02  0.51100000000E-03 0.  1.
         12    1    3    3    0    0  0.75561893302E+00 -0.19969579511E+01 -0.22577066189E+01  0.31074169671E+01  0.00000000000E+00 0. -1.
</event>
<event>
 7    1  0.2655656E-009  0.4778728E+02  0.7816164E-02  0.1312668E+00
        -11   -1    0    0    0    0  0.00000000000E+00  0.00000000000E+00  0.45593999997E+02  0.45594000000E+02  0.51100000000E-03 0.  1.
         11   -1    0    0    0    0 -0.00000000000E+00 -0.00000000000E+00 -0.45593999997E+02  0.45594000000E+02  0.51100000000E-03 0. -1.
    9900012    2    1    2    0    0  0.87075348726E+01 -0.26685822432E+02 -0.33100883519E+02  0.47787276824E+02  0.20000026353E+02 0.  0.
        -12    1    1    2    0    0 -0.87075348726E+01  0.26685822432E+02  0.33100883519E+02  0.43400723176E+02  0.00000000000E+00 0.  1.
         11    1    3    3    0    0  0.74090725933E+01 -0.17986199139E+02 -0.10087724994E+02  0.21912551471E+02  0.51100000000E-03 0. -1.
        -11    1    3    3    0    0  0.23169400874E+01  0.47188564856E+00 -0.70539642620E+01  0.74397109826E+01  0.51100000000E-03 0.  1.
         12    1    3    3    0    0 -0.10184778081E+01 -0.91715089416E+01 -0.15959194263E+02  0.18435014370E+02  0.00000000000E+00 0. -1.
</event>
<event>
 7    1  0.2655656E-009  0.4778728E+02  0.7816164E-02  0.1312668E+00
        -11   -1    0    0    0    0  0.00000000000E+00  0.00000000000E+00  0.45593999997E+02  0.45594000000E+02  0.51100000000E-03 0. -1.
         11   -1    0    0    0    0 -0.00000000000E+00 -0.00000000000E+00 -0.45593999997E+02  0.45594000000E+02  0.51100000000E-03 0.  1.
    9900012    2    1    2    0    0  0.20426199444E+02  0.25107543600E+02  0.28913739602E+02  0.47787277574E+02  0.20000029772E+02 0.  0.
        -12    1    1    2    0    0 -0.20426199444E+02 -0.25107543600E+02 -0.28913739602E+02  0.43400722426E+02  0.00000000000E+00 0.  1.
         11    1    3    3    0    0  0.87974373958E+01  0.17670468586E+02  0.10595427409E+02  0.22403201714E+02  0.51100000000E-03 0. -1.
        -11    1    3    3    0    0  0.18049749698E+01  0.41041901506E+01  0.12948769901E+02  0.13703027171E+02  0.51100000000E-03 0.  1.
        -12    1    3    3    0    0  0.98237870782E+01  0.33328848632E+01  0.53695422918E+01  0.11681048690E+02  0.00000000000E+00 0.  1.
</event>
<event>
 7    1  0.2655656E-009  0.4778727E+02  0.7816164E-02  0.1312668E+00
        -11   -1    0    0    0    0  0.00000000000E+00  0.00000000000E+00  0.45593999997E+02  0.45594000000E+02  0.51100000000E-03 0.  1.
         11   -1    0    0    0    0 -0.00000000000E+00 -0.00000000000E+00 -0.45593999997E+02  0.45594000000E+02  0.51100000000E-03 0. -1.
    9900012    2    1    2    0    0 -0.11688706866E+02  0.20582561750E+02 -0.36377955241E+02  0.47787270238E+02  0.19999996322E+02 0.  0.
        -12    1    1    2    0    0  0.11688706866E+02 -0.20582561750E+02  0.36377955241E+02  0.43400729762E+02  0.00000000000E+00 0.  1.
         11    1    3    3    0    0 -0.97867166641E+01  0.20258706997E+02 -0.21507333830E+02  0.31124916723E+02  0.51100000000E-03 0. -1.
        -11    1    3    3    0    0 -0.28084057140E+01  0.22837300902E+01 -0.13771729370E+02  0.14239490717E+02  0.51100000000E-03 0.  1.
         12    1    3    3    0    0  0.90641551211E+00 -0.19598753379E+01 -0.10988920417E+01  0.24228627984E+01  0.00000000000E+00 0. -1.
</event>
<event>
 7    1  0.2655656E-009  0.4778727E+02  0.7816164E-02  0.1312668E+00
        -11   -1    0    0    0    0  0.00000000000E+00  0.00000000000E+00  0.45593999997E+02  0.45594000000E+02  0.51100000000E-03 0.  1.
         11   -1    0    0    0    0 -0.00000000000E+00 -0.00000000000E+00 -0.45593999997E+02  0.45594000000E+02  0.51100000000E-03 0. -1.
    9900012    2    1    2    0    0 -0.33379545958E+02 -0.27439924332E+02  0.40594940387E+01  0.47787273882E+02  0.20000012936E+02 0.  0.
        -12    1    1    2    0    0  0.33379545958E+02  0.27439924332E+02 -0.40594940387E+01  0.43400726118E+02  0.00000000000E+00 0.  1.
         11    1    3    3    0    0 -0.13827088778E+02 -0.19527452924E+01 -0.24351103918E+01  0.14175025966E+02  0.51100000000E-03 0. -1.
        -11    1    3    3    0    0 -0.59905396841E+01 -0.12603802228E+02  0.47999805450E+00  0.13963265904E+02  0.51100000000E-03 0.  1.
         12    1    3    3    0    0 -0.13561917497E+02 -0.12883376812E+02  0.60146063759E+01  0.19648982012E+02  0.00000000000E+00 0. -1.
</event>
<event>
 7    1  0.2655656E-009  0.4778727E+02  0.7816164E-02  0.1312668E+00
        -11   -1    0    0    0    0  0.00000000000E+00  0.00000000000E+00  0.45593999997E+02  0.45594000000E+02  0.51100000000E-03 0. -1.
         11   -1    0    0    0    0 -0.00000000000E+00 -0.00000000000E+00 -0.45593999997E+02  0.45594000000E+02  0.51100000000E-03 0.  1.
    9900012    2    1    2    0    0  0.23093623568E+01 -0.23650959908E+01  0.43274667123E+02  0.47787266732E+02  0.19999980340E+02 0.  0.
        -12    1    1    2    0    0 -0.23093623568E+01  0.23650959908E+01 -0.43274667123E+02  0.43400733268E+02  0.00000000000E+00 0.  1.
         11    1    3    3    0    0  0.31116060597E+01  0.70795214634E+01  0.23830359680E+02  0.25053697515E+02  0.51100000000E-03 0. -1.
        -11    1    3    3    0    0  0.12805522031E+01 -0.29333602670E+01  0.15070458810E+01  0.35377399494E+01  0.51100000000E-03 0.  1.
         12    1    3    3    0    0 -0.20827959060E+01 -0.65112571872E+01  0.17937261562E+02  0.19195829268E+02  0.00000000000E+00 0. -1.
</event>
<event>
 7    1  0.2655656E-009  0.4778729E+02  0.7816164E-02  0.1312668E+00
        -11   -1    0    0    0    0  0.00000000000E+00  0.00000000000E+00  0.45593999997E+02  0.45594000000E+02  0.51100000000E-03 0. -1.
         11   -1    0    0    0    0 -0.00000000000E+00 -0.00000000000E+00 -0.45593999997E+02  0.45594000000E+02  0.51100000000E-03 0.  1.
    9900012    2    1    2    0    0  0.21002472591E+02 -0.15190555416E+02  0.34810408353E+02  0.47787293111E+02  0.20000100608E+02 0.  0.
        -12    1    1    2    0    0 -0.21002472591E+02  0.15190555416E+02 -0.34810408353E+02  0.43400706889E+02  0.00000000000E+00 0.  1.
         11    1    3    3    0    0  0.17995436581E+02 -0.11150323160E+02  0.14742606002E+02  0.25797478100E+02  0.51100000000E-03 0. -1.
        -11    1    3    3    0    0  0.27412014830E+00  0.21707044437E+01  0.43270942497E+01  0.48487982578E+01  0.51100000000E-03 0.  1.
         12    1    3    3    0    0  0.27329158614E+01 -0.62109367002E+01  0.15740708102E+02  0.17141016753E+02  0.00000000000E+00 0. -1.
</event>
<event>
 7    1  0.2655656E-009  0.4778727E+02  0.7816164E-02  0.1312668E+00
        -11   -1    0    0    0    0  0.00000000000E+00  0.00000000000E+00  0.45593999997E+02  0.45594000000E+02  0.51100000000E-03 0.  1.
         11   -1    0    0    0    0 -0.00000000000E+00 -0.00000000000E+00 -0.45593999997E+02  0.45594000000E+02  0.51100000000E-03 0. -1.
    9900012    2    1    2    0    0  0.20344809970E+00 -0.41818151994E+02  0.11611372350E+02  0.47787271952E+02  0.20000004136E+02 0.  0.
        -12    1    1    2    0    0 -0.20344809970E+00  0.41818151994E+02 -0.11611372350E+02  0.43400728048E+02  0.00000000000E+00 0.  1.
         11    1    3    3    0    0 -0.34051811867E+01 -0.20128304065E+02  0.15021149379E+02  0.25345193082E+02  0.51100000000E-03 0. -1.
        -11    1    3    3    0    0  0.28239049751E+00 -0.33096757930E+00  0.27392815848E+00  0.51412141441E+00  0.51100000000E-03 0.  1.
         12    1    3    3    0    0  0.33262387889E+01 -0.21358880349E+02 -0.36837051873E+01  0.21927957455E+02  0.00000000000E+00 0. -1.
</event>
<event>
 7    1  0.2655656E-009  0.4778727E+02  0.7816164E-02  0.1312668E+00
        -11   -1    0    0    0    0  0.00000000000E+00  0.00000000000E+00  0.45593999997E+02  0.45594000000E+02  0.51100000000E-03 0. -1.
         11   -1    0    0    0    0 -0.00000000000E+00 -0.00000000000E+00 -0.45593999997E+02  0.45594000000E+02  0.51100000000E-03 0.  1.
    9900012    2    1    2    0    0 -0.13137077067E+02  0.38598371649E+02  0.14872999732E+02  0.47787271794E+02  0.20000003418E+02 0.  0.
        -12    1    1    2    0    0  0.13137077067E+02 -0.38598371649E+02 -0.14872999732E+02  0.43400728206E+02  0.00000000000E+00 0.  1.
         11    1    3    3    0    0 -0.49084497443E+01  0.11661013832E+02  0.50363234564E+01  0.13617513602E+02  0.51100000000E-03 0. -1.
        -11    1    3    3    0    0 -0.96383502614E+01  0.26359788861E+02  0.42592121101E+01  0.28387975494E+02  0.51100000000E-03 0.  1.
        -12    1    3    3    0    0  0.14097229388E+01  0.57756895607E+00  0.55774641651E+01  0.57817826988E+01  0.00000000000E+00 0.  1.
</event>
<event>
 7    1  0.2655656E-009  0.4778724E+02  0.7816164E-02  0.1312668E+00
        -11   -1    0    0    0    0  0.00000000000E+00  0.00000000000E+00  0.45593999997E+02  0.45594000000E+02  0.51100000000E-03 0.  1.
         11   -1    0    0    0    0 -0.00000000000E+00 -0.00000000000E+00 -0.45593999997E+02  0.45594000000E+02  0.51100000000E-03 0. -1.
    9900012    2    1    2    0    0  0.30789327363E+00  0.19054765952E+02 -0.38992907660E+02  0.47787242500E+02  0.19999869854E+02 0.  0.
        -12    1    1    2    0    0 -0.30789327363E+00 -0.19054765952E+02  0.38992907660E+02  0.43400757500E+02  0.00000000000E+00 0.  1.
         11    1    3    3    0    0 -0.39422268814E+01  0.96702372475E+01 -0.21999638323E+02  0.24352386491E+02  0.51100000000E-03 0. -1.
        -11    1    3    3    0    0  0.27016103040E+00  0.11143610038E+01  0.20197414975E+01  0.23225295276E+01  0.51100000000E-03 0.  1.
        -12    1    3    3    0    0  0.39799591246E+01  0.82701677012E+01 -0.19013010835E+02  0.21112326481E+02  0.00000000000E+00 0.  1.
</event>
<event>
 7    1  0.2655656E-009  0.4778727E+02  0.7816164E-02  0.1312668E+00
        -11   -1    0    0    0    0  0.00000000000E+00  0.00000000000E+00  0.45593999997E+02  0.45594000000E+02  0.51100000000E-03 0.  1.
         11   -1    0    0    0    0 -0.00000000000E+00 -0.00000000000E+00 -0.45593999997E+02  0.45594000000E+02  0.51100000000E-03 0. -1.
    9900012    2    1    2    0    0  0.48116705529E+01  0.11714350898E+02 -0.41511984965E+02  0.47787273207E+02  0.20000009859E+02 0.  0.
        -12    1    1    2    0    0 -0.48116705529E+01 -0.11714350898E+02  0.41511984965E+02  0.43400726793E+02  0.00000000000E+00 0.  1.
         11    1    3    3    0    0  0.50232970356E+01  0.90497345113E+00 -0.91133362865E+01  0.10445352487E+02  0.51100000000E-03 0. -1.
        -11    1    3    3    0    0  0.12056763591E+00 -0.30805576192E+01 -0.13722143241E+02  0.14064195220E+02  0.51100000000E-03 0.  1.
        -12    1    3    3    0    0 -0.33219411862E+00  0.13889935066E+02 -0.18676505437E+02  0.23277725499E+02  0.00000000000E+00 0.  1.
</event>
<event>
 7    1  0.2655656E-009  0.4778727E+02  0.7816164E-02  0.1312668E+00
        -11   -1    0    0    0    0  0.00000000000E+00  0.00000000000E+00  0.45593999997E+02  0.45594000000E+02  0.51100000000E-03 0.  1.
         11   -1    0    0    0    0 -0.00000000000E+00 -0.00000000000E+00 -0.45593999997E+02  0.45594000000E+02  0.51100000000E-03 0. -1.
    9900012    2    1    2    0    0 -0.32611321729E+02  0.11531013954E+02 -0.26213744037E+02  0.47787274613E+02  0.20000016269E+02 0.  0.
        -12    1    1    2    0    0  0.32611321729E+02 -0.11531013954E+02  0.26213744037E+02  0.43400725387E+02  0.00000000000E+00 0.  1.
         11    1    3    3    0    0 -0.23648783567E+02  0.42837507429E+01 -0.16215824272E+02  0.28992558385E+02  0.51100000000E-03 0. -1.
        -11    1    3    3    0    0  0.14830803154E+01  0.44933638107E+01 -0.12494467801E+01  0.48939721162E+01  0.51100000000E-03 0.  1.
        -12    1    3    3    0    0 -0.10445618478E+02  0.27538994005E+01 -0.87484729853E+01  0.13900744112E+02  0.00000000000E+00 0.  1.
</event>
<event>
 7    1  0.2655656E-009  0.4778727E+02  0.7816164E-02  0.1312668E+00
        -11   -1    0    0    0    0  0.00000000000E+00  0.00000000000E+00  0.45593999997E+02  0.45594000000E+02  0.51100000000E-03 0.  1.
         11   -1    0    0    0    0 -0.00000000000E+00 -0.00000000000E+00 -0.45593999997E+02  0.45594000000E+02  0.51100000000E-03 0. -1.
    9900012    2    1    2    0    0 -0.40570535952E+02  0.10835112534E+02 -0.10966096936E+02  0.47787270362E+02  0.19999996890E+02 0.  0.
        -12    1    1    2    0    0  0.40570535952E+02 -0.10835112534E+02  0.10966096936E+02  0.43400729638E+02  0.00000000000E+00 0.  1.
         11    1    3    3    0    0 -0.26073768808E+02  0.93696696813E+01 -0.80595695682E+01  0.28854614738E+02  0.51100000000E-03 0. -1.
        -11    1    3    3    0    0  0.15059754285E+01  0.22222214177E+01 -0.53934489315E+00  0.27380875068E+01  0.51100000000E-03 0.  1.
        -12    1    3    3    0    0 -0.16002742573E+02 -0.75677856521E+00 -0.23671824749E+01  0.16194568117E+02  0.00000000000E+00 0.  1.
</event>
<event>
 7    1  0.2655656E-009  0.4778727E+02  0.7816164E-02  0.1312668E+00
        -11   -1    0    0    0    0  0.00000000000E+00  0.00000000000E+00  0.45593999997E+02  0.45594000000E+02  0.51100000000E-03 0. -1.
         11   -1    0    0    0    0 -0.00000000000E+00 -0.00000000000E+00 -0.45593999997E+02  0.45594000000E+02  0.51100000000E-03 0.  1.
    9900012    2    1    2    0    0  0.29020779933E+02  0.25463833776E+02 -0.19824510495E+02  0.47787265964E+02  0.19999976837E+02 0.  0.
        -12    1    1    2    0    0 -0.29020779933E+02 -0.25463833776E+02  0.19824510495E+02  0.43400734036E+02  0.00000000000E+00 0.  1.
         11    1    3    3    0    0  0.17009072272E+02  0.63990942331E+01 -0.13862731913E+02  0.22856777614E+02  0.51100000000E-03 0.  1.
        -11    1    3    3    0    0  0.57833392620E+01  0.15709424973E+02 -0.21025581307E+01  0.16871686251E+02  0.51100000000E-03 0. -1.
         12    1    3    3    0    0  0.62283683987E+01  0.33553145697E+01 -0.38592204513E+01  0.80588020985E+01  0.00000000000E+00 0. -1.
</event>
<event>
 7    1  0.2655656E-009  0.4778727E+02  0.7816164E-02  0.1312668E+00
        -11   -1    0    0    0    0  0.00000000000E+00  0.00000000000E+00  0.45593999997E+02  0.45594000000E+02  0.51100000000E-03 0.  1.
         11   -1    0    0    0    0 -0.00000000000E+00 -0.00000000000E+00 -0.45593999997E+02  0.45594000000E+02  0.51100000000E-03 0. -1.
    9900012    2    1    2    0    0  0.33560259717E+02 -0.26061338381E+02 -0.88396146011E+01  0.47787272163E+02  0.20000005100E+02 0.  0.
        -12    1    1    2    0    0 -0.33560259717E+02  0.26061338381E+02  0.88396146011E+01  0.43400727837E+02  0.00000000000E+00 0.  1.
         11    1    3    3    0    0 -0.23419853230E+00 -0.41111257629E+01  0.37212563725E+01  0.55501309212E+01  0.51100000000E-03 0.  1.
        -11    1    3    3    0    0  0.27276625985E+02 -0.17858055340E+02 -0.10772135946E+02  0.34336036153E+02  0.51100000000E-03 0. -1.
        -12    1    3    3    0    0  0.65178322645E+01 -0.40921572785E+01 -0.17887350279E+01  0.79011050886E+01  0.00000000000E+00 0.  1.
</event>
<event>
 7    1  0.2655656E-009  0.4778727E+02  0.7816164E-02  0.1312668E+00
        -11   -1    0    0    0    0  0.00000000000E+00  0.00000000000E+00  0.45593999997E+02  0.45594000000E+02  0.51100000000E-03 0. -1.
         11   -1    0    0    0    0 -0.00000000000E+00 -0.00000000000E+00 -0.45593999997E+02  0.45594000000E+02  0.51100000000E-03 0.  1.
    9900012    2    1    2    0    0  0.24484745889E+02  0.34522737795E+02  0.96073584532E+01  0.47787267949E+02  0.19999985885E+02 0.  0.
        -12    1    1    2    0    0 -0.24484745889E+02 -0.34522737795E+02 -0.96073584532E+01  0.43400732051E+02  0.00000000000E+00 0.  1.
         11    1    3    3    0    0  0.14254499536E+02  0.32424224390E+02  0.81970155861E+01  0.36355359289E+02  0.51100000000E-03 0. -1.
        -11    1    3    3    0    0  0.81075353175E+01  0.30643307353E+01  0.22477268862E+01  0.89540230174E+01  0.51100000000E-03 0.  1.
         12    1    3    3    0    0  0.21227110362E+01 -0.96581732968E+00 -0.83738401909E+00  0.24778856417E+01  0.00000000000E+00 0. -1.
</event>
<event>
 7    1  0.2655656E-009  0.4778727E+02  0.7816164E-02  0.1312668E+00
        -11   -1    0    0    0    0  0.00000000000E+00  0.00000000000E+00  0.45593999997E+02  0.45594000000E+02  0.51100000000E-03 0.  1.
         11   -1    0    0    0    0 -0.00000000000E+00 -0.00000000000E+00 -0.45593999997E+02  0.45594000000E+02  0.51100000000E-03 0. -1.
    9900012    2    1    2    0    0 -0.26792697343E+02  0.93119068835E+01 -0.32849094783E+02  0.47787271103E+02  0.20000000269E+02 0.  0.
        -12    1    1    2    0    0  0.26792697343E+02 -0.93119068835E+01  0.32849094783E+02  0.43400728897E+02  0.00000000000E+00 0.  1.
         11    1    3    3    0    0 -0.22851636382E+02  0.12193826683E+02 -0.20778658152E+02  0.33206013452E+02  0.51100000000E-03 0. -1.
        -11    1    3    3    0    0  0.35654552345E+00 -0.27349364604E+01 -0.14342624657E+01  0.31087153672E+01  0.51100000000E-03 0.  1.
         12    1    3    3    0    0 -0.42976064843E+01 -0.14698333874E+00 -0.10636174165E+02  0.11472542285E+02  0.00000000000E+00 0. -1.
</event>
<event>
 7    1  0.2655656E-009  0.4778727E+02  0.7816164E-02  0.1312668E+00
        -11   -1    0    0    0    0  0.00000000000E+00  0.00000000000E+00  0.45593999997E+02  0.45594000000E+02  0.51100000000E-03 0.  1.
         11   -1    0    0    0    0 -0.00000000000E+00 -0.00000000000E+00 -0.45593999997E+02  0.45594000000E+02  0.51100000000E-03 0. -1.
    9900012    2    1    2    0    0  0.55786251164E+01  0.27777078968E+02 -0.32877592499E+02  0.47787271173E+02  0.20000000586E+02 0.  0.
        -12    1    1    2    0    0 -0.55786251164E+01 -0.27777078968E+02  0.32877592499E+02  0.43400728827E+02  0.00000000000E+00 0.  1.
         11    1    3    3    0    0  0.42283534791E+00  0.16405288106E+02 -0.80498789320E+01  0.18278753203E+02  0.51100000000E-03 0. -1.
        -11    1    3    3    0    0  0.31964892286E+01  0.10812224651E+02 -0.11793122916E+02  0.16315621154E+02  0.51100000000E-03 0.  1.
         12    1    3    3    0    0  0.19593005399E+01  0.55956621177E+00 -0.13034590651E+02  0.13192896816E+02  0.00000000000E+00 0. -1.
</event>
<event>
 7    1  0.2655656E-009  0.4778726E+02  0.7816164E-02  0.1312668E+00
        -11   -1    0    0    0    0  0.00000000000E+00  0.00000000000E+00  0.45593999997E+02  0.45594000000E+02  0.51100000000E-03 0.  1.
         11   -1    0    0    0    0 -0.00000000000E+00 -0.00000000000E+00 -0.45593999997E+02  0.45594000000E+02  0.51100000000E-03 0. -1.
    9900012    2    1    2    0    0  0.10829127288E+02  0.22657961248E+02 -0.35397324845E+02  0.47787264846E+02  0.19999971737E+02 0.  0.
        -12    1    1    2    0    0 -0.10829127288E+02 -0.22657961248E+02  0.35397324845E+02  0.43400735154E+02  0.00000000000E+00 0.  1.
         11    1    3    3    0    0 -0.23180732389E-01  0.17355527665E+02 -0.20203171770E+02  0.26634245393E+02  0.51100000000E-03 0. -1.
        -11    1    3    3    0    0  0.98084773950E+01  0.74559985026E+01 -0.12880525167E+02  0.17824311244E+02  0.51100000000E-03 0.  1.
         12    1    3    3    0    0  0.10438306249E+01 -0.21535649191E+01 -0.23136279084E+01  0.33287082079E+01  0.00000000000E+00 0. -1.
</event>
<event>
 7    1  0.2655656E-009  0.4778728E+02  0.7816164E-02  0.1312668E+00
        -11   -1    0    0    0    0  0.00000000000E+00  0.00000000000E+00  0.45593999997E+02  0.45594000000E+02  0.51100000000E-03 0. -1.
         11   -1    0    0    0    0 -0.00000000000E+00 -0.00000000000E+00 -0.45593999997E+02  0.45594000000E+02  0.51100000000E-03 0.  1.
    9900012    2    1    2    0    0 -0.25399722965E+02 -0.11824496141E+02  0.33146009195E+02  0.47787279254E+02  0.20000037430E+02 0.  0.
        -12    1    1    2    0    0  0.25399722965E+02  0.11824496141E+02 -0.33146009195E+02  0.43400720746E+02  0.00000000000E+00 0.  1.
         11    1    3    3    0    0 -0.15926237994E+02 -0.13204002448E+02  0.28739723720E+02  0.35411332326E+02  0.51100000000E-03 0. -1.
        -11    1    3    3    0    0 -0.10049824827E+02  0.61137317969E+00  0.27100686968E+01  0.10426755431E+02  0.51100000000E-03 0.  1.
        -12    1    3    3    0    0  0.57633985576E+00  0.76813312800E+00  0.16962167783E+01  0.19491914967E+01  0.00000000000E+00 0.  1.
</event>
<event>
 7    1  0.2655656E-009  0.4778727E+02  0.7816164E-02  0.1312668E+00
        -11   -1    0    0    0    0  0.00000000000E+00  0.00000000000E+00  0.45593999997E+02  0.45594000000E+02  0.51100000000E-03 0.  1.
         11   -1    0    0    0    0 -0.00000000000E+00 -0.00000000000E+00 -0.45593999997E+02  0.45594000000E+02  0.51100000000E-03 0. -1.
    9900012    2    1    2    0    0 -0.58757037809E+01 -0.26506669903E+02 -0.33859947478E+02  0.47787268583E+02  0.19999988778E+02 0.  0.
        -12    1    1    2    0    0  0.58757037809E+01  0.26506669903E+02  0.33859947478E+02  0.43400731417E+02  0.00000000000E+00 0.  1.
         11    1    3    3    0    0  0.38166060531E+01 -0.85536930838E+01 -0.28779893032E+01  0.97987228671E+01  0.51100000000E-03 0. -1.
        -11    1    3    3    0    0 -0.44401391719E+00  0.87838580970E+00 -0.10854728979E+01  0.14652513991E+01  0.51100000000E-03 0.  1.
         12    1    3    3    0    0 -0.92482959169E+01 -0.18831362629E+02 -0.29896485277E+02  0.36523294317E+02  0.00000000000E+00 0. -1.
</event>
<event>
 7    1  0.2655656E-009  0.4778727E+02  0.7816164E-02  0.1312668E+00
        -11   -1    0    0    0    0  0.00000000000E+00  0.00000000000E+00  0.45593999997E+02  0.45594000000E+02  0.51100000000E-03 0.  1.
         11   -1    0    0    0    0 -0.00000000000E+00 -0.00000000000E+00 -0.45593999997E+02  0.45594000000E+02  0.51100000000E-03 0. -1.
    9900012    2    1    2    0    0  0.80527133377E+01  0.11322156818E+02 -0.41116732324E+02  0.47787273000E+02  0.20000008916E+02 0.  0.
        -12    1    1    2    0    0 -0.80527133377E+01 -0.11322156818E+02  0.41116732324E+02  0.43400727000E+02  0.00000000000E+00 0.  1.
         11    1    3    3    0    0 -0.38710769916E+01  0.57717361180E+01 -0.15701013138E+02  0.17170322906E+02  0.51100000000E-03 0. -1.
        -11    1    3    3    0    0  0.10874953718E+02  0.25293062340E+01 -0.25015368969E+02  0.27393990095E+02  0.51100000000E-03 0.  1.
         12    1    3    3    0    0  0.10488366109E+01  0.30211144663E+01 -0.40035021683E+00  0.32229599984E+01  0.00000000000E+00 0. -1.
</event>
<event>
 7    1  0.2655656E-009  0.4778727E+02  0.7816164E-02  0.1312668E+00
        -11   -1    0    0    0    0  0.00000000000E+00  0.00000000000E+00  0.45593999997E+02  0.45594000000E+02  0.51100000000E-03 0.  1.
         11   -1    0    0    0    0 -0.00000000000E+00 -0.00000000000E+00 -0.45593999997E+02  0.45594000000E+02  0.51100000000E-03 0. -1.
    9900012    2    1    2    0    0  0.15533075545E+02 -0.98986869372E+01 -0.39298378736E+02  0.47787274081E+02  0.20000013846E+02 0.  0.
        -12    1    1    2    0    0 -0.15533075545E+02  0.98986869372E+01  0.39298378736E+02  0.43400725919E+02  0.00000000000E+00 0.  1.
         11    1    3    3    0    0  0.37650395943E+01 -0.95135650819E+01 -0.26468317447E+02  0.28377020147E+02  0.51100000000E-03 0. -1.
        -11    1    3    3    0    0  0.26459561725E+01  0.30260666316E+01 -0.11066122624E+01  0.41692630387E+01  0.51100000000E-03 0.  1.
         12    1    3    3    0    0  0.91220797782E+01 -0.34111884869E+01 -0.11723449027E+02  0.15240990895E+02  0.00000000000E+00 0. -1.
</event>
<event>
 7    1  0.2655656E-009  0.4778727E+02  0.7816164E-02  0.1312668E+00
        -11   -1    0    0    0    0  0.00000000000E+00  0.00000000000E+00  0.45593999997E+02  0.45594000000E+02  0.51100000000E-03 0.  1.
         11   -1    0    0    0    0 -0.00000000000E+00 -0.00000000000E+00 -0.45593999997E+02  0.45594000000E+02  0.51100000000E-03 0. -1.
    9900012    2    1    2    0    0 -0.21472173291E+02 -0.28250148045E+01 -0.37611015135E+02  0.47787269660E+02  0.19999993690E+02 0.  0.
        -12    1    1    2    0    0  0.21472173291E+02  0.28250148045E+01  0.37611015135E+02  0.43400730340E+02  0.00000000000E+00 0.  1.
         11    1    3    3    0    0 -0.65305767476E+01 -0.21043723141E+01 -0.24573024289E+02  0.25512944527E+02  0.51100000000E-03 0.  1.
        -11    1    3    3    0    0 -0.13746817016E+02  0.30518418465E+01 -0.10615313254E+02  0.17634443355E+02  0.51100000000E-03 0. -1.
        -12    1    3    3    0    0 -0.11947795283E+01 -0.37724843370E+01 -0.24226775929E+01  0.46398817779E+01  0.00000000000E+00 0.  1.
</event>
<event>
 7    1  0.2655656E-009  0.4778727E+02  0.7816164E-02  0.1312668E+00
        -11   -1    0    0    0    0  0.00000000000E+00  0.00000000000E+00  0.45593999997E+02  0.45594000000E+02  0.51100000000E-03 0.  1.
         11   -1    0    0    0    0 -0.00000000000E+00 -0.00000000000E+00 -0.45593999997E+02  0.45594000000E+02  0.51100000000E-03 0. -1.
    9900012    2    1    2    0    0 -0.39332235016E+02 -0.86314669213E+01 -0.16189398058E+02  0.47787267954E+02  0.19999985911E+02 0.  0.
        -12    1    1    2    0    0  0.39332235016E+02  0.86314669213E+01  0.16189398058E+02  0.43400732046E+02  0.00000000000E+00 0.  1.
         11    1    3    3    0    0 -0.36930098930E+01  0.28461859520E+01  0.24411581403E+01  0.52629221797E+01  0.51100000000E-03 0.  1.
        -11    1    3    3    0    0 -0.28681416709E+02 -0.12242212588E+02 -0.14436556755E+02  0.34364365333E+02  0.51100000000E-03 0. -1.
         12    1    3    3    0    0 -0.69578084140E+01  0.76455971470E+00 -0.41939994433E+01  0.81599804420E+01  0.00000000000E+00 0. -1.
</event>
<event>
 7    1  0.2655656E-009  0.4778727E+02  0.7816164E-02  0.1312668E+00
        -11   -1    0    0    0    0  0.00000000000E+00  0.00000000000E+00  0.45593999997E+02  0.45594000000E+02  0.51100000000E-03 0. -1.
         11   -1    0    0    0    0 -0.00000000000E+00 -0.00000000000E+00 -0.45593999997E+02  0.45594000000E+02  0.51100000000E-03 0.  1.
    9900012    2    1    2    0    0  0.37640587609E+02  0.21544228456E+02 -0.16296519424E+01  0.47787269813E+02  0.19999994386E+02 0.  0.
        -12    1    1    2    0    0 -0.37640587609E+02 -0.21544228456E+02  0.16296519424E+01  0.43400730187E+02  0.00000000000E+00 0.  1.
         11    1    3    3    0    0  0.17062731963E+02  0.17862303352E+02 -0.91800981994E+00  0.24719252525E+02  0.51100000000E-03 0.  1.
        -11    1    3    3    0    0  0.12211396187E+02  0.69606292662E+01 -0.84203940070E+00  0.14081107458E+02  0.51100000000E-03 0. -1.
         12    1    3    3    0    0  0.83664594586E+01 -0.32787041625E+01  0.13039727828E+00  0.89869098309E+01  0.00000000000E+00 0. -1.
</event>
<event>
 7    1  0.2655656E-009  0.4778727E+02  0.7816164E-02  0.1312668E+00
        -11   -1    0    0    0    0  0.00000000000E+00  0.00000000000E+00  0.45593999997E+02  0.45594000000E+02  0.51100000000E-03 0.  1.
         11   -1    0    0    0    0 -0.00000000000E+00 -0.00000000000E+00 -0.45593999997E+02  0.45594000000E+02  0.51100000000E-03 0. -1.
    9900012    2    1    2    0    0  0.95683076868E+01 -0.26116105321E+02 -0.33316958470E+02  0.47787272001E+02  0.20000004361E+02 0.  0.
        -12    1    1    2    0    0 -0.95683076868E+01  0.26116105321E+02  0.33316958470E+02  0.43400727999E+02  0.00000000000E+00 0.  1.
         11    1    3    3    0    0  0.11792612162E+02 -0.14383239613E+02 -0.26534686442E+02  0.32404210655E+02  0.51100000000E-03 0. -1.
        -11    1    3    3    0    0 -0.38951981109E+01 -0.51373504610E+01 -0.54675133722E+01  0.84533212892E+01  0.51100000000E-03 0.  1.
        -12    1    3    3    0    0  0.16708936358E+01 -0.65955152477E+01 -0.13147586562E+01  0.69297400563E+01  0.00000000000E+00 0.  1.
</event>
<event>
 7    1  0.2904058E-009  0.4778727E+02  0.7816164E-02  0.1312668E+00
        -11   -1    0    0    0    0  0.00000000000E+00  0.00000000000E+00  0.45593999997E+02  0.45594000000E+02  0.51100000000E-03 0.  1.
         11   -1    0    0    0    0 -0.00000000000E+00 -0.00000000000E+00 -0.45593999997E+02  0.45594000000E+02  0.51100000000E-03 0. -1.
    9900012    2    1    2    0    0 -0.40761078194E+02 -0.10629202087E+02  0.10448837690E+02  0.47787266807E+02  0.19999980681E+02 0.  0.
        -12    1    1    2    0    0  0.40761078194E+02  0.10629202087E+02 -0.10448837690E+02  0.43400733193E+02  0.00000000000E+00 0.  1.
         11    1    3    3    0    0 -0.35087859980E+02 -0.61565595376E+01  0.59396823535E+01  0.36115661008E+02  0.51100000000E-03 0. -1.
        -11    1    3    3    0    0 -0.13723772239E+01  0.21615356387E+01  0.23510154210E+01  0.34760508242E+01  0.51100000000E-03 0.  1.
         12    1    3    3    0    0 -0.43008409906E+01 -0.66341781879E+01  0.21581399160E+01  0.81955549753E+01  0.00000000000E+00 0. -1.
</event>
<event>
 7    1  0.2655656E-009  0.4778727E+02  0.7816164E-02  0.1312668E+00
        -11   -1    0    0    0    0  0.00000000000E+00  0.00000000000E+00  0.45593999997E+02  0.45594000000E+02  0.51100000000E-03 0.  1.
         11   -1    0    0    0    0 -0.00000000000E+00 -0.00000000000E+00 -0.45593999997E+02  0.45594000000E+02  0.51100000000E-03 0. -1.
    9900012    2    1    2    0    0 -0.29503135061E+02  0.19342221824E+02 -0.25279770419E+02  0.47787270560E+02  0.19999997790E+02 0.  0.
        -12    1    1    2    0    0  0.29503135061E+02 -0.19342221824E+02  0.25279770419E+02  0.43400729440E+02  0.00000000000E+00 0.  1.
         11    1    3    3    0    0 -0.17007387190E+02  0.19632349312E+02 -0.19024880620E+02  0.32196683702E+02  0.51100000000E-03 0. -1.
        -11    1    3    3    0    0 -0.12800960934E+02 -0.19662191016E+00 -0.41451032006E+01  0.13456787945E+02  0.51100000000E-03 0.  1.
         12    1    3    3    0    0  0.30521306365E+00 -0.93505577313E-01 -0.21097865986E+01  0.21337989124E+01  0.00000000000E+00 0. -1.
</event>
<event>
 7    1  0.2655656E-009  0.4778728E+02  0.7816164E-02  0.1312668E+00
        -11   -1    0    0    0    0  0.00000000000E+00  0.00000000000E+00  0.45593999997E+02  0.45594000000E+02  0.51100000000E-03 0.  1.
         11   -1    0    0    0    0 -0.00000000000E+00 -0.00000000000E+00 -0.45593999997E+02  0.45594000000E+02  0.51100000000E-03 0. -1.
    9900012    2    1    2    0    0  0.17477090835E+02  0.10519908409E+02 -0.38308037353E+02  0.47787275319E+02  0.20000019490E+02 0.  0.
        -12    1    1    2    0    0 -0.17477090835E+02 -0.10519908409E+02  0.38308037353E+02  0.43400724681E+02  0.00000000000E+00 0.  1.
         11    1    3    3    0    0  0.61183035098E+01  0.76417730656E+01 -0.29046454256E+02  0.30651702049E+02  0.51100000000E-03 0. -1.
        -11    1    3    3    0    0  0.91390304732E+00  0.30741724773E+01 -0.49829977816E-01  0.32075284080E+01  0.51100000000E-03 0.  1.
         12    1    3    3    0    0  0.10444884278E+02 -0.19603713371E+00 -0.92117531196E+01  0.13928044862E+02  0.00000000000E+00 0. -1.
</event>
<event>
 7    1  0.2655656E-009  0.4778727E+02  0.7816164E-02  0.1312668E+00
        -11   -1    0    0    0    0  0.00000000000E+00  0.00000000000E+00  0.45593999997E+02  0.45594000000E+02  0.51100000000E-03 0. -1.
         11   -1    0    0    0    0 -0.00000000000E+00 -0.00000000000E+00 -0.45593999997E+02  0.45594000000E+02  0.51100000000E-03 0.  1.
    9900012    2    1    2    0    0  0.12280645804E+02  0.52681380902E+01  0.41292322659E+02  0.47787269005E+02  0.19999990702E+02 0.  0.
        -12    1    1    2    0    0 -0.12280645804E+02 -0.52681380902E+01 -0.41292322659E+02  0.43400730995E+02  0.00000000000E+00 0.  1.
         11    1    3    3    0    0  0.40063529912E+01  0.11390963600E+02  0.24799612828E+02  0.27583069313E+02  0.51100000000E-03 0. -1.
        -11    1    3    3    0    0  0.83497688296E+01 -0.68390825104E+01  0.16102389579E+02  0.19385010692E+02  0.51100000000E-03 0.  1.
        -12    1    3    3    0    0 -0.75476016768E-01  0.71625700020E+00  0.39032025139E+00  0.81918900022E+00  0.00000000000E+00 0.  1.
</event>
<event>
 7    1  0.2655656E-009  0.4778726E+02  0.7816164E-02  0.1312668E+00
        -11   -1    0    0    0    0  0.00000000000E+00  0.00000000000E+00  0.45593999997E+02  0.45594000000E+02  0.51100000000E-03 0.  1.
         11   -1    0    0    0    0 -0.00000000000E+00 -0.00000000000E+00 -0.45593999997E+02  0.45594000000E+02  0.51100000000E-03 0. -1.
    9900012    2    1    2    0    0 -0.25423348983E+00 -0.15142531038E+02 -0.40672641507E+02  0.47787255213E+02  0.19999927819E+02 0.  0.
        -12    1    1    2    0    0  0.25423348983E+00  0.15142531038E+02  0.40672641507E+02  0.43400744787E+02  0.00000000000E+00 0.  1.
         11    1    3    3    0    0 -0.89736696721E+01 -0.43222446673E+01 -0.12229373065E+02  0.15772321078E+02  0.51100000000E-03 0. -1.
        -11    1    3    3    0    0  0.15245723083E+01 -0.12940525418E+01 -0.13629622145E+01  0.24200328435E+01  0.51100000000E-03 0.  1.
         12    1    3    3    0    0  0.71948638739E+01 -0.95262338289E+01 -0.27080306227E+02  0.29594901292E+02  0.00000000000E+00 0. -1.
</event>
<event>
 7    1  0.2655656E-009  0.4778727E+02  0.7816164E-02  0.1312668E+00
        -11   -1    0    0    0    0  0.00000000000E+00  0.00000000000E+00  0.45593999997E+02  0.45594000000E+02  0.51100000000E-03 0.  1.
         11   -1    0    0    0    0 -0.00000000000E+00 -0.00000000000E+00 -0.45593999997E+02  0.45594000000E+02  0.51100000000E-03 0. -1.
    9900012    2    1    2    0    0 -0.34473475319E+02  0.25658449775E+02  0.60701649439E+01  0.47787269040E+02  0.19999990862E+02 0.  0.
        -12    1    1    2    0    0  0.34473475319E+02 -0.25658449775E+02 -0.60701649439E+01  0.43400730960E+02  0.00000000000E+00 0.  1.
         11    1    3    3    0    0 -0.23293446827E+02  0.20175927544E+02  0.24328623286E+01  0.30912320145E+02  0.51100000000E-03 0. -1.
        -11    1    3    3    0    0  0.65414803450E-01  0.18242139820E+01  0.46605063501E+01  0.50052328066E+01  0.51100000000E-03 0.  1.
         12    1    3    3    0    0 -0.11245443295E+02  0.36583082484E+01 -0.10232037347E+01  0.11869716089E+02  0.00000000000E+00 0. -1.
</event>
<event>
 7    1  0.2655656E-009  0.4778727E+02  0.7816164E-02  0.1312668E+00
        -11   -1    0    0    0    0  0.00000000000E+00  0.00000000000E+00  0.45593999997E+02  0.45594000000E+02  0.51100000000E-03 0. -1.
         11   -1    0    0    0    0 -0.00000000000E+00 -0.00000000000E+00 -0.45593999997E+02  0.45594000000E+02  0.51100000000E-03 0.  1.
    9900012    2    1    2    0    0  0.89717555382E+01 -0.17745538562E+02  0.38577544111E+02  0.47787269062E+02  0.19999990962E+02 0.  0.
        -12    1    1    2    0    0 -0.89717555382E+01  0.17745538562E+02 -0.38577544111E+02  0.43400730938E+02  0.00000000000E+00 0.  1.
         11    1    3    3    0    0  0.57625161252E+01 -0.11016813066E+02  0.31911689123E+02  0.34248104549E+02  0.51100000000E-03 0. -1.
        -11    1    3    3    0    0  0.47744109712E+01 -0.18896149518E+00  0.42473408923E+01  0.63930127081E+01  0.51100000000E-03 0.  1.
         12    1    3    3    0    0 -0.15651715583E+01 -0.65397640009E+01  0.24185140955E+01  0.71461518053E+01  0.00000000000E+00 0. -1.
</event>
<event>
 7    1  0.2655656E-009  0.4778727E+02  0.7816164E-02  0.1312668E+00
        -11   -1    0    0    0    0  0.00000000000E+00  0.00000000000E+00  0.45593999997E+02  0.45594000000E+02  0.51100000000E-03 0. -1.
         11   -1    0    0    0    0 -0.00000000000E+00 -0.00000000000E+00 -0.45593999997E+02  0.45594000000E+02  0.51100000000E-03 0.  1.
    9900012    2    1    2    0    0  0.80515547444E+01 -0.21803709637E+02  0.36652339171E+02  0.47787271268E+02  0.20000001019E+02 0.  0.
        -12    1    1    2    0    0 -0.80515547444E+01  0.21803709637E+02 -0.36652339171E+02  0.43400728732E+02  0.00000000000E+00 0.  1.
         11    1    3    3    0    0  0.22235716481E+01 -0.19756790833E+02  0.36299206224E+02  0.41387285821E+02  0.51100000000E-03 0. -1.
        -11    1    3    3    0    0  0.45931091366E+01 -0.89895626802E+00  0.50347164375E+00  0.47072558747E+01  0.51100000000E-03 0.  1.
         12    1    3    3    0    0  0.12348739597E+01 -0.11479625366E+01 -0.15033869608E+00  0.16927295725E+01  0.00000000000E+00 0. -1.
</event>
<event>
 7    1  0.2655656E-009  0.4778727E+02  0.7816164E-02  0.1312668E+00
        -11   -1    0    0    0    0  0.00000000000E+00  0.00000000000E+00  0.45593999997E+02  0.45594000000E+02  0.51100000000E-03 0. -1.
         11   -1    0    0    0    0 -0.00000000000E+00 -0.00000000000E+00 -0.45593999997E+02  0.45594000000E+02  0.51100000000E-03 0.  1.
    9900012    2    1    2    0    0 -0.39620478809E+02 -0.16488169499E+02 -0.64792834880E+01  0.47787272022E+02  0.20000004458E+02 0.  0.
        -12    1    1    2    0    0  0.39620478809E+02  0.16488169499E+02  0.64792834880E+01  0.43400727978E+02  0.00000000000E+00 0.  1.
         11    1    3    3    0    0 -0.40709569075E+02 -0.14567965094E+02 -0.81347847080E+01  0.43996242383E+02  0.51100000000E-03 0. -1.
        -11    1    3    3    0    0  0.84785888067E+00 -0.25680530771E+01  0.11720476827E+01  0.29474492905E+01  0.51100000000E-03 0.  1.
         12    1    3    3    0    0  0.24123138578E+00  0.64784867174E+00  0.48345353730E+00  0.84358034927E+00  0.00000000000E+00 0. -1.
</event>
<event>
 7    1  0.2655656E-009  0.4778728E+02  0.7816164E-02  0.1312668E+00
        -11   -1    0    0    0    0  0.00000000000E+00  0.00000000000E+00  0.45593999997E+02  0.45594000000E+02  0.51100000000E-03 0.  1.
         11   -1    0    0    0    0 -0.00000000000E+00 -0.00000000000E+00 -0.45593999997E+02  0.45594000000E+02  0.51100000000E-03 0. -1.
    9900012    2    1    2    0    0  0.30317391824E+02 -0.28828627363E+02  0.11549402791E+02  0.47787277570E+02  0.20000029753E+02 0.  0.
        -12    1    1    2    0    0 -0.30317391824E+02  0.28828627363E+02 -0.11549402791E+02  0.43400722430E+02  0.00000000000E+00 0.  1.
         11    1    3    3    0    0  0.30179303279E+02 -0.27445590933E+02  0.10271770113E+02  0.42066139229E+02  0.51100000000E-03 0. -1.
        -11    1    3    3    0    0 -0.10647795555E+01 -0.12606854257E+01 -0.17835434385E+01  0.24298375877E+01  0.51100000000E-03 0.  1.
         12    1    3    3    0    0  0.12028680999E+01 -0.12235100402E+00  0.30611761168E+01  0.32913007538E+01  0.00000000000E+00 0. -1.
</event>
<event>
 7    1  0.2655656E-009  0.4778726E+02  0.7816164E-02  0.1312668E+00
        -11   -1    0    0    0    0  0.00000000000E+00  0.00000000000E+00  0.45593999997E+02  0.45594000000E+02  0.51100000000E-03 0.  1.
         11   -1    0    0    0    0 -0.00000000000E+00 -0.00000000000E+00 -0.45593999997E+02  0.45594000000E+02  0.51100000000E-03 0. -1.
    9900012    2    1    2    0    0  0.20415628838E+00 -0.37233394729E+02 -0.22299252299E+02  0.47787262495E+02  0.19999961022E+02 0.  0.
        -12    1    1    2    0    0 -0.20415628838E+00  0.37233394729E+02  0.22299252299E+02  0.43400737505E+02  0.00000000000E+00 0.  1.
         11    1    3    3    0    0  0.10946653151E+01 -0.81413977609E+01 -0.16099314178E+01  0.83709335850E+01  0.51100000000E-03 0. -1.
        -11    1    3    3    0    0 -0.14688991502E+01  0.10229285948E+01  0.12236126962E+01  0.21682425868E+01  0.51100000000E-03 0.  1.
        -12    1    3    3    0    0  0.57839012354E+00 -0.30114925563E+02 -0.21912933578E+02  0.37248086324E+02  0.00000000000E+00 0.  1.
</event>
<event>
 7    1  0.2655656E-009  0.4778727E+02  0.7816164E-02  0.1312668E+00
        -11   -1    0    0    0    0  0.00000000000E+00  0.00000000000E+00  0.45593999997E+02  0.45594000000E+02  0.51100000000E-03 0.  1.
         11   -1    0    0    0    0 -0.00000000000E+00 -0.00000000000E+00 -0.45593999997E+02  0.45594000000E+02  0.51100000000E-03 0. -1.
    9900012    2    1    2    0    0  0.30088314637E+02 -0.19816177834E+02 -0.24199907358E+02  0.47787273073E+02  0.20000009251E+02 0.  0.
        -12    1    1    2    0    0 -0.30088314637E+02  0.19816177834E+02  0.24199907358E+02  0.43400726927E+02  0.00000000000E+00 0.  1.
         11    1    3    3    0    0  0.17403434876E+02 -0.16985535145E+02 -0.16346975544E+02  0.29302074318E+02  0.51100000000E-03 0. -1.
        -11    1    3    3    0    0 -0.17476217181E+01 -0.16959392113E+00  0.16225412365E+00  0.17633123460E+01  0.51100000000E-03 0.  1.
        -12    1    3    3    0    0  0.14432501478E+02 -0.26610487683E+01 -0.80151859368E+01  0.16721886409E+02  0.00000000000E+00 0.  1.
</event>
<event>
 7    1  0.2655656E-009  0.4778727E+02  0.7816164E-02  0.1312668E+00
        -11   -1    0    0    0    0  0.00000000000E+00  0.00000000000E+00  0.45593999997E+02  0.45594000000E+02  0.51100000000E-03 0. -1.
         11   -1    0    0    0    0 -0.00000000000E+00 -0.00000000000E+00 -0.45593999997E+02  0.45594000000E+02  0.51100000000E-03 0.  1.
    9900012    2    1    2    0    0 -0.84777653395E+01 -0.26146228372E+02  0.33587579786E+02  0.47787270984E+02  0.19999999726E+02 0.  0.
        -12    1    1    2    0    0  0.84777653395E+01  0.26146228372E+02 -0.33587579786E+02  0.43400729016E+02  0.00000000000E+00 0.  1.
         11    1    3    3    0    0 -0.45571343452E+01 -0.75046635872E+01  0.64171053311E+01  0.10875048969E+02  0.51100000000E-03 0. -1.
        -11    1    3    3    0    0 -0.56305970941E+01 -0.16607399946E+02  0.11391720003E+02  0.20911256335E+02  0.51100000000E-03 0.  1.
        -12    1    3    3    0    0  0.17099660999E+01 -0.20341648387E+01  0.15778754452E+02  0.16000965680E+02  0.00000000000E+00 0.  1.
</event>
<event>
 7    1  0.2655656E-009  0.4778727E+02  0.7816164E-02  0.1312668E+00
        -11   -1    0    0    0    0  0.00000000000E+00  0.00000000000E+00  0.45593999997E+02  0.45594000000E+02  0.51100000000E-03 0.  1.
         11   -1    0    0    0    0 -0.00000000000E+00 -0.00000000000E+00 -0.45593999997E+02  0.45594000000E+02  0.51100000000E-03 0. -1.
    9900012    2    1    2    0    0 -0.20221697764E+02  0.36417095844E+02 -0.12186120964E+02  0.47787268736E+02  0.19999989473E+02 0.  0.
        -12    1    1    2    0    0  0.20221697764E+02 -0.36417095844E+02  0.12186120964E+02  0.43400731264E+02  0.00000000000E+00 0.  1.
         11    1    3    3    0    0 -0.10725034049E+02  0.18008204177E+02  0.18053848665E+01  0.21037613643E+02  0.51100000000E-03 0. -1.
        -11    1    3    3    0    0 -0.63481771654E+01  0.73405570427E+01 -0.11367803756E+02  0.14946909163E+02  0.51100000000E-03 0.  1.
         12    1    3    3    0    0 -0.31484865498E+01  0.11068334624E+02 -0.26237020741E+01  0.11802745930E+02  0.00000000000E+00 0. -1.
</event>
<event>
 7    1  0.2655656E-009  0.4778727E+02  0.7816164E-02  0.1312668E+00
        -11   -1    0    0    0    0  0.00000000000E+00  0.00000000000E+00  0.45593999997E+02  0.45594000000E+02  0.51100000000E-03 0. -1.
         11   -1    0    0    0    0 -0.00000000000E+00 -0.00000000000E+00 -0.45593999997E+02  0.45594000000E+02  0.51100000000E-03 0.  1.
    9900012    2    1    2    0    0 -0.41061699122E+02  0.13539917104E+02  0.37723784907E+01  0.47787270404E+02  0.19999997079E+02 0.  0.
        -12    1    1    2    0    0  0.41061699122E+02 -0.13539917104E+02 -0.37723784907E+01  0.43400729596E+02  0.00000000000E+00 0.  1.
         11    1    3    3    0    0 -0.15518525559E+02 -0.76185053446E+00 -0.61439491132E+01  0.16707877265E+02  0.51100000000E-03 0.  1.
        -11    1    3    3    0    0 -0.19582815354E+02  0.11890841219E+02  0.65833456714E+01  0.23837348900E+02  0.51100000000E-03 0. -1.
        -12    1    3    3    0    0 -0.59603582098E+01  0.24109264198E+01  0.33329819325E+01  0.72420442385E+01  0.00000000000E+00 0.  1.
</event>
<event>
 7    1  0.2655656E-009  0.4778727E+02  0.7816164E-02  0.1312668E+00
        -11   -1    0    0    0    0  0.00000000000E+00  0.00000000000E+00  0.45593999997E+02  0.45594000000E+02  0.51100000000E-03 0. -1.
         11   -1    0    0    0    0 -0.00000000000E+00 -0.00000000000E+00 -0.45593999997E+02  0.45594000000E+02  0.51100000000E-03 0.  1.
    9900012    2    1    2    0    0  0.37492451889E+02 -0.13798586881E+02  0.16956960341E+02  0.47787268986E+02  0.19999990614E+02 0.  0.
        -12    1    1    2    0    0 -0.37492451889E+02  0.13798586881E+02 -0.16956960341E+02  0.43400731014E+02  0.00000000000E+00 0.  1.
         11    1    3    3    0    0  0.11651750665E+02 -0.11351654143E+02  0.21879708659E+01  0.16413730902E+02  0.51100000000E-03 0. -1.
        -11    1    3    3    0    0  0.12032246089E+02  0.36664877017E+01  0.66569992399E+01  0.14231434121E+02  0.51100000000E-03 0.  1.
         12    1    3    3    0    0  0.13808455135E+02 -0.61134204401E+01  0.81119902355E+01  0.17142103963E+02  0.00000000000E+00 0. -1.
</event>
<event>
 7    1  0.2655656E-009  0.4778727E+02  0.7816164E-02  0.1312668E+00
        -11   -1    0    0    0    0  0.00000000000E+00  0.00000000000E+00  0.45593999997E+02  0.45594000000E+02  0.51100000000E-03 0.  1.
         11   -1    0    0    0    0 -0.00000000000E+00 -0.00000000000E+00 -0.45593999997E+02  0.45594000000E+02  0.51100000000E-03 0. -1.
    9900012    2    1    2    0    0 -0.28382564998E+02  0.28746032711E+02 -0.15865656140E+02  0.47787269163E+02  0.19999991420E+02 0.  0.
        -12    1    1    2    0    0  0.28382564998E+02 -0.28746032711E+02  0.15865656140E+02  0.43400730837E+02  0.00000000000E+00 0.  1.
         11    1    3    3    0    0 -0.10991457372E+02  0.46315076667E+01  0.18648516712E+01  0.12072310070E+02  0.51100000000E-03 0. -1.
        -11    1    3    3    0    0  0.80552204354E+00  0.28324103876E+01 -0.10736904685E+01  0.31343621121E+01  0.51100000000E-03 0.  1.
         12    1    3    3    0    0 -0.18196629670E+02  0.21282114657E+02 -0.16656817343E+02  0.32580596980E+02  0.00000000000E+00 0. -1.
</event>
<event>
 7    1  0.2655656E-009  0.4778727E+02  0.7816164E-02  0.1312668E+00
        -11   -1    0    0    0    0  0.00000000000E+00  0.00000000000E+00  0.45593999997E+02  0.45594000000E+02  0.51100000000E-03 0. -1.
         11   -1    0    0    0    0 -0.00000000000E+00 -0.00000000000E+00 -0.45593999997E+02  0.45594000000E+02  0.51100000000E-03 0.  1.
    9900012    2    1    2    0    0  0.12092383252E+02 -0.26259566787E+02  0.32370249532E+02  0.47787266880E+02  0.19999981013E+02 0.  0.
        -12    1    1    2    0    0 -0.12092383252E+02  0.26259566787E+02 -0.32370249532E+02  0.43400733120E+02  0.00000000000E+00 0.  1.
         11    1    3    3    0    0  0.57177113378E+01  0.15502074478E+01  0.69674347626E+01  0.91455187663E+01  0.51100000000E-03 0. -1.
        -11    1    3    3    0    0  0.36739790808E+00 -0.12405939845E+02  0.88305568848E+01  0.15232237518E+02  0.51100000000E-03 0.  1.
         12    1    3    3    0    0  0.60072740060E+01 -0.15403834391E+02  0.16572257885E+02  0.23409510595E+02  0.00000000000E+00 0. -1.
</event>
<event>
 7    1  0.2655656E-009  0.4778727E+02  0.7816164E-02  0.1312668E+00
        -11   -1    0    0    0    0  0.00000000000E+00  0.00000000000E+00  0.45593999997E+02  0.45594000000E+02  0.51100000000E-03 0.  1.
         11   -1    0    0    0    0 -0.00000000000E+00 -0.00000000000E+00 -0.45593999997E+02  0.45594000000E+02  0.51100000000E-03 0. -1.
    9900012    2    1    2    0    0  0.94349421915E+01 -0.21010787292E+02 -0.36785212547E+02  0.47787272139E+02  0.20000004990E+02 0.  0.
        -12    1    1    2    0    0 -0.94349421915E+01  0.21010787292E+02  0.36785212547E+02  0.43400727861E+02  0.00000000000E+00 0.  1.
         11    1    3    3    0    0  0.14508436473E+02 -0.13516542600E+02 -0.18752449256E+02  0.27291867032E+02  0.51100000000E-03 0. -1.
        -11    1    3    3    0    0 -0.12866031531E+01 -0.37521178656E+01 -0.10867447497E+02  0.11568714341E+02  0.51100000000E-03 0.  1.
         12    1    3    3    0    0 -0.37868911280E+01 -0.37421268261E+01 -0.71653157935E+01  0.89266907653E+01  0.00000000000E+00 0. -1.
</event>
<event>
 7    1  0.2655656E-009  0.4778728E+02  0.7816164E-02  0.1312668E+00
        -11   -1    0    0    0    0  0.00000000000E+00  0.00000000000E+00  0.45593999997E+02  0.45594000000E+02  0.51100000000E-03 0. -1.
         11   -1    0    0    0    0 -0.00000000000E+00 -0.00000000000E+00 -0.45593999997E+02  0.45594000000E+02  0.51100000000E-03 0.  1.
    9900012    2    1    2    0    0 -0.36971726849E+02 -0.22389876712E+02 -0.39252702539E+01  0.47787275214E+02  0.20000019011E+02 0.  0.
        -12    1    1    2    0    0  0.36971726849E+02  0.22389876712E+02  0.39252702539E+01  0.43400724786E+02  0.00000000000E+00 0.  1.
         11    1    3    3    0    0 -0.35964165179E+02 -0.22112958366E+02 -0.19665199859E+01  0.42264302974E+02  0.51100000000E-03 0. -1.
        -11    1    3    3    0    0 -0.23248062034E+01  0.13297495451E+01 -0.21529420971E+01  0.34362941769E+01  0.51100000000E-03 0.  1.
         12    1    3    3    0    0  0.13172445336E+01 -0.16066678914E+01  0.19419182902E+00  0.20866780636E+01  0.00000000000E+00 0. -1.
</event>
<event>
 7    1  0.2655656E-009  0.4778727E+02  0.7816164E-02  0.1312668E+00
        -11   -1    0    0    0    0  0.00000000000E+00  0.00000000000E+00  0.45593999997E+02  0.45594000000E+02  0.51100000000E-03 0.  1.
         11   -1    0    0    0    0 -0.00000000000E+00 -0.00000000000E+00 -0.45593999997E+02  0.45594000000E+02  0.51100000000E-03 0. -1.
    9900012    2    1    2    0    0 -0.27556274227E+02  0.32400821501E+02 -0.86291307441E+01  0.47787269815E+02  0.19999994395E+02 0.  0.
        -12    1    1    2    0    0  0.27556274227E+02 -0.32400821501E+02  0.86291307441E+01  0.43400730185E+02  0.00000000000E+00 0.  1.
         11    1    3    3    0    0 -0.97596440173E+01  0.21536043982E+02 -0.92253994759E+01  0.25380304125E+02  0.51100000000E-03 0. -1.
        -11    1    3    3    0    0 -0.17712336276E+02  0.11897877799E+02  0.34416971421E+00  0.21340215686E+02  0.51100000000E-03 0.  1.
         12    1    3    3    0    0 -0.84293933840E-01 -0.10331002802E+01  0.25209901768E+00  0.10667500040E+01  0.00000000000E+00 0. -1.
</event>
<event>
 7    1  0.2655656E-009  0.4778727E+02  0.7816164E-02  0.1312668E+00
        -11   -1    0    0    0    0  0.00000000000E+00  0.00000000000E+00  0.45593999997E+02  0.45594000000E+02  0.51100000000E-03 0. -1.
         11   -1    0    0    0    0 -0.00000000000E+00 -0.00000000000E+00 -0.45593999997E+02  0.45594000000E+02  0.51100000000E-03 0.  1.
    9900012    2    1    2    0    0  0.10437084914E+02  0.28603863680E+02 -0.30927489217E+02  0.47787270188E+02  0.19999996094E+02 0.  0.
        -12    1    1    2    0    0 -0.10437084914E+02 -0.28603863680E+02  0.30927489217E+02  0.43400729812E+02  0.00000000000E+00 0.  1.
         11    1    3    3    0    0  0.11750130420E+02  0.10465526632E+02 -0.22160694600E+02  0.27178837319E+02  0.51100000000E-03 0. -1.
        -11    1    3    3    0    0  0.74012695945E-01  0.12609996234E+02 -0.77992639781E+01  0.14827204786E+02  0.51100000000E-03 0.  1.
         12    1    3    3    0    0 -0.13870582016E+01  0.55283408143E+01 -0.96753063861E+00  0.57812280832E+01  0.00000000000E+00 0. -1.
</event>
<event>
 7    1  0.2655656E-009  0.4778727E+02  0.7816164E-02  0.1312668E+00
        -11   -1    0    0    0    0  0.00000000000E+00  0.00000000000E+00  0.45593999997E+02  0.45594000000E+02  0.51100000000E-03 0.  1.
         11   -1    0    0    0    0 -0.00000000000E+00 -0.00000000000E+00 -0.45593999997E+02  0.45594000000E+02  0.51100000000E-03 0. -1.
    9900012    2    1    2    0    0 -0.66847360797E+01 -0.26477006520E+02 -0.33732858080E+02  0.47787270917E+02  0.19999999417E+02 0.  0.
        -12    1    1    2    0    0  0.66847360797E+01  0.26477006520E+02  0.33732858080E+02  0.43400729083E+02  0.00000000000E+00 0.  1.
         11    1    3    3    0    0 -0.26994566444E+01 -0.22646958790E+02 -0.19428156686E+02  0.29960391871E+02  0.51100000000E-03 0. -1.
        -11    1    3    3    0    0 -0.65545491713E+01 -0.70517372262E+00 -0.87873785473E+01  0.10985326887E+02  0.51100000000E-03 0.  1.
        -12    1    3    3    0    0  0.25692697361E+01 -0.31248740077E+01 -0.55173228467E+01  0.68415521583E+01  0.00000000000E+00 0.  1.
</event>
<event>
 7    1  0.2655656E-009  0.4778727E+02  0.7816164E-02  0.1312668E+00
        -11   -1    0    0    0    0  0.00000000000E+00  0.00000000000E+00  0.45593999997E+02  0.45594000000E+02  0.51100000000E-03 0.  1.
         11   -1    0    0    0    0 -0.00000000000E+00 -0.00000000000E+00 -0.45593999997E+02  0.45594000000E+02  0.51100000000E-03 0. -1.
    9900012    2    1    2    0    0 -0.37277848376E+02  0.13185756128E+02 -0.17891934601E+02  0.47787268808E+02  0.19999989805E+02 0.  0.
        -12    1    1    2    0    0  0.37277848376E+02 -0.13185756128E+02  0.17891934601E+02  0.43400731192E+02  0.00000000000E+00 0.  1.
         11    1    3    3    0    0 -0.10493617976E+02  0.10496794729E+01 -0.10655380522E+02  0.14991830427E+02  0.51100000000E-03 0. -1.
        -11    1    3    3    0    0 -0.18321388601E+02  0.14122590710E+02 -0.37748107977E+01  0.23438644275E+02  0.51100000000E-03 0.  1.
        -12    1    3    3    0    0 -0.84628417986E+01 -0.19865140552E+01 -0.34617432821E+01  0.93567941065E+01  0.00000000000E+00 0.  1.
</event>
<event>
 7    1  0.2655656E-009  0.4778727E+02  0.7816164E-02  0.1312668E+00
        -11   -1    0    0    0    0  0.00000000000E+00  0.00000000000E+00  0.45593999997E+02  0.45594000000E+02  0.51100000000E-03 0.  1.
         11   -1    0    0    0    0 -0.00000000000E+00 -0.00000000000E+00 -0.45593999997E+02  0.45594000000E+02  0.51100000000E-03 0. -1.
    9900012    2    1    2    0    0 -0.20193178746E+02  0.12127772709E+02 -0.36452385368E+02  0.47787265700E+02  0.19999975632E+02 0.  0.
        -12    1    1    2    0    0  0.20193178746E+02 -0.12127772709E+02  0.36452385368E+02  0.43400734300E+02  0.00000000000E+00 0.  1.
         11    1    3    3    0    0 -0.11608640757E+02  0.20136196613E+01 -0.39951132646E+01  0.12440905699E+02  0.51100000000E-03 0. -1.
        -11    1    3    3    0    0 -0.61853906082E+01  0.74674500565E+01 -0.17904423091E+02  0.20361488988E+02  0.51100000000E-03 0.  1.
         12    1    3    3    0    0 -0.23991473807E+01  0.26467029912E+01 -0.14552849013E+02  0.14984871013E+02  0.00000000000E+00 0. -1.
</event>
<event>
 7    1  0.2655656E-009  0.4778727E+02  0.7816164E-02  0.1312668E+00
        -11   -1    0    0    0    0  0.00000000000E+00  0.00000000000E+00  0.45593999997E+02  0.45594000000E+02  0.51100000000E-03 0.  1.
         11   -1    0    0    0    0 -0.00000000000E+00 -0.00000000000E+00 -0.45593999997E+02  0.45594000000E+02  0.51100000000E-03 0. -1.
    9900012    2    1    2    0    0  0.13391850122E+02 -0.35841745875E+02 -0.20485380278E+02  0.47787271871E+02  0.20000003768E+02 0.  0.
        -12    1    1    2    0    0 -0.13391850122E+02  0.35841745875E+02  0.20485380278E+02  0.43400728129E+02  0.00000000000E+00 0.  1.
         11    1    3    3    0    0  0.22539013480E+01 -0.23067838773E+02 -0.71806115774E+01  0.24264509882E+02  0.51100000000E-03 0. -1.
        -11    1    3    3    0    0  0.93651553263E+01 -0.40211679844E+01 -0.90520167750E+01  0.13631395167E+02  0.51100000000E-03 0.  1.
        -12    1    3    3    0    0  0.17727934475E+01 -0.87527391170E+01 -0.42527519252E+01  0.98913668213E+01  0.00000000000E+00 0.  1.
</event>
<event>
 7    1  0.2655656E-009  0.4778730E+02  0.7816164E-02  0.1312668E+00
        -11   -1    0    0    0    0  0.00000000000E+00  0.00000000000E+00  0.45593999997E+02  0.45594000000E+02  0.51100000000E-03 0.  1.
         11   -1    0    0    0    0 -0.00000000000E+00 -0.00000000000E+00 -0.45593999997E+02  0.45594000000E+02  0.51100000000E-03 0. -1.
    9900012    2    1    2    0    0  0.73717713757E+01 -0.37966735189E+02 -0.19692765762E+02  0.47787297039E+02  0.20000118521E+02 0.  0.
        -12    1    1    2    0    0 -0.73717713757E+01  0.37966735189E+02  0.19692765762E+02  0.43400702961E+02  0.00000000000E+00 0.  1.
         11    1    3    3    0    0  0.99436195453E+01 -0.21367989023E+02 -0.18541013500E+02  0.29987259068E+02  0.51100000000E-03 0.  1.
        -11    1    3    3    0    0 -0.37391709502E+01 -0.13965499444E+02 -0.24098612485E+01  0.14656875711E+02  0.51100000000E-03 0. -1.
         12    1    3    3    0    0  0.11673227806E+01 -0.26332467220E+01  0.12581089865E+01  0.31431622604E+01  0.00000000000E+00 0. -1.
</event>
<event>
 7    1  0.2655656E-009  0.4778728E+02  0.7816164E-02  0.1312668E+00
        -11   -1    0    0    0    0  0.00000000000E+00  0.00000000000E+00  0.45593999997E+02  0.45594000000E+02  0.51100000000E-03 0.  1.
         11   -1    0    0    0    0 -0.00000000000E+00 -0.00000000000E+00 -0.45593999997E+02  0.45594000000E+02  0.51100000000E-03 0. -1.
    9900012    2    1    2    0    0  0.73258199027E+00 -0.32327711449E+02  0.28948314950E+02  0.47787279472E+02  0.20000038426E+02 0.  0.
        -12    1    1    2    0    0 -0.73258199027E+00  0.32327711449E+02 -0.28948314950E+02  0.43400720528E+02  0.00000000000E+00 0.  1.
         11    1    3    3    0    0  0.49485298574E+01 -0.37145580007E+01  0.17346555421E+01  0.64261122774E+01  0.51100000000E-03 0.  1.
        -11    1    3    3    0    0 -0.75296885038E+01 -0.25475277303E+02  0.22700794565E+02  0.34942982654E+02  0.51100000000E-03 0. -1.
         12    1    3    3    0    0  0.33137406367E+01 -0.31378761454E+01  0.45128648424E+01  0.64181845406E+01  0.00000000000E+00 0. -1.
</event>
<event>
 7    1  0.2655656E-009  0.4778726E+02  0.7816164E-02  0.1312668E+00
        -11   -1    0    0    0    0  0.00000000000E+00  0.00000000000E+00  0.45593999997E+02  0.45594000000E+02  0.51100000000E-03 0.  1.
         11   -1    0    0    0    0 -0.00000000000E+00 -0.00000000000E+00 -0.45593999997E+02  0.45594000000E+02  0.51100000000E-03 0. -1.
    9900012    2    1    2    0    0  0.19218917486E+02  0.29101089618E+02 -0.25833779993E+02  0.47787258128E+02  0.19999941108E+02 0.  0.
        -12    1    1    2    0    0 -0.19218917486E+02 -0.29101089618E+02  0.25833779993E+02  0.43400741872E+02  0.00000000000E+00 0.  1.
         11    1    3    3    0    0  0.11184940069E+02  0.21989824430E+02 -0.17849722619E+02  0.30451073226E+02  0.51100000000E-03 0. -1.
        -11    1    3    3    0    0  0.36887329105E+00 -0.28490749461E+00  0.24093252900E+01  0.24539943764E+01  0.51100000000E-03 0.  1.
         12    1    3    3    0    0  0.76651041260E+01  0.73961726832E+01 -0.10393382664E+02  0.14882190525E+02  0.00000000000E+00 0. -1.
</event>
<event>
 7    1  0.2655656E-009  0.4778729E+02  0.7816164E-02  0.1312668E+00
        -11   -1    0    0    0    0  0.00000000000E+00  0.00000000000E+00  0.45593999997E+02  0.45594000000E+02  0.51100000000E-03 0. -1.
         11   -1    0    0    0    0 -0.00000000000E+00 -0.00000000000E+00 -0.45593999997E+02  0.45594000000E+02  0.51100000000E-03 0.  1.
    9900012    2    1    2    0    0  0.49289558516E+01  0.15772715006E+02  0.40131638310E+02  0.47787291044E+02  0.20000091188E+02 0.  0.
        -12    1    1    2    0    0 -0.49289558516E+01 -0.15772715006E+02 -0.40131638310E+02  0.43400708956E+02  0.00000000000E+00 0.  1.
         11    1    3    3    0    0 -0.49931024451E+01  0.14122001141E+02  0.29505924802E+02  0.33090203791E+02  0.51100000000E-03 0. -1.
        -11    1    3    3    0    0  0.87208290003E+01  0.16519544979E+01  0.87083568890E+01  0.12434520179E+02  0.51100000000E-03 0.  1.
         12    1    3    3    0    0  0.12012292964E+01 -0.12406336620E-02  0.19173566187E+01  0.22625670742E+01  0.00000000000E+00 0. -1.
</event>
<event>
 7    1  0.2655656E-009  0.4778727E+02  0.7816164E-02  0.1312668E+00
        -11   -1    0    0    0    0  0.00000000000E+00  0.00000000000E+00  0.45593999997E+02  0.45594000000E+02  0.51100000000E-03 0. -1.
         11   -1    0    0    0    0 -0.00000000000E+00 -0.00000000000E+00 -0.45593999997E+02  0.45594000000E+02  0.51100000000E-03 0.  1.
    9900012    2    1    2    0    0  0.23922681079E+02  0.34393221679E+02 -0.11332907487E+02  0.47787272362E+02  0.20000006005E+02 0.  0.
        -12    1    1    2    0    0 -0.23922681079E+02 -0.34393221679E+02  0.11332907487E+02  0.43400727638E+02  0.00000000000E+00 0.  1.
         11    1    3    3    0    0 -0.10873022812E+00  0.60130965988E+01 -0.33591357844E+01  0.68886099068E+01  0.51100000000E-03 0. -1.
        -11    1    3    3    0    0  0.47090816904E+01  0.11694443062E+02  0.32370746192E+01  0.13015917226E+02  0.51100000000E-03 0.  1.
        -12    1    3    3    0    0  0.19322329616E+02  0.16685682018E+02 -0.11210846322E+02  0.27882745228E+02  0.00000000000E+00 0.  1.
</event>
<event>
 7    1  0.2655656E-009  0.4778727E+02  0.7816164E-02  0.1312668E+00
        -11   -1    0    0    0    0  0.00000000000E+00  0.00000000000E+00  0.45593999997E+02  0.45594000000E+02  0.51100000000E-03 0. -1.
         11   -1    0    0    0    0 -0.00000000000E+00 -0.00000000000E+00 -0.45593999997E+02  0.45594000000E+02  0.51100000000E-03 0.  1.
    9900012    2    1    2    0    0  0.24512088591E+02 -0.34307919620E+02  0.10283352892E+02  0.47787272098E+02  0.20000004802E+02 0.  0.
        -12    1    1    2    0    0 -0.24512088591E+02  0.34307919620E+02 -0.10283352892E+02  0.43400727902E+02  0.00000000000E+00 0.  1.
         11    1    3    3    0    0  0.58912911929E+01 -0.14852126323E+02 -0.25882860057E+01  0.16186172894E+02  0.51100000000E-03 0. -1.
        -11    1    3    3    0    0  0.16980789476E+02 -0.20370967755E+02  0.13309504835E+02  0.29672655050E+02  0.51100000000E-03 0.  1.
         12    1    3    3    0    0  0.16400079225E+01  0.91517445848E+00 -0.43786593754E+00  0.19284441538E+01  0.00000000000E+00 0. -1.
</event>
<event>
 7    1  0.2655656E-009  0.4778727E+02  0.7816164E-02  0.1312668E+00
        -11   -1    0    0    0    0  0.00000000000E+00  0.00000000000E+00  0.45593999997E+02  0.45594000000E+02  0.51100000000E-03 0. -1.
         11   -1    0    0    0    0 -0.00000000000E+00 -0.00000000000E+00 -0.45593999997E+02  0.45594000000E+02  0.51100000000E-03 0.  1.
    9900012    2    1    2    0    0 -0.17275544902E+02  0.38568552135E+02  0.98815894524E+01  0.47787268721E+02  0.19999989405E+02 0.  0.
        -12    1    1    2    0    0  0.17275544902E+02 -0.38568552135E+02 -0.98815894524E+01  0.43400731279E+02  0.00000000000E+00 0.  1.
         11    1    3    3    0    0 -0.88925399413E+01  0.13260572257E+02  0.56608708307E+01  0.16940056140E+02  0.51100000000E-03 0. -1.
        -11    1    3    3    0    0 -0.55015782330E+01  0.24481828787E+02 -0.68099040223E+00  0.25101614529E+02  0.51100000000E-03 0.  1.
        -12    1    3    3    0    0 -0.28814267281E+01  0.82615109140E+00  0.49017090239E+01  0.57455980516E+01  0.00000000000E+00 0.  1.
</event>
<event>
 7    1  0.2655656E-009  0.4778728E+02  0.7816164E-02  0.1312668E+00
        -11   -1    0    0    0    0  0.00000000000E+00  0.00000000000E+00  0.45593999997E+02  0.45594000000E+02  0.51100000000E-03 0.  1.
         11   -1    0    0    0    0 -0.00000000000E+00 -0.00000000000E+00 -0.45593999997E+02  0.45594000000E+02  0.51100000000E-03 0. -1.
    9900012    2    1    2    0    0 -0.49488807379E+01  0.15802193346E+02 -0.40117599576E+02  0.47787279604E+02  0.20000039027E+02 0.  0.
        -12    1    1    2    0    0  0.49488807379E+01 -0.15802193346E+02  0.40117599576E+02  0.43400720396E+02  0.00000000000E+00 0.  1.
         11    1    3    3    0    0 -0.63629486243E+00  0.14764455417E+02 -0.24818848612E+02  0.28885450691E+02  0.51100000000E-03 0. -1.
        -11    1    3    3    0    0  0.20008505635E+01  0.26503521134E+01 -0.98924153548E+01  0.10434924586E+02  0.51100000000E-03 0.  1.
         12    1    3    3    0    0 -0.63134364389E+01 -0.16126141837E+01 -0.54063356093E+01  0.84669043277E+01  0.00000000000E+00 0. -1.
</event>
<event>
 7    1  0.2655656E-009  0.4778728E+02  0.7816164E-02  0.1312668E+00
        -11   -1    0    0    0    0  0.00000000000E+00  0.00000000000E+00  0.45593999997E+02  0.45594000000E+02  0.51100000000E-03 0.  1.
         11   -1    0    0    0    0 -0.00000000000E+00 -0.00000000000E+00 -0.45593999997E+02  0.45594000000E+02  0.51100000000E-03 0. -1.
    9900012    2    1    2    0    0  0.15194532821E+02  0.38219264913E+02 -0.13857734679E+02  0.47787275944E+02  0.20000022339E+02 0.  0.
        -12    1    1    2    0    0 -0.15194532821E+02 -0.38219264913E+02  0.13857734679E+02  0.43400724056E+02  0.00000000000E+00 0.  1.
         11    1    3    3    0    0 -0.19606775199E+01 -0.28191644325E+00  0.64075966294E+00  0.20818997153E+01  0.51100000000E-03 0. -1.
        -11    1    3    3    0    0 -0.11612818193E+01  0.20038880851E+01  0.15248470460E+00  0.23210762090E+01  0.51100000000E-03 0.  1.
         12    1    3    3    0    0  0.18316492161E+02  0.36497293271E+02 -0.14650979047E+02  0.43384300020E+02  0.00000000000E+00 0. -1.
</event>
<event>
 7    1  0.2655656E-009  0.4778726E+02  0.7816164E-02  0.1312668E+00
        -11   -1    0    0    0    0  0.00000000000E+00  0.00000000000E+00  0.45593999997E+02  0.45594000000E+02  0.51100000000E-03 0. -1.
         11   -1    0    0    0    0 -0.00000000000E+00 -0.00000000000E+00 -0.45593999997E+02  0.45594000000E+02  0.51100000000E-03 0.  1.
    9900012    2    1    2    0    0 -0.36119609701E+02  0.14797900496E+02  0.18974190473E+02  0.47787263046E+02  0.19999963531E+02 0.  0.
        -12    1    1    2    0    0  0.36119609701E+02 -0.14797900496E+02 -0.18974190473E+02  0.43400736954E+02  0.00000000000E+00 0.  1.
         11    1    3    3    0    0 -0.15061945053E+02  0.36837921902E+01  0.16400923426E+00  0.15506753785E+02  0.51100000000E-03 0. -1.
        -11    1    3    3    0    0 -0.79413885599E+01  0.52236327426E+01  0.12537097146E+01  0.95876889602E+01  0.51100000000E-03 0.  1.
         12    1    3    3    0    0 -0.13116276088E+02  0.58904755635E+01  0.17556471524E+02  0.22692820300E+02  0.00000000000E+00 0. -1.
</event>
<event>
 7    1  0.2655656E-009  0.4778727E+02  0.7816164E-02  0.1312668E+00
        -11   -1    0    0    0    0  0.00000000000E+00  0.00000000000E+00  0.45593999997E+02  0.45594000000E+02  0.51100000000E-03 0.  1.
         11   -1    0    0    0    0 -0.00000000000E+00 -0.00000000000E+00 -0.45593999997E+02  0.45594000000E+02  0.51100000000E-03 0. -1.
    9900012    2    1    2    0    0  0.21222374427E+02  0.34497491970E+02 -0.15593495587E+02  0.47787271513E+02  0.20000002137E+02 0.  0.
        -12    1    1    2    0    0 -0.21222374427E+02 -0.34497491970E+02  0.15593495587E+02  0.43400728487E+02  0.00000000000E+00 0.  1.
         11    1    3    3    0    0  0.20437402695E+01  0.15422804813E+02 -0.29205821394E+01  0.15829389846E+02  0.51100000000E-03 0. -1.
        -11    1    3    3    0    0  0.75278453627E+01  0.21321598655E+01 -0.73115067095E+01  0.10708533612E+02  0.51100000000E-03 0.  1.
        -12    1    3    3    0    0  0.11650788795E+02  0.16942527292E+02 -0.53614067377E+01  0.21249348056E+02  0.00000000000E+00 0.  1.
</event>
<event>
 7    1  0.2655656E-009  0.4778727E+02  0.7816164E-02  0.1312668E+00
        -11   -1    0    0    0    0  0.00000000000E+00  0.00000000000E+00  0.45593999997E+02  0.45594000000E+02  0.51100000000E-03 0. -1.
         11   -1    0    0    0    0 -0.00000000000E+00 -0.00000000000E+00 -0.45593999997E+02  0.45594000000E+02  0.51100000000E-03 0.  1.
    9900012    2    1    2    0    0 -0.11406956026E+02  0.38804654073E+02  0.15738592489E+02  0.47787272852E+02  0.20000008239E+02 0.  0.
        -12    1    1    2    0    0  0.11406956026E+02 -0.38804654073E+02 -0.15738592489E+02  0.43400727148E+02  0.00000000000E+00 0.  1.
         11    1    3    3    0    0 -0.95706341142E+01  0.38408267774E+02  0.17477385244E+02  0.43269516590E+02  0.51100000000E-03 0. -1.
        -11    1    3    3    0    0  0.21432707831E+00 -0.13176361545E+01 -0.10517860622E-01  0.13349951381E+01  0.51100000000E-03 0.  1.
         12    1    3    3    0    0 -0.20506489902E+01  0.17140224537E+01 -0.17282748952E+01  0.31827611230E+01  0.00000000000E+00 0. -1.
</event>
<event>
 7    1  0.2655656E-009  0.4778727E+02  0.7816164E-02  0.1312668E+00
        -11   -1    0    0    0    0  0.00000000000E+00  0.00000000000E+00  0.45593999997E+02  0.45594000000E+02  0.51100000000E-03 0. -1.
         11   -1    0    0    0    0 -0.00000000000E+00 -0.00000000000E+00 -0.45593999997E+02  0.45594000000E+02  0.51100000000E-03 0.  1.
    9900012    2    1    2    0    0  0.82208766533E+00  0.15712874483E+02  0.40448151881E+02  0.47787271397E+02  0.20000001609E+02 0.  0.
        -12    1    1    2    0    0 -0.82208766533E+00 -0.15712874483E+02 -0.40448151881E+02  0.43400728603E+02  0.00000000000E+00 0.  1.
         11    1    3    3    0    0  0.10790865916E+01  0.10207847285E+02  0.15278789420E+02  0.18406683038E+02  0.51100000000E-03 0. -1.
        -11    1    3    3    0    0 -0.50854244111E+01  0.26588020469E+01  0.22410414489E+02  0.23133470289E+02  0.51100000000E-03 0.  1.
        -12    1    3    3    0    0  0.48284254848E+01  0.28462251515E+01  0.27589479720E+01  0.62471180706E+01  0.00000000000E+00 0.  1.
</event>
<event>
 7    1  0.2655656E-009  0.4778726E+02  0.7816164E-02  0.1312668E+00
        -11   -1    0    0    0    0  0.00000000000E+00  0.00000000000E+00  0.45593999997E+02  0.45594000000E+02  0.51100000000E-03 0. -1.
         11   -1    0    0    0    0 -0.00000000000E+00 -0.00000000000E+00 -0.45593999997E+02  0.45594000000E+02  0.51100000000E-03 0.  1.
    9900012    2    1    2    0    0 -0.21298105227E+02 -0.14239260284E+02  0.35032250583E+02  0.47787258064E+02  0.19999940817E+02 0.  0.
        -12    1    1    2    0    0  0.21298105227E+02  0.14239260284E+02 -0.35032250583E+02  0.43400741936E+02  0.00000000000E+00 0.  1.
         11    1    3    3    0    0 -0.11614243972E+02 -0.40027492659E+01  0.15642817304E+02  0.19889957220E+02  0.51100000000E-03 0. -1.
        -11    1    3    3    0    0 -0.24837561602E+01 -0.63479887659E+01 -0.38109758838E-01  0.68167043833E+01  0.51100000000E-03 0.  1.
        -12    1    3    3    0    0 -0.72001050947E+01 -0.38885222521E+01  0.19427543037E+02  0.21080596461E+02  0.00000000000E+00 0.  1.
</event>
<event>
 7    1  0.2655656E-009  0.4778728E+02  0.7816164E-02  0.1312668E+00
        -11   -1    0    0    0    0  0.00000000000E+00  0.00000000000E+00  0.45593999997E+02  0.45594000000E+02  0.51100000000E-03 0. -1.
         11   -1    0    0    0    0 -0.00000000000E+00 -0.00000000000E+00 -0.45593999997E+02  0.45594000000E+02  0.51100000000E-03 0.  1.
    9900012    2    1    2    0    0 -0.16031916347E+02  0.97290869584E+01  0.39140073186E+02  0.47787276460E+02  0.20000024691E+02 0.  0.
        -12    1    1    2    0    0  0.16031916347E+02 -0.97290869584E+01 -0.39140073186E+02  0.43400723540E+02  0.00000000000E+00 0.  1.
         11    1    3    3    0    0 -0.15606106272E+02 -0.12734513613E+01  0.22811122715E+02  0.27668023983E+02  0.51100000000E-03 0. -1.
        -11    1    3    3    0    0  0.18475050737E+01  0.53968176264E+01  0.78551586426E+01  0.97078541940E+01  0.51100000000E-03 0.  1.
         12    1    3    3    0    0 -0.22733151492E+01  0.56057206933E+01  0.84737918281E+01  0.10411398283E+02  0.00000000000E+00 0. -1.
</event>
<event>
 7    1  0.2655656E-009  0.4778727E+02  0.7816164E-02  0.1312668E+00
        -11   -1    0    0    0    0  0.00000000000E+00  0.00000000000E+00  0.45593999997E+02  0.45594000000E+02  0.51100000000E-03 0.  1.
         11   -1    0    0    0    0 -0.00000000000E+00 -0.00000000000E+00 -0.45593999997E+02  0.45594000000E+02  0.51100000000E-03 0. -1.
    9900012    2    1    2    0    0 -0.12032492679E+02 -0.39342430611E+02 -0.13820844826E+02  0.47787268691E+02  0.19999989272E+02 0.  0.
        -12    1    1    2    0    0  0.12032492679E+02  0.39342430611E+02  0.13820844826E+02  0.43400731309E+02  0.00000000000E+00 0.  1.
         11    1    3    3    0    0 -0.14180311156E+01 -0.25160375042E+01  0.29269703826E+00  0.29029172887E+01  0.51100000000E-03 0. -1.
        -11    1    3    3    0    0 -0.91934935938E+01 -0.18711412608E+02  0.15347136315E+01  0.20904368741E+02  0.51100000000E-03 0.  1.
        -12    1    3    3    0    0 -0.14209679699E+01 -0.18114980498E+02 -0.15648255496E+02  0.23979982662E+02  0.00000000000E+00 0.  1.
</event>
<event>
 7    1  0.2655656E-009  0.4778727E+02  0.7816164E-02  0.1312668E+00
        -11   -1    0    0    0    0  0.00000000000E+00  0.00000000000E+00  0.45593999997E+02  0.45594000000E+02  0.51100000000E-03 0.  1.
         11   -1    0    0    0    0 -0.00000000000E+00 -0.00000000000E+00 -0.45593999997E+02  0.45594000000E+02  0.51100000000E-03 0. -1.
    9900012    2    1    2    0    0  0.34438376328E+02  0.25944487150E+02 -0.49502460178E+01  0.47787272896E+02  0.20000008441E+02 0.  0.
        -12    1    1    2    0    0 -0.34438376328E+02 -0.25944487150E+02  0.49502460178E+01  0.43400727104E+02  0.00000000000E+00 0.  1.
         11    1    3    3    0    0  0.47081853379E+01  0.33745957958E+01 -0.36755373540E+01  0.68603557533E+01  0.51100000000E-03 0. -1.
        -11    1    3    3    0    0  0.31651267182E+02  0.21261238682E+02 -0.26582927088E+01  0.38221845912E+02  0.51100000000E-03 0.  1.
        -12    1    3    3    0    0 -0.19210761926E+01  0.13086526720E+01  0.13835840450E+01  0.27050712307E+01  0.00000000000E+00 0.  1.
</event>
<event>
 7    1  0.2655656E-009  0.4778727E+02  0.7816164E-02  0.1312668E+00
        -11   -1    0    0    0    0  0.00000000000E+00  0.00000000000E+00  0.45593999997E+02  0.45594000000E+02  0.51100000000E-03 0. -1.
         11   -1    0    0    0    0 -0.00000000000E+00 -0.00000000000E+00 -0.45593999997E+02  0.45594000000E+02  0.51100000000E-03 0.  1.
    9900012    2    1    2    0    0  0.34463550064E+02  0.89115504927E+01  0.24828832449E+02  0.47787274937E+02  0.20000017747E+02 0.  0.
        -12    1    1    2    0    0 -0.34463550064E+02 -0.89115504927E+01 -0.24828832449E+02  0.43400725063E+02  0.00000000000E+00 0.  1.
         11    1    3    3    0    0  0.23090608989E+02  0.13068727643E+02  0.18072760991E+02  0.32102843422E+02  0.51100000000E-03 0. -1.
        -11    1    3    3    0    0  0.10836183256E+02 -0.50111547076E+01  0.77777115465E+01  0.14248766130E+02  0.51100000000E-03 0.  1.
        -12    1    3    3    0    0  0.53675781899E+00  0.85397755739E+00 -0.10216400888E+01  0.14356653844E+01  0.00000000000E+00 0.  1.
</event>
<event>
 7    1  0.2655656E-009  0.4778727E+02  0.7816164E-02  0.1312668E+00
        -11   -1    0    0    0    0  0.00000000000E+00  0.00000000000E+00  0.45593999997E+02  0.45594000000E+02  0.51100000000E-03 0. -1.
         11   -1    0    0    0    0 -0.00000000000E+00 -0.00000000000E+00 -0.45593999997E+02  0.45594000000E+02  0.51100000000E-03 0.  1.
    9900012    2    1    2    0    0  0.39086568731E+02  0.58034419648E+01  0.17949473675E+02  0.47787269603E+02  0.19999993427E+02 0.  0.
        -12    1    1    2    0    0 -0.39086568731E+02 -0.58034419648E+01 -0.17949473675E+02  0.43400730397E+02  0.00000000000E+00 0.  1.
         11    1    3    3    0    0  0.16371177341E+02 -0.56877970788E+01  0.79264872050E+01  0.19057693533E+02  0.51100000000E-03 0. -1.
        -11    1    3    3    0    0  0.41675661224E+01  0.40165156047E+01  0.59901645538E+01  0.83296504506E+01  0.51100000000E-03 0.  1.
         12    1    3    3    0    0  0.18547825268E+02  0.74747234389E+01  0.40328219159E+01  0.20399925619E+02  0.00000000000E+00 0. -1.
</event>
<event>
 7    1  0.2655656E-009  0.4778727E+02  0.7816164E-02  0.1312668E+00
        -11   -1    0    0    0    0  0.00000000000E+00  0.00000000000E+00  0.45593999997E+02  0.45594000000E+02  0.51100000000E-03 0. -1.
         11   -1    0    0    0    0 -0.00000000000E+00 -0.00000000000E+00 -0.45593999997E+02  0.45594000000E+02  0.51100000000E-03 0.  1.
    9900012    2    1    2    0    0  0.16409559194E+02  0.18951392290E+02  0.35428719216E+02  0.47787273647E+02  0.20000011865E+02 0.  0.
        -12    1    1    2    0    0 -0.16409559194E+02 -0.18951392290E+02 -0.35428719216E+02  0.43400726353E+02  0.00000000000E+00 0.  1.
         11    1    3    3    0    0  0.47908918937E+01  0.18598509618E+00  0.42382813907E+01  0.63992394080E+01  0.51100000000E-03 0. -1.
        -11    1    3    3    0    0  0.22176054996E+01  0.72795359480E+01  0.90814254439E+00  0.76638202557E+01  0.51100000000E-03 0.  1.
        -12    1    3    3    0    0  0.94010618005E+01  0.11485871246E+02  0.30282295281E+02  0.33724213983E+02  0.00000000000E+00 0.  1.
</event>
<event>
 7    1  0.2655656E-009  0.4778727E+02  0.7816164E-02  0.1312668E+00
        -11   -1    0    0    0    0  0.00000000000E+00  0.00000000000E+00  0.45593999997E+02  0.45594000000E+02  0.51100000000E-03 0.  1.
         11   -1    0    0    0    0 -0.00000000000E+00 -0.00000000000E+00 -0.45593999997E+02  0.45594000000E+02  0.51100000000E-03 0. -1.
    9900012    2    1    2    0    0  0.39591049269E+02  0.17775030694E+02 -0.46947358348E+00  0.47787270700E+02  0.19999998428E+02 0.  0.
        -12    1    1    2    0    0 -0.39591049269E+02 -0.17775030694E+02  0.46947358348E+00  0.43400729300E+02  0.00000000000E+00 0.  1.
         11    1    3    3    0    0  0.76711331635E+01 -0.63775286806E+00 -0.62514365676E+01  0.99163235200E+01  0.51100000000E-03 0. -1.
        -11    1    3    3    0    0  0.30964382658E+02  0.16114888587E+02  0.50045129408E+01  0.35263689223E+02  0.51100000000E-03 0.  1.
         12    1    3    3    0    0  0.95553344660E+00  0.22978949745E+01  0.77745004331E+00  0.26072579564E+01  0.00000000000E+00 0. -1.
</event>
<event>
 7    1  0.2655656E-009  0.4778727E+02  0.7816164E-02  0.1312668E+00
        -11   -1    0    0    0    0  0.00000000000E+00  0.00000000000E+00  0.45593999997E+02  0.45594000000E+02  0.51100000000E-03 0.  1.
         11   -1    0    0    0    0 -0.00000000000E+00 -0.00000000000E+00 -0.45593999997E+02  0.45594000000E+02  0.51100000000E-03 0. -1.
    9900012    2    1    2    0    0 -0.20659845977E+00 -0.31874871748E+02 -0.29454596927E+02  0.47787269453E+02  0.19999992744E+02 0.  0.
        -12    1    1    2    0    0  0.20659845977E+00  0.31874871748E+02  0.29454596927E+02  0.43400730547E+02  0.00000000000E+00 0.  1.
         11    1    3    3    0    0 -0.32435541992E+01 -0.70715948346E+01 -0.17138140212E+02  0.18821369439E+02  0.51100000000E-03 0. -1.
        -11    1    3    3    0    0  0.18364099832E+01 -0.24311262045E+02 -0.10083690928E+02  0.26383530598E+02  0.51100000000E-03 0.  1.
        -12    1    3    3    0    0  0.12005457562E+01 -0.49201486903E+00 -0.22327657865E+01  0.25823694162E+01  0.00000000000E+00 0.  1.
</event>
<event>
 7    1  0.2655656E-009  0.4778725E+02  0.7816164E-02  0.1312668E+00
        -11   -1    0    0    0    0  0.00000000000E+00  0.00000000000E+00  0.45593999997E+02  0.45594000000E+02  0.51100000000E-03 0.  1.
         11   -1    0    0    0    0 -0.00000000000E+00 -0.00000000000E+00 -0.45593999997E+02  0.45594000000E+02  0.51100000000E-03 0. -1.
    9900012    2    1    2    0    0 -0.30069510232E+02  0.11658403890E+02 -0.29043609150E+02  0.47787250475E+02  0.19999906217E+02 0.  0.
        -12    1    1    2    0    0  0.30069510232E+02 -0.11658403890E+02  0.29043609150E+02  0.43400749525E+02  0.00000000000E+00 0.  1.
         11    1    3    3    0    0  0.51121290280E+00 -0.25117319329E+01 -0.45743943551E+00  0.26037256063E+01  0.51100000000E-03 0.  1.
        -11    1    3    3    0    0 -0.16150894790E+01  0.12536816582E-01  0.57205051417E+00  0.17134506847E+01  0.51100000000E-03 0. -1.
         12    1    3    3    0    0 -0.28965633656E+02  0.14157599006E+02 -0.29158220229E+02  0.43470074184E+02  0.00000000000E+00 0. -1.
</event>
<event>
 7    1  0.2655656E-009  0.4778727E+02  0.7816164E-02  0.1312668E+00
        -11   -1    0    0    0    0  0.00000000000E+00  0.00000000000E+00  0.45593999997E+02  0.45594000000E+02  0.51100000000E-03 0.  1.
         11   -1    0    0    0    0 -0.00000000000E+00 -0.00000000000E+00 -0.45593999997E+02  0.45594000000E+02  0.51100000000E-03 0. -1.
    9900012    2    1    2    0    0 -0.53858111989E+01  0.41758743774E+02 -0.10527274346E+02  0.47787272483E+02  0.20000006559E+02 0.  0.
        -12    1    1    2    0    0  0.53858111989E+01 -0.41758743774E+02  0.10527274346E+02  0.43400727517E+02  0.00000000000E+00 0.  1.
         11    1    3    3    0    0  0.12375129805E+01  0.10272060270E+02 -0.26854998174E+01  0.10689180048E+02  0.51100000000E-03 0. -1.
        -11    1    3    3    0    0  0.32764494800E+01  0.22214134573E+02 -0.69467098610E+01  0.23504460730E+02  0.51100000000E-03 0.  1.
        -12    1    3    3    0    0 -0.98997736594E+01  0.92725489302E+01 -0.89506466766E+00  0.13593631705E+02  0.00000000000E+00 0.  1.
</event>
<event>
 7    1  0.2655656E-009  0.4778730E+02  0.7816164E-02  0.1312668E+00
        -11   -1    0    0    0    0  0.00000000000E+00  0.00000000000E+00  0.45593999997E+02  0.45594000000E+02  0.51100000000E-03 0. -1.
         11   -1    0    0    0    0 -0.00000000000E+00 -0.00000000000E+00 -0.45593999997E+02  0.45594000000E+02  0.51100000000E-03 0.  1.
    9900012    2    1    2    0    0 -0.11203179165E+02  0.38495632843E+02  0.16619131377E+02  0.47787303011E+02  0.20000145750E+02 0.  0.
        -12    1    1    2    0    0  0.11203179165E+02 -0.38495632843E+02 -0.16619131377E+02  0.43400696989E+02  0.00000000000E+00 0.  1.
         11    1    3    3    0    0 -0.10323909129E+02  0.23887844367E+02  0.60008885246E+01  0.26706232822E+02  0.51100000000E-03 0. -1.
        -11    1    3    3    0    0 -0.51080334765E+01  0.69440559750E+01  0.84331572791E+01  0.12059438682E+02  0.51100000000E-03 0.  1.
         12    1    3    3    0    0  0.42287634406E+01  0.76637325010E+01  0.21850855737E+01  0.90216315070E+01  0.00000000000E+00 0. -1.
</event>
<event>
 7    1  0.2655656E-009  0.4778727E+02  0.7816164E-02  0.1312668E+00
        -11   -1    0    0    0    0  0.00000000000E+00  0.00000000000E+00  0.45593999997E+02  0.45594000000E+02  0.51100000000E-03 0. -1.
         11   -1    0    0    0    0 -0.00000000000E+00 -0.00000000000E+00 -0.45593999997E+02  0.45594000000E+02  0.51100000000E-03 0.  1.
    9900012    2    1    2    0    0  0.18086130133E+02  0.35586500606E+02  0.17032795335E+02  0.47787271372E+02  0.20000001492E+02 0.  0.
        -12    1    1    2    0    0 -0.18086130133E+02 -0.35586500606E+02 -0.17032795335E+02  0.43400728628E+02  0.00000000000E+00 0.  1.
         11    1    3    3    0    0 -0.86170935479E-01  0.51448079592E+00  0.51469012777E+01  0.51732686904E+01  0.51100000000E-03 0.  1.
        -11    1    3    3    0    0  0.19611981971E+02  0.32029207824E+02  0.10912481808E+02  0.39109874075E+02  0.51100000000E-03 0. -1.
        -12    1    3    3    0    0 -0.14396809027E+01  0.30428119861E+01  0.97341224840E+00  0.35041286063E+01  0.00000000000E+00 0.  1.
</event>
<event>
 7    1  0.2890243E-009  0.4778729E+02  0.7816164E-02  0.1312668E+00
        -11   -1    0    0    0    0  0.00000000000E+00  0.00000000000E+00  0.45593999997E+02  0.45594000000E+02  0.51100000000E-03 0.  1.
         11   -1    0    0    0    0 -0.00000000000E+00 -0.00000000000E+00 -0.45593999997E+02  0.45594000000E+02  0.51100000000E-03 0. -1.
    9900012    2    1    2    0    0 -0.35685026070E+01 -0.38266414651E+02  0.20163552568E+02  0.47787290867E+02  0.20000090377E+02 0.  0.
        -12    1    1    2    0    0  0.35685026070E+01  0.38266414651E+02 -0.20163552568E+02  0.43400709133E+02  0.00000000000E+00 0.  1.
         11    1    3    3    0    0 -0.37411416117E+01 -0.13059441980E+00  0.16512145878E+01  0.40914184994E+01  0.51100000000E-03 0. -1.
        -11    1    3    3    0    0  0.18373862262E+01 -0.10188543352E+01 -0.17215043450E+00  0.21080057718E+01  0.51100000000E-03 0.  1.
         12    1    3    3    0    0 -0.16647472215E+01 -0.37116965896E+02  0.18684488414E+02  0.41587866596E+02  0.00000000000E+00 0. -1.
</event>
<event>
 7    1  0.2655656E-009  0.4778728E+02  0.7816164E-02  0.1312668E+00
        -11   -1    0    0    0    0  0.00000000000E+00  0.00000000000E+00  0.45593999997E+02  0.45594000000E+02  0.51100000000E-03 0. -1.
         11   -1    0    0    0    0 -0.00000000000E+00 -0.00000000000E+00 -0.45593999997E+02  0.45594000000E+02  0.51100000000E-03 0.  1.
    9900012    2    1    2    0    0  0.33162079489E+02 -0.12554809649E+01  0.27970035831E+02  0.47787278199E+02  0.20000032618E+02 0.  0.
        -12    1    1    2    0    0 -0.33162079489E+02  0.12554809649E+01 -0.27970035831E+02  0.43400721801E+02  0.00000000000E+00 0.  1.
         11    1    3    3    0    0  0.15882452621E+02 -0.82699834011E+01  0.19539315911E+02  0.26503392109E+02  0.51100000000E-03 0. -1.
        -11    1    3    3    0    0  0.86595445227E+01  0.65963313272E+01  0.52565553083E+01  0.12088452022E+02  0.51100000000E-03 0.  1.
         12    1    3    3    0    0  0.86200823453E+01  0.41817110900E+00  0.31741646113E+01  0.91954340678E+01  0.00000000000E+00 0. -1.
</event>
<event>
 7    1  0.2655656E-009  0.4778727E+02  0.7816164E-02  0.1312668E+00
        -11   -1    0    0    0    0  0.00000000000E+00  0.00000000000E+00  0.45593999997E+02  0.45594000000E+02  0.51100000000E-03 0.  1.
         11   -1    0    0    0    0 -0.00000000000E+00 -0.00000000000E+00 -0.45593999997E+02  0.45594000000E+02  0.51100000000E-03 0. -1.
    9900012    2    1    2    0    0 -0.31984240182E+00  0.38886185006E+02 -0.19271365316E+02  0.47787271842E+02  0.20000003635E+02 0.  0.
        -12    1    1    2    0    0  0.31984240182E+00 -0.38886185006E+02  0.19271365316E+02  0.43400728158E+02  0.00000000000E+00 0.  1.
         11    1    3    3    0    0 -0.16435195139E+00  0.81502209519E+01  0.31558884060E+01  0.87414383840E+01  0.51100000000E-03 0.  1.
        -11    1    3    3    0    0  0.73643737742E+00  0.18587013514E+02 -0.18529743295E+02  0.26255871690E+02  0.51100000000E-03 0. -1.
         12    1    3    3    0    0 -0.89192782784E+00  0.12148950540E+02 -0.38975104276E+01  0.12789961768E+02  0.00000000000E+00 0. -1.
</event>
<event>
 7    1  0.2655656E-009  0.4778727E+02  0.7816164E-02  0.1312668E+00
        -11   -1    0    0    0    0  0.00000000000E+00  0.00000000000E+00  0.45593999997E+02  0.45594000000E+02  0.51100000000E-03 0. -1.
         11   -1    0    0    0    0 -0.00000000000E+00 -0.00000000000E+00 -0.45593999997E+02  0.45594000000E+02  0.51100000000E-03 0.  1.
    9900012    2    1    2    0    0 -0.37507432049E+02 -0.99190618171E+01 -0.19453238537E+02  0.47787265723E+02  0.19999975737E+02 0.  0.
        -12    1    1    2    0    0  0.37507432049E+02  0.99190618171E+01  0.19453238537E+02  0.43400734277E+02  0.00000000000E+00 0.  1.
         11    1    3    3    0    0 -0.15876240531E+02 -0.15132332250E+01 -0.44648223002E+01  0.16561386616E+02  0.51100000000E-03 0. -1.
        -11    1    3    3    0    0  0.14947730323E+01  0.12136569918E+01 -0.27285875074E+01  0.33395358597E+01  0.51100000000E-03 0.  1.
        -12    1    3    3    0    0 -0.23125964550E+02 -0.96194855838E+01 -0.12259828729E+02  0.27886343248E+02  0.00000000000E+00 0.  1.
</event>
<event>
 7    1  0.2655656E-009  0.4778727E+02  0.7816164E-02  0.1312668E+00
        -11   -1    0    0    0    0  0.00000000000E+00  0.00000000000E+00  0.45593999997E+02  0.45594000000E+02  0.51100000000E-03 0.  1.
         11   -1    0    0    0    0 -0.00000000000E+00 -0.00000000000E+00 -0.45593999997E+02  0.45594000000E+02  0.51100000000E-03 0. -1.
    9900012    2    1    2    0    0 -0.54245481568E+01  0.39940192094E+02 -0.16092814371E+02  0.47787270264E+02  0.19999996442E+02 0.  0.
        -12    1    1    2    0    0  0.54245481568E+01 -0.39940192094E+02  0.16092814371E+02  0.43400729736E+02  0.00000000000E+00 0.  1.
         11    1    3    3    0    0 -0.41578580138E+01  0.34536392743E+02 -0.72809999627E+01  0.35539599993E+02  0.51100000000E-03 0. -1.
        -11    1    3    3    0    0  0.20024216202E+01 -0.16866515902E+00 -0.25911208515E+01  0.32790315353E+01  0.51100000000E-03 0.  1.
         12    1    3    3    0    0 -0.32691117632E+01  0.55724645106E+01 -0.62206935571E+01  0.89686387358E+01  0.00000000000E+00 0. -1.
</event>
<event>
 7    1  0.2655656E-009  0.4778727E+02  0.7816164E-02  0.1312668E+00
        -11   -1    0    0    0    0  0.00000000000E+00  0.00000000000E+00  0.45593999997E+02  0.45594000000E+02  0.51100000000E-03 0. -1.
         11   -1    0    0    0    0 -0.00000000000E+00 -0.00000000000E+00 -0.45593999997E+02  0.45594000000E+02  0.51100000000E-03 0.  1.
    9900012    2    1    2    0    0 -0.22994044186E+01  0.26760340082E+02  0.34091350513E+02  0.47787271414E+02  0.20000001686E+02 0.  0.
        -12    1    1    2    0    0  0.22994044186E+01 -0.26760340082E+02 -0.34091350513E+02  0.43400728586E+02  0.00000000000E+00 0.  1.
         11    1    3    3    0    0  0.63141175825E+00  0.14857608086E+02  0.23721793457E+02  0.27997690689E+02  0.51100000000E-03 0. -1.
        -11    1    3    3    0    0 -0.10888297513E+01 -0.16241498455E+01 -0.83731967161E+00  0.21270913101E+01  0.51100000000E-03 0.  1.
        -12    1    3    3    0    0 -0.18419864256E+01  0.13526881842E+02  0.11206876727E+02  0.17662489415E+02  0.00000000000E+00 0.  1.
</event>
<event>
 7    1  0.2655656E-009  0.4778728E+02  0.7816164E-02  0.1312668E+00
        -11   -1    0    0    0    0  0.00000000000E+00  0.00000000000E+00  0.45593999997E+02  0.45594000000E+02  0.51100000000E-03 0.  1.
         11   -1    0    0    0    0 -0.00000000000E+00 -0.00000000000E+00 -0.45593999997E+02  0.45594000000E+02  0.51100000000E-03 0. -1.
    9900012    2    1    2    0    0  0.15595708750E+02  0.23138933558E+02 -0.33241337794E+02  0.47787275168E+02  0.20000018799E+02 0.  0.
        -12    1    1    2    0    0 -0.15595708750E+02 -0.23138933558E+02  0.33241337794E+02  0.43400724832E+02  0.00000000000E+00 0.  1.
         11    1    3    3    0    0  0.13962942813E+02  0.40408344764E+01 -0.15477858095E+02  0.21233374832E+02  0.51100000000E-03 0.  1.
        -11    1    3    3    0    0 -0.31229449901E+00  0.97111978481E+01 -0.61669931100E+01  0.11508114345E+02  0.51100000000E-03 0. -1.
        -12    1    3    3    0    0  0.19450604361E+01  0.93869012333E+01 -0.11596486589E+02  0.15045785991E+02  0.00000000000E+00 0.  1.
</event>
<event>
 7    1  0.2655656E-009  0.4778727E+02  0.7816164E-02  0.1312668E+00
        -11   -1    0    0    0    0  0.00000000000E+00  0.00000000000E+00  0.45593999997E+02  0.45594000000E+02  0.51100000000E-03 0.  1.
         11   -1    0    0    0    0 -0.00000000000E+00 -0.00000000000E+00 -0.45593999997E+02  0.45594000000E+02  0.51100000000E-03 0. -1.
    9900012    2    1    2    0    0  0.26129065522E+02 -0.17894803761E+01 -0.34607700975E+02  0.47787271068E+02  0.20000000107E+02 0.  0.
        -12    1    1    2    0    0 -0.26129065522E+02  0.17894803761E+01  0.34607700975E+02  0.43400728932E+02  0.00000000000E+00 0.  1.
         11    1    3    3    0    0  0.12346196782E+02 -0.26316817327E+01 -0.25246167004E+02  0.28226286904E+02  0.51100000000E-03 0. -1.
        -11    1    3    3    0    0  0.60678802155E+01 -0.36152126515E+01 -0.63886903114E+00  0.70920439032E+01  0.51100000000E-03 0.  1.
        -12    1    3    3    0    0  0.77149885246E+01  0.44574140080E+01 -0.87226649392E+01  0.12468940260E+02  0.00000000000E+00 0.  1.
</event>
<event>
 7    1  0.2655656E-009  0.4778727E+02  0.7816164E-02  0.1312668E+00
        -11   -1    0    0    0    0  0.00000000000E+00  0.00000000000E+00  0.45593999997E+02  0.45594000000E+02  0.51100000000E-03 0.  1.
         11   -1    0    0    0    0 -0.00000000000E+00 -0.00000000000E+00 -0.45593999997E+02  0.45594000000E+02  0.51100000000E-03 0. -1.
    9900012    2    1    2    0    0  0.11820455597E+02 -0.39095597520E+02 -0.14677679485E+02  0.47787271999E+02  0.20000004353E+02 0.  0.
        -12    1    1    2    0    0 -0.11820455597E+02  0.39095597520E+02  0.14677679485E+02  0.43400728001E+02  0.00000000000E+00 0.  1.
         11    1    3    3    0    0 -0.39411867037E+01 -0.40644460126E+01 -0.41988419318E+01  0.70486131864E+01  0.51100000000E-03 0. -1.
        -11    1    3    3    0    0  0.12763324103E+02 -0.19417004554E+02 -0.83807494080E+01  0.24701406213E+02  0.51100000000E-03 0.  1.
         12    1    3    3    0    0  0.29983181979E+01 -0.15614146953E+02 -0.20980881453E+01  0.16037252600E+02  0.00000000000E+00 0. -1.
</event>
<event>
 7    1  0.2655656E-009  0.4778726E+02  0.7816164E-02  0.1312668E+00
        -11   -1    0    0    0    0  0.00000000000E+00  0.00000000000E+00  0.45593999997E+02  0.45594000000E+02  0.51100000000E-03 0.  1.
         11   -1    0    0    0    0 -0.00000000000E+00 -0.00000000000E+00 -0.45593999997E+02  0.45594000000E+02  0.51100000000E-03 0. -1.
    9900012    2    1    2    0    0 -0.30171189593E+02 -0.30757202918E+02  0.52266253856E+01  0.47787264687E+02  0.19999971014E+02 0.  0.
        -12    1    1    2    0    0  0.30171189593E+02  0.30757202918E+02 -0.52266253856E+01  0.43400735313E+02  0.00000000000E+00 0.  1.
         11    1    3    3    0    0 -0.15674085916E+02 -0.20154071335E+02 -0.24196888669E+01  0.25646022209E+02  0.51100000000E-03 0. -1.
        -11    1    3    3    0    0 -0.83157995784E+01 -0.29583839783E+01  0.85247870611E+01  0.12270963821E+02  0.51100000000E-03 0.  1.
        -12    1    3    3    0    0 -0.61813040982E+01 -0.76447476051E+01 -0.87847280861E+00  0.98702786574E+01  0.00000000000E+00 0.  1.
</event>
<event>
 7    1  0.2655656E-009  0.4778727E+02  0.7816164E-02  0.1312668E+00
        -11   -1    0    0    0    0  0.00000000000E+00  0.00000000000E+00  0.45593999997E+02  0.45594000000E+02  0.51100000000E-03 0.  1.
         11   -1    0    0    0    0 -0.00000000000E+00 -0.00000000000E+00 -0.45593999997E+02  0.45594000000E+02  0.51100000000E-03 0. -1.
    9900012    2    1    2    0    0 -0.11481672547E+02 -0.15716693986E+02 -0.38791492704E+02  0.47787272120E+02  0.20000004902E+02 0.  0.
        -12    1    1    2    0    0  0.11481672547E+02  0.15716693986E+02  0.38791492704E+02  0.43400727880E+02  0.00000000000E+00 0.  1.
         11    1    3    3    0    0 -0.52848767565E+01 -0.17393411843E+02 -0.18926985639E+02  0.26242932067E+02  0.51100000000E-03 0. -1.
        -11    1    3    3    0    0 -0.68252905652E+01  0.82147114325E+00 -0.18895442363E+02  0.20107141728E+02  0.51100000000E-03 0.  1.
        -12    1    3    3    0    0  0.62849477515E+00  0.85524671354E+00 -0.96906470309E+00  0.14371983239E+01  0.00000000000E+00 0.  1.
</event>
<event>
 7    1  0.2655656E-009  0.4778727E+02  0.7816164E-02  0.1312668E+00
        -11   -1    0    0    0    0  0.00000000000E+00  0.00000000000E+00  0.45593999997E+02  0.45594000000E+02  0.51100000000E-03 0.  1.
         11   -1    0    0    0    0 -0.00000000000E+00 -0.00000000000E+00 -0.45593999997E+02  0.45594000000E+02  0.51100000000E-03 0. -1.
    9900012    2    1    2    0    0 -0.59431840512E+01  0.12122156760E+02 -0.41247486121E+02  0.47787271522E+02  0.20000002176E+02 0.  0.
        -12    1    1    2    0    0  0.59431840512E+01 -0.12122156760E+02  0.41247486121E+02  0.43400728478E+02  0.00000000000E+00 0.  1.
         11    1    3    3    0    0 -0.10301095947E+02  0.97713476221E+01 -0.27577238238E+02  0.31017670467E+02  0.51100000000E-03 0. -1.
        -11    1    3    3    0    0  0.60556708224E+01  0.34886579830E+00 -0.12503357689E+02  0.13897007239E+02  0.51100000000E-03 0.  1.
        -12    1    3    3    0    0 -0.16977589261E+01  0.20019433394E+01 -0.11668901937E+01  0.28725938156E+01  0.00000000000E+00 0.  1.
</event>
<event>
 7    1  0.2655656E-009  0.4778727E+02  0.7816164E-02  0.1312668E+00
        -11   -1    0    0    0    0  0.00000000000E+00  0.00000000000E+00  0.45593999997E+02  0.45594000000E+02  0.51100000000E-03 0.  1.
         11   -1    0    0    0    0 -0.00000000000E+00 -0.00000000000E+00 -0.45593999997E+02  0.45594000000E+02  0.51100000000E-03 0. -1.
    9900012    2    1    2    0    0 -0.21573877208E+02 -0.34703954332E+02 -0.14622816108E+02  0.47787269879E+02  0.19999994687E+02 0.  0.
        -12    1    1    2    0    0  0.21573877208E+02  0.34703954332E+02  0.14622816108E+02  0.43400730121E+02  0.00000000000E+00 0.  1.
         11    1    3    3    0    0 -0.13937769809E+02 -0.15486184709E+02 -0.92094049196E+00  0.20855010806E+02  0.51100000000E-03 0. -1.
        -11    1    3    3    0    0 -0.12646684658E+01 -0.15997315410E+02 -0.94868277027E+01  0.18641710940E+02  0.51100000000E-03 0.  1.
         12    1    3    3    0    0 -0.63714389336E+01 -0.32204542131E+01 -0.42150479135E+01  0.82905481324E+01  0.00000000000E+00 0. -1.
</event>
<event>
 7    1  0.2655656E-009  0.4778730E+02  0.7816164E-02  0.1312668E+00
        -11   -1    0    0    0    0  0.00000000000E+00  0.00000000000E+00  0.45593999997E+02  0.45594000000E+02  0.51100000000E-03 0. -1.
         11   -1    0    0    0    0 -0.00000000000E+00 -0.00000000000E+00 -0.45593999997E+02  0.45594000000E+02  0.51100000000E-03 0.  1.
    9900012    2    1    2    0    0  0.28099589573E+02  0.29781910388E+02 -0.14389984061E+02  0.47787299985E+02  0.20000131951E+02 0.  0.
        -12    1    1    2    0    0 -0.28099589573E+02 -0.29781910388E+02  0.14389984061E+02  0.43400700015E+02  0.00000000000E+00 0.  1.
         11    1    3    3    0    0  0.14007005603E+02  0.14500305201E+02 -0.10461977414E+01  0.20187857412E+02  0.51100000000E-03 0. -1.
        -11    1    3    3    0    0  0.23161984789E+00  0.10448585363E+01 -0.64946839008E+01  0.65822713669E+01  0.51100000000E-03 0.  1.
        -12    1    3    3    0    0  0.13860964122E+02  0.14236746650E+02 -0.68491024191E+01  0.21017171206E+02  0.00000000000E+00 0.  1.
</event>
<event>
 7    1  0.2655656E-009  0.4778727E+02  0.7816164E-02  0.1312668E+00
        -11   -1    0    0    0    0  0.00000000000E+00  0.00000000000E+00  0.45593999997E+02  0.45594000000E+02  0.51100000000E-03 0. -1.
         11   -1    0    0    0    0 -0.00000000000E+00 -0.00000000000E+00 -0.45593999997E+02  0.45594000000E+02  0.51100000000E-03 0.  1.
    9900012    2    1    2    0    0 -0.27280301660E+02 -0.32649681242E+02  0.85677728298E+01  0.47787271030E+02  0.19999999933E+02 0.  0.
        -12    1    1    2    0    0  0.27280301660E+02  0.32649681242E+02 -0.85677728298E+01  0.43400728970E+02  0.00000000000E+00 0.  1.
         11    1    3    3    0    0 -0.14414816531E+02 -0.68549843967E+01  0.12532575577E+01  0.16010883844E+02  0.51100000000E-03 0. -1.
        -11    1    3    3    0    0 -0.75554097886E+01 -0.44667273148E+01  0.35954746416E+01  0.94848989525E+01  0.51100000000E-03 0.  1.
         12    1    3    3    0    0 -0.53100753401E+01 -0.21327969531E+02  0.37190406305E+01  0.22291488233E+02  0.00000000000E+00 0. -1.
</event>
<event>
 7    1  0.2655656E-009  0.4778727E+02  0.7816164E-02  0.1312668E+00
        -11   -1    0    0    0    0  0.00000000000E+00  0.00000000000E+00  0.45593999997E+02  0.45594000000E+02  0.51100000000E-03 0.  1.
         11   -1    0    0    0    0 -0.00000000000E+00 -0.00000000000E+00 -0.45593999997E+02  0.45594000000E+02  0.51100000000E-03 0. -1.
    9900012    2    1    2    0    0  0.39542284153E+02  0.11225430174E+02 -0.13929126870E+02  0.47787273117E+02  0.20000009450E+02 0.  0.
        -12    1    1    2    0    0 -0.39542284153E+02 -0.11225430174E+02  0.13929126870E+02  0.43400726883E+02  0.00000000000E+00 0.  1.
         11    1    3    3    0    0  0.35659091003E+02  0.83882816598E+01 -0.92676623031E+01  0.37786553233E+02  0.51100000000E-03 0. -1.
        -11    1    3    3    0    0 -0.90425899414E-01  0.27424301800E+01 -0.53065247898E+01  0.59739690107E+01  0.51100000000E-03 0.  1.
         12    1    3    3    0    0  0.39736190489E+01  0.94718334297E-01  0.64506022259E+00  0.40267508737E+01  0.00000000000E+00 0. -1.
</event>
<event>
 7    1  0.2655656E-009  0.4778727E+02  0.7816164E-02  0.1312668E+00
        -11   -1    0    0    0    0  0.00000000000E+00  0.00000000000E+00  0.45593999997E+02  0.45594000000E+02  0.51100000000E-03 0.  1.
         11   -1    0    0    0    0 -0.00000000000E+00 -0.00000000000E+00 -0.45593999997E+02  0.45594000000E+02  0.51100000000E-03 0. -1.
    9900012    2    1    2    0    0 -0.47598550764E+01 -0.57639871013E+01 -0.42752118089E+02  0.47787269952E+02  0.19999995018E+02 0.  0.
        -12    1    1    2    0    0  0.47598550764E+01  0.57639871013E+01  0.42752118089E+02  0.43400730048E+02  0.00000000000E+00 0.  1.
         11    1    3    3    0    0 -0.13295255059E+01  0.13939077911E+01  0.66342549467E+00  0.20373391099E+01  0.51100000000E-03 0.  1.
        -11    1    3    3    0    0 -0.48407529271E+01  0.22733864129E+00 -0.66790933736E+01  0.82519609980E+01  0.51100000000E-03 0. -1.
         12    1    3    3    0    0  0.14104233565E+01 -0.73852335337E+01 -0.36736450210E+02  0.37497969844E+02  0.00000000000E+00 0. -1.
</event>
<event>
 7    1  0.2655656E-009  0.4778727E+02  0.7816164E-02  0.1312668E+00
        -11   -1    0    0    0    0  0.00000000000E+00  0.00000000000E+00  0.45593999997E+02  0.45594000000E+02  0.51100000000E-03 0. -1.
         11   -1    0    0    0    0 -0.00000000000E+00 -0.00000000000E+00 -0.45593999997E+02  0.45594000000E+02  0.51100000000E-03 0.  1.
    9900012    2    1    2    0    0 -0.15761968209E+02  0.24413366538E+02  0.32236174723E+02  0.47787273412E+02  0.20000010797E+02 0.  0.
        -12    1    1    2    0    0  0.15761968209E+02 -0.24413366538E+02 -0.32236174723E+02  0.43400726588E+02  0.00000000000E+00 0.  1.
         11    1    3    3    0    0 -0.98000916354E+00  0.83541652013E+01  0.20114677901E+02  0.21802586119E+02  0.51100000000E-03 0. -1.
        -11    1    3    3    0    0 -0.12112549783E+02  0.16194995282E+02  0.99385175129E+01  0.22533660711E+02  0.51100000000E-03 0.  1.
         12    1    3    3    0    0 -0.26694092629E+01 -0.13579394472E+00  0.21829793090E+01  0.34510265823E+01  0.00000000000E+00 0. -1.
</event>
<event>
 7    1  0.2655656E-009  0.4778727E+02  0.7816164E-02  0.1312668E+00
        -11   -1    0    0    0    0  0.00000000000E+00  0.00000000000E+00  0.45593999997E+02  0.45594000000E+02  0.51100000000E-03 0.  1.
         11   -1    0    0    0    0 -0.00000000000E+00 -0.00000000000E+00 -0.45593999997E+02  0.45594000000E+02  0.51100000000E-03 0. -1.
    9900012    2    1    2    0    0  0.15059819161E+02  0.13562300792E+02 -0.38378236996E+02  0.47787271540E+02  0.20000002261E+02 0.  0.
        -12    1    1    2    0    0 -0.15059819161E+02 -0.13562300792E+02  0.38378236996E+02  0.43400728460E+02  0.00000000000E+00 0.  1.
         11    1    3    3    0    0 -0.10998006650E+01 -0.16844455886E+01 -0.65594140843E+01  0.68609643516E+01  0.51100000000E-03 0. -1.
        -11    1    3    3    0    0  0.83921096700E+01  0.15759285376E+02 -0.20445290218E+02  0.27143921468E+02  0.51100000000E-03 0.  1.
        -12    1    3    3    0    0  0.77675101558E+01 -0.51253899530E+00 -0.11373532693E+02  0.13782385721E+02  0.00000000000E+00 0.  1.
</event>
<event>
 7    1  0.2655656E-009  0.4778726E+02  0.7816164E-02  0.1312668E+00
        -11   -1    0    0    0    0  0.00000000000E+00  0.00000000000E+00  0.45593999997E+02  0.45594000000E+02  0.51100000000E-03 0.  1.
         11   -1    0    0    0    0 -0.00000000000E+00 -0.00000000000E+00 -0.45593999997E+02  0.45594000000E+02  0.51100000000E-03 0. -1.
    9900012    2    1    2    0    0 -0.22344770947E+02 -0.29678475630E+02 -0.22439328935E+02  0.47787260519E+02  0.19999952012E+02 0.  0.
        -12    1    1    2    0    0  0.22344770947E+02  0.29678475630E+02  0.22439328935E+02  0.43400739481E+02  0.00000000000E+00 0.  1.
         11    1    3    3    0    0 -0.67715132064E+01  0.65166334207E+00 -0.39251464111E+01  0.78539691129E+01  0.51100000000E-03 0. -1.
        -11    1    3    3    0    0 -0.11915694166E+02 -0.13138739981E+02 -0.80558403215E+01  0.19480934764E+02  0.51100000000E-03 0.  1.
         12    1    3    3    0    0 -0.36575635743E+01 -0.17191398992E+02 -0.10458342202E+02  0.20452356642E+02  0.00000000000E+00 0. -1.
</event>
<event>
 7    1  0.2655656E-009  0.4778727E+02  0.7816164E-02  0.1312668E+00
        -11   -1    0    0    0    0  0.00000000000E+00  0.00000000000E+00  0.45593999997E+02  0.45594000000E+02  0.51100000000E-03 0. -1.
         11   -1    0    0    0    0 -0.00000000000E+00 -0.00000000000E+00 -0.45593999997E+02  0.45594000000E+02  0.51100000000E-03 0.  1.
    9900012    2    1    2    0    0 -0.15940838579E+02 -0.20256322301E+02  0.34916960383E+02  0.47787273622E+02  0.20000011750E+02 0.  0.
        -12    1    1    2    0    0  0.15940838579E+02  0.20256322301E+02 -0.34916960383E+02  0.43400726378E+02  0.00000000000E+00 0.  1.
         11    1    3    3    0    0 -0.93524829552E+01  0.18686602509E+00  0.78423464165E+01  0.12206811783E+02  0.51100000000E-03 0. -1.
        -11    1    3    3    0    0 -0.21108589139E+01 -0.89339263103E+01  0.54440649916E+01  0.10672797598E+02  0.51100000000E-03 0.  1.
         12    1    3    3    0    0 -0.44774967097E+01 -0.11509262016E+02  0.21630548975E+02  0.24907664240E+02  0.00000000000E+00 0. -1.
</event>
<event>
 7    1  0.2655656E-009  0.4778727E+02  0.7816164E-02  0.1312668E+00
        -11   -1    0    0    0    0  0.00000000000E+00  0.00000000000E+00  0.45593999997E+02  0.45594000000E+02  0.51100000000E-03 0. -1.
         11   -1    0    0    0    0 -0.00000000000E+00 -0.00000000000E+00 -0.45593999997E+02  0.45594000000E+02  0.51100000000E-03 0.  1.
    9900012    2    1    2    0    0  0.34866816185E+01  0.10989251070E+02  0.41841398825E+02  0.47787271395E+02  0.20000001599E+02 0.  0.
        -12    1    1    2    0    0 -0.34866816185E+01 -0.10989251070E+02 -0.41841398825E+02  0.43400728605E+02  0.00000000000E+00 0.  1.
         11    1    3    3    0    0 -0.87226180651E+00  0.46740726656E+01  0.17636579209E+02  0.18266272811E+02  0.51100000000E-03 0. -1.
        -11    1    3    3    0    0  0.92131931452E+01  0.29794401891E+01  0.90176387960E+01  0.13231696848E+02  0.51100000000E-03 0.  1.
        -12    1    3    3    0    0 -0.48542497202E+01  0.33357382157E+01  0.15187180820E+02  0.16289301736E+02  0.00000000000E+00 0.  1.
</event>
<event>
 7    1  0.2655656E-009  0.4778728E+02  0.7816164E-02  0.1312668E+00
        -11   -1    0    0    0    0  0.00000000000E+00  0.00000000000E+00  0.45593999997E+02  0.45594000000E+02  0.51100000000E-03 0. -1.
         11   -1    0    0    0    0 -0.00000000000E+00 -0.00000000000E+00 -0.45593999997E+02  0.45594000000E+02  0.51100000000E-03 0.  1.
    9900012    2    1    2    0    0 -0.96765932920E+01 -0.31649825933E+02  0.28076228211E+02  0.47787279616E+02  0.20000039080E+02 0.  0.
        -12    1    1    2    0    0  0.96765932920E+01  0.31649825933E+02 -0.28076228211E+02  0.43400720384E+02  0.00000000000E+00 0.  1.
         11    1    3    3    0    0 -0.14696978560E+01 -0.20186709350E+02  0.23647156644E+02  0.31126375693E+02  0.51100000000E-03 0. -1.
        -11    1    3    3    0    0  0.12155073594E+01 -0.83157926978E+00  0.16023901684E+01  0.21763815693E+01  0.51100000000E-03 0.  1.
         12    1    3    3    0    0 -0.94224027954E+01 -0.10631537313E+02  0.28266813986E+01  0.14484522354E+02  0.00000000000E+00 0. -1.
</event>
<event>
 7    1  0.2655656E-009  0.4778727E+02  0.7816164E-02  0.1312668E+00
        -11   -1    0    0    0    0  0.00000000000E+00  0.00000000000E+00  0.45593999997E+02  0.45594000000E+02  0.51100000000E-03 0.  1.
         11   -1    0    0    0    0 -0.00000000000E+00 -0.00000000000E+00 -0.45593999997E+02  0.45594000000E+02  0.51100000000E-03 0. -1.
    9900012    2    1    2    0    0  0.14442744908E+02 -0.38254455650E+02  0.14547419260E+02  0.47787266542E+02  0.19999979473E+02 0.  0.
        -12    1    1    2    0    0 -0.14442744908E+02  0.38254455650E+02 -0.14547419260E+02  0.43400733458E+02  0.00000000000E+00 0.  1.
         11    1    3    3    0    0  0.12050448758E+01 -0.27010824574E+02  0.12631083595E+02  0.29842604618E+02  0.51100000000E-03 0. -1.
        -11    1    3    3    0    0  0.67077678680E+01 -0.31687784329E+01  0.21676932356E+00  0.74217447901E+01  0.51100000000E-03 0.  1.
         12    1    3    3    0    0  0.65299321643E+01 -0.80748526426E+01  0.16995663410E+01  0.10522917134E+02  0.00000000000E+00 0. -1.
</event>
<event>
 7    1  0.2655656E-009  0.4778727E+02  0.7816164E-02  0.1312668E+00
        -11   -1    0    0    0    0  0.00000000000E+00  0.00000000000E+00  0.45593999997E+02  0.45594000000E+02  0.51100000000E-03 0.  1.
         11   -1    0    0    0    0 -0.00000000000E+00 -0.00000000000E+00 -0.45593999997E+02  0.45594000000E+02  0.51100000000E-03 0. -1.
    9900012    2    1    2    0    0 -0.18122532808E+02  0.69132582134E+01 -0.38825302295E+02  0.47787269214E+02  0.19999991653E+02 0.  0.
        -12    1    1    2    0    0  0.18122532808E+02 -0.69132582134E+01  0.38825302295E+02  0.43400730786E+02  0.00000000000E+00 0.  1.
         11    1    3    3    0    0 -0.10578296642E+02  0.11551393000E+02 -0.16659686063E+02  0.22866573422E+02  0.51100000000E-03 0. -1.
        -11    1    3    3    0    0 -0.41511381215E+01 -0.58027676425E+01 -0.10337848867E+02  0.12560859026E+02  0.51100000000E-03 0.  1.
        -12    1    3    3    0    0 -0.33930980444E+01  0.11646328556E+01 -0.11827767365E+02  0.12359836765E+02  0.00000000000E+00 0.  1.
</event>
<event>
 7    1  0.2655656E-009  0.4778726E+02  0.7816164E-02  0.1312668E+00
        -11   -1    0    0    0    0  0.00000000000E+00  0.00000000000E+00  0.45593999997E+02  0.45594000000E+02  0.51100000000E-03 0.  1.
         11   -1    0    0    0    0 -0.00000000000E+00 -0.00000000000E+00 -0.45593999997E+02  0.45594000000E+02  0.51100000000E-03 0. -1.
    9900012    2    1    2    0    0  0.72707165744E+01  0.36140532041E+02 -0.22904644470E+02  0.47787261366E+02  0.19999955873E+02 0.  0.
        -12    1    1    2    0    0 -0.72707165744E+01 -0.36140532041E+02  0.22904644470E+02  0.43400738634E+02  0.00000000000E+00 0.  1.
         11    1    3    3    0    0  0.12132634757E+02  0.17720439769E+02 -0.97555570806E+01  0.23587829615E+02  0.51100000000E-03 0. -1.
        -11    1    3    3    0    0  0.87478361981E+00  0.17092067368E+01  0.36628389580E+00  0.19546862163E+01  0.51100000000E-03 0.  1.
         12    1    3    3    0    0 -0.57367018023E+01  0.16710885535E+02 -0.13515371285E+02  0.22244745534E+02  0.00000000000E+00 0. -1.
</event>
<event>
 7    1  0.2655656E-009  0.4778728E+02  0.7816164E-02  0.1312668E+00
        -11   -1    0    0    0    0  0.00000000000E+00  0.00000000000E+00  0.45593999997E+02  0.45594000000E+02  0.51100000000E-03 0.  1.
         11   -1    0    0    0    0 -0.00000000000E+00 -0.00000000000E+00 -0.45593999997E+02  0.45594000000E+02  0.51100000000E-03 0. -1.
    9900012    2    1    2    0    0 -0.13367956229E+02  0.28507804055E+02 -0.29870143513E+02  0.47787278586E+02  0.20000034384E+02 0.  0.
        -12    1    1    2    0    0  0.13367956229E+02 -0.28507804055E+02  0.29870143513E+02  0.43400721414E+02  0.00000000000E+00 0.  1.
         11    1    3    3    0    0 -0.68248012611E+01  0.15817691542E+02 -0.61728766625E+01  0.18299772800E+02  0.51100000000E-03 0. -1.
        -11    1    3    3    0    0 -0.69207574256E+01  0.56905015687E+01 -0.19121070576E+02  0.21116203060E+02  0.51100000000E-03 0.  1.
         12    1    3    3    0    0  0.37760245748E+00  0.69996109438E+01 -0.45761962749E+01  0.83713027258E+01  0.00000000000E+00 0. -1.
</event>
<event>
 7    1  0.2655656E-009  0.4778728E+02  0.7816164E-02  0.1312668E+00
        -11   -1    0    0    0    0  0.00000000000E+00  0.00000000000E+00  0.45593999997E+02  0.45594000000E+02  0.51100000000E-03 0. -1.
         11   -1    0    0    0    0 -0.00000000000E+00 -0.00000000000E+00 -0.45593999997E+02  0.45594000000E+02  0.51100000000E-03 0.  1.
    9900012    2    1    2    0    0 -0.44968882707E+01  0.27492429208E+02  0.33280133116E+02  0.47787275028E+02  0.20000018163E+02 0.  0.
        -12    1    1    2    0    0  0.44968882707E+01 -0.27492429208E+02 -0.33280133116E+02  0.43400724972E+02  0.00000000000E+00 0.  1.
         11    1    3    3    0    0 -0.31359336858E+00  0.45282693973E+01  0.93482421582E+01  0.10391977494E+02  0.51100000000E-03 0. -1.
        -11    1    3    3    0    0  0.17789107527E+01  0.12182899159E+00  0.96294140818E+01  0.97931088828E+01  0.51100000000E-03 0.  1.
        -12    1    3    3    0    0 -0.59622056548E+01  0.22842330819E+02  0.14302476876E+02  0.27602188651E+02  0.00000000000E+00 0.  1.
</event>
<event>
 7    1  0.2655656E-009  0.4778727E+02  0.7816164E-02  0.1312668E+00
        -11   -1    0    0    0    0  0.00000000000E+00  0.00000000000E+00  0.45593999997E+02  0.45594000000E+02  0.51100000000E-03 0.  1.
         11   -1    0    0    0    0 -0.00000000000E+00 -0.00000000000E+00 -0.45593999997E+02  0.45594000000E+02  0.51100000000E-03 0. -1.
    9900012    2    1    2    0    0 -0.38334019330E+02 -0.19651392533E+02 -0.52866649775E+01  0.47787273127E+02  0.20000009497E+02 0.  0.
        -12    1    1    2    0    0  0.38334019330E+02  0.19651392533E+02  0.52866649775E+01  0.43400726873E+02  0.00000000000E+00 0.  1.
         11    1    3    3    0    0 -0.19685888421E+02 -0.78076287679E+01 -0.49316411275E+01  0.21744294755E+02  0.51100000000E-03 0. -1.
        -11    1    3    3    0    0 -0.62055471816E+01 -0.11601501029E+02  0.21970217842E+01  0.13339060947E+02  0.51100000000E-03 0.  1.
        -12    1    3    3    0    0 -0.12442583728E+02 -0.24226273590E+00 -0.25520456342E+01  0.12703917426E+02  0.00000000000E+00 0.  1.
</event>
<event>
 7    1  0.2655656E-009  0.4778727E+02  0.7816164E-02  0.1312668E+00
        -11   -1    0    0    0    0  0.00000000000E+00  0.00000000000E+00  0.45593999997E+02  0.45594000000E+02  0.51100000000E-03 0.  1.
         11   -1    0    0    0    0 -0.00000000000E+00 -0.00000000000E+00 -0.45593999997E+02  0.45594000000E+02  0.51100000000E-03 0. -1.
    9900012    2    1    2    0    0  0.78872852719E+01  0.30292954107E+02 -0.30062447628E+02  0.47787273107E+02  0.20000009403E+02 0.  0.
        -12    1    1    2    0    0 -0.78872852719E+01 -0.30292954107E+02  0.30062447628E+02  0.43400726893E+02  0.00000000000E+00 0.  1.
         11    1    3    3    0    0  0.73424833056E+01  0.29969906102E+02 -0.18880938456E+02  0.36174537594E+02  0.51100000000E-03 0. -1.
        -11    1    3    3    0    0  0.12576021846E+01  0.11834946038E+01 -0.89730012652E+01  0.91376679026E+01  0.51100000000E-03 0.  1.
         12    1    3    3    0    0 -0.71280021836E+00 -0.86044659954E+00 -0.22085079066E+01  0.24750676103E+01  0.00000000000E+00 0. -1.
</event>
<event>
 7    1  0.2655656E-009  0.4778726E+02  0.7816164E-02  0.1312668E+00
        -11   -1    0    0    0    0  0.00000000000E+00  0.00000000000E+00  0.45593999997E+02  0.45594000000E+02  0.51100000000E-03 0. -1.
         11   -1    0    0    0    0 -0.00000000000E+00 -0.00000000000E+00 -0.45593999997E+02  0.45594000000E+02  0.51100000000E-03 0.  1.
    9900012    2    1    2    0    0 -0.22312727321E+02  0.37224016555E+02  0.37228869970E+00  0.47787264893E+02  0.19999971953E+02 0.  0.
        -12    1    1    2    0    0  0.22312727321E+02 -0.37224016555E+02 -0.37228869970E+00  0.43400735107E+02  0.00000000000E+00 0.  1.
         11    1    3    3    0    0 -0.12295066868E+01  0.13065946297E+02  0.24959101209E+01  0.13358899915E+02  0.51100000000E-03 0. -1.
        -11    1    3    3    0    0 -0.19268089908E+02  0.21798733899E+02 -0.58325560167E+01  0.29672593386E+02  0.51100000000E-03 0.  1.
        -12    1    3    3    0    0 -0.18151307254E+01  0.23593363591E+01  0.37089345954E+01  0.47557715924E+01  0.00000000000E+00 0.  1.
</event>
<event>
 7    1  0.2655656E-009  0.4778729E+02  0.7816164E-02  0.1312668E+00
        -11   -1    0    0    0    0  0.00000000000E+00  0.00000000000E+00  0.45593999997E+02  0.45594000000E+02  0.51100000000E-03 0.  1.
         11   -1    0    0    0    0 -0.00000000000E+00 -0.00000000000E+00 -0.45593999997E+02  0.45594000000E+02  0.51100000000E-03 0. -1.
    9900012    2    1    2    0    0  0.24379071863E+02 -0.28708332480E+02 -0.21566506028E+02  0.47787289396E+02  0.20000083671E+02 0.  0.
        -12    1    1    2    0    0 -0.24379071863E+02  0.28708332480E+02  0.21566506028E+02  0.43400710604E+02  0.00000000000E+00 0.  1.
         11    1    3    3    0    0  0.18041953433E+02 -0.20523010291E+02 -0.19285890552E+02  0.33446249562E+02  0.51100000000E-03 0. -1.
        -11    1    3    3    0    0  0.11253064064E+00 -0.51822141652E+01  0.26786587976E+01  0.58346568035E+01  0.51100000000E-03 0.  1.
        -12    1    3    3    0    0  0.62245877889E+01 -0.30031080242E+01 -0.49592742732E+01  0.85063830306E+01  0.00000000000E+00 0.  1.
</event>
<event>
 7    1  0.2655656E-009  0.4778729E+02  0.7816164E-02  0.1312668E+00
        -11   -1    0    0    0    0  0.00000000000E+00  0.00000000000E+00  0.45593999997E+02  0.45594000000E+02  0.51100000000E-03 0.  1.
         11   -1    0    0    0    0 -0.00000000000E+00 -0.00000000000E+00 -0.45593999997E+02  0.45594000000E+02  0.51100000000E-03 0. -1.
    9900012    2    1    2    0    0 -0.14138520115E+02 -0.32617937533E+02 -0.24895663380E+02  0.47787289694E+02  0.20000085029E+02 0.  0.
        -12    1    1    2    0    0  0.14138520115E+02  0.32617937533E+02  0.24895663380E+02  0.43400710306E+02  0.00000000000E+00 0.  1.
         11    1    3    3    0    0 -0.90331428772E+01 -0.51288623035E+01 -0.11600646882E+02  0.15571702126E+02  0.51100000000E-03 0. -1.
        -11    1    3    3    0    0 -0.51710195680E+01 -0.14124185963E+02 -0.29810756951E+01  0.15333586829E+02  0.51100000000E-03 0.  1.
         12    1    3    3    0    0  0.65642330597E-01 -0.13364889267E+02 -0.10313940803E+02  0.16882000738E+02  0.00000000000E+00 0. -1.
</event>
<event>
 7    1  0.2655656E-009  0.4778727E+02  0.7816164E-02  0.1312668E+00
        -11   -1    0    0    0    0  0.00000000000E+00  0.00000000000E+00  0.45593999997E+02  0.45594000000E+02  0.51100000000E-03 0.  1.
         11   -1    0    0    0    0 -0.00000000000E+00 -0.00000000000E+00 -0.45593999997E+02  0.45594000000E+02  0.51100000000E-03 0. -1.
    9900012    2    1    2    0    0  0.65152389470E+01  0.33945445353E+02 -0.26246563688E+02  0.47787266088E+02  0.19999977399E+02 0.  0.
        -12    1    1    2    0    0 -0.65152389470E+01 -0.33945445353E+02  0.26246563688E+02  0.43400733912E+02  0.00000000000E+00 0.  1.
         11    1    3    3    0    0 -0.11081654176E+01 -0.22333676708E+00  0.14297627213E+01  0.18226715570E+01  0.51100000000E-03 0.  1.
        -11    1    3    3    0    0  0.53717935643E+01  0.32461550326E+02 -0.27886957036E+02  0.43131088424E+02  0.51100000000E-03 0. -1.
         12    1    3    3    0    0  0.22516108004E+01  0.17072317940E+01  0.21063062707E+00  0.28335061066E+01  0.00000000000E+00 0. -1.
</event>
<event>
 7    1  0.2655656E-009  0.4778727E+02  0.7816164E-02  0.1312668E+00
        -11   -1    0    0    0    0  0.00000000000E+00  0.00000000000E+00  0.45593999997E+02  0.45594000000E+02  0.51100000000E-03 0. -1.
         11   -1    0    0    0    0 -0.00000000000E+00 -0.00000000000E+00 -0.45593999997E+02  0.45594000000E+02  0.51100000000E-03 0.  1.
    9900012    2    1    2    0    0  0.12314435772E+02  0.11907303398E+02  0.39877235861E+02  0.47787272558E+02  0.20000006899E+02 0.  0.
        -12    1    1    2    0    0 -0.12314435772E+02 -0.11907303398E+02 -0.39877235861E+02  0.43400727442E+02  0.00000000000E+00 0.  1.
         11    1    3    3    0    0  0.33164827811E+01  0.52316769910E+00  0.21760576858E+02  0.22018071395E+02  0.51100000000E-03 0. -1.
        -11    1    3    3    0    0 -0.12757194525E+01 -0.61941571130E+00  0.51139548546E+01  0.53069454925E+01  0.51100000000E-03 0.  1.
         12    1    3    3    0    0  0.10273672444E+02  0.12003551411E+02  0.13002704148E+02  0.20462255670E+02  0.00000000000E+00 0. -1.
</event>
<event>
 7    1  0.2655656E-009  0.4778728E+02  0.7816164E-02  0.1312668E+00
        -11   -1    0    0    0    0  0.00000000000E+00  0.00000000000E+00  0.45593999997E+02  0.45594000000E+02  0.51100000000E-03 0.  1.
         11   -1    0    0    0    0 -0.00000000000E+00 -0.00000000000E+00 -0.45593999997E+02  0.45594000000E+02  0.51100000000E-03 0. -1.
    9900012    2    1    2    0    0  0.34607394852E+02 -0.10142634667E+02 -0.24147005430E+02  0.47787277798E+02  0.20000030793E+02 0.  0.
        -12    1    1    2    0    0 -0.34607394852E+02  0.10142634667E+02  0.24147005430E+02  0.43400722202E+02  0.00000000000E+00 0.  1.
         11    1    3    3    0    0  0.98725157511E+01 -0.80067018839E+01 -0.16101853069E+02  0.20514470864E+02  0.51100000000E-03 0. -1.
        -11    1    3    3    0    0  0.76002024962E+01  0.30000423277E+01 -0.25973261678E+01  0.85737643678E+01  0.51100000000E-03 0.  1.
         12    1    3    3    0    0  0.17134676604E+02 -0.51359751109E+01 -0.54478261935E+01  0.18699042567E+02  0.00000000000E+00 0. -1.
</event>
<event>
 7    1  0.2655656E-009  0.4778727E+02  0.7816164E-02  0.1312668E+00
        -11   -1    0    0    0    0  0.00000000000E+00  0.00000000000E+00  0.45593999997E+02  0.45594000000E+02  0.51100000000E-03 0.  1.
         11   -1    0    0    0    0 -0.00000000000E+00 -0.00000000000E+00 -0.45593999997E+02  0.45594000000E+02  0.51100000000E-03 0. -1.
    9900012    2    1    2    0    0 -0.21581125744E+02 -0.20486719626E+02 -0.31593866034E+02  0.47787273734E+02  0.20000012263E+02 0.  0.
        -12    1    1    2    0    0  0.21581125744E+02  0.20486719626E+02  0.31593866034E+02  0.43400726266E+02  0.00000000000E+00 0.  1.
         11    1    3    3    0    0 -0.67255246881E+01 -0.24860124573E+01 -0.95629864031E+01  0.11952558282E+02  0.51100000000E-03 0. -1.
        -11    1    3    3    0    0 -0.55619985747E+01  0.16631244026E+01 -0.16668107735E+01  0.60398732883E+01  0.51100000000E-03 0.  1.
        -12    1    3    3    0    0 -0.92936024815E+01 -0.19663831572E+02 -0.20364068857E+02  0.29794842164E+02  0.00000000000E+00 0.  1.
</event>
<event>
 7    1  0.2655656E-009  0.4778724E+02  0.7816164E-02  0.1312668E+00
        -11   -1    0    0    0    0  0.00000000000E+00  0.00000000000E+00  0.45593999997E+02  0.45594000000E+02  0.51100000000E-03 0.  1.
         11   -1    0    0    0    0 -0.00000000000E+00 -0.00000000000E+00 -0.45593999997E+02  0.45594000000E+02  0.51100000000E-03 0. -1.
    9900012    2    1    2    0    0 -0.10090876082E+02  0.42178065721E+02 -0.16764632447E+01  0.47787244971E+02  0.19999881120E+02 0.  0.
        -12    1    1    2    0    0  0.10090876082E+02 -0.42178065721E+02  0.16764632447E+01  0.43400755029E+02  0.00000000000E+00 0.  1.
         11    1    3    3    0    0  0.99200661376E+00  0.15600195952E+02  0.50013135911E+01  0.16412292002E+02  0.51100000000E-03 0. -1.
        -11    1    3    3    0    0 -0.50568217545E+01  0.41435219941E+01 -0.47192153008E+01  0.80629531865E+01  0.51100000000E-03 0.  1.
        -12    1    3    3    0    0 -0.60260609413E+01  0.22434347775E+02 -0.19585615350E+01  0.23311999782E+02  0.00000000000E+00 0.  1.
</event>
<event>
 7    1  0.2655656E-009  0.4778726E+02  0.7816164E-02  0.1312668E+00
        -11   -1    0    0    0    0  0.00000000000E+00  0.00000000000E+00  0.45593999997E+02  0.45594000000E+02  0.51100000000E-03 0.  1.
         11   -1    0    0    0    0 -0.00000000000E+00 -0.00000000000E+00 -0.45593999997E+02  0.45594000000E+02  0.51100000000E-03 0. -1.
    9900012    2    1    2    0    0  0.25132740101E+02  0.21783080217E+02 -0.27883093985E+02  0.47787261079E+02  0.19999954563E+02 0.  0.
        -12    1    1    2    0    0 -0.25132740101E+02 -0.21783080217E+02  0.27883093985E+02  0.43400738921E+02  0.00000000000E+00 0.  1.
         11    1    3    3    0    0  0.20150386257E+02  0.95035955715E+01 -0.15362734115E+02  0.27062335355E+02  0.51100000000E-03 0. -1.
        -11    1    3    3    0    0  0.42417169009E+00  0.99599058256E+01 -0.11975130318E+02  0.15581508017E+02  0.51100000000E-03 0.  1.
         12    1    3    3    0    0  0.45581821535E+01  0.23195788204E+01 -0.54522955147E+00  0.51434177074E+01  0.00000000000E+00 0. -1.
</event>
<event>
 7    1  0.2655656E-009  0.4778727E+02  0.7816164E-02  0.1312668E+00
        -11   -1    0    0    0    0  0.00000000000E+00  0.00000000000E+00  0.45593999997E+02  0.45594000000E+02  0.51100000000E-03 0. -1.
         11   -1    0    0    0    0 -0.00000000000E+00 -0.00000000000E+00 -0.45593999997E+02  0.45594000000E+02  0.51100000000E-03 0.  1.
    9900012    2    1    2    0    0 -0.12241662502E+02  0.39111612450E+02  0.14284485470E+02  0.47787273573E+02  0.20000011531E+02 0.  0.
        -12    1    1    2    0    0  0.12241662502E+02 -0.39111612450E+02 -0.14284485470E+02  0.43400726427E+02  0.00000000000E+00 0.  1.
         11    1    3    3    0    0 -0.47566814692E+01  0.13441231851E+02 -0.14014039934E+01  0.14326781414E+02  0.51100000000E-03 0. -1.
        -11    1    3    3    0    0 -0.71216311906E+01  0.11079907294E+02  0.13214796372E+02  0.18657781751E+02  0.51100000000E-03 0.  1.
         12    1    3    3    0    0 -0.36334984196E+00  0.14590473305E+02  0.24710930910E+01  0.14802710408E+02  0.00000000000E+00 0. -1.
</event>
<event>
 7    1  0.2655656E-009  0.4778727E+02  0.7816164E-02  0.1312668E+00
        -11   -1    0    0    0    0  0.00000000000E+00  0.00000000000E+00  0.45593999997E+02  0.45594000000E+02  0.51100000000E-03 0.  1.
         11   -1    0    0    0    0 -0.00000000000E+00 -0.00000000000E+00 -0.45593999997E+02  0.45594000000E+02  0.51100000000E-03 0. -1.
    9900012    2    1    2    0    0  0.24641453486E+02  0.20050196276E+02 -0.29570452830E+02  0.47787270960E+02  0.19999999617E+02 0.  0.
        -12    1    1    2    0    0 -0.24641453486E+02 -0.20050196276E+02  0.29570452830E+02  0.43400729040E+02  0.00000000000E+00 0.  1.
         11    1    3    3    0    0  0.18372890826E+02  0.13432275239E+02 -0.23913153267E+02  0.33012543598E+02  0.51100000000E-03 0. -1.
        -11    1    3    3    0    0 -0.25884272965E+01  0.60841822989E-01 -0.15282298709E+01  0.30065169875E+01  0.51100000000E-03 0.  1.
         12    1    3    3    0    0  0.88569899563E+01  0.65570792132E+01 -0.41290696926E+01  0.11768210375E+02  0.00000000000E+00 0. -1.
</event>
<event>
 7    1  0.2655656E-009  0.4778727E+02  0.7816164E-02  0.1312668E+00
        -11   -1    0    0    0    0  0.00000000000E+00  0.00000000000E+00  0.45593999997E+02  0.45594000000E+02  0.51100000000E-03 0. -1.
         11   -1    0    0    0    0 -0.00000000000E+00 -0.00000000000E+00 -0.45593999997E+02  0.45594000000E+02  0.51100000000E-03 0.  1.
    9900012    2    1    2    0    0  0.32700716549E+02 -0.28175041357E+02 -0.45225776790E+01  0.47787268127E+02  0.19999986699E+02 0.  0.
        -12    1    1    2    0    0 -0.32700716549E+02  0.28175041357E+02  0.45225776790E+01  0.43400731873E+02  0.00000000000E+00 0.  1.
         11    1    3    3    0    0  0.36081196719E+00 -0.22883213472E-01  0.29645161346E+01  0.29864803851E+01  0.51100000000E-03 0. -1.
        -11    1    3    3    0    0  0.25116382472E+02 -0.25836164492E+02 -0.34222883712E+01  0.36194642174E+02  0.51100000000E-03 0.  1.
        -12    1    3    3    0    0  0.72235221093E+01 -0.23159936513E+01 -0.40648054424E+01  0.86061455682E+01  0.00000000000E+00 0.  1.
</event>
<event>
 7    1  0.2655656E-009  0.4778727E+02  0.7816164E-02  0.1312668E+00
        -11   -1    0    0    0    0  0.00000000000E+00  0.00000000000E+00  0.45593999997E+02  0.45594000000E+02  0.51100000000E-03 0.  1.
         11   -1    0    0    0    0 -0.00000000000E+00 -0.00000000000E+00 -0.45593999997E+02  0.45594000000E+02  0.51100000000E-03 0. -1.
    9900012    2    1    2    0    0  0.11660552964E+02  0.18777527535E+02 -0.37350492861E+02  0.47787270136E+02  0.19999995860E+02 0.  0.
        -12    1    1    2    0    0 -0.11660552964E+02 -0.18777527535E+02  0.37350492861E+02  0.43400729864E+02  0.00000000000E+00 0.  1.
         11    1    3    3    0    0  0.16130240505E+02  0.11134752334E+02 -0.26494266716E+02  0.32956236699E+02  0.51100000000E-03 0. -1.
        -11    1    3    3    0    0 -0.42844724088E+01  0.47990079148E+01 -0.99350381716E+01  0.11836053587E+02  0.51100000000E-03 0.  1.
         12    1    3    3    0    0 -0.18521513275E+00  0.28437672857E+01 -0.92118797364E+00  0.29949798502E+01  0.00000000000E+00 0. -1.
</event>
<event>
 7    1  0.2655656E-009  0.4778727E+02  0.7816164E-02  0.1312668E+00
        -11   -1    0    0    0    0  0.00000000000E+00  0.00000000000E+00  0.45593999997E+02  0.45594000000E+02  0.51100000000E-03 0.  1.
         11   -1    0    0    0    0 -0.00000000000E+00 -0.00000000000E+00 -0.45593999997E+02  0.45594000000E+02  0.51100000000E-03 0. -1.
    9900012    2    1    2    0    0  0.24697586432E+02  0.29399455750E+02 -0.20231771408E+02  0.47787270188E+02  0.19999996093E+02 0.  0.
        -12    1    1    2    0    0 -0.24697586432E+02 -0.29399455750E+02  0.20231771408E+02  0.43400729812E+02  0.00000000000E+00 0.  1.
         11    1    3    3    0    0  0.55365314110E+01 -0.14428524792E+01 -0.33681578118E+01  0.66392387100E+01  0.51100000000E-03 0. -1.
        -11    1    3    3    0    0  0.59510164147E+01  0.29336595665E+01 -0.35234876037E+01  0.75123844400E+01  0.51100000000E-03 0.  1.
         12    1    3    3    0    0  0.13210038607E+02  0.27908648662E+02 -0.13340125992E+02  0.33635647038E+02  0.00000000000E+00 0. -1.
</event>
<event>
 7    1  0.2655656E-009  0.4778727E+02  0.7816164E-02  0.1312668E+00
        -11   -1    0    0    0    0  0.00000000000E+00  0.00000000000E+00  0.45593999997E+02  0.45594000000E+02  0.51100000000E-03 0.  1.
         11   -1    0    0    0    0 -0.00000000000E+00 -0.00000000000E+00 -0.45593999997E+02  0.45594000000E+02  0.51100000000E-03 0. -1.
    9900012    2    1    2    0    0 -0.23685980772E+02 -0.35760730815E+02  0.66157273936E+01  0.47787269563E+02  0.19999993244E+02 0.  0.
        -12    1    1    2    0    0  0.23685980772E+02  0.35760730815E+02 -0.66157273936E+01  0.43400730437E+02  0.00000000000E+00 0.  1.
         11    1    3    3    0    0 -0.14320414528E+02 -0.20952351545E+02 -0.58909432140E+01  0.26053378279E+02  0.51100000000E-03 0. -1.
        -11    1    3    3    0    0 -0.29133170101E+01 -0.42372482378E+01  0.53929372651E+01  0.74515408632E+01  0.51100000000E-03 0.  1.
         12    1    3    3    0    0 -0.64522492337E+01 -0.10571131032E+02  0.71137333425E+01  0.14282350421E+02  0.00000000000E+00 0. -1.
</event>
<event>
 7    1  0.2655656E-009  0.4778727E+02  0.7816164E-02  0.1312668E+00
        -11   -1    0    0    0    0  0.00000000000E+00  0.00000000000E+00  0.45593999997E+02  0.45594000000E+02  0.51100000000E-03 0.  1.
         11   -1    0    0    0    0 -0.00000000000E+00 -0.00000000000E+00 -0.45593999997E+02  0.45594000000E+02  0.51100000000E-03 0. -1.
    9900012    2    1    2    0    0 -0.35480665893E+02 -0.10994199791E+02 -0.22447124068E+02  0.47787268899E+02  0.19999990216E+02 0.  0.
        -12    1    1    2    0    0  0.35480665893E+02  0.10994199791E+02  0.22447124068E+02  0.43400731101E+02  0.00000000000E+00 0.  1.
         11    1    3    3    0    0 -0.22150464997E+02 -0.51828176662E+01 -0.23542763012E+02  0.32737843378E+02  0.51100000000E-03 0. -1.
        -11    1    3    3    0    0 -0.11655853937E+02 -0.36180642680E+01  0.13472483123E+01  0.12278615489E+02  0.51100000000E-03 0.  1.
         12    1    3    3    0    0 -0.16743469589E+01 -0.21933178564E+01 -0.25160936783E+00  0.27708100318E+01  0.00000000000E+00 0. -1.
</event>
<event>
 7    1  0.2655656E-009  0.4778727E+02  0.7816164E-02  0.1312668E+00
        -11   -1    0    0    0    0  0.00000000000E+00  0.00000000000E+00  0.45593999997E+02  0.45594000000E+02  0.51100000000E-03 0.  1.
         11   -1    0    0    0    0 -0.00000000000E+00 -0.00000000000E+00 -0.45593999997E+02  0.45594000000E+02  0.51100000000E-03 0. -1.
    9900012    2    1    2    0    0 -0.14098380978E+02  0.58738659794E+01 -0.40624584135E+02  0.47787268625E+02  0.19999988969E+02 0.  0.
        -12    1    1    2    0    0  0.14098380978E+02 -0.58738659794E+01  0.40624584135E+02  0.43400731375E+02  0.00000000000E+00 0.  1.
         11    1    3    3    0    0 -0.92507041393E+01 -0.40391219109E+01 -0.32040368598E+02  0.33592785729E+02  0.51100000000E-03 0. -1.
        -11    1    3    3    0    0 -0.28793889184E+01  0.62357544164E+01 -0.67766981091E+01  0.96487901423E+01  0.51100000000E-03 0.  1.
         12    1    3    3    0    0 -0.19682879198E+01  0.36772334739E+01 -0.18075174278E+01  0.45456927534E+01  0.00000000000E+00 0. -1.
</event>
<event>
 7    1  0.2655656E-009  0.4778727E+02  0.7816164E-02  0.1312668E+00
        -11   -1    0    0    0    0  0.00000000000E+00  0.00000000000E+00  0.45593999997E+02  0.45594000000E+02  0.51100000000E-03 0.  1.
         11   -1    0    0    0    0 -0.00000000000E+00 -0.00000000000E+00 -0.45593999997E+02  0.45594000000E+02  0.51100000000E-03 0. -1.
    9900012    2    1    2    0    0  0.40239986807E+01 -0.16341273035E+02 -0.40004917258E+02  0.47787272188E+02  0.20000005213E+02 0.  0.
        -12    1    1    2    0    0 -0.40239986807E+01  0.16341273035E+02  0.40004917258E+02  0.43400727812E+02  0.00000000000E+00 0.  1.
         11    1    3    3    0    0 -0.76718462740E+01 -0.58170593343E+01 -0.16104470345E+02  0.18762978706E+02  0.51100000000E-03 0. -1.
        -11    1    3    3    0    0  0.86241441947E+01 -0.85997734360E+01 -0.14423188671E+02  0.18877508786E+02  0.51100000000E-03 0.  1.
         12    1    3    3    0    0  0.30717007600E+01 -0.19244402645E+01 -0.94772582421E+01  0.10146784696E+02  0.00000000000E+00 0. -1.
</event>
<event>
 7    1  0.2655656E-009  0.4778727E+02  0.7816164E-02  0.1312668E+00
        -11   -1    0    0    0    0  0.00000000000E+00  0.00000000000E+00  0.45593999997E+02  0.45594000000E+02  0.51100000000E-03 0.  1.
         11   -1    0    0    0    0 -0.00000000000E+00 -0.00000000000E+00 -0.45593999997E+02  0.45594000000E+02  0.51100000000E-03 0. -1.
    9900012    2    1    2    0    0 -0.19294631207E+02  0.35576554583E+02 -0.15673198618E+02  0.47787272076E+02  0.20000004704E+02 0.  0.
        -12    1    1    2    0    0  0.19294631207E+02 -0.35576554583E+02  0.15673198618E+02  0.43400727924E+02  0.00000000000E+00 0.  1.
         11    1    3    3    0    0 -0.20116607598E+02  0.18462466438E+02 -0.62390960657E+01  0.28008336048E+02  0.51100000000E-03 0. -1.
        -11    1    3    3    0    0  0.71524011187E+00  0.83569324595E+01 -0.62508782506E+01  0.10460562495E+02  0.51100000000E-03 0.  1.
         12    1    3    3    0    0  0.10673627988E+00  0.87571556857E+01 -0.31832243021E+01  0.93183735327E+01  0.00000000000E+00 0. -1.
</event>
<event>
 7    1  0.2655656E-009  0.4778727E+02  0.7816164E-02  0.1312668E+00
        -11   -1    0    0    0    0  0.00000000000E+00  0.00000000000E+00  0.45593999997E+02  0.45594000000E+02  0.51100000000E-03 0.  1.
         11   -1    0    0    0    0 -0.00000000000E+00 -0.00000000000E+00 -0.45593999997E+02  0.45594000000E+02  0.51100000000E-03 0. -1.
    9900012    2    1    2    0    0 -0.24231625911E+02 -0.26673776561E+02 -0.24185979729E+02  0.47787266530E+02  0.19999979415E+02 0.  0.
        -12    1    1    2    0    0  0.24231625911E+02  0.26673776561E+02  0.24185979729E+02  0.43400733470E+02  0.00000000000E+00 0.  1.
         11    1    3    3    0    0 -0.13990263829E+02 -0.18822627742E+02 -0.14024284244E+02  0.27325800006E+02  0.51100000000E-03 0. -1.
        -11    1    3    3    0    0 -0.20075009342E+01  0.15961357871E+01  0.18030735325E+01  0.31350891338E+01  0.51100000000E-03 0.  1.
        -12    1    3    3    0    0 -0.82338611477E+01 -0.94472846058E+01 -0.11964769018E+02  0.17326377390E+02  0.00000000000E+00 0.  1.
</event>
<event>
 7    1  0.2655656E-009  0.4778727E+02  0.7816164E-02  0.1312668E+00
        -11   -1    0    0    0    0  0.00000000000E+00  0.00000000000E+00  0.45593999997E+02  0.45594000000E+02  0.51100000000E-03 0.  1.
         11   -1    0    0    0    0 -0.00000000000E+00 -0.00000000000E+00 -0.45593999997E+02  0.45594000000E+02  0.51100000000E-03 0. -1.
    9900012    2    1    2    0    0 -0.42763533652E+02 -0.57965903681E+01 -0.46154969447E+01  0.47787273251E+02  0.20000010059E+02 0.  0.
        -12    1    1    2    0    0  0.42763533652E+02  0.57965903681E+01  0.46154969447E+01  0.43400726749E+02  0.00000000000E+00 0.  1.
         11    1    3    3    0    0 -0.11676106397E+02 -0.39569646675E+01 -0.36677344057E+01  0.12862398917E+02  0.51100000000E-03 0. -1.
        -11    1    3    3    0    0 -0.15778110993E+02  0.59812549739E+01  0.33531691791E+01  0.17203718824E+02  0.51100000000E-03 0.  1.
        -12    1    3    3    0    0 -0.15309316263E+02 -0.78208806746E+01 -0.43009317180E+01  0.17721155510E+02  0.00000000000E+00 0.  1.
</event>
<event>
 7    1  0.2655656E-009  0.4778727E+02  0.7816164E-02  0.1312668E+00
        -11   -1    0    0    0    0  0.00000000000E+00  0.00000000000E+00  0.45593999997E+02  0.45594000000E+02  0.51100000000E-03 0. -1.
         11   -1    0    0    0    0 -0.00000000000E+00 -0.00000000000E+00 -0.45593999997E+02  0.45594000000E+02  0.51100000000E-03 0.  1.
    9900012    2    1    2    0    0 -0.10887306299E+02 -0.41815977762E+02 -0.40637352249E+01  0.47787269837E+02  0.19999994497E+02 0.  0.
        -12    1    1    2    0    0  0.10887306299E+02  0.41815977762E+02  0.40637352249E+01  0.43400730163E+02  0.00000000000E+00 0.  1.
         11    1    3    3    0    0 -0.10241417113E+02 -0.21815076671E+02 -0.15361727368E+00  0.24099954215E+02  0.51100000000E-03 0. -1.
        -11    1    3    3    0    0  0.34327831530E+01 -0.40461339472E+01 -0.48553870108E+01  0.71923558992E+01  0.51100000000E-03 0.  1.
        -12    1    3    3    0    0 -0.40786723393E+01 -0.15954767144E+02  0.94526905963E+00  0.16494959723E+02  0.00000000000E+00 0.  1.
</event>
<event>
 7    1  0.2655656E-009  0.4778728E+02  0.7816164E-02  0.1312668E+00
        -11   -1    0    0    0    0  0.00000000000E+00  0.00000000000E+00  0.45593999997E+02  0.45594000000E+02  0.51100000000E-03 0. -1.
         11   -1    0    0    0    0 -0.00000000000E+00 -0.00000000000E+00 -0.45593999997E+02  0.45594000000E+02  0.51100000000E-03 0.  1.
    9900012    2    1    2    0    0  0.11240629335E+02  0.30429578190E+02  0.28832470171E+02  0.47787282116E+02  0.20000050480E+02 0.  0.
        -12    1    1    2    0    0 -0.11240629335E+02 -0.30429578190E+02 -0.28832470171E+02  0.43400717884E+02  0.00000000000E+00 0.  1.
         11    1    3    3    0    0 -0.27498465543E+01  0.55076125542E+01  0.74531241124E+01  0.96666701307E+01  0.51100000000E-03 0. -1.
        -11    1    3    3    0    0  0.14145163634E+02  0.26435216238E+02  0.20811619119E+02  0.36496983469E+02  0.51100000000E-03 0.  1.
        -12    1    3    3    0    0 -0.15468774438E+00 -0.15132506014E+01  0.56772693949E+00  0.16236285162E+01  0.00000000000E+00 0.  1.
</event>
<event>
 7    1  0.2655656E-009  0.4778727E+02  0.7816164E-02  0.1312668E+00
        -11   -1    0    0    0    0  0.00000000000E+00  0.00000000000E+00  0.45593999997E+02  0.45594000000E+02  0.51100000000E-03 0.  1.
         11   -1    0    0    0    0 -0.00000000000E+00 -0.00000000000E+00 -0.45593999997E+02  0.45594000000E+02  0.51100000000E-03 0. -1.
    9900012    2    1    2    0    0  0.21690915469E+01  0.39805076986E+01 -0.43163340732E+02  0.47787269790E+02  0.19999994279E+02 0.  0.
        -12    1    1    2    0    0 -0.21690915469E+01 -0.39805076986E+01  0.43163340732E+02  0.43400730210E+02  0.00000000000E+00 0.  1.
         11    1    3    3    0    0  0.65992690697E+01  0.13394877038E+01 -0.95190795861E+01  0.11660079588E+02  0.51100000000E-03 0. -1.
        -11    1    3    3    0    0 -0.17779044329E+01 -0.29133534780E+01 -0.26406266273E+02  0.26625917287E+02  0.51100000000E-03 0.  1.
        -12    1    3    3    0    0 -0.26522730899E+01  0.55543734728E+01 -0.72379948729E+01  0.95012729147E+01  0.00000000000E+00 0.  1.
</event>
<event>
 7    1  0.2655656E-009  0.4778729E+02  0.7816164E-02  0.1312668E+00
        -11   -1    0    0    0    0  0.00000000000E+00  0.00000000000E+00  0.45593999997E+02  0.45594000000E+02  0.51100000000E-03 0. -1.
         11   -1    0    0    0    0 -0.00000000000E+00 -0.00000000000E+00 -0.45593999997E+02  0.45594000000E+02  0.51100000000E-03 0.  1.
    9900012    2    1    2    0    0  0.17207315889E+02  0.39738211135E+02  0.28990363945E+01  0.47787290832E+02  0.20000090217E+02 0.  0.
        -12    1    1    2    0    0 -0.17207315889E+02 -0.39738211135E+02 -0.28990363945E+01  0.43400709168E+02  0.00000000000E+00 0.  1.
         11    1    3    3    0    0 -0.19745862888E+01  0.17419124091E+02 -0.44996994754E+00  0.17536457690E+02  0.51100000000E-03 0.  1.
        -11    1    3    3    0    0  0.51383228396E+00  0.60118021129E-01  0.97410229851E+00  0.11029566363E+01  0.51100000000E-03 0. -1.
         12    1    3    3    0    0  0.18668069894E+02  0.22258969023E+02  0.23749040435E+01  0.29147876505E+02  0.00000000000E+00 0. -1.
</event>
<event>
 7    1  0.2655656E-009  0.4778727E+02  0.7816164E-02  0.1312668E+00
        -11   -1    0    0    0    0  0.00000000000E+00  0.00000000000E+00  0.45593999997E+02  0.45594000000E+02  0.51100000000E-03 0.  1.
         11   -1    0    0    0    0 -0.00000000000E+00 -0.00000000000E+00 -0.45593999997E+02  0.45594000000E+02  0.51100000000E-03 0. -1.
    9900012    2    1    2    0    0  0.39198328907E+01 -0.22037461367E+02 -0.37183444519E+02  0.47787270286E+02  0.19999996540E+02 0.  0.
        -12    1    1    2    0    0 -0.39198328907E+01  0.22037461367E+02  0.37183444519E+02  0.43400729714E+02  0.00000000000E+00 0.  1.
         11    1    3    3    0    0 -0.40463346361E+01 -0.14457585716E+02 -0.23177159329E+02  0.27614766404E+02  0.51100000000E-03 0. -1.
        -11    1    3    3    0    0  0.72812923421E+01 -0.95728448040E+01 -0.99826722515E+01  0.15630429340E+02  0.51100000000E-03 0.  1.
         12    1    3    3    0    0  0.68487518473E+00  0.19929691524E+01 -0.40236129389E+01  0.45420745417E+01  0.00000000000E+00 0. -1.
</event>
<event>
 7    1  0.2655656E-009  0.4778727E+02  0.7816164E-02  0.1312668E+00
        -11   -1    0    0    0    0  0.00000000000E+00  0.00000000000E+00  0.45593999997E+02  0.45594000000E+02  0.51100000000E-03 0.  1.
         11   -1    0    0    0    0 -0.00000000000E+00 -0.00000000000E+00 -0.45593999997E+02  0.45594000000E+02  0.51100000000E-03 0. -1.
    9900012    2    1    2    0    0 -0.36127631324E+02  0.66491654920E+01 -0.23112906926E+02  0.47787267133E+02  0.19999982167E+02 0.  0.
        -12    1    1    2    0    0  0.36127631324E+02 -0.66491654920E+01  0.23112906926E+02  0.43400732867E+02  0.00000000000E+00 0.  1.
         11    1    3    3    0    0 -0.27671575365E+02  0.80377335706E+01 -0.10694900198E+02  0.30736007135E+02  0.51100000000E-03 0. -1.
        -11    1    3    3    0    0 -0.74040498166E+01 -0.17336106305E+01 -0.13505624711E+02  0.15499266389E+02  0.51100000000E-03 0.  1.
        -12    1    3    3    0    0 -0.10520061424E+01  0.34504255192E+00  0.10876179826E+01  0.15519936089E+01  0.00000000000E+00 0.  1.
</event>
<event>
 7    1  0.2655656E-009  0.4778727E+02  0.7816164E-02  0.1312668E+00
        -11   -1    0    0    0    0  0.00000000000E+00  0.00000000000E+00  0.45593999997E+02  0.45594000000E+02  0.51100000000E-03 0. -1.
         11   -1    0    0    0    0 -0.00000000000E+00 -0.00000000000E+00 -0.45593999997E+02  0.45594000000E+02  0.51100000000E-03 0.  1.
    9900012    2    1    2    0    0 -0.22353165674E+02  0.37119206143E+02  0.24746270686E+01  0.47787271210E+02  0.20000000755E+02 0.  0.
        -12    1    1    2    0    0  0.22353165674E+02 -0.37119206143E+02 -0.24746270686E+01  0.43400728790E+02  0.00000000000E+00 0.  1.
         11    1    3    3    0    0 -0.10162922969E+01  0.43055474102E+01 -0.62334329190E+00  0.44675659654E+01  0.51100000000E-03 0. -1.
        -11    1    3    3    0    0 -0.87389367037E+01  0.28520507502E+02  0.32798837694E+01  0.30009098631E+02  0.51100000000E-03 0.  1.
        -12    1    3    3    0    0 -0.12597936674E+02  0.42931512314E+01 -0.18191340892E+00  0.13310606613E+02  0.00000000000E+00 0.  1.
</event>
<event>
 7    1  0.2655656E-009  0.4778727E+02  0.7816164E-02  0.1312668E+00
        -11   -1    0    0    0    0  0.00000000000E+00  0.00000000000E+00  0.45593999997E+02  0.45594000000E+02  0.51100000000E-03 0.  1.
         11   -1    0    0    0    0 -0.00000000000E+00 -0.00000000000E+00 -0.45593999997E+02  0.45594000000E+02  0.51100000000E-03 0. -1.
    9900012    2    1    2    0    0 -0.87694708568E+00 -0.39304337116E+01 -0.43213496987E+02  0.47787266513E+02  0.19999979339E+02 0.  0.
        -12    1    1    2    0    0  0.87694708568E+00  0.39304337116E+01  0.43213496987E+02  0.43400733487E+02  0.00000000000E+00 0.  1.
         11    1    3    3    0    0 -0.53804241823E+01 -0.39068287167E+01 -0.22598464914E+02  0.23556376880E+02  0.51100000000E-03 0. -1.
        -11    1    3    3    0    0  0.68520077551E+01 -0.41306512147E+01 -0.13170647743E+02  0.15410329392E+02  0.51100000000E-03 0.  1.
        -12    1    3    3    0    0 -0.23485306585E+01  0.41070462199E+01 -0.74443843305E+01  0.88205602410E+01  0.00000000000E+00 0.  1.
</event>
<event>
 7    1  0.2655656E-009  0.4778731E+02  0.7816164E-02  0.1312668E+00
        -11   -1    0    0    0    0  0.00000000000E+00  0.00000000000E+00  0.45593999997E+02  0.45594000000E+02  0.51100000000E-03 0.  1.
         11   -1    0    0    0    0 -0.00000000000E+00 -0.00000000000E+00 -0.45593999997E+02  0.45594000000E+02  0.51100000000E-03 0. -1.
    9900012    2    1    2    0    0  0.15449166127E+02 -0.23188003146E+02 -0.33275507450E+02  0.47787313140E+02  0.20000191929E+02 0.  0.
        -12    1    1    2    0    0 -0.15449166127E+02  0.23188003146E+02  0.33275507450E+02  0.43400686860E+02  0.00000000000E+00 0.  1.
         11    1    3    3    0    0  0.72347710505E+01 -0.10198433359E+02 -0.20215836568E+02  0.23770359769E+02  0.51100000000E-03 0. -1.
        -11    1    3    3    0    0  0.25012457707E+01 -0.12298869837E+02 -0.37974449334E+01  0.13112551924E+02  0.51100000000E-03 0.  1.
        -12    1    3    3    0    0  0.57131493055E+01 -0.69069995005E+00 -0.92622259487E+01  0.10904401448E+02  0.00000000000E+00 0.  1.
</event>
<event>
 7    1  0.2655656E-009  0.4778727E+02  0.7816164E-02  0.1312668E+00
        -11   -1    0    0    0    0  0.00000000000E+00  0.00000000000E+00  0.45593999997E+02  0.45594000000E+02  0.51100000000E-03 0. -1.
         11   -1    0    0    0    0 -0.00000000000E+00 -0.00000000000E+00 -0.45593999997E+02  0.45594000000E+02  0.51100000000E-03 0.  1.
    9900012    2    1    2    0    0 -0.40104364386E+02  0.10588736630E+02  0.12772701453E+02  0.47787270875E+02  0.19999999226E+02 0.  0.
        -12    1    1    2    0    0  0.40104364386E+02 -0.10588736630E+02 -0.12772701453E+02  0.43400729125E+02  0.00000000000E+00 0.  1.
         11    1    3    3    0    0 -0.10493412207E+02 -0.12527716890E+01 -0.42194521679E+01  0.11379143795E+02  0.51100000000E-03 0. -1.
        -11    1    3    3    0    0 -0.13983350263E+02  0.67778372715E+01  0.10447480324E+02  0.18724930121E+02  0.51100000000E-03 0.  1.
        -12    1    3    3    0    0 -0.15627601916E+02  0.50636710474E+01  0.65446732969E+01  0.17683196959E+02  0.00000000000E+00 0.  1.
</event>
<event>
 7    1  0.2655656E-009  0.4778727E+02  0.7816164E-02  0.1312668E+00
        -11   -1    0    0    0    0  0.00000000000E+00  0.00000000000E+00  0.45593999997E+02  0.45594000000E+02  0.51100000000E-03 0.  1.
         11   -1    0    0    0    0 -0.00000000000E+00 -0.00000000000E+00 -0.45593999997E+02  0.45594000000E+02  0.51100000000E-03 0. -1.
    9900012    2    1    2    0    0  0.46453592317E+01  0.19097988935E+02 -0.38695096166E+02  0.47787274073E+02  0.20000013807E+02 0.  0.
        -12    1    1    2    0    0 -0.46453592317E+01 -0.19097988935E+02  0.38695096166E+02  0.43400725927E+02  0.00000000000E+00 0.  1.
         11    1    3    3    0    0 -0.15359673911E+01  0.12045714865E+02 -0.27329695628E+02  0.29906031262E+02  0.51100000000E-03 0. -1.
        -11    1    3    3    0    0  0.90213988779E+01  0.55366817201E+01 -0.86504135183E+01  0.13670045226E+02  0.51100000000E-03 0.  1.
        -12    1    3    3    0    0 -0.28400722550E+01  0.15155923504E+01 -0.27149870188E+01  0.42111975848E+01  0.00000000000E+00 0.  1.
</event>
<event>
 7    1  0.2655656E-009  0.4778728E+02  0.7816164E-02  0.1312668E+00
        -11   -1    0    0    0    0  0.00000000000E+00  0.00000000000E+00  0.45593999997E+02  0.45594000000E+02  0.51100000000E-03 0.  1.
         11   -1    0    0    0    0 -0.00000000000E+00 -0.00000000000E+00 -0.45593999997E+02  0.45594000000E+02  0.51100000000E-03 0. -1.
    9900012    2    1    2    0    0  0.31336429581E+02  0.22508391033E+02 -0.19875192948E+02  0.47787276729E+02  0.20000025919E+02 0.  0.
        -12    1    1    2    0    0 -0.31336429581E+02 -0.22508391033E+02  0.19875192948E+02  0.43400723271E+02  0.00000000000E+00 0.  1.
         11    1    3    3    0    0  0.34554148857E+01  0.36474456843E+01 -0.15880518746E+00  0.50268251811E+01  0.51100000000E-03 0. -1.
        -11    1    3    3    0    0  0.43046213999E+01  0.12216753884E+02 -0.36163931755E+01  0.13448313676E+02  0.51100000000E-03 0.  1.
        -12    1    3    3    0    0  0.23576393295E+02  0.66441914640E+01 -0.16099994585E+02  0.29312137872E+02  0.00000000000E+00 0.  1.
</event>
<event>
 7    1  0.2655656E-009  0.4778727E+02  0.7816164E-02  0.1312668E+00
        -11   -1    0    0    0    0  0.00000000000E+00  0.00000000000E+00  0.45593999997E+02  0.45594000000E+02  0.51100000000E-03 0. -1.
         11   -1    0    0    0    0 -0.00000000000E+00 -0.00000000000E+00 -0.45593999997E+02  0.45594000000E+02  0.51100000000E-03 0.  1.
    9900012    2    1    2    0    0 -0.13798657640E+02  0.30563495309E+02  0.27551642836E+02  0.47787271652E+02  0.20000002771E+02 0.  0.
        -12    1    1    2    0    0  0.13798657640E+02 -0.30563495309E+02 -0.27551642836E+02  0.43400728348E+02  0.00000000000E+00 0.  1.
         11    1    3    3    0    0 -0.11257360941E+01  0.64189079285E+01  0.75771603039E+01  0.99941492525E+01  0.51100000000E-03 0. -1.
        -11    1    3    3    0    0 -0.89705005761E+01  0.16377034909E+02  0.22097230861E+02  0.28930343326E+02  0.51100000000E-03 0.  1.
        -12    1    3    3    0    0 -0.37024209697E+01  0.77675524717E+01 -0.21227483290E+01  0.88627790735E+01  0.00000000000E+00 0.  1.
</event>
<event>
 7    1  0.2655656E-009  0.4778727E+02  0.7816164E-02  0.1312668E+00
        -11   -1    0    0    0    0  0.00000000000E+00  0.00000000000E+00  0.45593999997E+02  0.45594000000E+02  0.51100000000E-03 0.  1.
         11   -1    0    0    0    0 -0.00000000000E+00 -0.00000000000E+00 -0.45593999997E+02  0.45594000000E+02  0.51100000000E-03 0. -1.
    9900012    2    1    2    0    0 -0.42842744900E+02 -0.66756395519E+01 -0.18862625017E+01  0.47787274888E+02  0.20000017526E+02 0.  0.
        -12    1    1    2    0    0  0.42842744900E+02  0.66756395519E+01  0.18862625017E+01  0.43400725112E+02  0.00000000000E+00 0.  1.
         11    1    3    3    0    0 -0.19458966385E+02 -0.68007717173E+01  0.12240197635E+01  0.20649457459E+02  0.51100000000E-03 0. -1.
        -11    1    3    3    0    0 -0.56628722373E+01  0.29521804846E+00 -0.69854843068E+01  0.89973477721E+01  0.51100000000E-03 0.  1.
        -12    1    3    3    0    0 -0.17720906278E+02 -0.17008588302E+00  0.38752020415E+01  0.18140469657E+02  0.00000000000E+00 0.  1.
</event>
<event>
 7    1  0.2655656E-009  0.4778726E+02  0.7816164E-02  0.1312668E+00
        -11   -1    0    0    0    0  0.00000000000E+00  0.00000000000E+00  0.45593999997E+02  0.45594000000E+02  0.51100000000E-03 0. -1.
         11   -1    0    0    0    0 -0.00000000000E+00 -0.00000000000E+00 -0.45593999997E+02  0.45594000000E+02  0.51100000000E-03 0.  1.
    9900012    2    1    2    0    0  0.43374573456E+02 -0.34707046013E+00 -0.14663662706E+01  0.47787259103E+02  0.19999945553E+02 0.  0.
        -12    1    1    2    0    0 -0.43374573456E+02  0.34707046013E+00  0.14663662706E+01  0.43400740897E+02  0.00000000000E+00 0.  1.
         11    1    3    3    0    0  0.23469294866E+02  0.80660881847E+01  0.16960082847E+01  0.24874606016E+02  0.51100000000E-03 0. -1.
        -11    1    3    3    0    0  0.63040386942E+01 -0.49697159100E+01 -0.37711770716E+01  0.88690899675E+01  0.51100000000E-03 0.  1.
         12    1    3    3    0    0  0.13601239896E+02 -0.34434427348E+01  0.60880251633E+00  0.14043563119E+02  0.00000000000E+00 0. -1.
</event>
<event>
 7    1  0.2655656E-009  0.4778727E+02  0.7816164E-02  0.1312668E+00
        -11   -1    0    0    0    0  0.00000000000E+00  0.00000000000E+00  0.45593999997E+02  0.45594000000E+02  0.51100000000E-03 0.  1.
         11   -1    0    0    0    0 -0.00000000000E+00 -0.00000000000E+00 -0.45593999997E+02  0.45594000000E+02  0.51100000000E-03 0. -1.
    9900012    2    1    2    0    0 -0.26104711345E+02  0.27555624006E+02 -0.21044120689E+02  0.47787269771E+02  0.19999994196E+02 0.  0.
        -12    1    1    2    0    0  0.26104711345E+02 -0.27555624006E+02  0.21044120689E+02  0.43400730229E+02  0.00000000000E+00 0.  1.
         11    1    3    3    0    0 -0.17885863873E+02  0.68917485434E+01 -0.12290902661E+02  0.22769861944E+02  0.51100000000E-03 0. -1.
        -11    1    3    3    0    0 -0.29684368782E+01  0.10726043292E+02 -0.62502469855E+00  0.11146760890E+02  0.51100000000E-03 0.  1.
         12    1    3    3    0    0 -0.52504105941E+01  0.99378321704E+01 -0.81281933302E+01  0.13870646938E+02  0.00000000000E+00 0. -1.
</event>
<event>
 7    1  0.2655656E-009  0.4778728E+02  0.7816164E-02  0.1312668E+00
        -11   -1    0    0    0    0  0.00000000000E+00  0.00000000000E+00  0.45593999997E+02  0.45594000000E+02  0.51100000000E-03 0.  1.
         11   -1    0    0    0    0 -0.00000000000E+00 -0.00000000000E+00 -0.45593999997E+02  0.45594000000E+02  0.51100000000E-03 0. -1.
    9900012    2    1    2    0    0 -0.20021525133E+02 -0.34714311531E+02 -0.16663655016E+02  0.47787282354E+02  0.20000051564E+02 0.  0.
        -12    1    1    2    0    0  0.20021525133E+02  0.34714311531E+02  0.16663655016E+02  0.43400717646E+02  0.00000000000E+00 0.  1.
         11    1    3    3    0    0 -0.17596270042E+02 -0.27084955646E+02 -0.13413763854E+02  0.34973598653E+02  0.51100000000E-03 0. -1.
        -11    1    3    3    0    0  0.32395359248E+01 -0.50863602493E+01 -0.59212176091E+00  0.60593945270E+01  0.51100000000E-03 0.  1.
         12    1    3    3    0    0 -0.56647910158E+01 -0.25429956351E+01 -0.26577694018E+01  0.67542891740E+01  0.00000000000E+00 0. -1.
</event>
<event>
 7    1  0.2655656E-009  0.4778727E+02  0.7816164E-02  0.1312668E+00
        -11   -1    0    0    0    0  0.00000000000E+00  0.00000000000E+00  0.45593999997E+02  0.45594000000E+02  0.51100000000E-03 0. -1.
         11   -1    0    0    0    0 -0.00000000000E+00 -0.00000000000E+00 -0.45593999997E+02  0.45594000000E+02  0.51100000000E-03 0.  1.
    9900012    2    1    2    0    0 -0.37822264548E+02 -0.18782414760E+02  0.10016005594E+02  0.47787272266E+02  0.20000005570E+02 0.  0.
        -12    1    1    2    0    0  0.37822264548E+02  0.18782414760E+02 -0.10016005594E+02  0.43400727734E+02  0.00000000000E+00 0.  1.
         11    1    3    3    0    0 -0.19126084678E+02 -0.95599092022E+01 -0.37237784202E+01  0.21704043518E+02  0.51100000000E-03 0. -1.
        -11    1    3    3    0    0 -0.10945212621E+00 -0.23441209000E+01  0.12757068805E+01  0.26710130789E+01  0.51100000000E-03 0.  1.
         12    1    3    3    0    0 -0.18586727744E+02 -0.68783846575E+01  0.12464077134E+02  0.23412215669E+02  0.00000000000E+00 0. -1.
</event>
<event>
 7    1  0.2655656E-009  0.4778727E+02  0.7816164E-02  0.1312668E+00
        -11   -1    0    0    0    0  0.00000000000E+00  0.00000000000E+00  0.45593999997E+02  0.45594000000E+02  0.51100000000E-03 0. -1.
         11   -1    0    0    0    0 -0.00000000000E+00 -0.00000000000E+00 -0.45593999997E+02  0.45594000000E+02  0.51100000000E-03 0.  1.
    9900012    2    1    2    0    0  0.62478448806E+01 -0.10514690327E+02  0.41641673435E+02  0.47787271380E+02  0.20000001530E+02 0.  0.
        -12    1    1    2    0    0 -0.62478448806E+01  0.10514690327E+02 -0.41641673435E+02  0.43400728620E+02  0.00000000000E+00 0.  1.
         11    1    3    3    0    0  0.38704487288E+01  0.37840545295E+01  0.14715378137E+02  0.15679342971E+02  0.51100000000E-03 0. -1.
        -11    1    3    3    0    0  0.48756463926E+01 -0.81109258027E+01  0.93325853383E+01  0.13291207412E+02  0.51100000000E-03 0.  1.
        -12    1    3    3    0    0 -0.24982502408E+01 -0.61878190537E+01  0.17593709960E+02  0.18816720996E+02  0.00000000000E+00 0.  1.
</event>
<event>
 7    1  0.2655656E-009  0.4778727E+02  0.7816164E-02  0.1312668E+00
        -11   -1    0    0    0    0  0.00000000000E+00  0.00000000000E+00  0.45593999997E+02  0.45594000000E+02  0.51100000000E-03 0.  1.
         11   -1    0    0    0    0 -0.00000000000E+00 -0.00000000000E+00 -0.45593999997E+02  0.45594000000E+02  0.51100000000E-03 0. -1.
    9900012    2    1    2    0    0  0.45734966884E+01  0.27733474471E+02 -0.33069034761E+02  0.47787267999E+02  0.19999986115E+02 0.  0.
        -12    1    1    2    0    0 -0.45734966884E+01 -0.27733474471E+02  0.33069034761E+02  0.43400732001E+02  0.00000000000E+00 0.  1.
         11    1    3    3    0    0  0.77858304785E+01  0.23325809183E+02 -0.26679715725E+02  0.36283877435E+02  0.51100000000E-03 0. -1.
        -11    1    3    3    0    0 -0.24953691369E+00  0.35201315825E+01  0.85101286799E+00  0.36301264705E+01  0.51100000000E-03 0.  1.
         12    1    3    3    0    0 -0.29627968765E+01  0.88753370543E+00 -0.72403319039E+01  0.78732640937E+01  0.00000000000E+00 0. -1.
</event>
<event>
 7    1  0.2655656E-009  0.4778727E+02  0.7816164E-02  0.1312668E+00
        -11   -1    0    0    0    0  0.00000000000E+00  0.00000000000E+00  0.45593999997E+02  0.45594000000E+02  0.51100000000E-03 0. -1.
         11   -1    0    0    0    0 -0.00000000000E+00 -0.00000000000E+00 -0.45593999997E+02  0.45594000000E+02  0.51100000000E-03 0.  1.
    9900012    2    1    2    0    0  0.25479225173E+02 -0.25397946682E+02  0.24277080543E+02  0.47787271311E+02  0.20000001215E+02 0.  0.
        -12    1    1    2    0    0 -0.25479225173E+02  0.25397946682E+02 -0.24277080543E+02  0.43400728689E+02  0.00000000000E+00 0.  1.
         11    1    3    3    0    0  0.97310347758E+01 -0.21993437108E+01  0.94127082712E+01  0.13716020845E+02  0.51100000000E-03 0. -1.
        -11    1    3    3    0    0  0.15150753716E+01 -0.10284196655E+02  0.95868035967E+01  0.14140967353E+02  0.51100000000E-03 0.  1.
        -12    1    3    3    0    0  0.14233115025E+02 -0.12914406317E+02  0.52775686747E+01  0.19930283113E+02  0.00000000000E+00 0.  1.
</event>
<event>
 7    1  0.2655656E-009  0.4778730E+02  0.7816164E-02  0.1312668E+00
        -11   -1    0    0    0    0  0.00000000000E+00  0.00000000000E+00  0.45593999997E+02  0.45594000000E+02  0.51100000000E-03 0. -1.
         11   -1    0    0    0    0 -0.00000000000E+00 -0.00000000000E+00 -0.45593999997E+02  0.45594000000E+02  0.51100000000E-03 0.  1.
    9900012    2    1    2    0    0 -0.11763838490E+02 -0.61977908758E+01  0.41313685226E+02  0.47787296149E+02  0.20000114463E+02 0.  0.
        -12    1    1    2    0    0  0.11763838490E+02  0.61977908758E+01 -0.41313685226E+02  0.43400703851E+02  0.00000000000E+00 0.  1.
         11    1    3    3    0    0 -0.16085857136E+01  0.49702979552E+01  0.38905348824E+01  0.65136527152E+01  0.51100000000E-03 0. -1.
        -11    1    3    3    0    0 -0.43821890209E+01 -0.17573630067E+01  0.43999456120E+01  0.64537916764E+01  0.51100000000E-03 0.  1.
         12    1    3    3    0    0 -0.57730637555E+01 -0.94107258243E+01  0.33023204732E+02  0.34819851758E+02  0.00000000000E+00 0. -1.
</event>
<event>
 7    1  0.2655656E-009  0.4778727E+02  0.7816164E-02  0.1312668E+00
        -11   -1    0    0    0    0  0.00000000000E+00  0.00000000000E+00  0.45593999997E+02  0.45594000000E+02  0.51100000000E-03 0.  1.
         11   -1    0    0    0    0 -0.00000000000E+00 -0.00000000000E+00 -0.45593999997E+02  0.45594000000E+02  0.51100000000E-03 0. -1.
    9900012    2    1    2    0    0 -0.41159861775E+02 -0.96199527718E+01  0.98460889746E+01  0.47787272118E+02  0.20000004893E+02 0.  0.
        -12    1    1    2    0    0  0.41159861775E+02  0.96199527718E+01 -0.98460889746E+01  0.43400727882E+02  0.00000000000E+00 0.  1.
         11    1    3    3    0    0 -0.17707698626E+02 -0.12058772908E+02  0.32668995221E+01  0.21671391912E+02  0.51100000000E-03 0. -1.
        -11    1    3    3    0    0 -0.17414498154E+02  0.48059438411E+01  0.75100124130E+01  0.19564307523E+02  0.51100000000E-03 0.  1.
        -12    1    3    3    0    0 -0.60376649950E+01 -0.23671237046E+01 -0.93082296045E+00  0.65515726821E+01  0.00000000000E+00 0.  1.
</event>
<event>
 7    1  0.2655656E-009  0.4778726E+02  0.7816164E-02  0.1312668E+00
        -11   -1    0    0    0    0  0.00000000000E+00  0.00000000000E+00  0.45593999997E+02  0.45594000000E+02  0.51100000000E-03 0.  1.
         11   -1    0    0    0    0 -0.00000000000E+00 -0.00000000000E+00 -0.45593999997E+02  0.45594000000E+02  0.51100000000E-03 0. -1.
    9900012    2    1    2    0    0  0.55499036238E+01 -0.41094550746E+02 -0.12808619775E+02  0.47787259548E+02  0.19999947584E+02 0.  0.
        -12    1    1    2    0    0 -0.55499036238E+01  0.41094550746E+02  0.12808619775E+02  0.43400740452E+02  0.00000000000E+00 0.  1.
         11    1    3    3    0    0 -0.51876316735E+01 -0.11225970895E+02  0.17155083223E+01  0.12485067640E+02  0.51100000000E-03 0. -1.
        -11    1    3    3    0    0  0.22953847306E+01 -0.35691016470E+01 -0.35391104547E+00  0.42582309610E+01  0.51100000000E-03 0.  1.
         12    1    3    3    0    0  0.84421505668E+01 -0.26299478204E+02 -0.14170217052E+02  0.31043960947E+02  0.00000000000E+00 0. -1.
</event>
<event>
 7    1  0.2655656E-009  0.4778727E+02  0.7816164E-02  0.1312668E+00
        -11   -1    0    0    0    0  0.00000000000E+00  0.00000000000E+00  0.45593999997E+02  0.45594000000E+02  0.51100000000E-03 0.  1.
         11   -1    0    0    0    0 -0.00000000000E+00 -0.00000000000E+00 -0.45593999997E+02  0.45594000000E+02  0.51100000000E-03 0. -1.
    9900012    2    1    2    0    0  0.81992920918E+01  0.18587510796E+02 -0.38352303375E+02  0.47787272788E+02  0.20000007948E+02 0.  0.
        -12    1    1    2    0    0 -0.81992920918E+01 -0.18587510796E+02  0.38352303375E+02  0.43400727212E+02  0.00000000000E+00 0.  1.
         11    1    3    3    0    0  0.59702934236E+01 -0.13744899603E+01 -0.37482184520E+01  0.71821144547E+01  0.51100000000E-03 0. -1.
        -11    1    3    3    0    0  0.73512688916E+00  0.46782104841E+01 -0.34088177064E+01  0.58349038803E+01  0.51100000000E-03 0.  1.
         12    1    3    3    0    0  0.14938717790E+01  0.15283790273E+02 -0.31195267216E+02  0.34770254453E+02  0.00000000000E+00 0. -1.
</event>
<event>
 7    1  0.2655656E-009  0.4778726E+02  0.7816164E-02  0.1312668E+00
        -11   -1    0    0    0    0  0.00000000000E+00  0.00000000000E+00  0.45593999997E+02  0.45594000000E+02  0.51100000000E-03 0.  1.
         11   -1    0    0    0    0 -0.00000000000E+00 -0.00000000000E+00 -0.45593999997E+02  0.45594000000E+02  0.51100000000E-03 0. -1.
    9900012    2    1    2    0    0 -0.55639045228E+01  0.12814970794E+02 -0.41090671933E+02  0.47787264639E+02  0.19999970795E+02 0.  0.
        -12    1    1    2    0    0  0.55639045228E+01 -0.12814970794E+02  0.41090671933E+02  0.43400735361E+02  0.00000000000E+00 0.  1.
         11    1    3    3    0    0 -0.71568305026E+00  0.14068410977E+02 -0.20893806571E+02  0.25198879795E+02  0.51100000000E-03 0. -1.
        -11    1    3    3    0    0  0.24557554533E+01 -0.10758896671E+01 -0.71337205841E+01  0.76209082828E+01  0.51100000000E-03 0.  1.
         12    1    3    3    0    0 -0.73039769258E+01 -0.17755051623E+00 -0.13063144778E+02  0.14967476561E+02  0.00000000000E+00 0. -1.
</event>
<event>
 7    1  0.2655656E-009  0.4778725E+02  0.7816164E-02  0.1312668E+00
        -11   -1    0    0    0    0  0.00000000000E+00  0.00000000000E+00  0.45593999997E+02  0.45594000000E+02  0.51100000000E-03 0.  1.
         11   -1    0    0    0    0 -0.00000000000E+00 -0.00000000000E+00 -0.45593999997E+02  0.45594000000E+02  0.51100000000E-03 0. -1.
    9900012    2    1    2    0    0  0.26505226848E+02  0.31061810559E+02 -0.14705850124E+02  0.47787249393E+02  0.19999901281E+02 0.  0.
        -12    1    1    2    0    0 -0.26505226848E+02 -0.31061810559E+02  0.14705850124E+02  0.43400750607E+02  0.00000000000E+00 0.  1.
         11    1    3    3    0    0  0.86154601041E+01  0.82554651216E+01  0.23809318294E+01  0.12167485106E+02  0.51100000000E-03 0.  1.
        -11    1    3    3    0    0  0.10746114100E+02  0.21412931341E+02 -0.13604692295E+02  0.27551411026E+02  0.51100000000E-03 0. -1.
         12    1    3    3    0    0  0.71436526439E+01  0.13934140965E+01 -0.34820896580E+01  0.80683532599E+01  0.00000000000E+00 0. -1.
</event>
<event>
 7    1  0.2655656E-009  0.4778728E+02  0.7816164E-02  0.1312668E+00
        -11   -1    0    0    0    0  0.00000000000E+00  0.00000000000E+00  0.45593999997E+02  0.45594000000E+02  0.51100000000E-03 0. -1.
         11   -1    0    0    0    0 -0.00000000000E+00 -0.00000000000E+00 -0.45593999997E+02  0.45594000000E+02  0.51100000000E-03 0.  1.
    9900012    2    1    2    0    0 -0.26688594588E+02  0.30445411495E+02 -0.15633871934E+02  0.47787284409E+02  0.20000060934E+02 0.  0.
        -12    1    1    2    0    0  0.26688594588E+02 -0.30445411495E+02  0.15633871934E+02  0.43400715591E+02  0.00000000000E+00 0.  1.
         11    1    3    3    0    0 -0.87364650656E+01  0.17301671723E+02 -0.13975278756E+01  0.19432620788E+02  0.51100000000E-03 0. -1.
        -11    1    3    3    0    0  0.50881213358E+00  0.37379942021E+01 -0.16958540967E+01  0.41361107118E+01  0.51100000000E-03 0.  1.
         12    1    3    3    0    0 -0.18460941656E+02  0.94057455699E+01 -0.12540489962E+02  0.24218552909E+02  0.00000000000E+00 0. -1.
</event>
<event>
 7    1  0.2655656E-009  0.4778722E+02  0.7816164E-02  0.1312668E+00
        -11   -1    0    0    0    0  0.00000000000E+00  0.00000000000E+00  0.45593999997E+02  0.45594000000E+02  0.51100000000E-03 0. -1.
         11   -1    0    0    0    0 -0.00000000000E+00 -0.00000000000E+00 -0.45593999997E+02  0.45594000000E+02  0.51100000000E-03 0.  1.
    9900012    2    1    2    0    0 -0.30587851486E+02  0.17272030708E+02  0.25488971134E+02  0.47787224053E+02  0.19999785747E+02 0.  0.
        -12    1    1    2    0    0  0.30587851486E+02 -0.17272030708E+02 -0.25488971134E+02  0.43400775947E+02  0.00000000000E+00 0.  1.
         11    1    3    3    0    0 -0.22339366882E+02  0.17089023720E+02  0.15784081492E+02  0.32252430500E+02  0.51100000000E-03 0. -1.
        -11    1    3    3    0    0 -0.92450183124E+01 -0.21924762792E+01  0.70160764088E+01  0.11811123751E+02  0.51100000000E-03 0.  1.
         12    1    3    3    0    0  0.99653370856E+00  0.23754832669E+01  0.26888132340E+01  0.37236698016E+01  0.00000000000E+00 0. -1.
</event>
<event>
 7    1  0.2655656E-009  0.4778728E+02  0.7816164E-02  0.1312668E+00
        -11   -1    0    0    0    0  0.00000000000E+00  0.00000000000E+00  0.45593999997E+02  0.45594000000E+02  0.51100000000E-03 0. -1.
         11   -1    0    0    0    0 -0.00000000000E+00 -0.00000000000E+00 -0.45593999997E+02  0.45594000000E+02  0.51100000000E-03 0.  1.
    9900012    2    1    2    0    0 -0.54910024767E+01  0.10124514293E+02  0.41844543744E+02  0.47787277207E+02  0.20000028096E+02 0.  0.
        -12    1    1    2    0    0  0.54910024767E+01 -0.10124514293E+02 -0.41844543744E+02  0.43400722793E+02  0.00000000000E+00 0.  1.
         11    1    3    3    0    0 -0.61791049950E+01  0.34518255501E+01  0.46237876944E+01  0.84543391860E+01  0.51100000000E-03 0. -1.
        -11    1    3    3    0    0 -0.44099303151E+01  0.33660260286E+01  0.99374812180E+01  0.11381175239E+02  0.51100000000E-03 0.  1.
         12    1    3    3    0    0  0.50980328334E+01  0.33066627140E+01  0.27283274831E+02  0.27951762781E+02  0.00000000000E+00 0. -1.
</event>
<event>
 7    1  0.2655656E-009  0.4778727E+02  0.7816164E-02  0.1312668E+00
        -11   -1    0    0    0    0  0.00000000000E+00  0.00000000000E+00  0.45593999997E+02  0.45594000000E+02  0.51100000000E-03 0.  1.
         11   -1    0    0    0    0 -0.00000000000E+00 -0.00000000000E+00 -0.45593999997E+02  0.45594000000E+02  0.51100000000E-03 0. -1.
    9900012    2    1    2    0    0 -0.34716941126E+02  0.21766321474E+02 -0.14303304366E+02  0.47787271119E+02  0.20000000339E+02 0.  0.
        -12    1    1    2    0    0  0.34716941126E+02 -0.21766321474E+02  0.14303304366E+02  0.43400728881E+02  0.00000000000E+00 0.  1.
         11    1    3    3    0    0 -0.29705132405E+02  0.12663222162E+02 -0.11884242220E+02  0.34409116526E+02  0.51100000000E-03 0. -1.
        -11    1    3    3    0    0  0.62990484023E+00  0.70203473173E+01 -0.21046460676E+01  0.73560581764E+01  0.51100000000E-03 0.  1.
        -12    1    3    3    0    0 -0.56417135613E+01  0.20827519947E+01 -0.31441607875E+00  0.60220964165E+01  0.00000000000E+00 0.  1.
</event>
<event>
 7    1  0.2655656E-009  0.4778727E+02  0.7816164E-02  0.1312668E+00
        -11   -1    0    0    0    0  0.00000000000E+00  0.00000000000E+00  0.45593999997E+02  0.45594000000E+02  0.51100000000E-03 0.  1.
         11   -1    0    0    0    0 -0.00000000000E+00 -0.00000000000E+00 -0.45593999997E+02  0.45594000000E+02  0.51100000000E-03 0. -1.
    9900012    2    1    2    0    0  0.10341185307E+02  0.63183116849E+01 -0.41674482772E+02  0.47787266245E+02  0.19999978119E+02 0.  0.
        -12    1    1    2    0    0 -0.10341185307E+02 -0.63183116849E+01  0.41674482772E+02  0.43400733755E+02  0.00000000000E+00 0.  1.
         11    1    3    3    0    0  0.98143575678E+01  0.50578594988E+01 -0.18504102378E+02  0.21547746106E+02  0.51100000000E-03 0. -1.
        -11    1    3    3    0    0  0.32373669951E+01  0.51597776285E+01 -0.65092654897E+01  0.89148408686E+01  0.51100000000E-03 0.  1.
         12    1    3    3    0    0 -0.27105392557E+01 -0.38993254424E+01 -0.16661114904E+02  0.17324679270E+02  0.00000000000E+00 0. -1.
</event>
<event>
 7    1  0.2655656E-009  0.4778727E+02  0.7816164E-02  0.1312668E+00
        -11   -1    0    0    0    0  0.00000000000E+00  0.00000000000E+00  0.45593999997E+02  0.45594000000E+02  0.51100000000E-03 0.  1.
         11   -1    0    0    0    0 -0.00000000000E+00 -0.00000000000E+00 -0.45593999997E+02  0.45594000000E+02  0.51100000000E-03 0. -1.
    9900012    2    1    2    0    0 -0.27119833391E+02  0.33638837822E+02 -0.40702062252E+01  0.47787270146E+02  0.19999995904E+02 0.  0.
        -12    1    1    2    0    0  0.27119833391E+02 -0.33638837822E+02  0.40702062252E+01  0.43400729854E+02  0.00000000000E+00 0.  1.
         11    1    3    3    0    0 -0.12337806640E+02  0.26390100062E+02 -0.47016366911E+01  0.29508714675E+02  0.51100000000E-03 0. -1.
        -11    1    3    3    0    0 -0.67165321376E+01  0.76649054334E+01  0.31904256482E+00  0.10196291859E+02  0.51100000000E-03 0.  1.
         12    1    3    3    0    0 -0.80654946129E+01 -0.41616767333E+00  0.31238790110E+00  0.80822636113E+01  0.00000000000E+00 0. -1.
</event>
<event>
 7    1  0.2655656E-009  0.4778727E+02  0.7816164E-02  0.1312668E+00
        -11   -1    0    0    0    0  0.00000000000E+00  0.00000000000E+00  0.45593999997E+02  0.45594000000E+02  0.51100000000E-03 0.  1.
         11   -1    0    0    0    0 -0.00000000000E+00 -0.00000000000E+00 -0.45593999997E+02  0.45594000000E+02  0.51100000000E-03 0. -1.
    9900012    2    1    2    0    0  0.17272730949E+02 -0.33629803756E+02 -0.21314601527E+02  0.47787272202E+02  0.20000005277E+02 0.  0.
        -12    1    1    2    0    0 -0.17272730949E+02  0.33629803756E+02  0.21314601527E+02  0.43400727798E+02  0.00000000000E+00 0.  1.
         11    1    3    3    0    0  0.25468530017E+01 -0.14542032516E+02 -0.12452567412E+02  0.19313819024E+02  0.51100000000E-03 0. -1.
        -11    1    3    3    0    0 -0.12488417778E+01 -0.66999722057E+01 -0.28094927627E+01  0.73717354258E+01  0.51100000000E-03 0.  1.
         12    1    3    3    0    0  0.15974719725E+02 -0.12387799035E+02 -0.60525413529E+01  0.21101717752E+02  0.00000000000E+00 0. -1.
</event>
<event>
 7    1  0.2655656E-009  0.4778727E+02  0.7816164E-02  0.1312668E+00
        -11   -1    0    0    0    0  0.00000000000E+00  0.00000000000E+00  0.45593999997E+02  0.45594000000E+02  0.51100000000E-03 0.  1.
         11   -1    0    0    0    0 -0.00000000000E+00 -0.00000000000E+00 -0.45593999997E+02  0.45594000000E+02  0.51100000000E-03 0. -1.
    9900012    2    1    2    0    0  0.39828899395E+02  0.93512534729E+01 -0.14485719030E+02  0.47787271615E+02  0.20000002600E+02 0.  0.
        -12    1    1    2    0    0 -0.39828899395E+02 -0.93512534729E+01  0.14485719030E+02  0.43400728385E+02  0.00000000000E+00 0.  1.
         11    1    3    3    0    0 -0.17540802275E+00  0.27862780607E+01 -0.17325598647E+01  0.32857080443E+01  0.51100000000E-03 0. -1.
        -11    1    3    3    0    0  0.25139403033E+02  0.31437774895E+01 -0.11945719450E+01  0.25363357904E+02  0.51100000000E-03 0.  1.
        -12    1    3    3    0    0  0.14864904385E+02  0.34211979227E+01 -0.11558587221E+02  0.19138205666E+02  0.00000000000E+00 0.  1.
</event>
<event>
 7    1  0.2655656E-009  0.4778727E+02  0.7816164E-02  0.1312668E+00
        -11   -1    0    0    0    0  0.00000000000E+00  0.00000000000E+00  0.45593999997E+02  0.45594000000E+02  0.51100000000E-03 0. -1.
         11   -1    0    0    0    0 -0.00000000000E+00 -0.00000000000E+00 -0.45593999997E+02  0.45594000000E+02  0.51100000000E-03 0.  1.
    9900012    2    1    2    0    0 -0.25487197238E+02 -0.20107998539E+02  0.28804422100E+02  0.47787267739E+02  0.19999984928E+02 0.  0.
        -12    1    1    2    0    0  0.25487197238E+02  0.20107998539E+02 -0.28804422100E+02  0.43400732261E+02  0.00000000000E+00 0.  1.
         11    1    3    3    0    0  0.12274784353E+01 -0.55811516038E+01  0.25924926177E+01  0.62751075503E+01  0.51100000000E-03 0. -1.
        -11    1    3    3    0    0 -0.23871044361E+02 -0.97647926277E+01  0.17440979951E+02  0.31134638521E+02  0.51100000000E-03 0.  1.
        -12    1    3    3    0    0 -0.28436313120E+01 -0.47620543075E+01  0.87709495317E+01  0.10377521667E+02  0.00000000000E+00 0.  1.
</event>
<event>
 7    1  0.2655656E-009  0.4778727E+02  0.7816164E-02  0.1312668E+00
        -11   -1    0    0    0    0  0.00000000000E+00  0.00000000000E+00  0.45593999997E+02  0.45594000000E+02  0.51100000000E-03 0.  1.
         11   -1    0    0    0    0 -0.00000000000E+00 -0.00000000000E+00 -0.45593999997E+02  0.45594000000E+02  0.51100000000E-03 0. -1.
    9900012    2    1    2    0    0 -0.35422653863E+02 -0.75115324276E+01 -0.23925632276E+02  0.47787269523E+02  0.19999993064E+02 0.  0.
        -12    1    1    2    0    0  0.35422653863E+02  0.75115324276E+01  0.23925632276E+02  0.43400730477E+02  0.00000000000E+00 0.  1.
         11    1    3    3    0    0 -0.24592052916E+02 -0.31779615998E+01 -0.51871710523E+01  0.25333283450E+02  0.51100000000E-03 0. -1.
        -11    1    3    3    0    0 -0.20942151985E+01 -0.17684135915E+01 -0.75294994919E+01  0.80128887917E+01  0.51100000000E-03 0.  1.
         12    1    3    3    0    0 -0.87363857485E+01 -0.25651572363E+01 -0.11208961732E+02  0.14441097282E+02  0.00000000000E+00 0. -1.
</event>
<event>
 7    1  0.2655656E-009  0.4778727E+02  0.7816164E-02  0.1312668E+00
        -11   -1    0    0    0    0  0.00000000000E+00  0.00000000000E+00  0.45593999997E+02  0.45594000000E+02  0.51100000000E-03 0.  1.
         11   -1    0    0    0    0 -0.00000000000E+00 -0.00000000000E+00 -0.45593999997E+02  0.45594000000E+02  0.51100000000E-03 0. -1.
    9900012    2    1    2    0    0 -0.20300691251E+02  0.37563267864E+02 -0.77785913330E+01  0.47787266815E+02  0.19999980715E+02 0.  0.
        -12    1    1    2    0    0  0.20300691251E+02 -0.37563267864E+02  0.77785913330E+01  0.43400733185E+02  0.00000000000E+00 0.  1.
         11    1    3    3    0    0 -0.86120852302E-01  0.90902108201E+01  0.52271170113E+00  0.91056343732E+01  0.51100000000E-03 0. -1.
        -11    1    3    3    0    0 -0.19477084582E+02  0.25949460979E+02 -0.27780360026E+01  0.32564533363E+02  0.51100000000E-03 0.  1.
        -12    1    3    3    0    0 -0.73748581659E+00  0.25235960655E+01 -0.55232670316E+01  0.61170990783E+01  0.00000000000E+00 0.  1.
</event>
<event>
 7    1  0.2655656E-009  0.4778728E+02  0.7816164E-02  0.1312668E+00
        -11   -1    0    0    0    0  0.00000000000E+00  0.00000000000E+00  0.45593999997E+02  0.45594000000E+02  0.51100000000E-03 0. -1.
         11   -1    0    0    0    0 -0.00000000000E+00 -0.00000000000E+00 -0.45593999997E+02  0.45594000000E+02  0.51100000000E-03 0.  1.
    9900012    2    1    2    0    0  0.23611715463E+02  0.25766698348E+02  0.25732988473E+02  0.47787279423E+02  0.20000038199E+02 0.  0.
        -12    1    1    2    0    0 -0.23611715463E+02 -0.25766698348E+02 -0.25732988473E+02  0.43400720577E+02  0.00000000000E+00 0.  1.
         11    1    3    3    0    0  0.15809218395E+02  0.58691826674E+01  0.14996171908E+02  0.22566875362E+02  0.51100000000E-03 0. -1.
        -11    1    3    3    0    0 -0.77211593934E+00  0.82701738383E+01  0.29942141983E+01  0.88293407039E+01  0.51100000000E-03 0.  1.
         12    1    3    3    0    0  0.85746130076E+01  0.11627341842E+02  0.77426023669E+01  0.16391063357E+02  0.00000000000E+00 0. -1.
</event>
<event>
 7    1  0.2655656E-009  0.4778727E+02  0.7816164E-02  0.1312668E+00
        -11   -1    0    0    0    0  0.00000000000E+00  0.00000000000E+00  0.45593999997E+02  0.45594000000E+02  0.51100000000E-03 0. -1.
         11   -1    0    0    0    0 -0.00000000000E+00 -0.00000000000E+00 -0.45593999997E+02  0.45594000000E+02  0.51100000000E-03 0.  1.
    9900012    2    1    2    0    0 -0.91408887058E+01  0.39082257609E+02  0.16511960694E+02  0.47787267839E+02  0.19999985386E+02 0.  0.
        -12    1    1    2    0    0  0.91408887058E+01 -0.39082257609E+02 -0.16511960694E+02  0.43400732161E+02  0.00000000000E+00 0.  1.
         11    1    3    3    0    0 -0.34938326897E+00  0.18656554633E+02 -0.65433078619E+00  0.18671294772E+02  0.51100000000E-03 0. -1.
        -11    1    3    3    0    0 -0.82447004537E+01  0.16159691624E+02  0.98860515621E+01  0.20660221071E+02  0.51100000000E-03 0.  1.
         12    1    3    3    0    0 -0.54680498308E+00  0.42660113518E+01  0.72802399184E+01  0.84557519957E+01  0.00000000000E+00 0. -1.
</event>
<event>
 7    1  0.2655656E-009  0.4778728E+02  0.7816164E-02  0.1312668E+00
        -11   -1    0    0    0    0  0.00000000000E+00  0.00000000000E+00  0.45593999997E+02  0.45594000000E+02  0.51100000000E-03 0.  1.
         11   -1    0    0    0    0 -0.00000000000E+00 -0.00000000000E+00 -0.45593999997E+02  0.45594000000E+02  0.51100000000E-03 0. -1.
    9900012    2    1    2    0    0 -0.41789302935E+02  0.73178143926E+01 -0.91501970888E+01  0.47787281642E+02  0.20000048316E+02 0.  0.
        -12    1    1    2    0    0  0.41789302935E+02 -0.73178143926E+01  0.91501970888E+01  0.43400718358E+02  0.00000000000E+00 0.  1.
         11    1    3    3    0    0 -0.13202828906E+02  0.60667397563E+01  0.78842588550E+00  0.14551344887E+02  0.51100000000E-03 0. -1.
        -11    1    3    3    0    0 -0.28549685226E+02 -0.15280597377E+01 -0.75486126482E+01  0.29570273016E+02  0.51100000000E-03 0.  1.
        -12    1    3    3    0    0 -0.36788803185E-01  0.27791343740E+01 -0.23900103262E+01  0.36656637386E+01  0.00000000000E+00 0.  1.
</event>
<event>
 7    1  0.2655656E-009  0.4778727E+02  0.7816164E-02  0.1312668E+00
        -11   -1    0    0    0    0  0.00000000000E+00  0.00000000000E+00  0.45593999997E+02  0.45594000000E+02  0.51100000000E-03 0.  1.
         11   -1    0    0    0    0 -0.00000000000E+00 -0.00000000000E+00 -0.45593999997E+02  0.45594000000E+02  0.51100000000E-03 0. -1.
    9900012    2    1    2    0    0 -0.20243240076E+02  0.23118712240E+02 -0.30648969491E+02  0.47787274715E+02  0.20000016736E+02 0.  0.
        -12    1    1    2    0    0  0.20243240076E+02 -0.23118712240E+02  0.30648969491E+02  0.43400725285E+02  0.00000000000E+00 0.  1.
         11    1    3    3    0    0 -0.88637311714E+01  0.13142981040E+02 -0.17059107461E+02  0.23287696935E+02  0.51100000000E-03 0. -1.
        -11    1    3    3    0    0 -0.83984144784E+01  0.75685992562E+01 -0.10117411219E+01  0.11350800889E+02  0.51100000000E-03 0.  1.
        -12    1    3    3    0    0 -0.29810944263E+01  0.24071319433E+01 -0.12578120908E+02  0.13148776892E+02  0.00000000000E+00 0.  1.
</event>
<event>
 7    1  0.2655656E-009  0.4778727E+02  0.7816164E-02  0.1312668E+00
        -11   -1    0    0    0    0  0.00000000000E+00  0.00000000000E+00  0.45593999997E+02  0.45594000000E+02  0.51100000000E-03 0.  1.
         11   -1    0    0    0    0 -0.00000000000E+00 -0.00000000000E+00 -0.45593999997E+02  0.45594000000E+02  0.51100000000E-03 0. -1.
    9900012    2    1    2    0    0  0.42706302112E+01 -0.25583617278E+02 -0.34797461548E+02  0.47787273213E+02  0.20000009887E+02 0.  0.
        -12    1    1    2    0    0 -0.42706302112E+01  0.25583617278E+02  0.34797461548E+02  0.43400726787E+02  0.00000000000E+00 0.  1.
         11    1    3    3    0    0  0.52920617468E+01 -0.59563406727E+01 -0.99377408330E+01  0.12737448915E+02  0.51100000000E-03 0. -1.
        -11    1    3    3    0    0 -0.42412765202E+00 -0.13788026585E+02 -0.55525439852E+01  0.14870114537E+02  0.51100000000E-03 0.  1.
        -12    1    3    3    0    0 -0.59730388351E+00 -0.58392500199E+01 -0.19307176730E+02  0.20179709760E+02  0.00000000000E+00 0.  1.
</event>
<event>
 7    1  0.2655656E-009  0.4778726E+02  0.7816164E-02  0.1312668E+00
        -11   -1    0    0    0    0  0.00000000000E+00  0.00000000000E+00  0.45593999997E+02  0.45594000000E+02  0.51100000000E-03 0.  1.
         11   -1    0    0    0    0 -0.00000000000E+00 -0.00000000000E+00 -0.45593999997E+02  0.45594000000E+02  0.51100000000E-03 0. -1.
    9900012    2    1    2    0    0 -0.10515104742E+02 -0.16528697478E+02 -0.38728008877E+02  0.47787263375E+02  0.19999965030E+02 0.  0.
        -12    1    1    2    0    0  0.10515104742E+02  0.16528697478E+02  0.38728008877E+02  0.43400736625E+02  0.00000000000E+00 0.  1.
         11    1    3    3    0    0 -0.51501097194E+01 -0.79055669271E+01 -0.21193094730E+02  0.23198467257E+02  0.51100000000E-03 0. -1.
        -11    1    3    3    0    0  0.35534951482E+01 -0.20713693925E+01 -0.32238611319E+00  0.41257522945E+01  0.51100000000E-03 0.  1.
        -12    1    3    3    0    0 -0.89184901709E+01 -0.65517611579E+01 -0.17212528034E+02  0.20463043823E+02  0.00000000000E+00 0.  1.
</event>
<event>
 7    1  0.2655656E-009  0.4778727E+02  0.7816164E-02  0.1312668E+00
        -11   -1    0    0    0    0  0.00000000000E+00  0.00000000000E+00  0.45593999997E+02  0.45594000000E+02  0.51100000000E-03 0.  1.
         11   -1    0    0    0    0 -0.00000000000E+00 -0.00000000000E+00 -0.45593999997E+02  0.45594000000E+02  0.51100000000E-03 0. -1.
    9900012    2    1    2    0    0  0.34417989806E+02 -0.51577569847E+01  0.25931111191E+02  0.47787274119E+02  0.20000014018E+02 0.  0.
        -12    1    1    2    0    0 -0.34417989806E+02  0.51577569847E+01 -0.25931111191E+02  0.43400725881E+02  0.00000000000E+00 0.  1.
         11    1    3    3    0    0  0.21276975695E+02  0.44094772699E+01  0.11498563737E+02  0.24583940953E+02  0.51100000000E-03 0. -1.
        -11    1    3    3    0    0  0.10178310654E+02 -0.75767957730E+01  0.14936610946E+02  0.19598678240E+02  0.51100000000E-03 0.  1.
        -12    1    3    3    0    0  0.29627034576E+01 -0.19904384816E+01 -0.50406349243E+00  0.36046549254E+01  0.00000000000E+00 0.  1.
</event>
<event>
 7    1  0.2655656E-009  0.4778727E+02  0.7816164E-02  0.1312668E+00
        -11   -1    0    0    0    0  0.00000000000E+00  0.00000000000E+00  0.45593999997E+02  0.45594000000E+02  0.51100000000E-03 0. -1.
         11   -1    0    0    0    0 -0.00000000000E+00 -0.00000000000E+00 -0.45593999997E+02  0.45594000000E+02  0.51100000000E-03 0.  1.
    9900012    2    1    2    0    0  0.34707205157E+02 -0.12603842828E+01  0.26027762367E+02  0.47787273368E+02  0.20000010593E+02 0.  0.
        -12    1    1    2    0    0 -0.34707205157E+02  0.12603842828E+01 -0.26027762367E+02  0.43400726632E+02  0.00000000000E+00 0.  1.
         11    1    3    3    0    0  0.23399383850E+02 -0.49363705063E+01  0.14736879574E+02  0.28090470594E+02  0.51100000000E-03 0. -1.
        -11    1    3    3    0    0 -0.16207917187E+01 -0.11987140648E+01  0.28987119697E+01  0.35307807280E+01  0.51100000000E-03 0.  1.
        -12    1    3    3    0    0  0.12928613026E+02  0.48747002882E+01  0.83921708233E+01  0.16166022046E+02  0.00000000000E+00 0.  1.
</event>
<event>
 7    1  0.2655656E-009  0.4778728E+02  0.7816164E-02  0.1312668E+00
        -11   -1    0    0    0    0  0.00000000000E+00  0.00000000000E+00  0.45593999997E+02  0.45594000000E+02  0.51100000000E-03 0.  1.
         11   -1    0    0    0    0 -0.00000000000E+00 -0.00000000000E+00 -0.45593999997E+02  0.45594000000E+02  0.51100000000E-03 0. -1.
    9900012    2    1    2    0    0  0.25048509160E+02  0.37877963403E+01 -0.35239858977E+02  0.47787275663E+02  0.20000021060E+02 0.  0.
        -12    1    1    2    0    0 -0.25048509160E+02 -0.37877963403E+01  0.35239858977E+02  0.43400724337E+02  0.00000000000E+00 0.  1.
         11    1    3    3    0    0  0.22912407474E+02  0.72899701878E+01 -0.34306898915E+02  0.41893739330E+02  0.51100000000E-03 0. -1.
        -11    1    3    3    0    0  0.10931791774E+01 -0.29253100808E+01 -0.24464841054E+01  0.39670851417E+01  0.51100000000E-03 0.  1.
         12    1    3    3    0    0  0.10429225086E+01 -0.57686376672E+00  0.15135240438E+01  0.19264511921E+01  0.00000000000E+00 0. -1.
</event>
<event>
 7    1  0.2655656E-009  0.4778726E+02  0.7816164E-02  0.1312668E+00
        -11   -1    0    0    0    0  0.00000000000E+00  0.00000000000E+00  0.45593999997E+02  0.45594000000E+02  0.51100000000E-03 0. -1.
         11   -1    0    0    0    0 -0.00000000000E+00 -0.00000000000E+00 -0.45593999997E+02  0.45594000000E+02  0.51100000000E-03 0.  1.
    9900012    2    1    2    0    0 -0.23786559182E+00  0.32026616789E+02  0.29289301151E+02  0.47787263544E+02  0.19999965804E+02 0.  0.
        -12    1    1    2    0    0  0.23786559182E+00 -0.32026616789E+02 -0.29289301151E+02  0.43400736456E+02  0.00000000000E+00 0.  1.
         11    1    3    3    0    0  0.11446919487E+00  0.10284570128E+02  0.12557854182E+02  0.16232226829E+02  0.51100000000E-03 0. -1.
        -11    1    3    3    0    0 -0.83034403219E+00  0.13399315091E+01 -0.28598834143E+01  0.32655506527E+01  0.51100000000E-03 0.  1.
        -12    1    3    3    0    0  0.47800924551E+00  0.20402115152E+02  0.19591330383E+02  0.28289486062E+02  0.00000000000E+00 0.  1.
</event>
<event>
 7    1  0.2655656E-009  0.4778727E+02  0.7816164E-02  0.1312668E+00
        -11   -1    0    0    0    0  0.00000000000E+00  0.00000000000E+00  0.45593999997E+02  0.45594000000E+02  0.51100000000E-03 0.  1.
         11   -1    0    0    0    0 -0.00000000000E+00 -0.00000000000E+00 -0.45593999997E+02  0.45594000000E+02  0.51100000000E-03 0. -1.
    9900012    2    1    2    0    0  0.80617638402E+01  0.14748077327E+02 -0.40014064063E+02  0.47787272542E+02  0.20000006829E+02 0.  0.
        -12    1    1    2    0    0 -0.80617638402E+01 -0.14748077327E+02  0.40014064063E+02  0.43400727458E+02  0.00000000000E+00 0.  1.
         11    1    3    3    0    0  0.10360359941E+02  0.14522748839E+02 -0.24571773739E+02  0.30364771642E+02  0.51100000000E-03 0. -1.
        -11    1    3    3    0    0 -0.19075531136E+01  0.27866644445E+01 -0.14111028922E+02  0.14509493275E+02  0.51100000000E-03 0.  1.
         12    1    3    3    0    0 -0.39104298745E+00 -0.25613359568E+01 -0.13312614017E+01  0.29130076247E+01  0.00000000000E+00 0. -1.
</event>
<event>
 7    1  0.2655656E-009  0.4778727E+02  0.7816164E-02  0.1312668E+00
        -11   -1    0    0    0    0  0.00000000000E+00  0.00000000000E+00  0.45593999997E+02  0.45594000000E+02  0.51100000000E-03 0. -1.
         11   -1    0    0    0    0 -0.00000000000E+00 -0.00000000000E+00 -0.45593999997E+02  0.45594000000E+02  0.51100000000E-03 0.  1.
    9900012    2    1    2    0    0 -0.17162642824E+02  0.33456219631E+02  0.21673689707E+02  0.47787265372E+02  0.19999974137E+02 0.  0.
        -12    1    1    2    0    0  0.17162642824E+02 -0.33456219631E+02 -0.21673689707E+02  0.43400734628E+02  0.00000000000E+00 0.  1.
         11    1    3    3    0    0 -0.13085973224E+02  0.29140111713E+02  0.10622727882E+02  0.33663498835E+02  0.51100000000E-03 0. -1.
        -11    1    3    3    0    0  0.12770669310E+01 -0.26703391289E+00  0.37756192173E+01  0.39946849428E+01  0.51100000000E-03 0.  1.
         12    1    3    3    0    0 -0.53537365315E+01  0.45831418310E+01  0.72753426072E+01  0.10129081594E+02  0.00000000000E+00 0. -1.
</event>
<event>
 7    1  0.2655656E-009  0.4778729E+02  0.7816164E-02  0.1312668E+00
        -11   -1    0    0    0    0  0.00000000000E+00  0.00000000000E+00  0.45593999997E+02  0.45594000000E+02  0.51100000000E-03 0. -1.
         11   -1    0    0    0    0 -0.00000000000E+00 -0.00000000000E+00 -0.45593999997E+02  0.45594000000E+02  0.51100000000E-03 0.  1.
    9900012    2    1    2    0    0 -0.25150662542E+02  0.41404689242E+01  0.35127225594E+02  0.47787293933E+02  0.20000104357E+02 0.  0.
        -12    1    1    2    0    0  0.25150662542E+02 -0.41404689242E+01 -0.35127225594E+02  0.43400706067E+02  0.00000000000E+00 0.  1.
         11    1    3    3    0    0 -0.10665215046E+02 -0.42647641412E+01  0.17372009318E+02  0.20825986967E+02  0.51100000000E-03 0. -1.
        -11    1    3    3    0    0 -0.42234768903E+01  0.25403173476E+01 -0.76819490231E+00  0.49880951212E+01  0.51100000000E-03 0.  1.
         12    1    3    3    0    0 -0.10261970606E+02  0.58649157177E+01  0.18523411178E+02  0.21973211845E+02  0.00000000000E+00 0. -1.
</event>
<event>
 7    1  0.2655656E-009  0.4778727E+02  0.7816164E-02  0.1312668E+00
        -11   -1    0    0    0    0  0.00000000000E+00  0.00000000000E+00  0.45593999997E+02  0.45594000000E+02  0.51100000000E-03 0. -1.
         11   -1    0    0    0    0 -0.00000000000E+00 -0.00000000000E+00 -0.45593999997E+02  0.45594000000E+02  0.51100000000E-03 0.  1.
    9900012    2    1    2    0    0  0.23063189798E+01  0.30537767971E+02  0.30753038606E+02  0.47787265405E+02  0.19999974286E+02 0.  0.
        -12    1    1    2    0    0 -0.23063189798E+01 -0.30537767971E+02 -0.30753038606E+02  0.43400734595E+02  0.00000000000E+00 0.  1.
         11    1    3    3    0    0  0.16358912123E+01  0.94389397961E+01  0.17125331129E+02  0.19622606633E+02  0.51100000000E-03 0. -1.
        -11    1    3    3    0    0  0.42593726087E+01  0.20294941679E+02  0.10090152101E+02  0.23061614914E+02  0.51100000000E-03 0.  1.
         12    1    3    3    0    0 -0.35889448413E+01  0.80388649616E+00  0.35375553761E+01  0.51030438575E+01  0.00000000000E+00 0. -1.
</event>
<event>
 7    1  0.2655656E-009  0.4778727E+02  0.7816164E-02  0.1312668E+00
        -11   -1    0    0    0    0  0.00000000000E+00  0.00000000000E+00  0.45593999997E+02  0.45594000000E+02  0.51100000000E-03 0.  1.
         11   -1    0    0    0    0 -0.00000000000E+00 -0.00000000000E+00 -0.45593999997E+02  0.45594000000E+02  0.51100000000E-03 0. -1.
    9900012    2    1    2    0    0  0.35645217714E+02  0.82620721271E+01 -0.23340521325E+02  0.47787270543E+02  0.19999997712E+02 0.  0.
        -12    1    1    2    0    0 -0.35645217714E+02 -0.82620721271E+01  0.23340521325E+02  0.43400729457E+02  0.00000000000E+00 0.  1.
         11    1    3    3    0    0  0.13499682651E+02  0.26716977749E+00 -0.57915256268E+01  0.14691990359E+02  0.51100000000E-03 0. -1.
        -11    1    3    3    0    0  0.16335600453E+02  0.11663880917E+02 -0.86619066987E+01  0.21861532154E+02  0.51100000000E-03 0.  1.
        -12    1    3    3    0    0  0.58099346101E+01 -0.36689785674E+01 -0.88870889998E+01  0.11233748030E+02  0.00000000000E+00 0.  1.
</event>
<event>
 7    1  0.2655656E-009  0.4778726E+02  0.7816164E-02  0.1312668E+00
        -11   -1    0    0    0    0  0.00000000000E+00  0.00000000000E+00  0.45593999997E+02  0.45594000000E+02  0.51100000000E-03 0. -1.
         11   -1    0    0    0    0 -0.00000000000E+00 -0.00000000000E+00 -0.45593999997E+02  0.45594000000E+02  0.51100000000E-03 0.  1.
    9900012    2    1    2    0    0 -0.15587491593E+02 -0.33611263256E+01  0.40365292497E+02  0.47787263800E+02  0.19999966971E+02 0.  0.
        -12    1    1    2    0    0  0.15587491593E+02  0.33611263256E+01 -0.40365292497E+02  0.43400736200E+02  0.00000000000E+00 0.  1.
         11    1    3    3    0    0 -0.13998178924E+02 -0.72568960609E+01  0.31656536465E+02  0.35365913743E+02  0.51100000000E-03 0. -1.
        -11    1    3    3    0    0  0.17696809307E+01  0.28169297651E+01  0.82098639228E+01  0.88582577175E+01  0.51100000000E-03 0.  1.
        -12    1    3    3    0    0 -0.33589936002E+01  0.10788399702E+01  0.49889210829E+00  0.35630923400E+01  0.00000000000E+00 0.  1.
</event>
<event>
 7    1  0.2655656E-009  0.4778727E+02  0.7816164E-02  0.1312668E+00
        -11   -1    0    0    0    0  0.00000000000E+00  0.00000000000E+00  0.45593999997E+02  0.45594000000E+02  0.51100000000E-03 0. -1.
         11   -1    0    0    0    0 -0.00000000000E+00 -0.00000000000E+00 -0.45593999997E+02  0.45594000000E+02  0.51100000000E-03 0.  1.
    9900012    2    1    2    0    0  0.39409092373E+02  0.15192150672E+02 -0.99872615698E+01  0.47787269622E+02  0.19999993512E+02 0.  0.
        -12    1    1    2    0    0 -0.39409092373E+02 -0.15192150672E+02  0.99872615698E+01  0.43400730378E+02  0.00000000000E+00 0.  1.
         11    1    3    3    0    0  0.20995517849E+02  0.11656953286E+02 -0.91195844301E+01  0.25687801582E+02  0.51100000000E-03 0. -1.
        -11    1    3    3    0    0  0.27885396457E+01  0.20578454191E+01  0.43485490608E+01  0.55606258928E+01  0.51100000000E-03 0.  1.
         12    1    3    3    0    0  0.15625034878E+02  0.14773519667E+01 -0.52162262005E+01  0.16538842147E+02  0.00000000000E+00 0. -1.
</event>
<event>
 7    1  0.2655656E-009  0.4778727E+02  0.7816164E-02  0.1312668E+00
        -11   -1    0    0    0    0  0.00000000000E+00  0.00000000000E+00  0.45593999997E+02  0.45594000000E+02  0.51100000000E-03 0.  1.
         11   -1    0    0    0    0 -0.00000000000E+00 -0.00000000000E+00 -0.45593999997E+02  0.45594000000E+02  0.51100000000E-03 0. -1.
    9900012    2    1    2    0    0 -0.15155302425E+02  0.35757823497E+02 -0.19373133929E+02  0.47787269003E+02  0.19999990692E+02 0.  0.
        -12    1    1    2    0    0  0.15155302425E+02 -0.35757823497E+02  0.19373133929E+02  0.43400730997E+02  0.00000000000E+00 0.  1.
         11    1    3    3    0    0 -0.81460811746E+01  0.23396224815E+01 -0.57654654016E+00  0.84949913498E+01  0.51100000000E-03 0. -1.
        -11    1    3    3    0    0  0.41827364324E+00  0.25017443026E+01 -0.42984308897E+00  0.25726334248E+01  0.51100000000E-03 0.  1.
         12    1    3    3    0    0 -0.74274948940E+01  0.30916456713E+02 -0.18366744300E+02  0.36719644228E+02  0.00000000000E+00 0. -1.
</event>
<event>
 7    1  0.2655656E-009  0.4778729E+02  0.7816164E-02  0.1312668E+00
        -11   -1    0    0    0    0  0.00000000000E+00  0.00000000000E+00  0.45593999997E+02  0.45594000000E+02  0.51100000000E-03 0.  1.
         11   -1    0    0    0    0 -0.00000000000E+00 -0.00000000000E+00 -0.45593999997E+02  0.45594000000E+02  0.51100000000E-03 0. -1.
    9900012    2    1    2    0    0  0.14364343842E+02 -0.14387621573E+02 -0.38344278373E+02  0.47787289033E+02  0.20000082016E+02 0.  0.
        -12    1    1    2    0    0 -0.14364343842E+02  0.14387621573E+02  0.38344278373E+02  0.43400710967E+02  0.00000000000E+00 0.  1.
         11    1    3    3    0    0  0.97896791335E+01 -0.88521393079E+01 -0.34442288551E+02  0.36884541867E+02  0.51100000000E-03 0. -1.
        -11    1    3    3    0    0  0.34050105359E+01 -0.72942321564E+01 -0.28194589165E+01  0.85293181641E+01  0.51100000000E-03 0.  1.
         12    1    3    3    0    0  0.11696541724E+01  0.17587498916E+01 -0.10825309052E+01  0.23734290015E+01  0.00000000000E+00 0. -1.
</event>
<event>
 7    1  0.2655656E-009  0.4778728E+02  0.7816164E-02  0.1312668E+00
        -11   -1    0    0    0    0  0.00000000000E+00  0.00000000000E+00  0.45593999997E+02  0.45594000000E+02  0.51100000000E-03 0.  1.
         11   -1    0    0    0    0 -0.00000000000E+00 -0.00000000000E+00 -0.45593999997E+02  0.45594000000E+02  0.51100000000E-03 0. -1.
    9900012    2    1    2    0    0  0.14941982724E+02 -0.18110532923E+02 -0.36501621760E+02  0.47787278328E+02  0.20000033210E+02 0.  0.
        -12    1    1    2    0    0 -0.14941982724E+02  0.18110532923E+02  0.36501621760E+02  0.43400721672E+02  0.00000000000E+00 0.  1.
         11    1    3    3    0    0  0.47735606100E+01 -0.14176055621E+02 -0.23320369231E+02  0.27705361489E+02  0.51100000000E-03 0. -1.
        -11    1    3    3    0    0  0.89012106258E+01 -0.53339751249E+01 -0.46977264372E+01  0.11390850503E+02  0.51100000000E-03 0.  1.
        -12    1    3    3    0    0  0.12672114885E+01  0.13994978235E+01 -0.84835260923E+01  0.86910663369E+01  0.00000000000E+00 0.  1.
</event>
<event>
 7    1  0.2655656E-009  0.4778727E+02  0.7816164E-02  0.1312668E+00
        -11   -1    0    0    0    0  0.00000000000E+00  0.00000000000E+00  0.45593999997E+02  0.45594000000E+02  0.51100000000E-03 0.  1.
         11   -1    0    0    0    0 -0.00000000000E+00 -0.00000000000E+00 -0.45593999997E+02  0.45594000000E+02  0.51100000000E-03 0. -1.
    9900012    2    1    2    0    0 -0.30780199902E+02  0.22946904609E+02 -0.20239626479E+02  0.47787267090E+02  0.19999981969E+02 0.  0.
        -12    1    1    2    0    0  0.30780199902E+02 -0.22946904609E+02  0.20239626479E+02  0.43400732910E+02  0.00000000000E+00 0.  1.
         11    1    3    3    0    0 -0.20374819810E+02  0.15619858565E+02 -0.13109215871E+02  0.28826460152E+02  0.51100000000E-03 0. -1.
        -11    1    3    3    0    0 -0.31884740263E+01 -0.24790605963E+01  0.11939695427E+01  0.42116115189E+01  0.51100000000E-03 0.  1.
         12    1    3    3    0    0 -0.72169060649E+01  0.98061066407E+01 -0.83243801511E+01  0.14749195419E+02  0.00000000000E+00 0. -1.
</event>
<event>
 7    1  0.2655656E-009  0.4778727E+02  0.7816164E-02  0.1312668E+00
        -11   -1    0    0    0    0  0.00000000000E+00  0.00000000000E+00  0.45593999997E+02  0.45594000000E+02  0.51100000000E-03 0. -1.
         11   -1    0    0    0    0 -0.00000000000E+00 -0.00000000000E+00 -0.45593999997E+02  0.45594000000E+02  0.51100000000E-03 0.  1.
    9900012    2    1    2    0    0  0.38929812500E+02  0.13417854325E+02 -0.13713282896E+02  0.47787271391E+02  0.20000001581E+02 0.  0.
        -12    1    1    2    0    0 -0.38929812500E+02 -0.13417854325E+02  0.13713282896E+02  0.43400728609E+02  0.00000000000E+00 0.  1.
         11    1    3    3    0    0  0.20718607794E+02  0.12502971759E+02 -0.42574859897E+01  0.24570535178E+02  0.51100000000E-03 0. -1.
        -11    1    3    3    0    0  0.19603782358E+02  0.12915517146E+00 -0.87932433437E+01  0.21485951051E+02  0.51100000000E-03 0.  1.
        -12    1    3    3    0    0 -0.13925776518E+01  0.78572739453E+00 -0.66255356224E+00  0.17307851622E+01  0.00000000000E+00 0.  1.
</event>
<event>
 7    1  0.2655656E-009  0.4778727E+02  0.7816164E-02  0.1312668E+00
        -11   -1    0    0    0    0  0.00000000000E+00  0.00000000000E+00  0.45593999997E+02  0.45594000000E+02  0.51100000000E-03 0.  1.
         11   -1    0    0    0    0 -0.00000000000E+00 -0.00000000000E+00 -0.45593999997E+02  0.45594000000E+02  0.51100000000E-03 0. -1.
    9900012    2    1    2    0    0 -0.66029034912E+00 -0.25246338209E+02  0.35296036773E+02  0.47787265119E+02  0.19999972985E+02 0.  0.
        -12    1    1    2    0    0  0.66029034912E+00  0.25246338209E+02 -0.35296036773E+02  0.43400734881E+02  0.00000000000E+00 0.  1.
         11    1    3    3    0    0 -0.67891216026E+00 -0.92198770068E+01  0.90389974908E+01  0.12929444290E+02  0.51100000000E-03 0. -1.
        -11    1    3    3    0    0  0.68713469232E+01 -0.11901778458E+02  0.21603470534E+02  0.25604251178E+02  0.51100000000E-03 0.  1.
        -12    1    3    3    0    0 -0.68527251121E+01 -0.41246827439E+01  0.46535687481E+01  0.92535696514E+01  0.00000000000E+00 0.  1.
</event>
<event>
 7    1  0.2655656E-009  0.4778727E+02  0.7816164E-02  0.1312668E+00
        -11   -1    0    0    0    0  0.00000000000E+00  0.00000000000E+00  0.45593999997E+02  0.45594000000E+02  0.51100000000E-03 0. -1.
         11   -1    0    0    0    0 -0.00000000000E+00 -0.00000000000E+00 -0.45593999997E+02  0.45594000000E+02  0.51100000000E-03 0.  1.
    9900012    2    1    2    0    0  0.23931024210E+02 -0.35571268658E+02  0.67538260627E+01  0.47787271433E+02  0.20000001772E+02 0.  0.
        -12    1    1    2    0    0 -0.23931024210E+02  0.35571268658E+02 -0.67538260627E+01  0.43400728567E+02  0.00000000000E+00 0.  1.
         11    1    3    3    0    0  0.71145146351E+01 -0.89296491463E+01  0.46727367686E+01  0.12336507672E+02  0.51100000000E-03 0. -1.
        -11    1    3    3    0    0  0.64593813567E+01 -0.22302185349E+02  0.52047081415E+01  0.23794958835E+02  0.51100000000E-03 0.  1.
        -12    1    3    3    0    0  0.10357128218E+02 -0.43394341622E+01 -0.31236188474E+01  0.11655804926E+02  0.00000000000E+00 0.  1.
</event>
<event>
 7    1  0.2655656E-009  0.4778733E+02  0.7816164E-02  0.1312667E+00
        -11   -1    0    0    0    0  0.00000000000E+00  0.00000000000E+00  0.45593999997E+02  0.45594000000E+02  0.51100000000E-03 0.  1.
         11   -1    0    0    0    0 -0.00000000000E+00 -0.00000000000E+00 -0.45593999997E+02  0.45594000000E+02  0.51100000000E-03 0. -1.
    9900012    2    1    2    0    0 -0.17486581018E+02  0.23409269694E+02 -0.32091173736E+02  0.47787333472E+02  0.20000284632E+02 0.  0.
        -12    1    1    2    0    0  0.17486581018E+02 -0.23409269694E+02  0.32091173736E+02  0.43400666528E+02  0.00000000000E+00 0.  1.
         11    1    3    3    0    0 -0.15782698765E+02  0.13228774730E+02 -0.12537495314E+02  0.24109808174E+02  0.51100000000E-03 0.  1.
        -11    1    3    3    0    0 -0.32634976379E+01  0.48617013534E+01 -0.16136549587E+02  0.17166094189E+02  0.51100000000E-03 0. -1.
         12    1    3    3    0    0  0.15596153846E+01  0.53187936110E+01 -0.34171288345E+01  0.65114311097E+01  0.00000000000E+00 0. -1.
</event>
<event>
 7    1  0.2655656E-009  0.4778727E+02  0.7816164E-02  0.1312668E+00
        -11   -1    0    0    0    0  0.00000000000E+00  0.00000000000E+00  0.45593999997E+02  0.45594000000E+02  0.51100000000E-03 0.  1.
         11   -1    0    0    0    0 -0.00000000000E+00 -0.00000000000E+00 -0.45593999997E+02  0.45594000000E+02  0.51100000000E-03 0. -1.
    9900012    2    1    2    0    0  0.94303368446E+01 -0.23437499035E+02 -0.35289882842E+02  0.47787269072E+02  0.19999991008E+02 0.  0.
        -12    1    1    2    0    0 -0.94303368446E+01  0.23437499035E+02  0.35289882842E+02  0.43400730928E+02  0.00000000000E+00 0.  1.
         11    1    3    3    0    0 -0.28844998094E+01  0.20744802975E+00 -0.31095275170E+00  0.29086192102E+01  0.51100000000E-03 0. -1.
        -11    1    3    3    0    0  0.90310819848E+01 -0.89736459966E+01 -0.19599568720E+02  0.23371560893E+02  0.51100000000E-03 0.  1.
        -12    1    3    3    0    0  0.32837546691E+01 -0.14671301068E+02 -0.15379361370E+02  0.21507088969E+02  0.00000000000E+00 0.  1.
</event>
<event>
 7    1  0.2655656E-009  0.4778728E+02  0.7816164E-02  0.1312668E+00
        -11   -1    0    0    0    0  0.00000000000E+00  0.00000000000E+00  0.45593999997E+02  0.45594000000E+02  0.51100000000E-03 0. -1.
         11   -1    0    0    0    0 -0.00000000000E+00 -0.00000000000E+00 -0.45593999997E+02  0.45594000000E+02  0.51100000000E-03 0.  1.
    9900012    2    1    2    0    0 -0.34258132039E+02  0.22510698572E+02  0.14257321394E+02  0.47787281408E+02  0.20000047249E+02 0.  0.
        -12    1    1    2    0    0  0.34258132039E+02 -0.22510698572E+02 -0.14257321394E+02  0.43400718592E+02  0.00000000000E+00 0.  1.
         11    1    3    3    0    0 -0.24770356596E+02  0.64334305380E+01  0.55648941875E+01  0.26190220350E+02  0.51100000000E-03 0. -1.
        -11    1    3    3    0    0 -0.12799754603E+01  0.52962242086E+01  0.53605683614E+01  0.76435607844E+01  0.51100000000E-03 0.  1.
         12    1    3    3    0    0 -0.82077999832E+01  0.10781043825E+02  0.33318588451E+01  0.13953500274E+02  0.00000000000E+00 0. -1.
</event>
<event>
 7    1  0.2655656E-009  0.4778728E+02  0.7816164E-02  0.1312668E+00
        -11   -1    0    0    0    0  0.00000000000E+00  0.00000000000E+00  0.45593999997E+02  0.45594000000E+02  0.51100000000E-03 0.  1.
         11   -1    0    0    0    0 -0.00000000000E+00 -0.00000000000E+00 -0.45593999997E+02  0.45594000000E+02  0.51100000000E-03 0. -1.
    9900012    2    1    2    0    0 -0.18028935697E+02  0.71109758337E+01 -0.38833154965E+02  0.47787280833E+02  0.20000044632E+02 0.  0.
        -12    1    1    2    0    0  0.18028935697E+02 -0.71109758337E+01  0.38833154965E+02  0.43400719167E+02  0.00000000000E+00 0.  1.
         11    1    3    3    0    0 -0.71739013088E+01  0.60972661775E+01 -0.12427473467E+02  0.15591138889E+02  0.51100000000E-03 0. -1.
        -11    1    3    3    0    0 -0.85504854437E+01 -0.57308101298E+01 -0.20503375936E+02  0.22942131790E+02  0.51100000000E-03 0.  1.
        -12    1    3    3    0    0 -0.23045489443E+01  0.67445197860E+01 -0.59023055619E+01  0.92540101538E+01  0.00000000000E+00 0.  1.
</event>
<event>
 7    1  0.2655656E-009  0.4778726E+02  0.7816164E-02  0.1312668E+00
        -11   -1    0    0    0    0  0.00000000000E+00  0.00000000000E+00  0.45593999997E+02  0.45594000000E+02  0.51100000000E-03 0. -1.
         11   -1    0    0    0    0 -0.00000000000E+00 -0.00000000000E+00 -0.45593999997E+02  0.45594000000E+02  0.51100000000E-03 0.  1.
    9900012    2    1    2    0    0  0.23820472121E+02  0.16987180139E+02  0.32056898176E+02  0.47787263810E+02  0.19999967017E+02 0.  0.
        -12    1    1    2    0    0 -0.23820472121E+02 -0.16987180139E+02 -0.32056898176E+02  0.43400736190E+02  0.00000000000E+00 0.  1.
         11    1    3    3    0    0  0.16692837980E+02  0.17711916173E+02  0.19246827963E+02  0.31029070261E+02  0.51100000000E-03 0. -1.
        -11    1    3    3    0    0  0.62694499904E+01 -0.18695758151E+00  0.13912601961E+02  0.15261109065E+02  0.51100000000E-03 0.  1.
        -12    1    3    3    0    0  0.85818415010E+00 -0.53777845318E+00 -0.11025317470E+01  0.14970844844E+01  0.00000000000E+00 0.  1.
</event>
<event>
 7    1  0.2655656E-009  0.4778728E+02  0.7816164E-02  0.1312668E+00
        -11   -1    0    0    0    0  0.00000000000E+00  0.00000000000E+00  0.45593999997E+02  0.45594000000E+02  0.51100000000E-03 0. -1.
         11   -1    0    0    0    0 -0.00000000000E+00 -0.00000000000E+00 -0.45593999997E+02  0.45594000000E+02  0.51100000000E-03 0.  1.
    9900012    2    1    2    0    0  0.21661321203E+02  0.34206567716E+02  0.15630762491E+02  0.47787275960E+02  0.20000022410E+02 0.  0.
        -12    1    1    2    0    0 -0.21661321203E+02 -0.34206567716E+02 -0.15630762491E+02  0.43400724040E+02  0.00000000000E+00 0.  1.
         11    1    3    3    0    0  0.66880524376E+00  0.96793650031E+01 -0.32276394816E+01  0.10225217074E+02  0.51100000000E-03 0. -1.
        -11    1    3    3    0    0  0.82296681710E+01  0.95012715372E+01  0.93997519605E+01  0.15695761728E+02  0.51100000000E-03 0.  1.
         12    1    3    3    0    0  0.12762847789E+02  0.15025931175E+02  0.94586500124E+01  0.21866297158E+02  0.00000000000E+00 0. -1.
</event>
<event>
 7    1  0.2655656E-009  0.4778727E+02  0.7816164E-02  0.1312668E+00
        -11   -1    0    0    0    0  0.00000000000E+00  0.00000000000E+00  0.45593999997E+02  0.45594000000E+02  0.51100000000E-03 0.  1.
         11   -1    0    0    0    0 -0.00000000000E+00 -0.00000000000E+00 -0.45593999997E+02  0.45594000000E+02  0.51100000000E-03 0. -1.
    9900012    2    1    2    0    0  0.63740279584E+01 -0.42908399471E+02  0.13653531935E+01  0.47787272277E+02  0.20000005618E+02 0.  0.
        -12    1    1    2    0    0 -0.63740279584E+01  0.42908399471E+02 -0.13653531935E+01  0.43400727723E+02  0.00000000000E+00 0.  1.
         11    1    3    3    0    0  0.39599006938E+01 -0.18226467274E+02 -0.71895395034E+01  0.19989357201E+02  0.51100000000E-03 0. -1.
        -11    1    3    3    0    0 -0.26678321423E+01 -0.12864082209E+02  0.17772332483E+01  0.13257469505E+02  0.51100000000E-03 0.  1.
         12    1    3    3    0    0  0.50819594069E+01 -0.11817849989E+02  0.67776594486E+01  0.14540445570E+02  0.00000000000E+00 0. -1.
</event>
<event>
 7    1  0.2655656E-009  0.4778727E+02  0.7816164E-02  0.1312668E+00
        -11   -1    0    0    0    0  0.00000000000E+00  0.00000000000E+00  0.45593999997E+02  0.45594000000E+02  0.51100000000E-03 0.  1.
         11   -1    0    0    0    0 -0.00000000000E+00 -0.00000000000E+00 -0.45593999997E+02  0.45594000000E+02  0.51100000000E-03 0. -1.
    9900012    2    1    2    0    0 -0.15938119443E+02  0.33048596330E+02 -0.23181670698E+02  0.47787271583E+02  0.20000002455E+02 0.  0.
        -12    1    1    2    0    0  0.15938119443E+02 -0.33048596330E+02  0.23181670698E+02  0.43400728417E+02  0.00000000000E+00 0.  1.
         11    1    3    3    0    0 -0.35127631496E+01  0.14822798052E+02 -0.16525585590E+02  0.22475538400E+02  0.51100000000E-03 0. -1.
        -11    1    3    3    0    0  0.12078910662E+01  0.58093195826E+01 -0.23033161401E+01  0.63649399324E+01  0.51100000000E-03 0.  1.
         12    1    3    3    0    0 -0.13633247360E+02  0.12416478695E+02 -0.43527689686E+01  0.18946793250E+02  0.00000000000E+00 0. -1.
</event>
<event>
 7    1  0.2655656E-009  0.4778727E+02  0.7816164E-02  0.1312668E+00
        -11   -1    0    0    0    0  0.00000000000E+00  0.00000000000E+00  0.45593999997E+02  0.45594000000E+02  0.51100000000E-03 0.  1.
         11   -1    0    0    0    0 -0.00000000000E+00 -0.00000000000E+00 -0.45593999997E+02  0.45594000000E+02  0.51100000000E-03 0. -1.
    9900012    2    1    2    0    0  0.18745005552E+02 -0.21037269627E+02 -0.33010326049E+02  0.47787267605E+02  0.19999984320E+02 0.  0.
        -12    1    1    2    0    0 -0.18745005552E+02  0.21037269627E+02  0.33010326049E+02  0.43400732395E+02  0.00000000000E+00 0.  1.
         11    1    3    3    0    0  0.37615734681E+01 -0.13498539916E+02 -0.10377367699E+02  0.17437023124E+02  0.51100000000E-03 0. -1.
        -11    1    3    3    0    0  0.16853522018E+02 -0.63785829394E+01 -0.20184088709E+02  0.27057807782E+02  0.51100000000E-03 0.  1.
         12    1    3    3    0    0 -0.18700899341E+01 -0.11601467717E+01 -0.24488696422E+01  0.32924366991E+01  0.00000000000E+00 0. -1.
</event>
<event>
 7    1  0.2655656E-009  0.4778727E+02  0.7816164E-02  0.1312668E+00
        -11   -1    0    0    0    0  0.00000000000E+00  0.00000000000E+00  0.45593999997E+02  0.45594000000E+02  0.51100000000E-03 0. -1.
         11   -1    0    0    0    0 -0.00000000000E+00 -0.00000000000E+00 -0.45593999997E+02  0.45594000000E+02  0.51100000000E-03 0.  1.
    9900012    2    1    2    0    0 -0.26849142521E+02  0.12252672444E+02 -0.31821674116E+02  0.47787269826E+02  0.19999994443E+02 0.  0.
        -12    1    1    2    0    0  0.26849142521E+02 -0.12252672444E+02  0.31821674116E+02  0.43400730174E+02  0.00000000000E+00 0.  1.
         11    1    3    3    0    0 -0.15544809890E+02  0.11671526672E+02 -0.95419110285E+01  0.21654415617E+02  0.51100000000E-03 0. -1.
        -11    1    3    3    0    0 -0.11227100164E+02  0.81794856124E+00 -0.22871070435E+02  0.25491227531E+02  0.51100000000E-03 0.  1.
        -12    1    3    3    0    0 -0.77232467820E-01 -0.23680278917E+00  0.59130734743E+00  0.64162667819E+00  0.00000000000E+00 0.  1.
</event>
<event>
 7    1  0.2655656E-009  0.4778728E+02  0.7816164E-02  0.1312668E+00
        -11   -1    0    0    0    0  0.00000000000E+00  0.00000000000E+00  0.45593999997E+02  0.45594000000E+02  0.51100000000E-03 0. -1.
         11   -1    0    0    0    0 -0.00000000000E+00 -0.00000000000E+00 -0.45593999997E+02  0.45594000000E+02  0.51100000000E-03 0.  1.
    9900012    2    1    2    0    0  0.41201601339E+02 -0.12605679725E+02 -0.52103549866E+01  0.47787275198E+02  0.20000018937E+02 0.  0.
        -12    1    1    2    0    0 -0.41201601339E+02  0.12605679725E+02  0.52103549866E+01  0.43400724802E+02  0.00000000000E+00 0.  1.
         11    1    3    3    0    0  0.24652949593E+02 -0.12525396422E+02  0.31913186228E+00  0.27654209889E+02  0.51100000000E-03 0. -1.
        -11    1    3    3    0    0  0.73714164491E+00  0.16482928555E+01  0.18620838507E+01  0.25937624545E+01  0.51100000000E-03 0.  1.
         12    1    3    3    0    0  0.15811510101E+02 -0.17285761588E+01 -0.73915706996E+01  0.17539302855E+02  0.00000000000E+00 0. -1.
</event>
<event>
 7    1  0.2655656E-009  0.4778727E+02  0.7816164E-02  0.1312668E+00
        -11   -1    0    0    0    0  0.00000000000E+00  0.00000000000E+00  0.45593999997E+02  0.45594000000E+02  0.51100000000E-03 0.  1.
         11   -1    0    0    0    0 -0.00000000000E+00 -0.00000000000E+00 -0.45593999997E+02  0.45594000000E+02  0.51100000000E-03 0. -1.
    9900012    2    1    2    0    0  0.86859252584E+01  0.17770103069E+02 -0.38631612069E+02  0.47787270609E+02  0.19999998013E+02 0.  0.
        -12    1    1    2    0    0 -0.86859252584E+01 -0.17770103069E+02  0.38631612069E+02  0.43400729391E+02  0.00000000000E+00 0.  1.
         11    1    3    3    0    0  0.86407279700E+01 -0.13611766768E+01 -0.11396983525E+02  0.14366844314E+02  0.51100000000E-03 0. -1.
        -11    1    3    3    0    0  0.69254151157E+00  0.18258217312E+02 -0.25960506482E+02  0.31745708532E+02  0.51100000000E-03 0.  1.
         12    1    3    3    0    0 -0.64734422308E+00  0.87306243335E+00 -0.12741220615E+01  0.16747177623E+01  0.00000000000E+00 0. -1.
</event>
<event>
 7    1  0.2655656E-009  0.4778727E+02  0.7816164E-02  0.1312668E+00
        -11   -1    0    0    0    0  0.00000000000E+00  0.00000000000E+00  0.45593999997E+02  0.45594000000E+02  0.51100000000E-03 0. -1.
         11   -1    0    0    0    0 -0.00000000000E+00 -0.00000000000E+00 -0.45593999997E+02  0.45594000000E+02  0.51100000000E-03 0.  1.
    9900012    2    1    2    0    0  0.19383664086E+02 -0.25303337346E+02  0.29455691687E+02  0.47787273197E+02  0.20000009814E+02 0.  0.
        -12    1    1    2    0    0 -0.19383664086E+02  0.25303337346E+02 -0.29455691687E+02  0.43400726803E+02  0.00000000000E+00 0.  1.
         11    1    3    3    0    0 -0.14059377571E+01 -0.10230335340E+02  0.89854709332E+01  0.13688502851E+02  0.51100000000E-03 0. -1.
        -11    1    3    3    0    0  0.37894531328E+01 -0.39165909372E+01  0.30037623513E+00  0.54580093220E+01  0.51100000000E-03 0.  1.
         12    1    3    3    0    0  0.17000148710E+02 -0.11156411069E+02  0.20169844519E+02  0.28640761024E+02  0.00000000000E+00 0. -1.
</event>
<event>
 7    1  0.2655656E-009  0.4778727E+02  0.7816164E-02  0.1312668E+00
        -11   -1    0    0    0    0  0.00000000000E+00  0.00000000000E+00  0.45593999997E+02  0.45594000000E+02  0.51100000000E-03 0.  1.
         11   -1    0    0    0    0 -0.00000000000E+00 -0.00000000000E+00 -0.45593999997E+02  0.45594000000E+02  0.51100000000E-03 0. -1.
    9900012    2    1    2    0    0  0.25278164151E+02 -0.39372412039E+00 -0.35277227223E+02  0.47787270028E+02  0.19999995367E+02 0.  0.
        -12    1    1    2    0    0 -0.25278164151E+02  0.39372412039E+00  0.35277227223E+02  0.43400729972E+02  0.00000000000E+00 0.  1.
         11    1    3    3    0    0  0.24349243087E+02 -0.10616822529E+01 -0.33316344974E+02  0.41279433751E+02  0.51100000000E-03 0. -1.
        -11    1    3    3    0    0  0.82706004408E+00 -0.24547202189E+01  0.36080725096E+00  0.26153129455E+01  0.51100000000E-03 0.  1.
         12    1    3    3    0    0  0.10186101990E+00  0.31226783514E+01 -0.23216894995E+01  0.38925233314E+01  0.00000000000E+00 0. -1.
</event>
<event>
 7    1  0.2655656E-009  0.4778727E+02  0.7816164E-02  0.1312668E+00
        -11   -1    0    0    0    0  0.00000000000E+00  0.00000000000E+00  0.45593999997E+02  0.45594000000E+02  0.51100000000E-03 0.  1.
         11   -1    0    0    0    0 -0.00000000000E+00 -0.00000000000E+00 -0.45593999997E+02  0.45594000000E+02  0.51100000000E-03 0. -1.
    9900012    2    1    2    0    0 -0.73870574104E+00  0.43097068790E+02  0.50714827237E+01  0.47787274644E+02  0.20000016410E+02 0.  0.
        -12    1    1    2    0    0  0.73870574104E+00 -0.43097068790E+02 -0.50714827237E+01  0.43400725356E+02  0.00000000000E+00 0.  1.
         11    1    3    3    0    0 -0.21529088412E+01  0.43056735348E+02  0.54915496008E+01  0.43458883932E+02  0.51100000000E-03 0. -1.
        -11    1    3    3    0    0  0.13019550785E+01 -0.17396508547E+01  0.62531464636E+00  0.22610817745E+01  0.51100000000E-03 0.  1.
        -12    1    3    3    0    0  0.11224802166E+00  0.17799842963E+01 -0.10453815234E+01  0.20673089375E+01  0.00000000000E+00 0.  1.
</event>
<event>
 7    1  0.2655656E-009  0.4778727E+02  0.7816164E-02  0.1312668E+00
        -11   -1    0    0    0    0  0.00000000000E+00  0.00000000000E+00  0.45593999997E+02  0.45594000000E+02  0.51100000000E-03 0. -1.
         11   -1    0    0    0    0 -0.00000000000E+00 -0.00000000000E+00 -0.45593999997E+02  0.45594000000E+02  0.51100000000E-03 0.  1.
    9900012    2    1    2    0    0  0.19732719231E+01 -0.21919303665E+02  0.37406866689E+02  0.47787270159E+02  0.19999995962E+02 0.  0.
        -12    1    1    2    0    0 -0.19732719231E+01  0.21919303665E+02 -0.37406866689E+02  0.43400729841E+02  0.00000000000E+00 0.  1.
         11    1    3    3    0    0  0.42677840426E+01 -0.31771488974E+01  0.26129488888E+01  0.59275423159E+01  0.51100000000E-03 0. -1.
        -11    1    3    3    0    0 -0.50802929940E+01 -0.51545761288E+01  0.21350164820E+02  0.22543481765E+02  0.51100000000E-03 0.  1.
         12    1    3    3    0    0  0.27857808745E+01 -0.13587578639E+02  0.13443752981E+02  0.19316246078E+02  0.00000000000E+00 0. -1.
</event>
<event>
 7    1  0.2655656E-009  0.4778727E+02  0.7816164E-02  0.1312668E+00
        -11   -1    0    0    0    0  0.00000000000E+00  0.00000000000E+00  0.45593999997E+02  0.45594000000E+02  0.51100000000E-03 0.  1.
         11   -1    0    0    0    0 -0.00000000000E+00 -0.00000000000E+00 -0.45593999997E+02  0.45594000000E+02  0.51100000000E-03 0. -1.
    9900012    2    1    2    0    0 -0.39982125290E+02  0.16877085367E+02 -0.46584942760E+00  0.47787269950E+02  0.19999995009E+02 0.  0.
        -12    1    1    2    0    0  0.39982125290E+02 -0.16877085367E+02  0.46584942760E+00  0.43400730050E+02  0.00000000000E+00 0.  1.
         11    1    3    3    0    0 -0.22142109548E+02  0.84592411937E+01  0.74633951273E+01  0.24850232270E+02  0.51100000000E-03 0.  1.
        -11    1    3    3    0    0 -0.33600919812E+01  0.59511217352E+01 -0.25609928477E+01  0.72982705250E+01  0.51100000000E-03 0. -1.
        -12    1    3    3    0    0 -0.14479923761E+02  0.24667224376E+01 -0.53682517073E+01  0.15638767155E+02  0.00000000000E+00 0.  1.
</event>
<event>
 7    1  0.2655656E-009  0.4778727E+02  0.7816164E-02  0.1312668E+00
        -11   -1    0    0    0    0  0.00000000000E+00  0.00000000000E+00  0.45593999997E+02  0.45594000000E+02  0.51100000000E-03 0.  1.
         11   -1    0    0    0    0 -0.00000000000E+00 -0.00000000000E+00 -0.45593999997E+02  0.45594000000E+02  0.51100000000E-03 0. -1.
    9900012    2    1    2    0    0 -0.20558232003E+02  0.22156159496E+02 -0.31146224766E+02  0.47787267012E+02  0.19999981614E+02 0.  0.
        -12    1    1    2    0    0  0.20558232003E+02 -0.22156159496E+02  0.31146224766E+02  0.43400732988E+02  0.00000000000E+00 0.  1.
         11    1    3    3    0    0 -0.81910862313E+01  0.30852123009E+01 -0.14727889064E+00  0.87540916104E+01  0.51100000000E-03 0. -1.
        -11    1    3    3    0    0 -0.44165189933E+01  0.12531871527E+02 -0.19534567101E+02  0.23625256741E+02  0.51100000000E-03 0.  1.
         12    1    3    3    0    0 -0.79506267783E+01  0.65390756676E+01 -0.11464378775E+02  0.15407918661E+02  0.00000000000E+00 0. -1.
</event>
<event>
 7    1  0.2655656E-009  0.4778727E+02  0.7816164E-02  0.1312668E+00
        -11   -1    0    0    0    0  0.00000000000E+00  0.00000000000E+00  0.45593999997E+02  0.45594000000E+02  0.51100000000E-03 0.  1.
         11   -1    0    0    0    0 -0.00000000000E+00 -0.00000000000E+00 -0.45593999997E+02  0.45594000000E+02  0.51100000000E-03 0. -1.
    9900012    2    1    2    0    0 -0.12129224834E+01  0.29898688448E+02 -0.31435973960E+02  0.47787271773E+02  0.20000003320E+02 0.  0.
        -12    1    1    2    0    0  0.12129224834E+01 -0.29898688448E+02  0.31435973960E+02  0.43400728227E+02  0.00000000000E+00 0.  1.
         11    1    3    3    0    0 -0.10375199488E+01  0.14849279950E+02 -0.17879935703E+02  0.23265202851E+02  0.51100000000E-03 0. -1.
        -11    1    3    3    0    0  0.54239570813E+01  0.11062673072E+02 -0.44212751100E+01  0.13090061871E+02  0.51100000000E-03 0.  1.
        -12    1    3    3    0    0 -0.55993596160E+01  0.39867354254E+01 -0.91347631467E+01  0.11432007051E+02  0.00000000000E+00 0.  1.
</event>
<event>
 7    1  0.2655656E-009  0.4778727E+02  0.7816164E-02  0.1312668E+00
        -11   -1    0    0    0    0  0.00000000000E+00  0.00000000000E+00  0.45593999997E+02  0.45594000000E+02  0.51100000000E-03 0. -1.
         11   -1    0    0    0    0 -0.00000000000E+00 -0.00000000000E+00 -0.45593999997E+02  0.45594000000E+02  0.51100000000E-03 0.  1.
    9900012    2    1    2    0    0  0.14365748590E+02 -0.18472130150E+02  0.36551726304E+02  0.47787273962E+02  0.20000013301E+02 0.  0.
        -12    1    1    2    0    0 -0.14365748590E+02  0.18472130150E+02 -0.36551726304E+02  0.43400726038E+02  0.00000000000E+00 0.  1.
         11    1    3    3    0    0  0.75561279354E+01 -0.16317368837E+02  0.22672832325E+02  0.28938018610E+02  0.51100000000E-03 0. -1.
        -11    1    3    3    0    0  0.14627704435E+01  0.16368789104E+01  0.11756081675E+02  0.11959286206E+02  0.51100000000E-03 0.  1.
        -12    1    3    3    0    0  0.53468502106E+01 -0.37916402239E+01  0.21228123038E+01  0.68899691465E+01  0.00000000000E+00 0.  1.
</event>
<event>
 7    1  0.2655656E-009  0.4778727E+02  0.7816164E-02  0.1312668E+00
        -11   -1    0    0    0    0  0.00000000000E+00  0.00000000000E+00  0.45593999997E+02  0.45594000000E+02  0.51100000000E-03 0.  1.
         11   -1    0    0    0    0 -0.00000000000E+00 -0.00000000000E+00 -0.45593999997E+02  0.45594000000E+02  0.51100000000E-03 0. -1.
    9900012    2    1    2    0    0 -0.39629134324E+02  0.18656534831E+01 -0.17597569382E+02  0.47787269611E+02  0.19999993464E+02 0.  0.
        -12    1    1    2    0    0  0.39629134324E+02 -0.18656534831E+01  0.17597569382E+02  0.43400730389E+02  0.00000000000E+00 0.  1.
         11    1    3    3    0    0 -0.81381963822E+01  0.92516210228E+00 -0.12470285987E+02  0.14919591085E+02  0.51100000000E-03 0. -1.
        -11    1    3    3    0    0 -0.14864459194E+02  0.36906673926E+01 -0.22764766730E+00  0.15317473573E+02  0.51100000000E-03 0.  1.
         12    1    3    3    0    0 -0.16626478747E+02 -0.27501760117E+01 -0.48996357272E+01  0.17550204953E+02  0.00000000000E+00 0. -1.
</event>
<event>
 7    1  0.2655656E-009  0.4778727E+02  0.7816164E-02  0.1312668E+00
        -11   -1    0    0    0    0  0.00000000000E+00  0.00000000000E+00  0.45593999997E+02  0.45594000000E+02  0.51100000000E-03 0.  1.
         11   -1    0    0    0    0 -0.00000000000E+00 -0.00000000000E+00 -0.45593999997E+02  0.45594000000E+02  0.51100000000E-03 0. -1.
    9900012    2    1    2    0    0  0.37465349732E+02  0.20391851762E+02 -0.80089310808E+01  0.47787273902E+02  0.20000013027E+02 0.  0.
        -12    1    1    2    0    0 -0.37465349732E+02 -0.20391851762E+02  0.80089310808E+01  0.43400726098E+02  0.00000000000E+00 0.  1.
         11    1    3    3    0    0  0.31777106285E+02  0.12855403394E+02 -0.16514223003E+01  0.34318698637E+02  0.51100000000E-03 0. -1.
        -11    1    3    3    0    0  0.81364553933E+00  0.62476689919E+01 -0.15200868917E+01  0.64812075507E+01  0.51100000000E-03 0.  1.
         12    1    3    3    0    0  0.48745979077E+01  0.12887793762E+01 -0.48374218888E+01  0.69873677141E+01  0.00000000000E+00 0. -1.
</event>
<event>
 7    1  0.2655656E-009  0.4778727E+02  0.7816164E-02  0.1312668E+00
        -11   -1    0    0    0    0  0.00000000000E+00  0.00000000000E+00  0.45593999997E+02  0.45594000000E+02  0.51100000000E-03 0.  1.
         11   -1    0    0    0    0 -0.00000000000E+00 -0.00000000000E+00 -0.45593999997E+02  0.45594000000E+02  0.51100000000E-03 0. -1.
    9900012    2    1    2    0    0  0.23873992428E+02 -0.29799202552E+02 -0.20631609321E+02  0.47787270854E+02  0.19999999132E+02 0.  0.
        -12    1    1    2    0    0 -0.23873992428E+02  0.29799202552E+02  0.20631609321E+02  0.43400729146E+02  0.00000000000E+00 0.  1.
         11    1    3    3    0    0  0.53400987423E+01 -0.72252303732E+01 -0.60677122659E+01  0.10841482414E+02  0.51100000000E-03 0. -1.
        -11    1    3    3    0    0  0.19275752323E+02 -0.13208380761E+02 -0.14595583621E+02  0.27550807818E+02  0.51100000000E-03 0.  1.
        -12    1    3    3    0    0 -0.74185863693E+00 -0.93655914183E+01  0.31686565537E-01  0.93949806221E+01  0.00000000000E+00 0.  1.
</event>
<event>
 7    1  0.2655656E-009  0.4778727E+02  0.7816164E-02  0.1312668E+00
        -11   -1    0    0    0    0  0.00000000000E+00  0.00000000000E+00  0.45593999997E+02  0.45594000000E+02  0.51100000000E-03 0.  1.
         11   -1    0    0    0    0 -0.00000000000E+00 -0.00000000000E+00 -0.45593999997E+02  0.45594000000E+02  0.51100000000E-03 0. -1.
    9900012    2    1    2    0    0  0.14627325078E+02 -0.32175842801E+02 -0.25186892692E+02  0.47787273481E+02  0.20000011108E+02 0.  0.
        -12    1    1    2    0    0 -0.14627325078E+02  0.32175842801E+02  0.25186892692E+02  0.43400726519E+02  0.00000000000E+00 0.  1.
         11    1    3    3    0    0  0.91290504811E+01 -0.21437787281E+02 -0.10451423462E+02  0.25537238277E+02  0.51100000000E-03 0. -1.
        -11    1    3    3    0    0  0.55955887012E+01  0.16426797326E+00 -0.65517290764E+01  0.86175838280E+01  0.51100000000E-03 0.  1.
        -12    1    3    3    0    0 -0.97314104636E-01 -0.10902323494E+02 -0.81837401538E+01  0.13632451376E+02  0.00000000000E+00 0.  1.
</event>
<event>
 7    1  0.2655656E-009  0.4778727E+02  0.7816164E-02  0.1312668E+00
        -11   -1    0    0    0    0  0.00000000000E+00  0.00000000000E+00  0.45593999997E+02  0.45594000000E+02  0.51100000000E-03 0.  1.
         11   -1    0    0    0    0 -0.00000000000E+00 -0.00000000000E+00 -0.45593999997E+02  0.45594000000E+02  0.51100000000E-03 0. -1.
    9900012    2    1    2    0    0 -0.63864336702E+01 -0.20780263514E+02 -0.37563514624E+02  0.47787268236E+02  0.19999987196E+02 0.  0.
        -12    1    1    2    0    0  0.63864336702E+01  0.20780263514E+02  0.37563514624E+02  0.43400731764E+02  0.00000000000E+00 0.  1.
         11    1    3    3    0    0 -0.27140780853E+00  0.34999795946E+01 -0.69812251608E+01  0.78141553842E+01  0.51100000000E-03 0.  1.
        -11    1    3    3    0    0 -0.34878980117E+01 -0.17061196556E+02 -0.25041343714E+02  0.30501127122E+02  0.51100000000E-03 0. -1.
        -12    1    3    3    0    0 -0.26271278499E+01 -0.72190465527E+01 -0.55409457489E+01  0.94719857296E+01  0.00000000000E+00 0.  1.
</event>
<event>
 7    1  0.2655656E-009  0.4778727E+02  0.7816164E-02  0.1312668E+00
        -11   -1    0    0    0    0  0.00000000000E+00  0.00000000000E+00  0.45593999997E+02  0.45594000000E+02  0.51100000000E-03 0.  1.
         11   -1    0    0    0    0 -0.00000000000E+00 -0.00000000000E+00 -0.45593999997E+02  0.45594000000E+02  0.51100000000E-03 0. -1.
    9900012    2    1    2    0    0  0.18240736104E+02 -0.80176745249E+01 -0.38556656500E+02  0.47787270526E+02  0.19999997638E+02 0.  0.
        -12    1    1    2    0    0 -0.18240736104E+02  0.80176745249E+01  0.38556656500E+02  0.43400729474E+02  0.00000000000E+00 0.  1.
         11    1    3    3    0    0  0.38629524185E+01 -0.64481265629E+01 -0.23999334251E+02  0.25148932031E+02  0.51100000000E-03 0. -1.
        -11    1    3    3    0    0  0.10410539578E+02 -0.54311357155E+01 -0.10744898319E+02  0.15916325255E+02  0.51100000000E-03 0.  1.
         12    1    3    3    0    0  0.39672441070E+01  0.38615877535E+01 -0.38124239297E+01  0.67220132403E+01  0.00000000000E+00 0. -1.
</event>
<event>
 7    1  0.2655656E-009  0.4778727E+02  0.7816164E-02  0.1312668E+00
        -11   -1    0    0    0    0  0.00000000000E+00  0.00000000000E+00  0.45593999997E+02  0.45594000000E+02  0.51100000000E-03 0. -1.
         11   -1    0    0    0    0 -0.00000000000E+00 -0.00000000000E+00 -0.45593999997E+02  0.45594000000E+02  0.51100000000E-03 0.  1.
    9900012    2    1    2    0    0 -0.63214631060E+01 -0.41148627046E+02  0.12265910336E+02  0.47787274661E+02  0.20000016489E+02 0.  0.
        -12    1    1    2    0    0  0.63214631060E+01  0.41148627046E+02 -0.12265910336E+02  0.43400725339E+02  0.00000000000E+00 0.  1.
         11    1    3    3    0    0 -0.75506958686E+01 -0.11760309889E+02  0.40801309841E+01  0.14559030390E+02  0.51100000000E-03 0. -1.
        -11    1    3    3    0    0  0.30971461743E+01 -0.20552123450E+02 -0.37022980244E+00  0.20787476111E+02  0.51100000000E-03 0.  1.
        -12    1    3    3    0    0 -0.18679134118E+01 -0.88361937079E+01  0.85560091542E+01  0.12440768160E+02  0.00000000000E+00 0.  1.
</event>
<event>
 7    1  0.2655656E-009  0.4778729E+02  0.7816164E-02  0.1312668E+00
        -11   -1    0    0    0    0  0.00000000000E+00  0.00000000000E+00  0.45593999997E+02  0.45594000000E+02  0.51100000000E-03 0.  1.
         11   -1    0    0    0    0 -0.00000000000E+00 -0.00000000000E+00 -0.45593999997E+02  0.45594000000E+02  0.51100000000E-03 0. -1.
    9900012    2    1    2    0    0 -0.11337642465E+02  0.18632699724E+02 -0.37522020141E+02  0.47787289970E+02  0.20000086288E+02 0.  0.
        -12    1    1    2    0    0  0.11337642465E+02 -0.18632699724E+02  0.37522020141E+02  0.43400710030E+02  0.00000000000E+00 0.  1.
         11    1    3    3    0    0 -0.12629250340E+02  0.15943311457E+02 -0.30503906892E+02  0.36662998791E+02  0.51100000000E-03 0. -1.
        -11    1    3    3    0    0  0.71948647814E+00  0.29154162924E+01 -0.87687756854E+01  0.92686967926E+01  0.51100000000E-03 0.  1.
         12    1    3    3    0    0  0.57212139628E+00 -0.22602802594E+00  0.17506624367E+01  0.18555943867E+01  0.00000000000E+00 0. -1.
</event>
<event>
 7    1  0.2655656E-009  0.4778727E+02  0.7816164E-02  0.1312668E+00
        -11   -1    0    0    0    0  0.00000000000E+00  0.00000000000E+00  0.45593999997E+02  0.45594000000E+02  0.51100000000E-03 0.  1.
         11   -1    0    0    0    0 -0.00000000000E+00 -0.00000000000E+00 -0.45593999997E+02  0.45594000000E+02  0.51100000000E-03 0. -1.
    9900012    2    1    2    0    0  0.12101124098E+02 -0.29979667772E+02 -0.28955237023E+02  0.47787269185E+02  0.19999991524E+02 0.  0.
        -12    1    1    2    0    0 -0.12101124098E+02  0.29979667772E+02  0.28955237023E+02  0.43400730815E+02  0.00000000000E+00 0.  1.
         11    1    3    3    0    0 -0.16373328938E+01 -0.43746086913E+01 -0.25898913304E+01  0.53409360202E+01  0.51100000000E-03 0. -1.
        -11    1    3    3    0    0  0.37135772680E+01 -0.21071917837E+02 -0.21765351494E+02  0.30521253306E+02  0.51100000000E-03 0.  1.
        -12    1    3    3    0    0  0.10024879724E+02 -0.45331412438E+01 -0.45999941984E+01  0.11925079859E+02  0.00000000000E+00 0.  1.
</event>
<event>
 7    1  0.2655656E-009  0.4778726E+02  0.7816164E-02  0.1312668E+00
        -11   -1    0    0    0    0  0.00000000000E+00  0.00000000000E+00  0.45593999997E+02  0.45594000000E+02  0.51100000000E-03 0. -1.
         11   -1    0    0    0    0 -0.00000000000E+00 -0.00000000000E+00 -0.45593999997E+02  0.45594000000E+02  0.51100000000E-03 0.  1.
    9900012    2    1    2    0    0  0.62927341869E+01  0.42916347366E+02 -0.14874411650E+01  0.47787264338E+02  0.19999969423E+02 0.  0.
        -12    1    1    2    0    0 -0.62927341869E+01 -0.42916347366E+02  0.14874411650E+01  0.43400735662E+02  0.00000000000E+00 0.  1.
         11    1    3    3    0    0  0.41526927516E+01  0.17657556812E+02  0.63173365677E+01  0.19207886693E+02  0.51100000000E-03 0. -1.
        -11    1    3    3    0    0 -0.14685495908E+01  0.36110304099E+01 -0.51705285855E+01  0.64753798835E+01  0.51100000000E-03 0.  1.
         12    1    3    3    0    0  0.36085910261E+01  0.21647760144E+02 -0.26342491472E+01  0.22103997761E+02  0.00000000000E+00 0. -1.
</event>
<event>
 7    1  0.2655656E-009  0.4778726E+02  0.7816164E-02  0.1312668E+00
        -11   -1    0    0    0    0  0.00000000000E+00  0.00000000000E+00  0.45593999997E+02  0.45594000000E+02  0.51100000000E-03 0.  1.
         11   -1    0    0    0    0 -0.00000000000E+00 -0.00000000000E+00 -0.45593999997E+02  0.45594000000E+02  0.51100000000E-03 0. -1.
    9900012    2    1    2    0    0  0.14499974075E+02  0.35362980618E+02 -0.20562937480E+02  0.47787262170E+02  0.19999959538E+02 0.  0.
        -12    1    1    2    0    0 -0.14499974075E+02 -0.35362980618E+02  0.20562937480E+02  0.43400737830E+02  0.00000000000E+00 0.  1.
         11    1    3    3    0    0  0.95461654172E+00  0.70789319362E+01 -0.37113908080E+01  0.80496578865E+01  0.51100000000E-03 0. -1.
        -11    1    3    3    0    0  0.31383375436E+01  0.66838651206E+01  0.36079689199E+01  0.82183122037E+01  0.51100000000E-03 0.  1.
        -12    1    3    3    0    0  0.10407019990E+02  0.21600183561E+02 -0.20459515592E+02  0.31519292080E+02  0.00000000000E+00 0.  1.
</event>
<event>
 7    1  0.2655656E-009  0.4778727E+02  0.7816164E-02  0.1312668E+00
        -11   -1    0    0    0    0  0.00000000000E+00  0.00000000000E+00  0.45593999997E+02  0.45594000000E+02  0.51100000000E-03 0.  1.
         11   -1    0    0    0    0 -0.00000000000E+00 -0.00000000000E+00 -0.45593999997E+02  0.45594000000E+02  0.51100000000E-03 0. -1.
    9900012    2    1    2    0    0 -0.76623837940E+01 -0.92985365089E+01 -0.41694709317E+02  0.47787266231E+02  0.19999978054E+02 0.  0.
        -12    1    1    2    0    0  0.76623837940E+01  0.92985365089E+01  0.41694709317E+02  0.43400733769E+02  0.00000000000E+00 0.  1.
         11    1    3    3    0    0 -0.10231450653E+02 -0.10886316565E+02 -0.28903430984E+02  0.32536176692E+02  0.51100000000E-03 0. -1.
        -11    1    3    3    0    0  0.27366865180E+01 -0.92006648101E+00 -0.12370138092E+02  0.12702609657E+02  0.51100000000E-03 0.  1.
         12    1    3    3    0    0 -0.16761965903E+00  0.25078465374E+01 -0.42114024148E+00  0.25484798819E+01  0.00000000000E+00 0. -1.
</event>
<event>
 7    1  0.2655656E-009  0.4778727E+02  0.7816164E-02  0.1312668E+00
        -11   -1    0    0    0    0  0.00000000000E+00  0.00000000000E+00  0.45593999997E+02  0.45594000000E+02  0.51100000000E-03 0.  1.
         11   -1    0    0    0    0 -0.00000000000E+00 -0.00000000000E+00 -0.45593999997E+02  0.45594000000E+02  0.51100000000E-03 0. -1.
    9900012    2    1    2    0    0  0.20877085759E+02  0.34375706202E+02 -0.16312004466E+02  0.47787269864E+02  0.19999994617E+02 0.  0.
        -12    1    1    2    0    0 -0.20877085759E+02 -0.34375706202E+02  0.16312004466E+02  0.43400730136E+02  0.00000000000E+00 0.  1.
         11    1    3    3    0    0  0.10083269680E+02  0.10757055749E+02 -0.64311262607E+01  0.16085582398E+02  0.51100000000E-03 0. -1.
        -11    1    3    3    0    0 -0.90542952109E+00  0.51587785270E+01  0.32896084319E+01  0.61850078742E+01  0.51100000000E-03 0.  1.
        -12    1    3    3    0    0  0.11699245600E+02  0.18459871926E+02 -0.13170486638E+02  0.25516679592E+02  0.00000000000E+00 0.  1.
</event>
<event>
 7    1  0.2655656E-009  0.4778727E+02  0.7816164E-02  0.1312668E+00
        -11   -1    0    0    0    0  0.00000000000E+00  0.00000000000E+00  0.45593999997E+02  0.45594000000E+02  0.51100000000E-03 0.  1.
         11   -1    0    0    0    0 -0.00000000000E+00 -0.00000000000E+00 -0.45593999997E+02  0.45594000000E+02  0.51100000000E-03 0. -1.
    9900012    2    1    2    0    0 -0.63425688540E+01 -0.40460699877E+02 -0.14364084996E+02  0.47787270145E+02  0.19999995898E+02 0.  0.
        -12    1    1    2    0    0  0.63425688540E+01  0.40460699877E+02  0.14364084996E+02  0.43400729855E+02  0.00000000000E+00 0.  1.
         11    1    3    3    0    0 -0.56933590522E+01 -0.22529670981E+01 -0.49128443124E+01  0.78502380564E+01  0.51100000000E-03 0.  1.
        -11    1    3    3    0    0 -0.52176047261E-01 -0.29587036971E+02 -0.10119740600E+02  0.31269867751E+02  0.51100000000E-03 0. -1.
        -12    1    3    3    0    0 -0.59703375453E+00 -0.86206958078E+01  0.66849991685E+00  0.86671643375E+01  0.00000000000E+00 0.  1.
</event>
<event>
 7    1  0.2655656E-009  0.4778727E+02  0.7816164E-02  0.1312668E+00
        -11   -1    0    0    0    0  0.00000000000E+00  0.00000000000E+00  0.45593999997E+02  0.45594000000E+02  0.51100000000E-03 0.  1.
         11   -1    0    0    0    0 -0.00000000000E+00 -0.00000000000E+00 -0.45593999997E+02  0.45594000000E+02  0.51100000000E-03 0. -1.
    9900012    2    1    2    0    0  0.32221737137E+02  0.50977833130E+01 -0.28625085928E+02  0.47787270937E+02  0.19999999509E+02 0.  0.
        -12    1    1    2    0    0 -0.32221737137E+02 -0.50977833130E+01  0.28625085928E+02  0.43400729063E+02  0.00000000000E+00 0.  1.
         11    1    3    3    0    0  0.65361423722E+01 -0.30445617243E+01 -0.14293184449E+01  0.73507458588E+01  0.51100000000E-03 0. -1.
        -11    1    3    3    0    0  0.20504147801E+02  0.11566097499E+02 -0.23198139358E+02  0.33050693765E+02  0.51100000000E-03 0.  1.
        -12    1    3    3    0    0  0.51814469638E+01 -0.34237524617E+01 -0.39976281249E+01  0.73858313129E+01  0.00000000000E+00 0.  1.
</event>
<event>
 7    1  0.2655656E-009  0.4778727E+02  0.7816164E-02  0.1312668E+00
        -11   -1    0    0    0    0  0.00000000000E+00  0.00000000000E+00  0.45593999997E+02  0.45594000000E+02  0.51100000000E-03 0. -1.
         11   -1    0    0    0    0 -0.00000000000E+00 -0.00000000000E+00 -0.45593999997E+02  0.45594000000E+02  0.51100000000E-03 0.  1.
    9900012    2    1    2    0    0 -0.42575106895E+02 -0.32140486283E+01 -0.77880268583E+01  0.47787271918E+02  0.20000003984E+02 0.  0.
        -12    1    1    2    0    0  0.42575106895E+02  0.32140486283E+01  0.77880268583E+01  0.43400728082E+02  0.00000000000E+00 0.  1.
         11    1    3    3    0    0 -0.37153936024E+01 -0.51769772921E+01  0.65591788363E+00  0.64058935391E+01  0.51100000000E-03 0. -1.
        -11    1    3    3    0    0 -0.71063401942E+01 -0.24146596507E+01 -0.52702452577E+01  0.91709398385E+01  0.51100000000E-03 0.  1.
         12    1    3    3    0    0 -0.31753373098E+02  0.43775883144E+01 -0.31736994843E+01  0.32210438541E+02  0.00000000000E+00 0. -1.
</event>
<event>
 7    1  0.2655656E-009  0.4778727E+02  0.7816164E-02  0.1312668E+00
        -11   -1    0    0    0    0  0.00000000000E+00  0.00000000000E+00  0.45593999997E+02  0.45594000000E+02  0.51100000000E-03 0.  1.
         11   -1    0    0    0    0 -0.00000000000E+00 -0.00000000000E+00 -0.45593999997E+02  0.45594000000E+02  0.51100000000E-03 0. -1.
    9900012    2    1    2    0    0 -0.26645715406E+01 -0.14098116987E+02 -0.40960544414E+02  0.47787273707E+02  0.20000012140E+02 0.  0.
        -12    1    1    2    0    0  0.26645715406E+01  0.14098116987E+02  0.40960544414E+02  0.43400726293E+02  0.00000000000E+00 0.  1.
         11    1    3    3    0    0 -0.30033301726E+01 -0.37263382242E+00 -0.11559949335E+02  0.11949530409E+02  0.51100000000E-03 0. -1.
        -11    1    3    3    0    0  0.52067612704E+01 -0.13194658412E+02 -0.15079902511E+02  0.20702966781E+02  0.51100000000E-03 0.  1.
        -12    1    3    3    0    0 -0.48680026385E+01 -0.53082475232E+00 -0.14320692568E+02  0.15134776517E+02  0.00000000000E+00 0.  1.
</event>
<event>
 7    1  0.2655656E-009  0.4778727E+02  0.7816164E-02  0.1312668E+00
        -11   -1    0    0    0    0  0.00000000000E+00  0.00000000000E+00  0.45593999997E+02  0.45594000000E+02  0.51100000000E-03 0.  1.
         11   -1    0    0    0    0 -0.00000000000E+00 -0.00000000000E+00 -0.45593999997E+02  0.45594000000E+02  0.51100000000E-03 0. -1.
    9900012    2    1    2    0    0  0.14730394541E+02 -0.85935952059E+01 -0.39909758901E+02  0.47787271234E+02  0.20000000864E+02 0.  0.
        -12    1    1    2    0    0 -0.14730394541E+02  0.85935952059E+01  0.39909758901E+02  0.43400728766E+02  0.00000000000E+00 0.  1.
         11    1    3    3    0    0  0.55796365462E+01 -0.35948054771E+01 -0.28318900362E+02  0.29086338518E+02  0.51100000000E-03 0. -1.
        -11    1    3    3    0    0  0.95370377512E+01 -0.98138057641E+00 -0.46118298186E+01  0.10638945974E+02  0.51100000000E-03 0.  1.
         12    1    3    3    0    0 -0.38627975689E+00 -0.40174091523E+01 -0.69790287206E+01  0.80619867422E+01  0.00000000000E+00 0. -1.
</event>
<event>
 7    1  0.2655656E-009  0.4778726E+02  0.7816164E-02  0.1312668E+00
        -11   -1    0    0    0    0  0.00000000000E+00  0.00000000000E+00  0.45593999997E+02  0.45594000000E+02  0.51100000000E-03 0. -1.
         11   -1    0    0    0    0 -0.00000000000E+00 -0.00000000000E+00 -0.45593999997E+02  0.45594000000E+02  0.51100000000E-03 0.  1.
    9900012    2    1    2    0    0  0.52568970198E+01  0.23035187582E+02  0.36405621572E+02  0.47787261351E+02  0.19999955805E+02 0.  0.
        -12    1    1    2    0    0 -0.52568970198E+01 -0.23035187582E+02 -0.36405621572E+02  0.43400738649E+02  0.00000000000E+00 0.  1.
         11    1    3    3    0    0  0.60168155484E+01  0.78322184627E+01  0.24943561641E+02  0.26827727876E+02  0.51100000000E-03 0. -1.
        -11    1    3    3    0    0  0.28234470531E+01  0.11425278226E+02  0.53432070149E+01  0.12925118849E+02  0.51100000000E-03 0.  1.
         12    1    3    3    0    0 -0.35833655816E+01  0.37776908932E+01  0.61188529159E+01  0.80344146261E+01  0.00000000000E+00 0. -1.
</event>
<event>
 7    1  0.3486159E-009  0.4778727E+02  0.7816164E-02  0.1312668E+00
        -11   -1    0    0    0    0  0.00000000000E+00  0.00000000000E+00  0.45593999997E+02  0.45594000000E+02  0.51100000000E-03 0. -1.
         11   -1    0    0    0    0 -0.00000000000E+00 -0.00000000000E+00 -0.45593999997E+02  0.45594000000E+02  0.51100000000E-03 0.  1.
    9900012    2    1    2    0    0  0.12958317258E+02 -0.41699651512E+01  0.41210637904E+02  0.47787271066E+02  0.20000000100E+02 0.  0.
        -12    1    1    2    0    0 -0.12958317258E+02  0.41699651512E+01 -0.41210637904E+02  0.43400728934E+02  0.00000000000E+00 0.  1.
         11    1    3    3    0    0  0.12485788875E+02  0.40507740897E+01  0.33570221682E+02  0.36045297593E+02  0.51100000000E-03 0. -1.
        -11    1    3    3    0    0 -0.12763835542E+01 -0.57429765962E+01  0.50820092262E+01  0.77741721873E+01  0.51100000000E-03 0.  1.
         12    1    3    3    0    0  0.17489119366E+01 -0.24777626446E+01  0.25584069960E+01  0.39678012856E+01  0.00000000000E+00 0. -1.
</event>
<event>
 7    1  0.2655656E-009  0.4778727E+02  0.7816164E-02  0.1312668E+00
        -11   -1    0    0    0    0  0.00000000000E+00  0.00000000000E+00  0.45593999997E+02  0.45594000000E+02  0.51100000000E-03 0. -1.
         11   -1    0    0    0    0 -0.00000000000E+00 -0.00000000000E+00 -0.45593999997E+02  0.45594000000E+02  0.51100000000E-03 0.  1.
    9900012    2    1    2    0    0  0.40588129401E+01 -0.41947372015E+02  0.10371482517E+02  0.47787266929E+02  0.19999981238E+02 0.  0.
        -12    1    1    2    0    0 -0.40588129401E+01  0.41947372015E+02 -0.10371482517E+02  0.43400733071E+02  0.00000000000E+00 0.  1.
         11    1    3    3    0    0  0.88639679932E+01 -0.29313651945E+02  0.60342742492E+01  0.31213339856E+02  0.51100000000E-03 0. -1.
        -11    1    3    3    0    0  0.12409817736E+01 -0.30452104496E+01 -0.17311751842E+01  0.37162225746E+01  0.51100000000E-03 0.  1.
         12    1    3    3    0    0 -0.60461368268E+01 -0.95885096201E+01  0.60683834524E+01  0.12857704499E+02  0.00000000000E+00 0. -1.
</event>
<event>
 7    1  0.2655656E-009  0.4778727E+02  0.7816164E-02  0.1312668E+00
        -11   -1    0    0    0    0  0.00000000000E+00  0.00000000000E+00  0.45593999997E+02  0.45594000000E+02  0.51100000000E-03 0.  1.
         11   -1    0    0    0    0 -0.00000000000E+00 -0.00000000000E+00 -0.45593999997E+02  0.45594000000E+02  0.51100000000E-03 0. -1.
    9900012    2    1    2    0    0 -0.16491673257E+02 -0.32586071574E+02 -0.23447724075E+02  0.47787272912E+02  0.20000008517E+02 0.  0.
        -12    1    1    2    0    0  0.16491673257E+02  0.32586071574E+02  0.23447724075E+02  0.43400727088E+02  0.00000000000E+00 0.  1.
         11    1    3    3    0    0 -0.14434365961E+02 -0.16324835374E+02 -0.96965142397E+01  0.23851070402E+02  0.51100000000E-03 0. -1.
        -11    1    3    3    0    0  0.21727466781E+01 -0.12301891401E+02 -0.50324585384E+01  0.13467850584E+02  0.51100000000E-03 0.  1.
        -12    1    3    3    0    0 -0.42300539745E+01 -0.39593447995E+01 -0.87187512970E+01  0.10468351926E+02  0.00000000000E+00 0.  1.
</event>
<event>
 7    1  0.2655656E-009  0.4778729E+02  0.7816164E-02  0.1312668E+00
        -11   -1    0    0    0    0  0.00000000000E+00  0.00000000000E+00  0.45593999997E+02  0.45594000000E+02  0.51100000000E-03 0. -1.
         11   -1    0    0    0    0 -0.00000000000E+00 -0.00000000000E+00 -0.45593999997E+02  0.45594000000E+02  0.51100000000E-03 0.  1.
    9900012    2    1    2    0    0 -0.14607136884E+02  0.11651161902E+02  0.39172743155E+02  0.47787287703E+02  0.20000075952E+02 0.  0.
        -12    1    1    2    0    0  0.14607136884E+02 -0.11651161902E+02 -0.39172743155E+02  0.43400712297E+02  0.00000000000E+00 0.  1.
         11    1    3    3    0    0 -0.15687323602E+02  0.33115290512E+01  0.15909342986E+02  0.22586844422E+02  0.51100000000E-03 0. -1.
        -11    1    3    3    0    0  0.26292368772E+01  0.48455309395E+01  0.10264276843E+02  0.11651070166E+02  0.51100000000E-03 0.  1.
         12    1    3    3    0    0 -0.15490501595E+01  0.34941019118E+01  0.12999123325E+02  0.13549373114E+02  0.00000000000E+00 0. -1.
</event>
<event>
 7    1  0.2655656E-009  0.4778728E+02  0.7816164E-02  0.1312668E+00
        -11   -1    0    0    0    0  0.00000000000E+00  0.00000000000E+00  0.45593999997E+02  0.45594000000E+02  0.51100000000E-03 0.  1.
         11   -1    0    0    0    0 -0.00000000000E+00 -0.00000000000E+00 -0.45593999997E+02  0.45594000000E+02  0.51100000000E-03 0. -1.
    9900012    2    1    2    0    0 -0.12785657118E+02 -0.48071385545E+01 -0.41195159562E+02  0.47787276730E+02  0.20000025921E+02 0.  0.
        -12    1    1    2    0    0  0.12785657118E+02  0.48071385545E+01  0.41195159562E+02  0.43400723270E+02  0.00000000000E+00 0.  1.
         11    1    3    3    0    0 -0.96415452338E+00  0.52698080138E+01 -0.51162676908E+01  0.74078786297E+01  0.51100000000E-03 0. -1.
        -11    1    3    3    0    0 -0.15243720187E+01 -0.71967711480E+01 -0.16647685194E+02  0.18200622176E+02  0.51100000000E-03 0.  1.
         12    1    3    3    0    0 -0.10297130576E+02 -0.28801754203E+01 -0.19431206678E+02  0.22178775924E+02  0.00000000000E+00 0. -1.
</event>
<event>
 7    1  0.2655656E-009  0.4778730E+02  0.7816164E-02  0.1312668E+00
        -11   -1    0    0    0    0  0.00000000000E+00  0.00000000000E+00  0.45593999997E+02  0.45594000000E+02  0.51100000000E-03 0.  1.
         11   -1    0    0    0    0 -0.00000000000E+00 -0.00000000000E+00 -0.45593999997E+02  0.45594000000E+02  0.51100000000E-03 0. -1.
    9900012    2    1    2    0    0  0.12264170328E+02 -0.41575918454E+02 -0.21573624311E+01  0.47787296298E+02  0.20000115143E+02 0.  0.
        -12    1    1    2    0    0 -0.12264170328E+02  0.41575918454E+02  0.21573624311E+01  0.43400703702E+02  0.00000000000E+00 0.  1.
         11    1    3    3    0    0 -0.35952664717E+01 -0.25821423706E+01 -0.17075326646E+01  0.47443722752E+01  0.51100000000E-03 0.  1.
        -11    1    3    3    0    0  0.11514638505E+02 -0.31594437009E+02 -0.37792091434E+01  0.33838997796E+02  0.51100000000E-03 0. -1.
         12    1    3    3    0    0  0.43447982948E+01 -0.73993390743E+01  0.33293793769E+01  0.92039262271E+01  0.00000000000E+00 0. -1.
</event>
<event>
 7    1  0.2655656E-009  0.4778729E+02  0.7816164E-02  0.1312668E+00
        -11   -1    0    0    0    0  0.00000000000E+00  0.00000000000E+00  0.45593999997E+02  0.45594000000E+02  0.51100000000E-03 0. -1.
         11   -1    0    0    0    0 -0.00000000000E+00 -0.00000000000E+00 -0.45593999997E+02  0.45594000000E+02  0.51100000000E-03 0.  1.
    9900012    2    1    2    0    0 -0.18794827557E+02 -0.21147478442E+02  0.32911393436E+02  0.47787294876E+02  0.20000108656E+02 0.  0.
        -12    1    1    2    0    0  0.18794827557E+02  0.21147478442E+02 -0.32911393436E+02  0.43400705124E+02  0.00000000000E+00 0.  1.
         11    1    3    3    0    0 -0.12697913906E+02 -0.30312628124E+01  0.76647632440E+01  0.15138499518E+02  0.51100000000E-03 0. -1.
        -11    1    3    3    0    0 -0.79024955434E+01 -0.16385023120E+02  0.21874361135E+02  0.28450063160E+02  0.51100000000E-03 0.  1.
        -12    1    3    3    0    0  0.18055818924E+01 -0.17311925098E+01  0.33722690569E+01  0.41987321977E+01  0.00000000000E+00 0.  1.
</event>
<event>
 7    1  0.2655656E-009  0.4778727E+02  0.7816164E-02  0.1312668E+00
        -11   -1    0    0    0    0  0.00000000000E+00  0.00000000000E+00  0.45593999997E+02  0.45594000000E+02  0.51100000000E-03 0. -1.
         11   -1    0    0    0    0 -0.00000000000E+00 -0.00000000000E+00 -0.45593999997E+02  0.45594000000E+02  0.51100000000E-03 0.  1.
    9900012    2    1    2    0    0 -0.43021329128E+02  0.53110104780E+01 -0.21404262605E+01  0.47787274006E+02  0.20000013504E+02 0.  0.
        -12    1    1    2    0    0  0.43021329128E+02 -0.53110104780E+01  0.21404262605E+01  0.43400725994E+02  0.00000000000E+00 0.  1.
         11    1    3    3    0    0 -0.19215227635E+02  0.33791700156E+01  0.38760240898E+01  0.19891388239E+02  0.51100000000E-03 0. -1.
        -11    1    3    3    0    0 -0.29242878553E+01 -0.37591225211E+01  0.14859647100E+01  0.49890432920E+01  0.51100000000E-03 0.  1.
        -12    1    3    3    0    0 -0.20881813637E+02  0.56909629836E+01 -0.75024150603E+01  0.22906842475E+02  0.00000000000E+00 0.  1.
</event>
<event>
 7    1  0.2655656E-009  0.4778728E+02  0.7816164E-02  0.1312668E+00
        -11   -1    0    0    0    0  0.00000000000E+00  0.00000000000E+00  0.45593999997E+02  0.45594000000E+02  0.51100000000E-03 0.  1.
         11   -1    0    0    0    0 -0.00000000000E+00 -0.00000000000E+00 -0.45593999997E+02  0.45594000000E+02  0.51100000000E-03 0. -1.
    9900012    2    1    2    0    0  0.33000597439E+01  0.42833373593E+02 -0.61672131358E+01  0.47787276440E+02  0.20000024601E+02 0.  0.
        -12    1    1    2    0    0 -0.33000597439E+01 -0.42833373593E+02  0.61672131358E+01  0.43400723560E+02  0.00000000000E+00 0.  1.
         11    1    3    3    0    0  0.61404840665E+01  0.23533917810E+02 -0.38206346769E+01  0.24620074770E+02  0.51100000000E-03 0. -1.
        -11    1    3    3    0    0 -0.44262351476E+01  0.10240500382E+02  0.41546399198E+01  0.11904639380E+02  0.51100000000E-03 0.  1.
        -12    1    3    3    0    0  0.15858108250E+01  0.90589554009E+01 -0.65012183787E+01  0.11262562290E+02  0.00000000000E+00 0.  1.
</event>
<event>
 7    1  0.2655656E-009  0.4778727E+02  0.7816164E-02  0.1312668E+00
        -11   -1    0    0    0    0  0.00000000000E+00  0.00000000000E+00  0.45593999997E+02  0.45594000000E+02  0.51100000000E-03 0. -1.
         11   -1    0    0    0    0 -0.00000000000E+00 -0.00000000000E+00 -0.45593999997E+02  0.45594000000E+02  0.51100000000E-03 0.  1.
    9900012    2    1    2    0    0 -0.21247635143E+02 -0.37817066134E+02 -0.14251194179E+01  0.47787268952E+02  0.19999990460E+02 0.  0.
        -12    1    1    2    0    0  0.21247635143E+02  0.37817066134E+02  0.14251194179E+01  0.43400731048E+02  0.00000000000E+00 0.  1.
         11    1    3    3    0    0 -0.10685451288E+00 -0.44595606422E+01  0.21492775661E+01  0.49516152239E+01  0.51100000000E-03 0. -1.
        -11    1    3    3    0    0  0.13659824717E+01  0.69551046714E+00 -0.12023295967E+01  0.19481374805E+01  0.51100000000E-03 0.  1.
        -12    1    3    3    0    0 -0.22506763102E+02 -0.34053015958E+02 -0.23720673873E+01  0.40887516248E+02  0.00000000000E+00 0.  1.
</event>
<event>
 7    1  0.2655656E-009  0.4778727E+02  0.7816164E-02  0.1312668E+00
        -11   -1    0    0    0    0  0.00000000000E+00  0.00000000000E+00  0.45593999997E+02  0.45594000000E+02  0.51100000000E-03 0.  1.
         11   -1    0    0    0    0 -0.00000000000E+00 -0.00000000000E+00 -0.45593999997E+02  0.45594000000E+02  0.51100000000E-03 0. -1.
    9900012    2    1    2    0    0  0.40815716891E+02  0.80556614913E+01  0.12361503849E+02  0.47787271840E+02  0.20000003629E+02 0.  0.
        -12    1    1    2    0    0 -0.40815716891E+02 -0.80556614913E+01 -0.12361503849E+02  0.43400728160E+02  0.00000000000E+00 0.  1.
         11    1    3    3    0    0  0.34506244060E+02  0.81572147029E+01  0.94332730006E+01  0.36690702781E+02  0.51100000000E-03 0. -1.
        -11    1    3    3    0    0  0.17892177122E+01  0.11992110818E+01  0.53779071118E+01  0.57932108890E+01  0.51100000000E-03 0.  1.
         12    1    3    3    0    0  0.45202551189E+01 -0.13007642934E+01 -0.24496762632E+01  0.53033581702E+01  0.00000000000E+00 0. -1.
</event>
<event>
 7    1  0.2655656E-009  0.4778727E+02  0.7816164E-02  0.1312668E+00
        -11   -1    0    0    0    0  0.00000000000E+00  0.00000000000E+00  0.45593999997E+02  0.45594000000E+02  0.51100000000E-03 0.  1.
         11   -1    0    0    0    0 -0.00000000000E+00 -0.00000000000E+00 -0.45593999997E+02  0.45594000000E+02  0.51100000000E-03 0. -1.
    9900012    2    1    2    0    0 -0.37702724544E+02  0.26785881095E+00 -0.21495494695E+02  0.47787268687E+02  0.19999989250E+02 0.  0.
        -12    1    1    2    0    0  0.37702724544E+02 -0.26785881095E+00  0.21495494695E+02  0.43400731313E+02  0.00000000000E+00 0.  1.
         11    1    3    3    0    0 -0.21715840472E+01 -0.67289786451E+00 -0.31122390287E+01  0.38541666859E+01  0.51100000000E-03 0. -1.
        -11    1    3    3    0    0 -0.34173791408E+02  0.21817879106E+00 -0.21557712559E+02  0.40405823742E+02  0.51100000000E-03 0.  1.
        -12    1    3    3    0    0 -0.13573490883E+01  0.72257788439E+00  0.31744568935E+01  0.35272782588E+01  0.00000000000E+00 0.  1.
</event>
<event>
 7    1  0.2655656E-009  0.4778727E+02  0.7816164E-02  0.1312668E+00
        -11   -1    0    0    0    0  0.00000000000E+00  0.00000000000E+00  0.45593999997E+02  0.45594000000E+02  0.51100000000E-03 0.  1.
         11   -1    0    0    0    0 -0.00000000000E+00 -0.00000000000E+00 -0.45593999997E+02  0.45594000000E+02  0.51100000000E-03 0. -1.
    9900012    2    1    2    0    0  0.12493226295E+02 -0.21522034551E+02 -0.35557625007E+02  0.47787269931E+02  0.19999994922E+02 0.  0.
        -12    1    1    2    0    0 -0.12493226295E+02  0.21522034551E+02  0.35557625007E+02  0.43400730069E+02  0.00000000000E+00 0.  1.
         11    1    3    3    0    0  0.93261444659E+01 -0.57876621865E+01 -0.23528782296E+02  0.25963004464E+02  0.51100000000E-03 0. -1.
        -11    1    3    3    0    0  0.37718472803E+01 -0.16663363914E+02 -0.11509976799E+02  0.20600342109E+02  0.51100000000E-03 0.  1.
        -12    1    3    3    0    0 -0.60476545171E+00  0.92899154997E+00 -0.51886591120E+00  0.12239233576E+01  0.00000000000E+00 0.  1.
</event>
<event>
 7    1  0.2655656E-009  0.4778727E+02  0.7816164E-02  0.1312668E+00
        -11   -1    0    0    0    0  0.00000000000E+00  0.00000000000E+00  0.45593999997E+02  0.45594000000E+02  0.51100000000E-03 0.  1.
         11   -1    0    0    0    0 -0.00000000000E+00 -0.00000000000E+00 -0.45593999997E+02  0.45594000000E+02  0.51100000000E-03 0. -1.
    9900012    2    1    2    0    0 -0.21855069473E+02 -0.13821806466E+02 -0.34855944990E+02  0.47787270780E+02  0.19999998795E+02 0.  0.
        -12    1    1    2    0    0  0.21855069473E+02  0.13821806466E+02  0.34855944990E+02  0.43400729220E+02  0.00000000000E+00 0.  1.
         11    1    3    3    0    0 -0.49924717543E+00  0.12499845144E+01 -0.41205130110E+01  0.43347822048E+01  0.51100000000E-03 0. -1.
        -11    1    3    3    0    0 -0.15322028503E+02 -0.10817076611E+01 -0.13513383979E+02  0.20458401593E+02  0.51100000000E-03 0.  1.
        -12    1    3    3    0    0 -0.60337937947E+01 -0.13990083319E+02 -0.17222048000E+02  0.22994086982E+02  0.00000000000E+00 0.  1.
</event>
<event>
 7    1  0.2655656E-009  0.4778725E+02  0.7816164E-02  0.1312668E+00
        -11   -1    0    0    0    0  0.00000000000E+00  0.00000000000E+00  0.45593999997E+02  0.45594000000E+02  0.51100000000E-03 0.  1.
         11   -1    0    0    0    0 -0.00000000000E+00 -0.00000000000E+00 -0.45593999997E+02  0.45594000000E+02  0.51100000000E-03 0. -1.
    9900012    2    1    2    0    0  0.17681727280E+02  0.78519498363E+01 -0.38850074194E+02  0.47787252763E+02  0.19999916649E+02 0.  0.
        -12    1    1    2    0    0 -0.17681727280E+02 -0.78519498363E+01  0.38850074194E+02  0.43400747237E+02  0.00000000000E+00 0.  1.
         11    1    3    3    0    0  0.60202352643E+01  0.43875425764E+01 -0.79369207269E+01  0.10885241081E+02  0.51100000000E-03 0. -1.
        -11    1    3    3    0    0 -0.13227542658E+01  0.27460632327E+01 -0.19073586956E+02  0.19315596335E+02  0.51100000000E-03 0.  1.
        -12    1    3    3    0    0  0.12984246281E+02  0.71834402723E+00 -0.11839566511E+02  0.17586415348E+02  0.00000000000E+00 0.  1.
</event>
<event>
 7    1  0.2655656E-009  0.4778727E+02  0.7816164E-02  0.1312668E+00
        -11   -1    0    0    0    0  0.00000000000E+00  0.00000000000E+00  0.45593999997E+02  0.45594000000E+02  0.51100000000E-03 0.  1.
         11   -1    0    0    0    0 -0.00000000000E+00 -0.00000000000E+00 -0.45593999997E+02  0.45594000000E+02  0.51100000000E-03 0. -1.
    9900012    2    1    2    0    0 -0.16500683715E+02 -0.11624086325E+02 -0.38421752643E+02  0.47787273945E+02  0.20000013224E+02 0.  0.
        -12    1    1    2    0    0  0.16500683715E+02  0.11624086325E+02  0.38421752643E+02  0.43400726055E+02  0.00000000000E+00 0.  1.
         11    1    3    3    0    0 -0.43917841803E+01 -0.30819470899E+00  0.22513049653E+00  0.44083371317E+01  0.51100000000E-03 0. -1.
        -11    1    3    3    0    0 -0.62966592959E+00 -0.37625212626E+01 -0.19149314232E+02  0.19525605784E+02  0.51100000000E-03 0.  1.
        -12    1    3    3    0    0 -0.11479233605E+02 -0.75533703531E+01 -0.19497568908E+02  0.23853331029E+02  0.00000000000E+00 0.  1.
</event>
<event>
 7    1  0.2655656E-009  0.4778727E+02  0.7816164E-02  0.1312668E+00
        -11   -1    0    0    0    0  0.00000000000E+00  0.00000000000E+00  0.45593999997E+02  0.45594000000E+02  0.51100000000E-03 0. -1.
         11   -1    0    0    0    0 -0.00000000000E+00 -0.00000000000E+00 -0.45593999997E+02  0.45594000000E+02  0.51100000000E-03 0.  1.
    9900012    2    1    2    0    0 -0.38240360076E+00 -0.26059940904E+02  0.34703843317E+02  0.47787268515E+02  0.19999988468E+02 0.  0.
        -12    1    1    2    0    0  0.38240360076E+00  0.26059940904E+02 -0.34703843317E+02  0.43400731485E+02  0.00000000000E+00 0.  1.
         11    1    3    3    0    0 -0.20026638438E+01 -0.58824412966E+01  0.36688811110E+01  0.72162640574E+01  0.51100000000E-03 0. -1.
        -11    1    3    3    0    0 -0.35626453676E+01  0.55084441202E+00  0.10548389857E+01  0.37561359305E+01  0.51100000000E-03 0.  1.
        -12    1    3    3    0    0  0.51829056107E+01 -0.20728344019E+02  0.29980123220E+02  0.36814868527E+02  0.00000000000E+00 0.  1.
</event>
<event>
 7    1  0.2655656E-009  0.4778727E+02  0.7816164E-02  0.1312668E+00
        -11   -1    0    0    0    0  0.00000000000E+00  0.00000000000E+00  0.45593999997E+02  0.45594000000E+02  0.51100000000E-03 0.  1.
         11   -1    0    0    0    0 -0.00000000000E+00 -0.00000000000E+00 -0.45593999997E+02  0.45594000000E+02  0.51100000000E-03 0. -1.
    9900012    2    1    2    0    0 -0.23961996878E+01  0.32837663069E+02 -0.28276656707E+02  0.47787271857E+02  0.20000003706E+02 0.  0.
        -12    1    1    2    0    0  0.23961996878E+01 -0.32837663069E+02  0.28276656707E+02  0.43400728143E+02  0.00000000000E+00 0.  1.
         11    1    3    3    0    0  0.15177585882E+01  0.13764666947E+02 -0.13075904539E+02  0.19045968788E+02  0.51100000000E-03 0. -1.
        -11    1    3    3    0    0 -0.54906380937E+01  0.19231945762E+02 -0.82886281917E+01  0.21649854550E+02  0.51100000000E-03 0.  1.
        -12    1    3    3    0    0  0.15766798177E+01 -0.15894964025E+00 -0.69121239766E+01  0.70914485195E+01  0.00000000000E+00 0.  1.
</event>
<event>
 7    1  0.2655656E-009  0.4778728E+02  0.7816164E-02  0.1312668E+00
        -11   -1    0    0    0    0  0.00000000000E+00  0.00000000000E+00  0.45593999997E+02  0.45594000000E+02  0.51100000000E-03 0.  1.
         11   -1    0    0    0    0 -0.00000000000E+00 -0.00000000000E+00 -0.45593999997E+02  0.45594000000E+02  0.51100000000E-03 0. -1.
    9900012    2    1    2    0    0 -0.10699187714E+02 -0.11026708961E+01 -0.42046811325E+02  0.47787276003E+02  0.20000022609E+02 0.  0.
        -12    1    1    2    0    0  0.10699187714E+02  0.11026708961E+01  0.42046811325E+02  0.43400723997E+02  0.00000000000E+00 0.  1.
         11    1    3    3    0    0  0.53310362007E+01 -0.85303522487E+00 -0.81847949841E+01  0.98050234707E+01  0.51100000000E-03 0. -1.
        -11    1    3    3    0    0 -0.61187070001E+01  0.23691859715E+01 -0.94449226085E+01  0.11500355684E+02  0.51100000000E-03 0.  1.
         12    1    3    3    0    0 -0.99115169149E+01 -0.26188216427E+01 -0.24417093732E+02  0.26481896848E+02  0.00000000000E+00 0. -1.
</event>
<event>
 7    1  0.2655656E-009  0.4778727E+02  0.7816164E-02  0.1312668E+00
        -11   -1    0    0    0    0  0.00000000000E+00  0.00000000000E+00  0.45593999997E+02  0.45594000000E+02  0.51100000000E-03 0. -1.
         11   -1    0    0    0    0 -0.00000000000E+00 -0.00000000000E+00 -0.45593999997E+02  0.45594000000E+02  0.51100000000E-03 0.  1.
    9900012    2    1    2    0    0 -0.39211869174E+01  0.37294506533E+02 -0.21848734012E+02  0.47787273021E+02  0.20000009013E+02 0.  0.
        -12    1    1    2    0    0  0.39211869174E+01 -0.37294506533E+02  0.21848734012E+02  0.43400726979E+02  0.00000000000E+00 0.  1.
         11    1    3    3    0    0  0.22195292404E+01  0.31629922268E+01 -0.14868440747E+01  0.41402337421E+01  0.51100000000E-03 0. -1.
        -11    1    3    3    0    0  0.17681611207E+01  0.19558086529E+02 -0.18468809572E+02  0.26958154048E+02  0.51100000000E-03 0.  1.
        -12    1    3    3    0    0 -0.79088772785E+01  0.14573427777E+02 -0.18930803653E+01  0.16688885231E+02  0.00000000000E+00 0.  1.
</event>
<event>
 7    1  0.2655656E-009  0.4778727E+02  0.7816164E-02  0.1312668E+00
        -11   -1    0    0    0    0  0.00000000000E+00  0.00000000000E+00  0.45593999997E+02  0.45594000000E+02  0.51100000000E-03 0. -1.
         11   -1    0    0    0    0 -0.00000000000E+00 -0.00000000000E+00 -0.45593999997E+02  0.45594000000E+02  0.51100000000E-03 0.  1.
    9900012    2    1    2    0    0 -0.50451330085E+01 -0.14945416750E+02  0.40432711731E+02  0.47787273891E+02  0.20000012978E+02 0.  0.
        -12    1    1    2    0    0  0.50451330085E+01  0.14945416750E+02 -0.40432711731E+02  0.43400726109E+02  0.00000000000E+00 0.  1.
         11    1    3    3    0    0  0.34374315267E+01 -0.12375355964E+02  0.19454052246E+02  0.23311489008E+02  0.51100000000E-03 0. -1.
        -11    1    3    3    0    0  0.12983602706E+01 -0.72756869319E+00  0.28829589112E+00  0.15159849530E+01  0.51100000000E-03 0.  1.
         12    1    3    3    0    0 -0.97809248058E+01 -0.18424920928E+01  0.20690363594E+02  0.22959799930E+02  0.00000000000E+00 0. -1.
</event>
<event>
 7    1  0.2655656E-009  0.4778726E+02  0.7816164E-02  0.1312668E+00
        -11   -1    0    0    0    0  0.00000000000E+00  0.00000000000E+00  0.45593999997E+02  0.45594000000E+02  0.51100000000E-03 0.  1.
         11   -1    0    0    0    0 -0.00000000000E+00 -0.00000000000E+00 -0.45593999997E+02  0.45594000000E+02  0.51100000000E-03 0. -1.
    9900012    2    1    2    0    0  0.16267334528E+02  0.13962912075E+02 -0.37736387602E+02  0.47787262270E+02  0.19999959995E+02 0.  0.
        -12    1    1    2    0    0 -0.16267334528E+02 -0.13962912075E+02  0.37736387602E+02  0.43400737730E+02  0.00000000000E+00 0.  1.
         11    1    3    3    0    0 -0.14740061549E+01  0.10171804522E+02 -0.18230605871E+02  0.20928289277E+02  0.51100000000E-03 0. -1.
        -11    1    3    3    0    0  0.12150455904E+02  0.28649439624E+01 -0.15582539101E+02  0.19966396963E+02  0.51100000000E-03 0.  1.
         12    1    3    3    0    0  0.55908847786E+01  0.92616359125E+00 -0.39232426295E+01  0.68925760304E+01  0.00000000000E+00 0. -1.
</event>
<event>
 7    1  0.2655656E-009  0.4778727E+02  0.7816164E-02  0.1312668E+00
        -11   -1    0    0    0    0  0.00000000000E+00  0.00000000000E+00  0.45593999997E+02  0.45594000000E+02  0.51100000000E-03 0.  1.
         11   -1    0    0    0    0 -0.00000000000E+00 -0.00000000000E+00 -0.45593999997E+02  0.45594000000E+02  0.51100000000E-03 0. -1.
    9900012    2    1    2    0    0 -0.36164337928E+02  0.17873693011E+02 -0.16009229354E+02  0.47787266548E+02  0.19999979500E+02 0.  0.
        -12    1    1    2    0    0  0.36164337928E+02 -0.17873693011E+02  0.16009229354E+02  0.43400733452E+02  0.00000000000E+00 0.  1.
         11    1    3    3    0    0 -0.13884220224E+02  0.38123875019E+00 -0.10722945854E+02  0.17547036281E+02  0.51100000000E-03 0. -1.
        -11    1    3    3    0    0 -0.19309874999E+02  0.15147477510E+02 -0.77356061389E+01  0.25732410497E+02  0.51100000000E-03 0.  1.
        -12    1    3    3    0    0 -0.29702427061E+01  0.23449767505E+01  0.24493226387E+01  0.45078197704E+01  0.00000000000E+00 0.  1.
</event>
<event>
 7    1  0.2655656E-009  0.4778727E+02  0.7816164E-02  0.1312668E+00
        -11   -1    0    0    0    0  0.00000000000E+00  0.00000000000E+00  0.45593999997E+02  0.45594000000E+02  0.51100000000E-03 0.  1.
         11   -1    0    0    0    0 -0.00000000000E+00 -0.00000000000E+00 -0.45593999997E+02  0.45594000000E+02  0.51100000000E-03 0. -1.
    9900012    2    1    2    0    0  0.13371658795E+02  0.33590930694E+02 -0.24009814646E+02  0.47787273241E+02  0.20000010015E+02 0.  0.
        -12    1    1    2    0    0 -0.13371658795E+02 -0.33590930694E+02  0.24009814646E+02  0.43400726759E+02  0.00000000000E+00 0.  1.
         11    1    3    3    0    0  0.80836778176E+01  0.93579509505E+01 -0.17764771720E+02  0.21644958018E+02  0.51100000000E-03 0. -1.
        -11    1    3    3    0    0  0.24088523646E+01  0.17102938649E+02 -0.20777257285E+01  0.17396264674E+02  0.51100000000E-03 0.  1.
         12    1    3    3    0    0  0.28791286133E+01  0.71300410944E+01 -0.41673171975E+01  0.87460505490E+01  0.00000000000E+00 0. -1.
</event>
<event>
 7    1  0.2655656E-009  0.4778724E+02  0.7816164E-02  0.1312668E+00
        -11   -1    0    0    0    0  0.00000000000E+00  0.00000000000E+00  0.45593999997E+02  0.45594000000E+02  0.51100000000E-03 0.  1.
         11   -1    0    0    0    0 -0.00000000000E+00 -0.00000000000E+00 -0.45593999997E+02  0.45594000000E+02  0.51100000000E-03 0. -1.
    9900012    2    1    2    0    0  0.32879102134E+02 -0.13757109559E+02 -0.24765554938E+02  0.47787238117E+02  0.19999849872E+02 0.  0.
        -12    1    1    2    0    0 -0.32879102134E+02  0.13757109559E+02  0.24765554938E+02  0.43400761883E+02  0.00000000000E+00 0.  1.
         11    1    3    3    0    0  0.99487899399E+01  0.30961311912E+01 -0.70057696374E+01  0.12555686285E+02  0.51100000000E-03 0. -1.
        -11    1    3    3    0    0  0.22045745413E+02 -0.14521333049E+02 -0.12085782263E+02  0.29033603591E+02  0.51100000000E-03 0.  1.
        -12    1    3    3    0    0  0.88456678173E+00 -0.23319077018E+01 -0.56740030381E+01  0.61979482410E+01  0.00000000000E+00 0.  1.
</event>
<event>
 7    1  0.2655656E-009  0.4778727E+02  0.7816164E-02  0.1312668E+00
        -11   -1    0    0    0    0  0.00000000000E+00  0.00000000000E+00  0.45593999997E+02  0.45594000000E+02  0.51100000000E-03 0.  1.
         11   -1    0    0    0    0 -0.00000000000E+00 -0.00000000000E+00 -0.45593999997E+02  0.45594000000E+02  0.51100000000E-03 0. -1.
    9900012    2    1    2    0    0 -0.42682241652E+02 -0.23180970127E+01  0.75150467103E+01  0.47787271282E+02  0.20000001084E+02 0.  0.
        -12    1    1    2    0    0  0.42682241652E+02  0.23180970127E+01 -0.75150467103E+01  0.43400728718E+02  0.00000000000E+00 0.  1.
         11    1    3    3    0    0 -0.30651525986E+00  0.30577389214E+00 -0.15318204850E+01  0.15918302475E+01  0.51100000000E-03 0. -1.
        -11    1    3    3    0    0 -0.43187693529E+02 -0.67923793011E+00  0.85784229546E+01  0.44036661740E+02  0.51100000000E-03 0.  1.
        -12    1    3    3    0    0  0.81196713723E+00 -0.19446329747E+01  0.46844424074E+00  0.21587792951E+01  0.00000000000E+00 0.  1.
</event>
<event>
 7    1  0.2655656E-009  0.4778727E+02  0.7816164E-02  0.1312668E+00
        -11   -1    0    0    0    0  0.00000000000E+00  0.00000000000E+00  0.45593999997E+02  0.45594000000E+02  0.51100000000E-03 0.  1.
         11   -1    0    0    0    0 -0.00000000000E+00 -0.00000000000E+00 -0.45593999997E+02  0.45594000000E+02  0.51100000000E-03 0. -1.
    9900012    2    1    2    0    0  0.15151984311E+02  0.25972000884E+02 -0.31296899993E+02  0.47787269503E+02  0.19999992973E+02 0.  0.
        -12    1    1    2    0    0 -0.15151984311E+02 -0.25972000884E+02  0.31296899993E+02  0.43400730497E+02  0.00000000000E+00 0.  1.
         11    1    3    3    0    0  0.73592541347E+01  0.32176722553E+01 -0.30133753846E+01  0.85786052264E+01  0.51100000000E-03 0. -1.
        -11    1    3    3    0    0  0.61668432305E+01  0.23652951708E+02 -0.28241225809E+02  0.37350487486E+02  0.51100000000E-03 0.  1.
        -12    1    3    3    0    0  0.16258869456E+01 -0.89862307916E+00 -0.42298799066E-01  0.18581767910E+01  0.00000000000E+00 0.  1.
</event>
<event>
 7    1  0.2655656E-009  0.4778727E+02  0.7816164E-02  0.1312668E+00
        -11   -1    0    0    0    0  0.00000000000E+00  0.00000000000E+00  0.45593999997E+02  0.45594000000E+02  0.51100000000E-03 0.  1.
         11   -1    0    0    0    0 -0.00000000000E+00 -0.00000000000E+00 -0.45593999997E+02  0.45594000000E+02  0.51100000000E-03 0. -1.
    9900012    2    1    2    0    0  0.15956866143E+02 -0.13258785602E+01 -0.40339115247E+02  0.47787265560E+02  0.19999974992E+02 0.  0.
        -12    1    1    2    0    0 -0.15956866143E+02  0.13258785602E+01  0.40339115247E+02  0.43400734440E+02  0.00000000000E+00 0.  1.
         11    1    3    3    0    0  0.25119784302E+01  0.54408670785E+01 -0.20994923431E+02  0.21833457819E+02  0.51100000000E-03 0. -1.
        -11    1    3    3    0    0  0.97405167803E+01 -0.66896676452E+01 -0.86732749969E+01  0.14657933681E+02  0.51100000000E-03 0.  1.
        -12    1    3    3    0    0  0.37043709324E+01 -0.77077993517E-01 -0.10670916819E+02  0.11295874060E+02  0.00000000000E+00 0.  1.
</event>
<event>
 7    1  0.2655656E-009  0.4778727E+02  0.7816164E-02  0.1312668E+00
        -11   -1    0    0    0    0  0.00000000000E+00  0.00000000000E+00  0.45593999997E+02  0.45594000000E+02  0.51100000000E-03 0. -1.
         11   -1    0    0    0    0 -0.00000000000E+00 -0.00000000000E+00 -0.45593999997E+02  0.45594000000E+02  0.51100000000E-03 0.  1.
    9900012    2    1    2    0    0 -0.12222849822E+01 -0.39694671674E+02  0.17506065798E+02  0.47787270978E+02  0.19999999698E+02 0.  0.
        -12    1    1    2    0    0  0.12222849822E+01  0.39694671674E+02 -0.17506065798E+02  0.43400729022E+02  0.00000000000E+00 0.  1.
         11    1    3    3    0    0 -0.52203236905E+01 -0.66774683861E+01  0.57205387997E+01  0.10225699384E+02  0.51100000000E-03 0.  1.
        -11    1    3    3    0    0  0.20073721357E+01 -0.30153366228E+02  0.14128729288E+02  0.33359796602E+02  0.51100000000E-03 0. -1.
        -12    1    3    3    0    0  0.19906665726E+01 -0.28638370606E+01 -0.23432022898E+01  0.42017749921E+01  0.00000000000E+00 0.  1.
</event>
<event>
 7    1  0.2655656E-009  0.4778727E+02  0.7816164E-02  0.1312668E+00
        -11   -1    0    0    0    0  0.00000000000E+00  0.00000000000E+00  0.45593999997E+02  0.45594000000E+02  0.51100000000E-03 0. -1.
         11   -1    0    0    0    0 -0.00000000000E+00 -0.00000000000E+00 -0.45593999997E+02  0.45594000000E+02  0.51100000000E-03 0.  1.
    9900012    2    1    2    0    0  0.30533539903E+02  0.25089815698E+02  0.17939545247E+02  0.47787271960E+02  0.20000004174E+02 0.  0.
        -12    1    1    2    0    0 -0.30533539903E+02 -0.25089815698E+02 -0.17939545247E+02  0.43400728040E+02  0.00000000000E+00 0.  1.
         11    1    3    3    0    0  0.61660018295E+01  0.53125765309E+01  0.18711105452E+01  0.83512934861E+01  0.51100000000E-03 0. -1.
        -11    1    3    3    0    0  0.83277153858E+01  0.18046952365E+02  0.85315302863E+01  0.21629386087E+02  0.51100000000E-03 0.  1.
        -12    1    3    3    0    0  0.16039822688E+02  0.17302868018E+01  0.75369044155E+01  0.17806592387E+02  0.00000000000E+00 0.  1.
</event>
<event>
 7    1  0.2655656E-009  0.4778727E+02  0.7816164E-02  0.1312668E+00
        -11   -1    0    0    0    0  0.00000000000E+00  0.00000000000E+00  0.45593999997E+02  0.45594000000E+02  0.51100000000E-03 0. -1.
         11   -1    0    0    0    0 -0.00000000000E+00 -0.00000000000E+00 -0.45593999997E+02  0.45594000000E+02  0.51100000000E-03 0.  1.
    9900012    2    1    2    0    0 -0.39351033420E+01  0.33281886276E+02  0.27576336440E+02  0.47787270468E+02  0.19999997372E+02 0.  0.
        -12    1    1    2    0    0  0.39351033420E+01 -0.33281886276E+02 -0.27576336440E+02  0.43400729532E+02  0.00000000000E+00 0.  1.
         11    1    3    3    0    0  0.37430219785E+01  0.86746457351E+01 -0.22140138565E+00  0.94503286184E+01  0.51100000000E-03 0. -1.
        -11    1    3    3    0    0 -0.71090018775E+01  0.15894145525E+02  0.15900726404E+02  0.23579543467E+02  0.51100000000E-03 0.  1.
         12    1    3    3    0    0 -0.56912344293E+00  0.87130950163E+01  0.11897011422E+02  0.14757398383E+02  0.00000000000E+00 0. -1.
</event>
<event>
 7    1  0.2655656E-009  0.4778727E+02  0.7816164E-02  0.1312668E+00
        -11   -1    0    0    0    0  0.00000000000E+00  0.00000000000E+00  0.45593999997E+02  0.45594000000E+02  0.51100000000E-03 0. -1.
         11   -1    0    0    0    0 -0.00000000000E+00 -0.00000000000E+00 -0.45593999997E+02  0.45594000000E+02  0.51100000000E-03 0.  1.
    9900012    2    1    2    0    0 -0.15579145701E+02  0.93246653692E+01  0.39420352431E+02  0.47787270158E+02  0.19999995959E+02 0.  0.
        -12    1    1    2    0    0  0.15579145701E+02 -0.93246653692E+01 -0.39420352431E+02  0.43400729842E+02  0.00000000000E+00 0.  1.
         11    1    3    3    0    0 -0.56986724929E+01  0.93068365631E+01  0.15165513660E+02  0.18683813311E+02  0.51100000000E-03 0. -1.
        -11    1    3    3    0    0 -0.10714424828E+02 -0.22516581914E+01  0.10609871137E+02  0.15245925023E+02  0.51100000000E-03 0.  1.
        -12    1    3    3    0    0  0.83395161990E+00  0.22694869976E+01  0.13644967634E+02  0.13857531825E+02  0.00000000000E+00 0.  1.
</event>
<event>
 7    1  0.2655656E-009  0.4778727E+02  0.7816164E-02  0.1312668E+00
        -11   -1    0    0    0    0  0.00000000000E+00  0.00000000000E+00  0.45593999997E+02  0.45594000000E+02  0.51100000000E-03 0.  1.
         11   -1    0    0    0    0 -0.00000000000E+00 -0.00000000000E+00 -0.45593999997E+02  0.45594000000E+02  0.51100000000E-03 0. -1.
    9900012    2    1    2    0    0 -0.31040214135E+02 -0.47844944822E+01 -0.29953919581E+02  0.47787267526E+02  0.19999983958E+02 0.  0.
        -12    1    1    2    0    0  0.31040214135E+02  0.47844944822E+01  0.29953919581E+02  0.43400732474E+02  0.00000000000E+00 0.  1.
         11    1    3    3    0    0 -0.16351075999E+02 -0.11864625365E+02 -0.14845199969E+02  0.25070041559E+02  0.51100000000E-03 0. -1.
        -11    1    3    3    0    0 -0.11386444370E+00 -0.51571769187E+00 -0.50681356686E+00  0.73197684521E+00  0.51100000000E-03 0.  1.
         12    1    3    3    0    0 -0.14575273693E+02  0.75958485751E+01 -0.14601906045E+02  0.21985249122E+02  0.00000000000E+00 0. -1.
</event>
<event>
 7    1  0.2655656E-009  0.4778727E+02  0.7816164E-02  0.1312668E+00
        -11   -1    0    0    0    0  0.00000000000E+00  0.00000000000E+00  0.45593999997E+02  0.45594000000E+02  0.51100000000E-03 0. -1.
         11   -1    0    0    0    0 -0.00000000000E+00 -0.00000000000E+00 -0.45593999997E+02  0.45594000000E+02  0.51100000000E-03 0.  1.
    9900012    2    1    2    0    0  0.31017384634E+02 -0.24717941257E+02  0.17622955815E+02  0.47787270269E+02  0.19999996464E+02 0.  0.
        -12    1    1    2    0    0 -0.31017384634E+02  0.24717941257E+02 -0.17622955815E+02  0.43400729731E+02  0.00000000000E+00 0.  1.
         11    1    3    3    0    0  0.10842290285E+02 -0.13622721283E+02  0.16790560609E+02  0.24187945750E+02  0.51100000000E-03 0. -1.
        -11    1    3    3    0    0  0.10184061819E+02 -0.78107910115E+01 -0.11902774254E+01  0.12889543512E+02  0.51100000000E-03 0.  1.
         12    1    3    3    0    0  0.99910325302E+01 -0.32844289624E+01  0.20226726312E+01  0.10709781006E+02  0.00000000000E+00 0. -1.
</event>
<event>
 7    1  0.2655656E-009  0.4778727E+02  0.7816164E-02  0.1312668E+00
        -11   -1    0    0    0    0  0.00000000000E+00  0.00000000000E+00  0.45593999997E+02  0.45594000000E+02  0.51100000000E-03 0. -1.
         11   -1    0    0    0    0 -0.00000000000E+00 -0.00000000000E+00 -0.45593999997E+02  0.45594000000E+02  0.51100000000E-03 0.  1.
    9900012    2    1    2    0    0 -0.33079842307E+01 -0.28529039134E+02  0.32538811656E+02  0.47787273075E+02  0.20000009260E+02 0.  0.
        -12    1    1    2    0    0  0.33079842307E+01  0.28529039134E+02 -0.32538811656E+02  0.43400726925E+02  0.00000000000E+00 0.  1.
         11    1    3    3    0    0 -0.17841990840E+01 -0.17496345376E+01  0.13782086118E+02  0.14006801399E+02  0.51100000000E-03 0. -1.
        -11    1    3    3    0    0  0.12020201927E+00 -0.92966658975E+01  0.20037302755E+01  0.95109085062E+01  0.51100000000E-03 0.  1.
         12    1    3    3    0    0 -0.16439871659E+01 -0.17482738699E+02  0.16752995262E+02  0.24269563170E+02  0.00000000000E+00 0. -1.
</event>
<event>
 7    1  0.2655656E-009  0.4778728E+02  0.7816164E-02  0.1312668E+00
        -11   -1    0    0    0    0  0.00000000000E+00  0.00000000000E+00  0.45593999997E+02  0.45594000000E+02  0.51100000000E-03 0. -1.
         11   -1    0    0    0    0 -0.00000000000E+00 -0.00000000000E+00 -0.45593999997E+02  0.45594000000E+02  0.51100000000E-03 0.  1.
    9900012    2    1    2    0    0 -0.26311184366E+02  0.27790126359E+02  0.20470785689E+02  0.47787278664E+02  0.20000034739E+02 0.  0.
        -12    1    1    2    0    0  0.26311184366E+02 -0.27790126359E+02 -0.20470785689E+02  0.43400721336E+02  0.00000000000E+00 0.  1.
         11    1    3    3    0    0 -0.46226028441E+01  0.17363227432E+01  0.10166542025E+02  0.11302294047E+02  0.51100000000E-03 0. -1.
        -11    1    3    3    0    0 -0.98532105151E+01  0.18496565496E+02  0.61659709813E+01  0.21845546251E+02  0.51100000000E-03 0.  1.
        -12    1    3    3    0    0 -0.11835371006E+02  0.75572381204E+01  0.41382726832E+01  0.14639438366E+02  0.00000000000E+00 0.  1.
</event>
<event>
 7    1  0.2655656E-009  0.4778727E+02  0.7816164E-02  0.1312668E+00
        -11   -1    0    0    0    0  0.00000000000E+00  0.00000000000E+00  0.45593999997E+02  0.45594000000E+02  0.51100000000E-03 0. -1.
         11   -1    0    0    0    0 -0.00000000000E+00 -0.00000000000E+00 -0.45593999997E+02  0.45594000000E+02  0.51100000000E-03 0.  1.
    9900012    2    1    2    0    0  0.12873340954E+02 -0.40436621095E+02  0.90983470256E+01  0.47787272454E+02  0.20000006426E+02 0.  0.
        -12    1    1    2    0    0 -0.12873340954E+02  0.40436621095E+02 -0.90983470256E+01  0.43400727546E+02  0.00000000000E+00 0.  1.
         11    1    3    3    0    0  0.49565070173E+01 -0.13289108102E+02  0.34247310451E+01  0.14590960865E+02  0.51100000000E-03 0. -1.
        -11    1    3    3    0    0  0.12454950464E+02 -0.19890992345E+02  0.11051861763E+01  0.23494654802E+02  0.51100000000E-03 0.  1.
        -12    1    3    3    0    0 -0.45381165272E+01 -0.72565206485E+01  0.45684298043E+01  0.97016567870E+01  0.00000000000E+00 0.  1.
</event>
<event>
 7    1  0.2655656E-009  0.4778727E+02  0.7816164E-02  0.1312668E+00
        -11   -1    0    0    0    0  0.00000000000E+00  0.00000000000E+00  0.45593999997E+02  0.45594000000E+02  0.51100000000E-03 0.  1.
         11   -1    0    0    0    0 -0.00000000000E+00 -0.00000000000E+00 -0.45593999997E+02  0.45594000000E+02  0.51100000000E-03 0. -1.
    9900012    2    1    2    0    0  0.31110239905E+02  0.26071967044E+02 -0.15363236964E+02  0.47787267949E+02  0.19999985888E+02 0.  0.
        -12    1    1    2    0    0 -0.31110239905E+02 -0.26071967044E+02  0.15363236964E+02  0.43400732051E+02  0.00000000000E+00 0.  1.
         11    1    3    3    0    0 -0.11462556296E+01  0.34823284617E+01  0.15592125391E+01  0.39839248847E+01  0.51100000000E-03 0.  1.
        -11    1    3    3    0    0  0.97470087204E+01  0.96508489091E+01 -0.20122300990E+01  0.13863337762E+02  0.51100000000E-03 0. -1.
         12    1    3    3    0    0  0.22509486814E+02  0.12938789673E+02 -0.14910219404E+02  0.29940005303E+02  0.00000000000E+00 0. -1.
</event>
<event>
 7    1  0.2655656E-009  0.4778728E+02  0.7816164E-02  0.1312668E+00
        -11   -1    0    0    0    0  0.00000000000E+00  0.00000000000E+00  0.45593999997E+02  0.45594000000E+02  0.51100000000E-03 0.  1.
         11   -1    0    0    0    0 -0.00000000000E+00 -0.00000000000E+00 -0.45593999997E+02  0.45594000000E+02  0.51100000000E-03 0. -1.
    9900012    2    1    2    0    0 -0.10550053757E+02  0.73105880916E+01 -0.41459307350E+02  0.47787279978E+02  0.20000040730E+02 0.  0.
        -12    1    1    2    0    0  0.10550053757E+02 -0.73105880916E+01  0.41459307350E+02  0.43400720022E+02  0.00000000000E+00 0.  1.
         11    1    3    3    0    0 -0.23648556481E+01 -0.60868781541E+01 -0.71213586396E+01  0.96621103820E+01  0.51100000000E-03 0. -1.
        -11    1    3    3    0    0 -0.71730660215E+01  0.67786898806E+01 -0.20251606790E+02  0.22528450690E+02  0.51100000000E-03 0.  1.
         12    1    3    3    0    0 -0.10121320877E+01  0.66187763651E+01 -0.14086341920E+02  0.15596718905E+02  0.00000000000E+00 0. -1.
</event>
<event>
 7    1  0.2655656E-009  0.4778727E+02  0.7816164E-02  0.1312668E+00
        -11   -1    0    0    0    0  0.00000000000E+00  0.00000000000E+00  0.45593999997E+02  0.45594000000E+02  0.51100000000E-03 0.  1.
         11   -1    0    0    0    0 -0.00000000000E+00 -0.00000000000E+00 -0.45593999997E+02  0.45594000000E+02  0.51100000000E-03 0. -1.
    9900012    2    1    2    0    0  0.10011573489E+02  0.36660729271E+02 -0.20961451635E+02  0.47787272713E+02  0.20000007607E+02 0.  0.
        -12    1    1    2    0    0 -0.10011573489E+02 -0.36660729271E+02  0.20961451635E+02  0.43400727287E+02  0.00000000000E+00 0.  1.
         11    1    3    3    0    0  0.98737853585E+01  0.12032740019E+02 -0.16071796405E+02  0.22373670007E+02  0.51100000000E-03 0. -1.
        -11    1    3    3    0    0 -0.15256664976E+01  0.10169559577E+02 -0.89897064293E+00  0.10322584401E+02  0.51100000000E-03 0.  1.
         12    1    3    3    0    0  0.16634546280E+01  0.14458429675E+02 -0.39906845877E+01  0.15091018304E+02  0.00000000000E+00 0. -1.
</event>
<event>
 7    1  0.2655656E-009  0.4778726E+02  0.7816164E-02  0.1312668E+00
        -11   -1    0    0    0    0  0.00000000000E+00  0.00000000000E+00  0.45593999997E+02  0.45594000000E+02  0.51100000000E-03 0.  1.
         11   -1    0    0    0    0 -0.00000000000E+00 -0.00000000000E+00 -0.45593999997E+02  0.45594000000E+02  0.51100000000E-03 0. -1.
    9900012    2    1    2    0    0 -0.35555365733E+02 -0.12256705948E+02 -0.21661332013E+02  0.47787260632E+02  0.19999952525E+02 0.  0.
        -12    1    1    2    0    0  0.35555365733E+02  0.12256705948E+02  0.21661332013E+02  0.43400739368E+02  0.00000000000E+00 0.  1.
         11    1    3    3    0    0 -0.17427779998E+02 -0.14817450922E+02 -0.16047826632E+02  0.27943104827E+02  0.51100000000E-03 0. -1.
        -11    1    3    3    0    0  0.16754331456E+00  0.61228365168E+00 -0.20530670871E+00  0.66716799843E+00  0.51100000000E-03 0.  1.
         12    1    3    3    0    0 -0.18295129049E+02  0.19484613225E+01 -0.54081986731E+01  0.19176987807E+02  0.00000000000E+00 0. -1.
</event>
<event>
 7    1  0.2655656E-009  0.4778730E+02  0.7816164E-02  0.1312668E+00
        -11   -1    0    0    0    0  0.00000000000E+00  0.00000000000E+00  0.45593999997E+02  0.45594000000E+02  0.51100000000E-03 0.  1.
         11   -1    0    0    0    0 -0.00000000000E+00 -0.00000000000E+00 -0.45593999997E+02  0.45594000000E+02  0.51100000000E-03 0. -1.
    9900012    2    1    2    0    0 -0.30422427382E+00 -0.10814460696E+02 -0.42030649577E+02  0.47787301660E+02  0.20000139587E+02 0.  0.
        -12    1    1    2    0    0  0.30422427382E+00  0.10814460696E+02  0.42030649577E+02  0.43400698340E+02  0.00000000000E+00 0.  1.
         11    1    3    3    0    0 -0.13927140423E+01 -0.38465102148E+01 -0.80019947472E+01  0.89870581077E+01  0.51100000000E-03 0. -1.
        -11    1    3    3    0    0 -0.77278734368E+01 -0.59618059838E+01 -0.17265145894E+02  0.19833013424E+02  0.51100000000E-03 0.  1.
        -12    1    3    3    0    0  0.88163632053E+01 -0.10061444975E+01 -0.16763508935E+02  0.18967230128E+02  0.00000000000E+00 0.  1.
</event>
<event>
 7    1  0.2655656E-009  0.4778727E+02  0.7816164E-02  0.1312668E+00
        -11   -1    0    0    0    0  0.00000000000E+00  0.00000000000E+00  0.45593999997E+02  0.45594000000E+02  0.51100000000E-03 0. -1.
         11   -1    0    0    0    0 -0.00000000000E+00 -0.00000000000E+00 -0.45593999997E+02  0.45594000000E+02  0.51100000000E-03 0.  1.
    9900012    2    1    2    0    0  0.42098806126E+02  0.92802505353E+01  0.50190350489E+01  0.47787271434E+02  0.20000001778E+02 0.  0.
        -12    1    1    2    0    0 -0.42098806126E+02 -0.92802505353E+01 -0.50190350489E+01  0.43400728566E+02  0.00000000000E+00 0.  1.
         11    1    3    3    0    0  0.33805763780E+02  0.47923582957E+00  0.59240629345E+00  0.33814350167E+02  0.51100000000E-03 0. -1.
        -11    1    3    3    0    0  0.28915566993E+01  0.59104731115E+01  0.30056409940E+00  0.65867390707E+01  0.51100000000E-03 0.  1.
         12    1    3    3    0    0  0.54014856464E+01  0.28905415942E+01  0.41260646561E+01  0.73861821967E+01  0.00000000000E+00 0. -1.
</event>
<event>
 7    1  0.2655656E-009  0.4778727E+02  0.7816164E-02  0.1312668E+00
        -11   -1    0    0    0    0  0.00000000000E+00  0.00000000000E+00  0.45593999997E+02  0.45594000000E+02  0.51100000000E-03 0.  1.
         11   -1    0    0    0    0 -0.00000000000E+00 -0.00000000000E+00 -0.45593999997E+02  0.45594000000E+02  0.51100000000E-03 0. -1.
    9900012    2    1    2    0    0 -0.68483103913E+01 -0.17609599842E+01 -0.42820829282E+02  0.47787265494E+02  0.19999974691E+02 0.  0.
        -12    1    1    2    0    0  0.68483103913E+01  0.17609599842E+01  0.42820829282E+02  0.43400734506E+02  0.00000000000E+00 0.  1.
         11    1    3    3    0    0  0.10278816043E+01  0.36761605861E+01 -0.31874647309E+00  0.38304434237E+01  0.51100000000E-03 0.  1.
        -11    1    3    3    0    0 -0.67551873585E+01 -0.13413380549E+01 -0.23648540816E+02  0.24630981040E+02  0.51100000000E-03 0. -1.
        -12    1    3    3    0    0 -0.11210046371E+01 -0.40957825153E+01 -0.18853541993E+02  0.19325841030E+02  0.00000000000E+00 0.  1.
</event>
<event>
 7    1  0.2655656E-009  0.4778726E+02  0.7816164E-02  0.1312668E+00
        -11   -1    0    0    0    0  0.00000000000E+00  0.00000000000E+00  0.45593999997E+02  0.45594000000E+02  0.51100000000E-03 0. -1.
         11   -1    0    0    0    0 -0.00000000000E+00 -0.00000000000E+00 -0.45593999997E+02  0.45594000000E+02  0.51100000000E-03 0.  1.
    9900012    2    1    2    0    0 -0.19132057054E+02 -0.37672397275E+02  0.99186208936E+01  0.47787260790E+02  0.19999953245E+02 0.  0.
        -12    1    1    2    0    0  0.19132057054E+02  0.37672397275E+02 -0.99186208936E+01  0.43400739210E+02  0.00000000000E+00 0.  1.
         11    1    3    3    0    0 -0.90792430453E+01 -0.28214232423E+02  0.74360701378E+01  0.30557661967E+02  0.51100000000E-03 0. -1.
        -11    1    3    3    0    0 -0.10790898395E+02 -0.40694072074E+01  0.91403529594E+00  0.11568881708E+02  0.51100000000E-03 0.  1.
        -12    1    3    3    0    0  0.73808438637E+00 -0.53887576447E+01  0.15685154599E+01  0.56607171156E+01  0.00000000000E+00 0.  1.
</event>
<event>
 7    1  0.2655656E-009  0.4778727E+02  0.7816164E-02  0.1312668E+00
        -11   -1    0    0    0    0  0.00000000000E+00  0.00000000000E+00  0.45593999997E+02  0.45594000000E+02  0.51100000000E-03 0.  1.
         11   -1    0    0    0    0 -0.00000000000E+00 -0.00000000000E+00 -0.45593999997E+02  0.45594000000E+02  0.51100000000E-03 0. -1.
    9900012    2    1    2    0    0  0.31073637417E+01 -0.34338474568E+01 -0.43152939852E+02  0.47787271485E+02  0.20000002008E+02 0.  0.
        -12    1    1    2    0    0 -0.31073637417E+01  0.34338474568E+01  0.43152939852E+02  0.43400728515E+02  0.00000000000E+00 0.  1.
         11    1    3    3    0    0 -0.27462751579E+00 -0.12877931275E+01 -0.36956822660E+02  0.36980272752E+02  0.51100000000E-03 0. -1.
        -11    1    3    3    0    0  0.28165110311E+01  0.27345406324E+01 -0.24356935737E+01  0.46198539268E+01  0.51100000000E-03 0.  1.
         12    1    3    3    0    0  0.56548022639E+00 -0.48805949617E+01 -0.37604236180E+01  0.61871448063E+01  0.00000000000E+00 0. -1.
</event>
<event>
 7    1  0.2655656E-009  0.4778727E+02  0.7816164E-02  0.1312668E+00
        -11   -1    0    0    0    0  0.00000000000E+00  0.00000000000E+00  0.45593999997E+02  0.45594000000E+02  0.51100000000E-03 0. -1.
         11   -1    0    0    0    0 -0.00000000000E+00 -0.00000000000E+00 -0.45593999997E+02  0.45594000000E+02  0.51100000000E-03 0.  1.
    9900012    2    1    2    0    0 -0.28388371687E+02 -0.24607564021E+02  0.21729963486E+02  0.47787272274E+02  0.20000005604E+02 0.  0.
        -12    1    1    2    0    0  0.28388371687E+02  0.24607564021E+02 -0.21729963486E+02  0.43400727726E+02  0.00000000000E+00 0.  1.
         11    1    3    3    0    0 -0.85214462605E+01 -0.28804409025E+01 -0.33755686253E+00  0.90014404992E+01  0.51100000000E-03 0. -1.
        -11    1    3    3    0    0 -0.72634783902E+01 -0.14113635306E+02  0.16888555035E+02  0.23177060023E+02  0.51100000000E-03 0.  1.
        -12    1    3    3    0    0 -0.12603447036E+02 -0.76134878124E+01  0.51789653135E+01  0.15608771751E+02  0.00000000000E+00 0.  1.
</event>
<event>
 7    1  0.2655656E-009  0.4778727E+02  0.7816164E-02  0.1312668E+00
        -11   -1    0    0    0    0  0.00000000000E+00  0.00000000000E+00  0.45593999997E+02  0.45594000000E+02  0.51100000000E-03 0.  1.
         11   -1    0    0    0    0 -0.00000000000E+00 -0.00000000000E+00 -0.45593999997E+02  0.45594000000E+02  0.51100000000E-03 0. -1.
    9900012    2    1    2    0    0  0.20970368033E+02 -0.33154092385E+02 -0.18565366952E+02  0.47787273885E+02  0.20000012949E+02 0.  0.
        -12    1    1    2    0    0 -0.20970368033E+02  0.33154092385E+02  0.18565366952E+02  0.43400726115E+02  0.00000000000E+00 0.  1.
         11    1    3    3    0    0  0.59232835100E-01 -0.32365516986E+01 -0.48787328544E+01  0.58549816355E+01  0.51100000000E-03 0. -1.
        -11    1    3    3    0    0  0.10379458065E+02 -0.16202581679E+02 -0.15274288648E+02  0.24567472332E+02  0.51100000000E-03 0.  1.
        -12    1    3    3    0    0  0.10531677133E+02 -0.13714959007E+02  0.15876545507E+01  0.17364819917E+02  0.00000000000E+00 0.  1.
</event>
<event>
 7    1  0.2655656E-009  0.4778727E+02  0.7816164E-02  0.1312668E+00
        -11   -1    0    0    0    0  0.00000000000E+00  0.00000000000E+00  0.45593999997E+02  0.45594000000E+02  0.51100000000E-03 0.  1.
         11   -1    0    0    0    0 -0.00000000000E+00 -0.00000000000E+00 -0.45593999997E+02  0.45594000000E+02  0.51100000000E-03 0. -1.
    9900012    2    1    2    0    0  0.26915946707E+02  0.32734247275E+02 -0.93607959650E+01  0.47787266908E+02  0.19999981140E+02 0.  0.
        -12    1    1    2    0    0 -0.26915946707E+02 -0.32734247275E+02  0.93607959650E+01  0.43400733092E+02  0.00000000000E+00 0.  1.
         11    1    3    3    0    0  0.16484118534E+02  0.19867133680E+02  0.79346435204E-04  0.25815289361E+02  0.51100000000E-03 0. -1.
        -11    1    3    3    0    0 -0.19947589409E+01  0.44237997992E+01 -0.24129052845E+01  0.54195184351E+01  0.51100000000E-03 0.  1.
        -12    1    3    3    0    0  0.12426587115E+02  0.84433137959E+01 -0.69479700270E+01  0.16552459112E+02  0.00000000000E+00 0.  1.
</event>
