<event>
 7    1  0.1543346E-008  0.4614232E+02  0.7816164E-02  0.1320468E+00
        -11   -1    0    0    0    0  0.00000000000E+00  0.00000000000E+00  0.45593999997E+02  0.45594000000E+02  0.51100000000E-03 0. -1.
         11   -1    0    0    0    0 -0.00000000000E+00 -0.00000000000E+00 -0.45593999997E+02  0.45594000000E+02  0.51100000000E-03 0.  1.
    9900012    2    1    2    0    0 -0.16190345899E+02  0.29074493845E+02  0.30358855352E+02  0.46142316622E+02  0.99999896163E+01 0.  0.
        -12    1    1    2    0    0  0.16190345899E+02 -0.29074493845E+02 -0.30358855352E+02  0.45045683378E+02  0.00000000000E+00 0.  1.
         11    1    3    3    0    0 -0.77109708766E+01  0.11737115852E+02  0.12649219126E+02  0.18900309658E+02  0.51100000000E-03 0. -1.
        -11    1    3    3    0    0 -0.30863833020E+00  0.78683170334E+01  0.92246313332E+01  0.12128458024E+02  0.51100000000E-03 0.  1.
        -12    1    3    3    0    0 -0.81707366922E+01  0.94690609592E+01  0.84850048928E+01  0.15113548940E+02  0.00000000000E+00 0.  1.
</event>
<event>
 7    1  0.1543346E-008  0.4614232E+02  0.7816164E-02  0.1320468E+00
        -11   -1    0    0    0    0  0.00000000000E+00  0.00000000000E+00  0.45593999997E+02  0.45594000000E+02  0.51100000000E-03 0. -1.
         11   -1    0    0    0    0 -0.00000000000E+00 -0.00000000000E+00 -0.45593999997E+02  0.45594000000E+02  0.51100000000E-03 0.  1.
    9900012    2    1    2    0    0 -0.36584520924E+02  0.10899241600E+02  0.23914282649E+02  0.46142317041E+02  0.99999934293E+01 0.  0.
        -12    1    1    2    0    0  0.36584520924E+02 -0.10899241600E+02 -0.23914282649E+02  0.45045682959E+02  0.00000000000E+00 0.  1.
         11    1    3    3    0    0 -0.18810589001E+02  0.63118790979E+01  0.14960710322E+02  0.24849565990E+02  0.51100000000E-03 0. -1.
        -11    1    3    3    0    0 -0.48921978078E+01  0.15682775072E+01 -0.30144353922E+00  0.51462571058E+01  0.51100000000E-03 0.  1.
         12    1    3    3    0    0 -0.12881734116E+02  0.30190849947E+01  0.92550158656E+01  0.16146493945E+02  0.00000000000E+00 0. -1.
</event>
<event>
 7    1  0.1543346E-008  0.4614232E+02  0.7816164E-02  0.1320468E+00
        -11   -1    0    0    0    0  0.00000000000E+00  0.00000000000E+00  0.45593999997E+02  0.45594000000E+02  0.51100000000E-03 0.  1.
         11   -1    0    0    0    0 -0.00000000000E+00 -0.00000000000E+00 -0.45593999997E+02  0.45594000000E+02  0.51100000000E-03 0. -1.
    9900012    2    1    2    0    0  0.35911704436E+02 -0.26026088677E+02 -0.78807180679E+01  0.46142317359E+02  0.99999963313E+01 0.  0.
        -12    1    1    2    0    0 -0.35911704436E+02  0.26026088677E+02  0.78807180679E+01  0.45045682641E+02  0.00000000000E+00 0.  1.
         11    1    3    3    0    0  0.20627781763E+02 -0.13508088963E+02 -0.60544472411E+01  0.25389568321E+02  0.51100000000E-03 0. -1.
        -11    1    3    3    0    0  0.69942805305E+01 -0.93148330968E+01  0.14685045051E+00  0.11649362260E+02  0.51100000000E-03 0.  1.
        -12    1    3    3    0    0  0.82896421433E+01 -0.32031666176E+01 -0.19731212773E+01  0.91033867774E+01  0.00000000000E+00 0.  1.
</event>
<event>
 7    1  0.1543346E-008  0.4614232E+02  0.7816164E-02  0.1320468E+00
        -11   -1    0    0    0    0  0.00000000000E+00  0.00000000000E+00  0.45593999997E+02  0.45594000000E+02  0.51100000000E-03 0.  1.
         11   -1    0    0    0    0 -0.00000000000E+00 -0.00000000000E+00 -0.45593999997E+02  0.45594000000E+02  0.51100000000E-03 0. -1.
    9900012    2    1    2    0    0  0.91886888089E+01  0.40372704792E+02 -0.17740522786E+02  0.46142318265E+02  0.10000004598E+02 0.  0.
        -12    1    1    2    0    0 -0.91886888089E+01 -0.40372704792E+02  0.17740522786E+02  0.45045681735E+02  0.00000000000E+00 0.  1.
         11    1    3    3    0    0 -0.30073538808E+00  0.86933860312E+01 -0.63209860509E+01  0.10752686519E+02  0.51100000000E-03 0. -1.
        -11    1    3    3    0    0  0.79876741154E+01  0.18048792007E+02 -0.58209221005E+01  0.20577778428E+02  0.51100000000E-03 0.  1.
         12    1    3    3    0    0  0.15017500815E+01  0.13630526754E+02 -0.55986146345E+01  0.14811853318E+02  0.00000000000E+00 0. -1.
</event>
<event>
 7    1  0.1543346E-008  0.4614232E+02  0.7816164E-02  0.1320468E+00
        -11   -1    0    0    0    0  0.00000000000E+00  0.00000000000E+00  0.45593999997E+02  0.45594000000E+02  0.51100000000E-03 0.  1.
         11   -1    0    0    0    0 -0.00000000000E+00 -0.00000000000E+00 -0.45593999997E+02  0.45594000000E+02  0.51100000000E-03 0. -1.
    9900012    2    1    2    0    0 -0.27114089289E+01  0.44608531346E+02 -0.56427565331E+01  0.46142317537E+02  0.99999979593E+01 0.  0.
        -12    1    1    2    0    0  0.27114089289E+01 -0.44608531346E+02  0.56427565331E+01  0.45045682463E+02  0.00000000000E+00 0.  1.
         11    1    3    3    0    0 -0.13518412599E+01  0.16724359698E+02 -0.60261847014E+01  0.17828252422E+02  0.51100000000E-03 0. -1.
        -11    1    3    3    0    0 -0.38755447896E-01  0.60902885244E+00 -0.77012753500E+00  0.98260613123E+00  0.51100000000E-03 0.  1.
         12    1    3    3    0    0 -0.13208122211E+01  0.27275142796E+02  0.11535557033E+01  0.27331458984E+02  0.00000000000E+00 0. -1.
</event>
<event>
 7    1  0.1543346E-008  0.4614232E+02  0.7816164E-02  0.1320468E+00
        -11   -1    0    0    0    0  0.00000000000E+00  0.00000000000E+00  0.45593999997E+02  0.45594000000E+02  0.51100000000E-03 0. -1.
         11   -1    0    0    0    0 -0.00000000000E+00 -0.00000000000E+00 -0.45593999997E+02  0.45594000000E+02  0.51100000000E-03 0.  1.
    9900012    2    1    2    0    0 -0.12874818520E+02 -0.40456651773E+02  0.15053629382E+02  0.46142318939E+02  0.10000010745E+02 0.  0.
        -12    1    1    2    0    0  0.12874818520E+02  0.40456651773E+02 -0.15053629382E+02  0.45045681061E+02  0.00000000000E+00 0.  1.
         11    1    3    3    0    0 -0.81495365148E+01 -0.24826191644E+02  0.14158425371E+02  0.29718945913E+02  0.51100000000E-03 0. -1.
        -11    1    3    3    0    0 -0.10945599082E+01 -0.33045097886E+01 -0.42164419965E+00  0.35065125734E+01  0.51100000000E-03 0.  1.
         12    1    3    3    0    0 -0.36307220971E+01 -0.12325950341E+02  0.13168482110E+01  0.12916860453E+02  0.00000000000E+00 0. -1.
</event>
<event>
 7    1  0.1543346E-008  0.4614232E+02  0.7816164E-02  0.1320468E+00
        -11   -1    0    0    0    0  0.00000000000E+00  0.00000000000E+00  0.45593999997E+02  0.45594000000E+02  0.51100000000E-03 0. -1.
         11   -1    0    0    0    0 -0.00000000000E+00 -0.00000000000E+00 -0.45593999997E+02  0.45594000000E+02  0.51100000000E-03 0.  1.
    9900012    2    1    2    0    0  0.29242824190E+02 -0.31025320067E+02  0.14539610737E+02  0.46142317274E+02  0.99999955588E+01 0.  0.
        -12    1    1    2    0    0 -0.29242824190E+02  0.31025320067E+02 -0.14539610737E+02  0.45045682726E+02  0.00000000000E+00 0.  1.
         11    1    3    3    0    0  0.19337871869E+02 -0.16206327239E+02  0.61079123160E+01  0.25959678814E+02  0.51100000000E-03 0. -1.
        -11    1    3    3    0    0  0.37157344450E+01 -0.90615293796E+01  0.55191830752E+01  0.11241858354E+02  0.51100000000E-03 0.  1.
        -12    1    3    3    0    0  0.61892178767E+01 -0.57574634481E+01  0.29125153457E+01  0.89407801070E+01  0.00000000000E+00 0.  1.
</event>
<event>
 7    1  0.1596568E-008  0.4614232E+02  0.7816164E-02  0.1320468E+00
        -11   -1    0    0    0    0  0.00000000000E+00  0.00000000000E+00  0.45593999997E+02  0.45594000000E+02  0.51100000000E-03 0. -1.
         11   -1    0    0    0    0 -0.00000000000E+00 -0.00000000000E+00 -0.45593999997E+02  0.45594000000E+02  0.51100000000E-03 0.  1.
    9900012    2    1    2    0    0 -0.47426346187E+01  0.24203074374E+02  0.37693929011E+02  0.46142315672E+02  0.99999809533E+01 0.  0.
        -12    1    1    2    0    0  0.47426346187E+01 -0.24203074374E+02 -0.37693929011E+02  0.45045684328E+02  0.00000000000E+00 0.  1.
         11    1    3    3    0    0 -0.54517107268E+01  0.15758379022E+02  0.30582043553E+02  0.34832585999E+02  0.51100000000E-03 0. -1.
        -11    1    3    3    0    0  0.13557201227E+01  0.40300906106E+01  0.27107068051E+01  0.50425726594E+01  0.51100000000E-03 0.  1.
         12    1    3    3    0    0 -0.64664401460E+00  0.44146047414E+01  0.44011786531E+01  0.62671570142E+01  0.00000000000E+00 0. -1.
</event>
<event>
 7    1  0.1543346E-008  0.4614231E+02  0.7816164E-02  0.1320468E+00
        -11   -1    0    0    0    0  0.00000000000E+00  0.00000000000E+00  0.45593999997E+02  0.45594000000E+02  0.51100000000E-03 0.  1.
         11   -1    0    0    0    0 -0.00000000000E+00 -0.00000000000E+00 -0.45593999997E+02  0.45594000000E+02  0.51100000000E-03 0. -1.
    9900012    2    1    2    0    0 -0.31685965161E+01 -0.18759103401E+02 -0.40830990482E+02  0.46142314879E+02  0.99999737209E+01 0.  0.
        -12    1    1    2    0    0  0.31685965161E+01  0.18759103401E+02  0.40830990482E+02  0.45045685121E+02  0.00000000000E+00 0.  1.
         11    1    3    3    0    0 -0.40243245007E+01 -0.47502829182E+01 -0.65070160990E+01  0.90056445779E+01  0.51100000000E-03 0.  1.
        -11    1    3    3    0    0  0.29788311007E+00 -0.80616401094E+01 -0.22218276895E+02  0.23637483031E+02  0.51100000000E-03 0. -1.
        -12    1    3    3    0    0  0.55784487455E+00 -0.59471803729E+01 -0.12105697488E+02  0.13499187270E+02  0.00000000000E+00 0.  1.
</event>
<event>
 7    1  0.1543346E-008  0.4614232E+02  0.7816164E-02  0.1320468E+00
        -11   -1    0    0    0    0  0.00000000000E+00  0.00000000000E+00  0.45593999997E+02  0.45594000000E+02  0.51100000000E-03 0.  1.
         11   -1    0    0    0    0 -0.00000000000E+00 -0.00000000000E+00 -0.45593999997E+02  0.45594000000E+02  0.51100000000E-03 0. -1.
    9900012    2    1    2    0    0  0.12314526171E+02 -0.22878472935E+01 -0.43269292570E+02  0.46142317859E+02  0.10000000894E+02 0.  0.
        -12    1    1    2    0    0 -0.12314526171E+02  0.22878472935E+01  0.43269292570E+02  0.45045682141E+02  0.00000000000E+00 0.  1.
         11    1    3    3    0    0  0.20269641773E+01  0.20168392812E+01 -0.30112041086E+01  0.41525383691E+01  0.51100000000E-03 0. -1.
        -11    1    3    3    0    0  0.18559396282E+01 -0.24178036452E+01 -0.14639037751E+02  0.14952983412E+02  0.51100000000E-03 0.  1.
        -12    1    3    3    0    0  0.84316223650E+01 -0.18868829296E+01 -0.25619050710E+02  0.27036796079E+02  0.00000000000E+00 0.  1.
</event>
<event>
 7    1  0.1543346E-008  0.4614232E+02  0.7816164E-02  0.1320468E+00
        -11   -1    0    0    0    0  0.00000000000E+00  0.00000000000E+00  0.45593999997E+02  0.45594000000E+02  0.51100000000E-03 0. -1.
         11   -1    0    0    0    0 -0.00000000000E+00 -0.00000000000E+00 -0.45593999997E+02  0.45594000000E+02  0.51100000000E-03 0.  1.
    9900012    2    1    2    0    0  0.15464695148E+02  0.12712974579E+02  0.40352658111E+02  0.46142317240E+02  0.99999952503E+01 0.  0.
        -12    1    1    2    0    0 -0.15464695148E+02 -0.12712974579E+02 -0.40352658111E+02  0.45045682760E+02  0.00000000000E+00 0.  1.
         11    1    3    3    0    0  0.71353942320E+01  0.64449539525E+01  0.15125827632E+02  0.17923223597E+02  0.51100000000E-03 0. -1.
        -11    1    3    3    0    0  0.43881773703E+00  0.31486077591E+00 -0.45157423063E+00  0.70400132204E+00  0.51100000000E-03 0.  1.
        -12    1    3    3    0    0  0.78904831786E+01  0.59531598505E+01  0.25678404710E+02  0.27515092321E+02  0.00000000000E+00 0.  1.
</event>
<event>
 7    1  0.1543346E-008  0.4614232E+02  0.7816164E-02  0.1320468E+00
        -11   -1    0    0    0    0  0.00000000000E+00  0.00000000000E+00  0.45593999997E+02  0.45594000000E+02  0.51100000000E-03 0. -1.
         11   -1    0    0    0    0 -0.00000000000E+00 -0.00000000000E+00 -0.45593999997E+02  0.45594000000E+02  0.51100000000E-03 0.  1.
    9900012    2    1    2    0    0 -0.18160060979E+01  0.37813133558E+02  0.24412754233E+02  0.46142317445E+02  0.99999971182E+01 0.  0.
        -12    1    1    2    0    0  0.18160060979E+01 -0.37813133558E+02 -0.24412754233E+02  0.45045682555E+02  0.00000000000E+00 0.  1.
         11    1    3    3    0    0 -0.34912083968E+01  0.29069454826E+02  0.20114210396E+02  0.35521869321E+02  0.51100000000E-03 0. -1.
        -11    1    3    3    0    0  0.10531146455E+01  0.74915676700E+01  0.18299229688E+01  0.77833961061E+01  0.51100000000E-03 0.  1.
         12    1    3    3    0    0  0.62208765346E+00  0.12521110611E+01  0.24686208687E+01  0.28370520177E+01  0.00000000000E+00 0. -1.
</event>
<event>
 7    1  0.1543346E-008  0.4614232E+02  0.7816164E-02  0.1320468E+00
        -11   -1    0    0    0    0  0.00000000000E+00  0.00000000000E+00  0.45593999997E+02  0.45594000000E+02  0.51100000000E-03 0.  1.
         11   -1    0    0    0    0 -0.00000000000E+00 -0.00000000000E+00 -0.45593999997E+02  0.45594000000E+02  0.51100000000E-03 0. -1.
    9900012    2    1    2    0    0  0.25934693364E+02 -0.43700291139E+01 -0.36570587515E+02  0.46142319347E+02  0.10000014459E+02 0.  0.
        -12    1    1    2    0    0 -0.25934693364E+02  0.43700291139E+01  0.36570587515E+02  0.45045680653E+02  0.00000000000E+00 0.  1.
         11    1    3    3    0    0  0.93274808347E+01 -0.44006040270E+01 -0.17759910884E+02  0.20537323326E+02  0.51100000000E-03 0.  1.
        -11    1    3    3    0    0 -0.29501682927E+00  0.28381392577E+00 -0.83300757557E+00  0.92816332404E+00  0.51100000000E-03 0. -1.
         12    1    3    3    0    0  0.16902229359E+02 -0.25323901260E+00 -0.17977669056E+02  0.24676832697E+02  0.00000000000E+00 0. -1.
</event>
<event>
 7    1  0.1543346E-008  0.4614232E+02  0.7816164E-02  0.1320468E+00
        -11   -1    0    0    0    0  0.00000000000E+00  0.00000000000E+00  0.45593999997E+02  0.45594000000E+02  0.51100000000E-03 0.  1.
         11   -1    0    0    0    0 -0.00000000000E+00 -0.00000000000E+00 -0.45593999997E+02  0.45594000000E+02  0.51100000000E-03 0. -1.
    9900012    2    1    2    0    0  0.41055025952E+02 -0.51499428619E+01 -0.17806640662E+02  0.46142317421E+02  0.99999968955E+01 0.  0.
        -12    1    1    2    0    0 -0.41055025952E+02  0.51499428619E+01  0.17806640662E+02  0.45045682579E+02  0.00000000000E+00 0.  1.
         11    1    3    3    0    0  0.24388491011E+02 -0.80919024432E+00 -0.99928347709E+01  0.26368732045E+02  0.51100000000E-03 0. -1.
        -11    1    3    3    0    0  0.58797664290E+01  0.12776291090E+00 -0.51050668680E+01  0.77877907399E+01  0.51100000000E-03 0.  1.
         12    1    3    3    0    0  0.10786768511E+02 -0.44685155285E+01 -0.27087390231E+01  0.11985794635E+02  0.00000000000E+00 0. -1.
</event>
<event>
 7    1  0.1543346E-008  0.4614232E+02  0.7816164E-02  0.1320468E+00
        -11   -1    0    0    0    0  0.00000000000E+00  0.00000000000E+00  0.45593999997E+02  0.45594000000E+02  0.51100000000E-03 0. -1.
         11   -1    0    0    0    0 -0.00000000000E+00 -0.00000000000E+00 -0.45593999997E+02  0.45594000000E+02  0.51100000000E-03 0.  1.
    9900012    2    1    2    0    0  0.38132613879E+02  0.15388019417E+02  0.18390924714E+02  0.46142317692E+02  0.99999993657E+01 0.  0.
        -12    1    1    2    0    0 -0.38132613879E+02 -0.15388019417E+02 -0.18390924714E+02  0.45045682308E+02  0.00000000000E+00 0.  1.
         11    1    3    3    0    0  0.16950593976E+02  0.52315031540E+01  0.10560190545E+02  0.20644827100E+02  0.51100000000E-03 0. -1.
        -11    1    3    3    0    0  0.18379494274E+02  0.67764989169E+01  0.48186835730E+01  0.20172913993E+02  0.51100000000E-03 0.  1.
         12    1    3    3    0    0  0.28025256293E+01  0.33800173463E+01  0.30120505952E+01  0.53245765984E+01  0.00000000000E+00 0. -1.
</event>
<event>
 7    1  0.1543346E-008  0.4614232E+02  0.7816164E-02  0.1320468E+00
        -11   -1    0    0    0    0  0.00000000000E+00  0.00000000000E+00  0.45593999997E+02  0.45594000000E+02  0.51100000000E-03 0. -1.
         11   -1    0    0    0    0 -0.00000000000E+00 -0.00000000000E+00 -0.45593999997E+02  0.45594000000E+02  0.51100000000E-03 0.  1.
    9900012    2    1    2    0    0 -0.13788949602E+02 -0.18451693672E+02  0.38710636037E+02  0.46142317933E+02  0.10000001563E+02 0.  0.
        -12    1    1    2    0    0  0.13788949602E+02  0.18451693672E+02 -0.38710636037E+02  0.45045682067E+02  0.00000000000E+00 0.  1.
         11    1    3    3    0    0 -0.47102276048E+01 -0.13224717657E+02  0.26676023186E+02  0.30144479005E+02  0.51100000000E-03 0. -1.
        -11    1    3    3    0    0 -0.42773634797E+01 -0.30922489407E+01  0.63376797909E+01  0.82476679881E+01  0.51100000000E-03 0.  1.
         12    1    3    3    0    0 -0.48013585175E+01 -0.21347270746E+01  0.56969330604E+01  0.77501709395E+01  0.00000000000E+00 0. -1.
</event>
<event>
 7    1  0.1543346E-008  0.4614232E+02  0.7816164E-02  0.1320468E+00
        -11   -1    0    0    0    0  0.00000000000E+00  0.00000000000E+00  0.45593999997E+02  0.45594000000E+02  0.51100000000E-03 0.  1.
         11   -1    0    0    0    0 -0.00000000000E+00 -0.00000000000E+00 -0.45593999997E+02  0.45594000000E+02  0.51100000000E-03 0. -1.
    9900012    2    1    2    0    0 -0.36124207810E+02 -0.12212279896E+02 -0.23979477293E+02  0.46142317616E+02  0.99999986809E+01 0.  0.
        -12    1    1    2    0    0  0.36124207810E+02  0.12212279896E+02  0.23979477293E+02  0.45045682384E+02  0.00000000000E+00 0.  1.
         11    1    3    3    0    0 -0.22594336264E+02 -0.74483382018E+01 -0.17377188234E+02  0.29460964756E+02  0.51100000000E-03 0. -1.
        -11    1    3    3    0    0 -0.67555613957E+01 -0.26027107029E+01 -0.40812260657E+00  0.72510879940E+01  0.51100000000E-03 0.  1.
        -12    1    3    3    0    0 -0.67743101505E+01 -0.21612309914E+01 -0.61941664520E+01  0.94302648663E+01  0.00000000000E+00 0.  1.
</event>
<event>
 7    1  0.1543346E-008  0.4614232E+02  0.7816164E-02  0.1320468E+00
        -11   -1    0    0    0    0  0.00000000000E+00  0.00000000000E+00  0.45593999997E+02  0.45594000000E+02  0.51100000000E-03 0.  1.
         11   -1    0    0    0    0 -0.00000000000E+00 -0.00000000000E+00 -0.45593999997E+02  0.45594000000E+02  0.51100000000E-03 0. -1.
    9900012    2    1    2    0    0  0.24333178041E+02 -0.37450319707E+02  0.58722553373E+01  0.46142318937E+02  0.10000010718E+02 0.  0.
        -12    1    1    2    0    0 -0.24333178041E+02  0.37450319707E+02 -0.58722553373E+01  0.45045681063E+02  0.00000000000E+00 0.  1.
         11    1    3    3    0    0  0.13163413644E+02 -0.16691577158E+02 -0.67364320180E+00  0.21268239283E+02  0.51100000000E-03 0. -1.
        -11    1    3    3    0    0  0.53551200717E+01 -0.92319209872E+01  0.52639907884E+01  0.11900221652E+02  0.51100000000E-03 0.  1.
        -12    1    3    3    0    0  0.58146443253E+01 -0.11526821562E+02  0.12819077507E+01  0.12973858001E+02  0.00000000000E+00 0.  1.
</event>
<event>
 7    1  0.1543346E-008  0.4614232E+02  0.7816164E-02  0.1320468E+00
        -11   -1    0    0    0    0  0.00000000000E+00  0.00000000000E+00  0.45593999997E+02  0.45594000000E+02  0.51100000000E-03 0.  1.
         11   -1    0    0    0    0 -0.00000000000E+00 -0.00000000000E+00 -0.45593999997E+02  0.45594000000E+02  0.51100000000E-03 0. -1.
    9900012    2    1    2    0    0  0.50590693125E+01 -0.20929360712E+01 -0.44711729813E+02  0.46142319335E+02  0.10000014352E+02 0.  0.
        -12    1    1    2    0    0 -0.50590693125E+01  0.20929360712E+01  0.44711729813E+02  0.45045680665E+02  0.00000000000E+00 0.  1.
         11    1    3    3    0    0  0.25361401539E+01  0.28801744750E+01 -0.24999199275E+02  0.25292041763E+02  0.51100000000E-03 0. -1.
        -11    1    3    3    0    0  0.24423621157E+01 -0.53998213385E+01 -0.15162572340E+02  0.16279643835E+02  0.51100000000E-03 0.  1.
        -12    1    3    3    0    0  0.80567042886E-01  0.42671079228E+00 -0.45499581980E+01  0.45706337364E+01  0.00000000000E+00 0.  1.
</event>
<event>
 7    1  0.1543346E-008  0.4614232E+02  0.7816164E-02  0.1320468E+00
        -11   -1    0    0    0    0  0.00000000000E+00  0.00000000000E+00  0.45593999997E+02  0.45594000000E+02  0.51100000000E-03 0.  1.
         11   -1    0    0    0    0 -0.00000000000E+00 -0.00000000000E+00 -0.45593999997E+02  0.45594000000E+02  0.51100000000E-03 0. -1.
    9900012    2    1    2    0    0 -0.96552097438E+01 -0.23877551637E+02 -0.36956093966E+02  0.46142318425E+02  0.10000006051E+02 0.  0.
        -12    1    1    2    0    0  0.96552097438E+01  0.23877551637E+02  0.36956093966E+02  0.45045681575E+02  0.00000000000E+00 0.  1.
         11    1    3    3    0    0 -0.72569274874E+01 -0.19833492415E+02 -0.22481911016E+02  0.30845854521E+02  0.51100000000E-03 0. -1.
        -11    1    3    3    0    0  0.21988764635E-01 -0.10314247313E+01 -0.22332256659E+01  0.24600035810E+01  0.51100000000E-03 0.  1.
         12    1    3    3    0    0 -0.24202710210E+01 -0.30126344900E+01 -0.12240957284E+02  0.12836460322E+02  0.00000000000E+00 0. -1.
</event>
<event>
 7    1  0.1543346E-008  0.4614232E+02  0.7816164E-02  0.1320468E+00
        -11   -1    0    0    0    0  0.00000000000E+00  0.00000000000E+00  0.45593999997E+02  0.45594000000E+02  0.51100000000E-03 0. -1.
         11   -1    0    0    0    0 -0.00000000000E+00 -0.00000000000E+00 -0.45593999997E+02  0.45594000000E+02  0.51100000000E-03 0.  1.
    9900012    2    1    2    0    0 -0.23059341842E+01  0.36754841229E+02  0.25939890735E+02  0.46142316327E+02  0.99999869214E+01 0.  0.
        -12    1    1    2    0    0  0.23059341842E+01 -0.36754841229E+02 -0.25939890735E+02  0.45045683673E+02  0.00000000000E+00 0.  1.
         11    1    3    3    0    0  0.13440057625E+01  0.19464717828E+02  0.13934903253E+02  0.23976303313E+02  0.51100000000E-03 0. -1.
        -11    1    3    3    0    0 -0.51353297383E+01  0.15337615793E+02  0.10233248177E+02  0.19139839034E+02  0.51100000000E-03 0.  1.
        -12    1    3    3    0    0  0.14853897916E+01  0.19525076079E+01  0.17717393055E+01  0.30261739802E+01  0.00000000000E+00 0.  1.
</event>
<event>
 7    1  0.2229287E-008  0.4614232E+02  0.7816164E-02  0.1320468E+00
        -11   -1    0    0    0    0  0.00000000000E+00  0.00000000000E+00  0.45593999997E+02  0.45594000000E+02  0.51100000000E-03 0.  1.
         11   -1    0    0    0    0 -0.00000000000E+00 -0.00000000000E+00 -0.45593999997E+02  0.45594000000E+02  0.51100000000E-03 0. -1.
    9900012    2    1    2    0    0  0.43105742399E+02 -0.51202527734E+00 -0.13066990680E+02  0.46142318264E+02  0.10000004587E+02 0.  0.
        -12    1    1    2    0    0 -0.43105742399E+02  0.51202527734E+00  0.13066990680E+02  0.45045681736E+02  0.00000000000E+00 0.  1.
         11    1    3    3    0    0  0.41966102882E+02 -0.94402428697E+00 -0.13577642768E+02  0.44117993567E+02  0.51100000000E-03 0. -1.
        -11    1    3    3    0    0  0.10070130206E+01  0.10166340482E-01  0.96182981751E+00  0.13925858814E+01  0.51100000000E-03 0.  1.
         12    1    3    3    0    0  0.13262649602E+00  0.42183266914E+00 -0.45117772919E+00  0.63173881590E+00  0.00000000000E+00 0. -1.
</event>
<event>
 7    1  0.1543346E-008  0.4614232E+02  0.7816164E-02  0.1320468E+00
        -11   -1    0    0    0    0  0.00000000000E+00  0.00000000000E+00  0.45593999997E+02  0.45594000000E+02  0.51100000000E-03 0. -1.
         11   -1    0    0    0    0 -0.00000000000E+00 -0.00000000000E+00 -0.45593999997E+02  0.45594000000E+02  0.51100000000E-03 0.  1.
    9900012    2    1    2    0    0  0.28867333829E+02 -0.34162295450E+02  0.53598315756E+01  0.46142321103E+02  0.10000030476E+02 0.  0.
        -12    1    1    2    0    0 -0.28867333829E+02  0.34162295450E+02 -0.53598315756E+01  0.45045678897E+02  0.00000000000E+00 0.  1.
         11    1    3    3    0    0  0.67681572028E+01 -0.67619458558E+01  0.20581446037E+01  0.97861035734E+01  0.51100000000E-03 0. -1.
        -11    1    3    3    0    0  0.12127994721E+02 -0.16901579469E+02 -0.20861601305E+01  0.20907025347E+02  0.51100000000E-03 0.  1.
        -12    1    3    3    0    0  0.99711819043E+01 -0.10498770125E+02  0.53878471025E+01  0.15449192183E+02  0.00000000000E+00 0.  1.
</event>
<event>
 7    1  0.1543346E-008  0.4614232E+02  0.7816164E-02  0.1320468E+00
        -11   -1    0    0    0    0  0.00000000000E+00  0.00000000000E+00  0.45593999997E+02  0.45594000000E+02  0.51100000000E-03 0. -1.
         11   -1    0    0    0    0 -0.00000000000E+00 -0.00000000000E+00 -0.45593999997E+02  0.45594000000E+02  0.51100000000E-03 0.  1.
    9900012    2    1    2    0    0 -0.36280818993E+02 -0.25952981943E+02 -0.62656535315E+01  0.46142317491E+02  0.99999975368E+01 0.  0.
        -12    1    1    2    0    0  0.36280818993E+02  0.25952981943E+02  0.62656535315E+01  0.45045682509E+02  0.00000000000E+00 0.  1.
         11    1    3    3    0    0 -0.29274070236E+02 -0.21158787405E+02 -0.74898022483E+01  0.36888515972E+02  0.51100000000E-03 0. -1.
        -11    1    3    3    0    0  0.24515941677E+00 -0.74676585923E+00 -0.23782796416E+00  0.82117281360E+00  0.51100000000E-03 0.  1.
        -12    1    3    3    0    0 -0.72519081734E+01 -0.40474286788E+01  0.14619766810E+01  0.84326287053E+01  0.00000000000E+00 0.  1.
</event>
<event>
 7    1  0.1543346E-008  0.4614232E+02  0.7816164E-02  0.1320468E+00
        -11   -1    0    0    0    0  0.00000000000E+00  0.00000000000E+00  0.45593999997E+02  0.45594000000E+02  0.51100000000E-03 0.  1.
         11   -1    0    0    0    0 -0.00000000000E+00 -0.00000000000E+00 -0.45593999997E+02  0.45594000000E+02  0.51100000000E-03 0. -1.
    9900012    2    1    2    0    0  0.18824052165E+01 -0.25607783025E+02 -0.37010965939E+02  0.46142316515E+02  0.99999886378E+01 0.  0.
        -12    1    1    2    0    0 -0.18824052165E+01  0.25607783025E+02  0.37010965939E+02  0.45045683485E+02  0.00000000000E+00 0.  1.
         11    1    3    3    0    0  0.49845468329E+01 -0.17752516410E+02 -0.28395173342E+02  0.33856807519E+02  0.51100000000E-03 0. -1.
        -11    1    3    3    0    0 -0.30818435923E+01 -0.79407251737E+01 -0.86915861606E+01  0.12169492449E+02  0.51100000000E-03 0.  1.
        -12    1    3    3    0    0 -0.20298024087E-01  0.85458557684E-01  0.75793563874E-01  0.11601654704E+00  0.00000000000E+00 0.  1.
</event>
<event>
 7    1  0.1543346E-008  0.4614232E+02  0.7816164E-02  0.1320468E+00
        -11   -1    0    0    0    0  0.00000000000E+00  0.00000000000E+00  0.45593999997E+02  0.45594000000E+02  0.51100000000E-03 0.  1.
         11   -1    0    0    0    0 -0.00000000000E+00 -0.00000000000E+00 -0.45593999997E+02  0.45594000000E+02  0.51100000000E-03 0. -1.
    9900012    2    1    2    0    0  0.95635956630E+01 -0.39533015935E+02  0.19359543982E+02  0.46142315921E+02  0.99999832247E+01 0.  0.
        -12    1    1    2    0    0 -0.95635956630E+01  0.39533015935E+02 -0.19359543982E+02  0.45045684079E+02  0.00000000000E+00 0.  1.
         11    1    3    3    0    0  0.89726091373E+01 -0.25352617803E+02  0.11968985193E+02  0.29436704146E+02  0.51100000000E-03 0. -1.
        -11    1    3    3    0    0 -0.35732198688E+00 -0.10811924042E+01 -0.64520406292E+00  0.13087950799E+01  0.51100000000E-03 0.  1.
        -12    1    3    3    0    0  0.94830851259E+00 -0.13099205728E+02  0.80357628518E+01  0.15396816695E+02  0.00000000000E+00 0.  1.
</event>
<event>
 7    1  0.1543346E-008  0.4614232E+02  0.7816164E-02  0.1320468E+00
        -11   -1    0    0    0    0  0.00000000000E+00  0.00000000000E+00  0.45593999997E+02  0.45594000000E+02  0.51100000000E-03 0.  1.
         11   -1    0    0    0    0 -0.00000000000E+00 -0.00000000000E+00 -0.45593999997E+02  0.45594000000E+02  0.51100000000E-03 0. -1.
    9900012    2    1    2    0    0  0.27572813394E+02 -0.31655839995E+02 -0.16332827931E+02  0.46142317494E+02  0.99999975626E+01 0.  0.
        -12    1    1    2    0    0 -0.27572813394E+02  0.31655839995E+02  0.16332827931E+02  0.45045682506E+02  0.00000000000E+00 0.  1.
         11    1    3    3    0    0  0.30960630495E+01 -0.44046066253E+00 -0.22148759673E+01  0.38321388041E+01  0.51100000000E-03 0.  1.
        -11    1    3    3    0    0  0.21325702267E+02 -0.24796571666E+02 -0.12199236025E+02  0.34906688520E+02  0.51100000000E-03 0. -1.
        -12    1    3    3    0    0  0.31510480776E+01 -0.64188076666E+01 -0.19187159381E+01  0.74034901702E+01  0.00000000000E+00 0.  1.
</event>
<event>
 7    1  0.1543346E-008  0.4614232E+02  0.7816164E-02  0.1320468E+00
        -11   -1    0    0    0    0  0.00000000000E+00  0.00000000000E+00  0.45593999997E+02  0.45594000000E+02  0.51100000000E-03 0. -1.
         11   -1    0    0    0    0 -0.00000000000E+00 -0.00000000000E+00 -0.45593999997E+02  0.45594000000E+02  0.51100000000E-03 0.  1.
    9900012    2    1    2    0    0 -0.18437182204E+02  0.38897697508E+02 -0.13272258562E+02  0.46142318671E+02  0.10000008297E+02 0.  0.
        -12    1    1    2    0    0  0.18437182204E+02 -0.38897697508E+02  0.13272258562E+02  0.45045681329E+02  0.00000000000E+00 0.  1.
         11    1    3    3    0    0 -0.25307660941E+01  0.15729132218E+02 -0.34864047005E+01  0.16308445523E+02  0.51100000000E-03 0. -1.
        -11    1    3    3    0    0 -0.54913270014E+01  0.63265107332E+01 -0.31311403243E+01  0.89433467049E+01  0.51100000000E-03 0.  1.
         12    1    3    3    0    0 -0.10415089108E+02  0.16842054557E+02 -0.66547135374E+01  0.20890526443E+02  0.00000000000E+00 0. -1.
</event>
<event>
 7    1  0.1543346E-008  0.4614232E+02  0.7816164E-02  0.1320468E+00
        -11   -1    0    0    0    0  0.00000000000E+00  0.00000000000E+00  0.45593999997E+02  0.45594000000E+02  0.51100000000E-03 0. -1.
         11   -1    0    0    0    0 -0.00000000000E+00 -0.00000000000E+00 -0.45593999997E+02  0.45594000000E+02  0.51100000000E-03 0.  1.
    9900012    2    1    2    0    0 -0.21204514837E+02 -0.31080257433E+02  0.24768924529E+02  0.46142317922E+02  0.10000001464E+02 0.  0.
        -12    1    1    2    0    0  0.21204514837E+02  0.31080257433E+02 -0.24768924529E+02  0.45045682078E+02  0.00000000000E+00 0.  1.
         11    1    3    3    0    0 -0.12016881437E+02 -0.20368953462E+02  0.17173681987E+02  0.29227299873E+02  0.51100000000E-03 0. -1.
        -11    1    3    3    0    0 -0.32920372787E+01 -0.33099169036E+01  0.55168983312E+01  0.72269790930E+01  0.51100000000E-03 0.  1.
         12    1    3    3    0    0 -0.58955961217E+01 -0.74013870672E+01  0.20783442106E+01  0.96880389557E+01  0.00000000000E+00 0. -1.
</event>
<event>
 7    1  0.1543346E-008  0.4614233E+02  0.7816164E-02  0.1320468E+00
        -11   -1    0    0    0    0  0.00000000000E+00  0.00000000000E+00  0.45593999997E+02  0.45594000000E+02  0.51100000000E-03 0.  1.
         11   -1    0    0    0    0 -0.00000000000E+00 -0.00000000000E+00 -0.45593999997E+02  0.45594000000E+02  0.51100000000E-03 0. -1.
    9900012    2    1    2    0    0  0.62383526560E+01  0.72844800121E+00 -0.44605654582E+02  0.46142333160E+02  0.10000140418E+02 0.  0.
        -12    1    1    2    0    0 -0.62383526560E+01 -0.72844800121E+00  0.44605654582E+02  0.45045666840E+02  0.00000000000E+00 0.  1.
         11    1    3    3    0    0  0.19438935867E+01 -0.27638262199E+00 -0.20405118433E+02  0.20499365067E+02  0.51100000000E-03 0. -1.
        -11    1    3    3    0    0 -0.30016803590E+00 -0.17572252172E+01 -0.15362919903E+01  0.23533241711E+01  0.51100000000E-03 0.  1.
        -12    1    3    3    0    0  0.45946271052E+01  0.27620558404E+01 -0.22664244159E+02  0.23289643921E+02  0.00000000000E+00 0.  1.
</event>
<event>
 7    1  0.1543346E-008  0.4614233E+02  0.7816164E-02  0.1320468E+00
        -11   -1    0    0    0    0  0.00000000000E+00  0.00000000000E+00  0.45593999997E+02  0.45594000000E+02  0.51100000000E-03 0.  1.
         11   -1    0    0    0    0 -0.00000000000E+00 -0.00000000000E+00 -0.45593999997E+02  0.45594000000E+02  0.51100000000E-03 0. -1.
    9900012    2    1    2    0    0  0.60262701480E+01  0.21109577069E+02 -0.39334232751E+02  0.46142333815E+02  0.10000146394E+02 0.  0.
        -12    1    1    2    0    0 -0.60262701480E+01 -0.21109577069E+02  0.39334232751E+02  0.45045666185E+02  0.00000000000E+00 0.  1.
         11    1    3    3    0    0  0.19231670018E+01  0.15070733748E+02 -0.31205422523E+02  0.34707405292E+02  0.51100000000E-03 0. -1.
        -11    1    3    3    0    0  0.32466436282E+00  0.25918434334E+01 -0.13417903411E+01  0.29365729878E+01  0.51100000000E-03 0.  1.
         12    1    3    3    0    0  0.37784387834E+01  0.34469998868E+01 -0.67870198873E+01  0.84983555357E+01  0.00000000000E+00 0. -1.
</event>
<event>
 7    1  0.1543346E-008  0.4614232E+02  0.7816164E-02  0.1320468E+00
        -11   -1    0    0    0    0  0.00000000000E+00  0.00000000000E+00  0.45593999997E+02  0.45594000000E+02  0.51100000000E-03 0.  1.
         11   -1    0    0    0    0 -0.00000000000E+00 -0.00000000000E+00 -0.45593999997E+02  0.45594000000E+02  0.51100000000E-03 0. -1.
    9900012    2    1    2    0    0 -0.43294419692E+02 -0.12422935294E+02  0.61439953117E+00  0.46142316694E+02  0.99999902671E+01 0.  0.
        -12    1    1    2    0    0  0.43294419692E+02  0.12422935294E+02 -0.61439953117E+00  0.45045683306E+02  0.00000000000E+00 0.  1.
         11    1    3    3    0    0 -0.12130989671E+02 -0.55975931808E+01 -0.25478211884E+01  0.13600932060E+02  0.51100000000E-03 0. -1.
        -11    1    3    3    0    0 -0.26612408576E+02 -0.71934691159E+01  0.41269738924E+01  0.27874687476E+02  0.51100000000E-03 0.  1.
        -12    1    3    3    0    0 -0.45510214448E+01  0.36812700305E+00 -0.96475317282E+00  0.46666971582E+01  0.00000000000E+00 0.  1.
</event>
<event>
 7    1  0.1685891E-008  0.4614232E+02  0.7816164E-02  0.1320468E+00
        -11   -1    0    0    0    0  0.00000000000E+00  0.00000000000E+00  0.45593999997E+02  0.45594000000E+02  0.51100000000E-03 0.  1.
         11   -1    0    0    0    0 -0.00000000000E+00 -0.00000000000E+00 -0.45593999997E+02  0.45594000000E+02  0.51100000000E-03 0. -1.
    9900012    2    1    2    0    0 -0.40907239005E+02  0.46813564277E+00 -0.18854499561E+02  0.46142317547E+02  0.99999980448E+01 0.  0.
        -12    1    1    2    0    0  0.40907239005E+02 -0.46813564277E+00  0.18854499561E+02  0.45045682453E+02  0.00000000000E+00 0.  1.
         11    1    3    3    0    0 -0.37573428795E+02  0.11864534319E+01 -0.18259095426E+02  0.41791922535E+02  0.51100000000E-03 0. -1.
        -11    1    3    3    0    0  0.43283836088E-02 -0.50013282994E+00 -0.85981233130E+00  0.99470050199E+00  0.51100000000E-03 0.  1.
         12    1    3    3    0    0 -0.33381385940E+01 -0.21818495917E+00  0.26440819622E+00  0.33556945099E+01  0.00000000000E+00 0. -1.
</event>
<event>
 7    1  0.1543346E-008  0.4614232E+02  0.7816164E-02  0.1320468E+00
        -11   -1    0    0    0    0  0.00000000000E+00  0.00000000000E+00  0.45593999997E+02  0.45594000000E+02  0.51100000000E-03 0.  1.
         11   -1    0    0    0    0 -0.00000000000E+00 -0.00000000000E+00 -0.45593999997E+02  0.45594000000E+02  0.51100000000E-03 0. -1.
    9900012    2    1    2    0    0  0.25679253324E+02  0.92737313867E+01 -0.35828583553E+02  0.46142317138E+02  0.99999943185E+01 0.  0.
        -12    1    1    2    0    0 -0.25679253324E+02 -0.92737313867E+01  0.35828583553E+02  0.45045682862E+02  0.00000000000E+00 0.  1.
         11    1    3    3    0    0  0.12845418532E+02  0.62022770982E+01 -0.16230882035E+02  0.21608205626E+02  0.51100000000E-03 0. -1.
        -11    1    3    3    0    0  0.65461780927E+01  0.36889859084E+01 -0.62763386768E+01  0.97904796666E+01  0.51100000000E-03 0.  1.
         12    1    3    3    0    0  0.62876566993E+01 -0.61753162001E+00 -0.13321362840E+02  0.14743631845E+02  0.00000000000E+00 0. -1.
</event>
<event>
 7    1  0.1543346E-008  0.4614232E+02  0.7816164E-02  0.1320468E+00
        -11   -1    0    0    0    0  0.00000000000E+00  0.00000000000E+00  0.45593999997E+02  0.45594000000E+02  0.51100000000E-03 0.  1.
         11   -1    0    0    0    0 -0.00000000000E+00 -0.00000000000E+00 -0.45593999997E+02  0.45594000000E+02  0.51100000000E-03 0. -1.
    9900012    2    1    2    0    0  0.25034961830E+02 -0.34226232280E+02 -0.15196354607E+02  0.46142317818E+02  0.10000000519E+02 0.  0.
        -12    1    1    2    0    0 -0.25034961830E+02  0.34226232280E+02  0.15196354607E+02  0.45045682182E+02  0.00000000000E+00 0.  1.
         11    1    3    3    0    0  0.12548375074E+02 -0.14541032334E+02 -0.66784442257E+01  0.20334821265E+02  0.51100000000E-03 0. -1.
        -11    1    3    3    0    0  0.62654617019E+01 -0.72499866188E+01 -0.69024367032E+01  0.11809400874E+02  0.51100000000E-03 0.  1.
        -12    1    3    3    0    0  0.62211250543E+01 -0.12435213327E+02 -0.16154736778E+01  0.13998095679E+02  0.00000000000E+00 0.  1.
</event>
<event>
 7    1  0.1543346E-008  0.4614232E+02  0.7816164E-02  0.1320468E+00
        -11   -1    0    0    0    0  0.00000000000E+00  0.00000000000E+00  0.45593999997E+02  0.45594000000E+02  0.51100000000E-03 0.  1.
         11   -1    0    0    0    0 -0.00000000000E+00 -0.00000000000E+00 -0.45593999997E+02  0.45594000000E+02  0.51100000000E-03 0. -1.
    9900012    2    1    2    0    0 -0.44063695538E+01  0.44742223601E+02 -0.27983921433E+01  0.46142315811E+02  0.99999822194E+01 0.  0.
        -12    1    1    2    0    0  0.44063695538E+01 -0.44742223601E+02  0.27983921433E+01  0.45045684189E+02  0.00000000000E+00 0.  1.
         11    1    3    3    0    0 -0.18837440667E+01  0.27585303165E+02 -0.94952607422E+00  0.27665846137E+02  0.51100000000E-03 0. -1.
        -11    1    3    3    0    0 -0.25241237592E+01  0.11682845134E+02 -0.39866910447E+01  0.12599753051E+02  0.51100000000E-03 0.  1.
         12    1    3    3    0    0  0.14982721294E-02  0.54740753016E+01  0.21378249755E+01  0.58767166240E+01  0.00000000000E+00 0. -1.
</event>
<event>
 7    1  0.1543346E-008  0.4614232E+02  0.7816164E-02  0.1320468E+00
        -11   -1    0    0    0    0  0.00000000000E+00  0.00000000000E+00  0.45593999997E+02  0.45594000000E+02  0.51100000000E-03 0. -1.
         11   -1    0    0    0    0 -0.00000000000E+00 -0.00000000000E+00 -0.45593999997E+02  0.45594000000E+02  0.51100000000E-03 0.  1.
    9900012    2    1    2    0    0 -0.43101913405E+02 -0.98787281850E+01  0.85877400311E+01  0.46142317759E+02  0.99999999784E+01 0.  0.
        -12    1    1    2    0    0  0.43101913405E+02  0.98787281850E+01 -0.85877400311E+01  0.45045682241E+02  0.00000000000E+00 0.  1.
         11    1    3    3    0    0 -0.10081094362E+02 -0.51775412407E+01  0.51757224526E+01  0.12458872340E+02  0.51100000000E-03 0. -1.
        -11    1    3    3    0    0 -0.12735962858E+02 -0.64470642908E+00  0.23507230539E+00  0.12754436700E+02  0.51100000000E-03 0.  1.
        -12    1    3    3    0    0 -0.20284856186E+02 -0.40564805153E+01  0.31769452731E+01  0.20929008718E+02  0.00000000000E+00 0.  1.
</event>
<event>
 7    1  0.1543346E-008  0.4614232E+02  0.7816164E-02  0.1320468E+00
        -11   -1    0    0    0    0  0.00000000000E+00  0.00000000000E+00  0.45593999997E+02  0.45594000000E+02  0.51100000000E-03 0.  1.
         11   -1    0    0    0    0 -0.00000000000E+00 -0.00000000000E+00 -0.45593999997E+02  0.45594000000E+02  0.51100000000E-03 0. -1.
    9900012    2    1    2    0    0  0.64290419072E+01  0.29610285607E+02 -0.33331841744E+02  0.46142320212E+02  0.10000022345E+02 0.  0.
        -12    1    1    2    0    0 -0.64290419072E+01 -0.29610285607E+02  0.33331841744E+02  0.45045679788E+02  0.00000000000E+00 0.  1.
         11    1    3    3    0    0  0.20515948747E+01  0.23216975800E+02 -0.20001512944E+02  0.30713149092E+02  0.51100000000E-03 0. -1.
        -11    1    3    3    0    0  0.52252718591E+00  0.11188098091E+01 -0.22281680842E+01  0.25474503571E+01  0.51100000000E-03 0.  1.
         12    1    3    3    0    0  0.38549198467E+01  0.52744999977E+01 -0.11102160715E+02  0.12881720762E+02  0.00000000000E+00 0. -1.
</event>
<event>
 7    1  0.1543346E-008  0.4614232E+02  0.7816164E-02  0.1320468E+00
        -11   -1    0    0    0    0  0.00000000000E+00  0.00000000000E+00  0.45593999997E+02  0.45594000000E+02  0.51100000000E-03 0. -1.
         11   -1    0    0    0    0 -0.00000000000E+00 -0.00000000000E+00 -0.45593999997E+02  0.45594000000E+02  0.51100000000E-03 0.  1.
    9900012    2    1    2    0    0 -0.15620219200E+02 -0.25317398665E+02  0.33825309601E+02  0.46142317714E+02  0.99999995692E+01 0.  0.
        -12    1    1    2    0    0  0.15620219200E+02  0.25317398665E+02 -0.33825309601E+02  0.45045682286E+02  0.00000000000E+00 0.  1.
         11    1    3    3    0    0  0.86268738468E+00 -0.21324886636E+01  0.20303428091E+01  0.30682290670E+01  0.51100000000E-03 0.  1.
        -11    1    3    3    0    0 -0.15502006221E+02 -0.23049695212E+02  0.29225084116E+02  0.40320046976E+02  0.51100000000E-03 0. -1.
         12    1    3    3    0    0 -0.98090036313E+00 -0.13521478995E+00  0.25698826755E+01  0.27540416714E+01  0.00000000000E+00 0. -1.
</event>
<event>
 7    1  0.1543346E-008  0.4614232E+02  0.7816164E-02  0.1320468E+00
        -11   -1    0    0    0    0  0.00000000000E+00  0.00000000000E+00  0.45593999997E+02  0.45594000000E+02  0.51100000000E-03 0.  1.
         11   -1    0    0    0    0 -0.00000000000E+00 -0.00000000000E+00 -0.45593999997E+02  0.45594000000E+02  0.51100000000E-03 0. -1.
    9900012    2    1    2    0    0  0.33551849419E+02 -0.12198831841E+02 -0.27469535510E+02  0.46142317867E+02  0.10000000962E+02 0.  0.
        -12    1    1    2    0    0 -0.33551849419E+02  0.12198831841E+02  0.27469535510E+02  0.45045682133E+02  0.00000000000E+00 0.  1.
         11    1    3    3    0    0  0.12272515431E+02 -0.60257738226E+01 -0.71848188363E+01  0.15444941150E+02  0.51100000000E-03 0. -1.
        -11    1    3    3    0    0  0.44565679426E+01 -0.40391830274E+01 -0.63778293978E+01  0.87665674836E+01  0.51100000000E-03 0.  1.
        -12    1    3    3    0    0  0.16822766045E+02 -0.21338749913E+01 -0.13906887276E+02  0.21930809233E+02  0.00000000000E+00 0.  1.
</event>
<event>
 7    1  0.1543346E-008  0.4614232E+02  0.7816164E-02  0.1320468E+00
        -11   -1    0    0    0    0  0.00000000000E+00  0.00000000000E+00  0.45593999997E+02  0.45594000000E+02  0.51100000000E-03 0. -1.
         11   -1    0    0    0    0 -0.00000000000E+00 -0.00000000000E+00 -0.45593999997E+02  0.45594000000E+02  0.51100000000E-03 0.  1.
    9900012    2    1    2    0    0 -0.37753226205E+02 -0.66237290863E+01  0.23662915534E+02  0.46142318215E+02  0.10000004143E+02 0.  0.
        -12    1    1    2    0    0  0.37753226205E+02  0.66237290863E+01 -0.23662915534E+02  0.45045681785E+02  0.00000000000E+00 0.  1.
         11    1    3    3    0    0 -0.46899929371E+01 -0.32818836430E+01  0.30582866242E+01  0.64899854648E+01  0.51100000000E-03 0.  1.
        -11    1    3    3    0    0 -0.12588909124E+02  0.16128910815E+01  0.93902317989E+01  0.15787922728E+02  0.51100000000E-03 0. -1.
         12    1    3    3    0    0 -0.20474324144E+02 -0.49547365248E+01  0.11214397111E+02  0.23864410023E+02  0.00000000000E+00 0. -1.
</event>
<event>
 7    1  0.1543346E-008  0.4614232E+02  0.7816164E-02  0.1320468E+00
        -11   -1    0    0    0    0  0.00000000000E+00  0.00000000000E+00  0.45593999997E+02  0.45594000000E+02  0.51100000000E-03 0. -1.
         11   -1    0    0    0    0 -0.00000000000E+00 -0.00000000000E+00 -0.45593999997E+02  0.45594000000E+02  0.51100000000E-03 0.  1.
    9900012    2    1    2    0    0 -0.20911077668E+02  0.26184990669E+02  0.30102934136E+02  0.46142317086E+02  0.99999938438E+01 0.  0.
        -12    1    1    2    0    0  0.20911077668E+02 -0.26184990669E+02 -0.30102934136E+02  0.45045682914E+02  0.00000000000E+00 0.  1.
         11    1    3    3    0    0 -0.52167657067E+01  0.56106275221E+01  0.10033705365E+02  0.12624144694E+02  0.51100000000E-03 0. -1.
        -11    1    3    3    0    0 -0.86115763226E+00  0.57310800122E+01  0.34033339805E+01  0.67208297864E+01  0.51100000000E-03 0.  1.
        -12    1    3    3    0    0 -0.14833154329E+02  0.14843283135E+02  0.16665894791E+02  0.26797342606E+02  0.00000000000E+00 0.  1.
</event>
<event>
 7    1  0.1543346E-008  0.4614232E+02  0.7816164E-02  0.1320468E+00
        -11   -1    0    0    0    0  0.00000000000E+00  0.00000000000E+00  0.45593999997E+02  0.45594000000E+02  0.51100000000E-03 0. -1.
         11   -1    0    0    0    0 -0.00000000000E+00 -0.00000000000E+00 -0.45593999997E+02  0.45594000000E+02  0.51100000000E-03 0.  1.
    9900012    2    1    2    0    0  0.13946866134E+02  0.15064954996E+02  0.40095455895E+02  0.46142317328E+02  0.99999960495E+01 0.  0.
        -12    1    1    2    0    0 -0.13946866134E+02 -0.15064954996E+02 -0.40095455895E+02  0.45045682672E+02  0.00000000000E+00 0.  1.
         11    1    3    3    0    0  0.11438675777E+02  0.10992725880E+02  0.29265022642E+02  0.33288509673E+02  0.51100000000E-03 0. -1.
        -11    1    3    3    0    0  0.20884034161E+01  0.13487654385E+01  0.94503967268E+01  0.97719289596E+01  0.51100000000E-03 0.  1.
        -12    1    3    3    0    0  0.41978694134E+00  0.27234636770E+01  0.13800365265E+01  0.30818786950E+01  0.00000000000E+00 0.  1.
</event>
<event>
 7    1  0.1543346E-008  0.4614232E+02  0.7816164E-02  0.1320468E+00
        -11   -1    0    0    0    0  0.00000000000E+00  0.00000000000E+00  0.45593999997E+02  0.45594000000E+02  0.51100000000E-03 0.  1.
         11   -1    0    0    0    0 -0.00000000000E+00 -0.00000000000E+00 -0.45593999997E+02  0.45594000000E+02  0.51100000000E-03 0. -1.
    9900012    2    1    2    0    0 -0.30610487887E+02 -0.55016042659E+01 -0.32585946888E+02  0.46142317047E+02  0.99999934843E+01 0.  0.
        -12    1    1    2    0    0  0.30610487887E+02  0.55016042659E+01  0.32585946888E+02  0.45045682953E+02  0.00000000000E+00 0.  1.
         11    1    3    3    0    0 -0.15889541585E+02 -0.65497748122E+01 -0.21402736170E+02  0.27449120162E+02  0.51100000000E-03 0. -1.
        -11    1    3    3    0    0 -0.12939350094E+02  0.17573499091E+01 -0.96175775782E+01  0.16217671174E+02  0.51100000000E-03 0.  1.
        -12    1    3    3    0    0 -0.17815962074E+01 -0.70917936278E+00 -0.15656331401E+01  0.24755257107E+01  0.00000000000E+00 0.  1.
</event>
<event>
 7    1  0.1543346E-008  0.4614232E+02  0.7816164E-02  0.1320468E+00
        -11   -1    0    0    0    0  0.00000000000E+00  0.00000000000E+00  0.45593999997E+02  0.45594000000E+02  0.51100000000E-03 0.  1.
         11   -1    0    0    0    0 -0.00000000000E+00 -0.00000000000E+00 -0.45593999997E+02  0.45594000000E+02  0.51100000000E-03 0. -1.
    9900012    2    1    2    0    0  0.42920030941E+02  0.70162305262E+01 -0.11736992230E+02  0.46142317261E+02  0.99999954395E+01 0.  0.
        -12    1    1    2    0    0 -0.42920030941E+02 -0.70162305262E+01  0.11736992230E+02  0.45045682739E+02  0.00000000000E+00 0.  1.
         11    1    3    3    0    0  0.10883791997E+02 -0.85440988559E-01 -0.30375675885E+01  0.11300046261E+02  0.51100000000E-03 0. -1.
        -11    1    3    3    0    0  0.29499073387E+01 -0.17784366719E+00 -0.32050601259E+01  0.43595862589E+01  0.51100000000E-03 0.  1.
        -12    1    3    3    0    0  0.29086331606E+02  0.72795151819E+01 -0.54943645160E+01  0.30482684741E+02  0.00000000000E+00 0.  1.
</event>
<event>
 7    1  0.1543346E-008  0.4614232E+02  0.7816164E-02  0.1320468E+00
        -11   -1    0    0    0    0  0.00000000000E+00  0.00000000000E+00  0.45593999997E+02  0.45594000000E+02  0.51100000000E-03 0.  1.
         11   -1    0    0    0    0 -0.00000000000E+00 -0.00000000000E+00 -0.45593999997E+02  0.45594000000E+02  0.51100000000E-03 0. -1.
    9900012    2    1    2    0    0  0.42915158356E+02  0.87264652664E+01 -0.10547585213E+02  0.46142316893E+02  0.99999920833E+01 0.  0.
        -12    1    1    2    0    0 -0.42915158356E+02 -0.87264652664E+01  0.10547585213E+02  0.45045683107E+02  0.00000000000E+00 0.  1.
         11    1    3    3    0    0  0.74555520132E+01  0.12509562616E+00 -0.52020599831E+01  0.90918828119E+01  0.51100000000E-03 0. -1.
        -11    1    3    3    0    0  0.14388114488E+02  0.38001178612E+01 -0.39346579290E+01  0.15392864177E+02  0.51100000000E-03 0.  1.
         12    1    3    3    0    0  0.21071491854E+02  0.48012517790E+01 -0.14108673012E+01  0.21657569904E+02  0.00000000000E+00 0. -1.
</event>
<event>
 7    1  0.1543346E-008  0.4614232E+02  0.7816164E-02  0.1320468E+00
        -11   -1    0    0    0    0  0.00000000000E+00  0.00000000000E+00  0.45593999997E+02  0.45594000000E+02  0.51100000000E-03 0.  1.
         11   -1    0    0    0    0 -0.00000000000E+00 -0.00000000000E+00 -0.45593999997E+02  0.45594000000E+02  0.51100000000E-03 0. -1.
    9900012    2    1    2    0    0 -0.21525571970E+02 -0.23768386659E+02 -0.31635850464E+02  0.46142317770E+02  0.10000000081E+02 0.  0.
        -12    1    1    2    0    0  0.21525571970E+02  0.23768386659E+02  0.31635850464E+02  0.45045682230E+02  0.00000000000E+00 0.  1.
         11    1    3    3    0    0 -0.13062923312E+02 -0.16454903868E+02 -0.23625643360E+02  0.31616053694E+02  0.51100000000E-03 0. -1.
        -11    1    3    3    0    0 -0.88071051596E+00 -0.10936691335E+01 -0.34227681896E+01  0.36996088344E+01  0.51100000000E-03 0.  1.
        -12    1    3    3    0    0 -0.75819381427E+01 -0.62198136575E+01 -0.45874389140E+01  0.10826655242E+02  0.00000000000E+00 0.  1.
</event>
<event>
 7    1  0.1543346E-008  0.4614232E+02  0.7816164E-02  0.1320468E+00
        -11   -1    0    0    0    0  0.00000000000E+00  0.00000000000E+00  0.45593999997E+02  0.45594000000E+02  0.51100000000E-03 0. -1.
         11   -1    0    0    0    0 -0.00000000000E+00 -0.00000000000E+00 -0.45593999997E+02  0.45594000000E+02  0.51100000000E-03 0.  1.
    9900012    2    1    2    0    0 -0.63044229633E+01  0.44285376006E+02 -0.53078456701E+01  0.46142317604E+02  0.99999985657E+01 0.  0.
        -12    1    1    2    0    0  0.63044229633E+01 -0.44285376006E+02  0.53078456701E+01  0.45045682396E+02  0.00000000000E+00 0.  1.
         11    1    3    3    0    0  0.14806771026E+01  0.11277788641E+02 -0.41456300999E+01  0.12106492907E+02  0.51100000000E-03 0. -1.
        -11    1    3    3    0    0 -0.45252528215E+01  0.16447241641E+02  0.57799592946E+00  0.17068208759E+02  0.51100000000E-03 0.  1.
         12    1    3    3    0    0 -0.32598472444E+01  0.16560345724E+02 -0.17402114997E+01  0.16967615938E+02  0.00000000000E+00 0. -1.
</event>
<event>
 7    1  0.1543346E-008  0.4614232E+02  0.7816164E-02  0.1320468E+00
        -11   -1    0    0    0    0  0.00000000000E+00  0.00000000000E+00  0.45593999997E+02  0.45594000000E+02  0.51100000000E-03 0.  1.
         11   -1    0    0    0    0 -0.00000000000E+00 -0.00000000000E+00 -0.45593999997E+02  0.45594000000E+02  0.51100000000E-03 0. -1.
    9900012    2    1    2    0    0 -0.41535321556E+02 -0.13398113330E+02  0.11154415172E+02  0.46142319237E+02  0.10000013461E+02 0.  0.
        -12    1    1    2    0    0  0.41535321556E+02  0.13398113330E+02 -0.11154415172E+02  0.45045680763E+02  0.00000000000E+00 0.  1.
         11    1    3    3    0    0 -0.36837790683E+01  0.26252654550E+00 -0.45515844284E+00  0.37210640791E+01  0.51100000000E-03 0. -1.
        -11    1    3    3    0    0 -0.10401046984E+01 -0.18591599488E+01  0.35823048063E+00  0.21602367549E+01  0.51100000000E-03 0.  1.
         12    1    3    3    0    0 -0.36811437789E+02 -0.11801479926E+02  0.11251343134E+02  0.40261018403E+02  0.00000000000E+00 0. -1.
</event>
<event>
 7    1  0.1543346E-008  0.4614231E+02  0.7816164E-02  0.1320468E+00
        -11   -1    0    0    0    0  0.00000000000E+00  0.00000000000E+00  0.45593999997E+02  0.45594000000E+02  0.51100000000E-03 0. -1.
         11   -1    0    0    0    0 -0.00000000000E+00 -0.00000000000E+00 -0.45593999997E+02  0.45594000000E+02  0.51100000000E-03 0.  1.
    9900012    2    1    2    0    0 -0.24543285513E+02  0.16854161282E+02  0.33803523852E+02  0.46142313846E+02  0.99999642983E+01 0.  0.
        -12    1    1    2    0    0  0.24543285513E+02 -0.16854161282E+02 -0.33803523852E+02  0.45045686154E+02  0.00000000000E+00 0.  1.
         11    1    3    3    0    0 -0.21458727917E+02  0.11401371397E+02  0.24186306046E+02  0.34284773209E+02  0.51100000000E-03 0. -1.
        -11    1    3    3    0    0 -0.32738995528E+01  0.54102010046E+01  0.78525061051E+01  0.10082189523E+02  0.51100000000E-03 0.  1.
        -12    1    3    3    0    0  0.18934195759E+00  0.42588879968E-01  0.17647117008E+01  0.17753511136E+01  0.00000000000E+00 0.  1.
</event>
<event>
 7    1  0.1543346E-008  0.4614232E+02  0.7816164E-02  0.1320468E+00
        -11   -1    0    0    0    0  0.00000000000E+00  0.00000000000E+00  0.45593999997E+02  0.45594000000E+02  0.51100000000E-03 0. -1.
         11   -1    0    0    0    0 -0.00000000000E+00 -0.00000000000E+00 -0.45593999997E+02  0.45594000000E+02  0.51100000000E-03 0.  1.
    9900012    2    1    2    0    0 -0.43724473461E+02 -0.10017376733E+02  0.41153354573E+01  0.46142318720E+02  0.10000008746E+02 0.  0.
        -12    1    1    2    0    0  0.43724473461E+02  0.10017376733E+02 -0.41153354573E+01  0.45045681280E+02  0.00000000000E+00 0.  1.
         11    1    3    3    0    0 -0.10821722990E+02 -0.35490143011E+01 -0.24959480612E+00  0.11391553397E+02  0.51100000000E-03 0. -1.
        -11    1    3    3    0    0 -0.74032201340E+00  0.68294144779E+00 -0.94098921648E+00  0.13783855307E+01  0.51100000000E-03 0.  1.
        -12    1    3    3    0    0 -0.32162428457E+02 -0.71513038802E+01  0.53059194799E+01  0.33372379792E+02  0.00000000000E+00 0.  1.
</event>
<event>
 7    1  0.1543346E-008  0.4614232E+02  0.7816164E-02  0.1320468E+00
        -11   -1    0    0    0    0  0.00000000000E+00  0.00000000000E+00  0.45593999997E+02  0.45594000000E+02  0.51100000000E-03 0. -1.
         11   -1    0    0    0    0 -0.00000000000E+00 -0.00000000000E+00 -0.45593999997E+02  0.45594000000E+02  0.51100000000E-03 0.  1.
    9900012    2    1    2    0    0 -0.64118966612E+01  0.42296212708E+02  0.14107859193E+02  0.46142315198E+02  0.99999766291E+01 0.  0.
        -12    1    1    2    0    0  0.64118966612E+01 -0.42296212708E+02 -0.14107859193E+02  0.45045684802E+02  0.00000000000E+00 0.  1.
         11    1    3    3    0    0 -0.27858688529E+00  0.65037881012E+01  0.48978397511E+01  0.81465148872E+01  0.51100000000E-03 0.  1.
        -11    1    3    3    0    0 -0.11111996065E+01  0.95814975748E+01  0.53509098699E+01  0.11030507560E+02  0.51100000000E-03 0. -1.
         12    1    3    3    0    0 -0.50221101694E+01  0.26210927032E+02  0.38591095722E+01  0.26965292751E+02  0.00000000000E+00 0. -1.
</event>
<event>
 7    1  0.1543346E-008  0.4614232E+02  0.7816164E-02  0.1320468E+00
        -11   -1    0    0    0    0  0.00000000000E+00  0.00000000000E+00  0.45593999997E+02  0.45594000000E+02  0.51100000000E-03 0. -1.
         11   -1    0    0    0    0 -0.00000000000E+00 -0.00000000000E+00 -0.45593999997E+02  0.45594000000E+02  0.51100000000E-03 0.  1.
    9900012    2    1    2    0    0  0.40514211730E+02  0.23785275833E+01  0.19546212235E+02  0.46142321425E+02  0.10000033406E+02 0.  0.
        -12    1    1    2    0    0 -0.40514211730E+02 -0.23785275833E+01 -0.19546212235E+02  0.45045678575E+02  0.00000000000E+00 0.  1.
         11    1    3    3    0    0  0.40175824247E+01  0.32534555603E+00  0.54690320627E+01  0.67939039023E+01  0.51100000000E-03 0. -1.
        -11    1    3    3    0    0  0.18032246837E+02  0.36582826169E+00  0.50696165645E+01  0.18734907757E+02  0.51100000000E-03 0.  1.
         12    1    3    3    0    0  0.18464382469E+02  0.16873537656E+01  0.90075636075E+01  0.20613509765E+02  0.00000000000E+00 0. -1.
</event>
<event>
 7    1  0.1543346E-008  0.4614232E+02  0.7816164E-02  0.1320468E+00
        -11   -1    0    0    0    0  0.00000000000E+00  0.00000000000E+00  0.45593999997E+02  0.45594000000E+02  0.51100000000E-03 0. -1.
         11   -1    0    0    0    0 -0.00000000000E+00 -0.00000000000E+00 -0.45593999997E+02  0.45594000000E+02  0.51100000000E-03 0.  1.
    9900012    2    1    2    0    0 -0.25894177781E+02  0.29202221346E+02  0.22490783498E+02  0.46142317445E+02  0.99999971135E+01 0.  0.
        -12    1    1    2    0    0  0.25894177781E+02 -0.29202221346E+02 -0.22490783498E+02  0.45045682555E+02  0.00000000000E+00 0.  1.
         11    1    3    3    0    0 -0.20944444649E+02  0.21669924247E+02  0.19314157659E+02  0.35795140241E+02  0.51100000000E-03 0. -1.
        -11    1    3    3    0    0 -0.45713278482E+01  0.78240511283E+01  0.23002542246E+01  0.93490097932E+01  0.51100000000E-03 0.  1.
        -12    1    3    3    0    0 -0.37840528370E+00 -0.29175402886E+00  0.87637161497E+00  0.99816741062E+00  0.00000000000E+00 0.  1.
</event>
<event>
 7    1  0.1543346E-008  0.4614232E+02  0.7816164E-02  0.1320468E+00
        -11   -1    0    0    0    0  0.00000000000E+00  0.00000000000E+00  0.45593999997E+02  0.45594000000E+02  0.51100000000E-03 0.  1.
         11   -1    0    0    0    0 -0.00000000000E+00 -0.00000000000E+00 -0.45593999997E+02  0.45594000000E+02  0.51100000000E-03 0. -1.
    9900012    2    1    2    0    0  0.16448223517E+02  0.29569033521E+02 -0.29736201945E+02  0.46142317562E+02  0.99999981833E+01 0.  0.
        -12    1    1    2    0    0 -0.16448223517E+02 -0.29569033521E+02  0.29736201945E+02  0.45045682438E+02  0.00000000000E+00 0.  1.
         11    1    3    3    0    0  0.32784490263E+01  0.91442245462E+01 -0.11541014885E+02  0.15085095141E+02  0.51100000000E-03 0. -1.
        -11    1    3    3    0    0  0.47568383166E+01  0.53529935787E+01 -0.89952389486E+01  0.11497668243E+02  0.51100000000E-03 0.  1.
        -12    1    3    3    0    0  0.84129361738E+01  0.15071815396E+02 -0.91999481112E+01  0.19559554178E+02  0.00000000000E+00 0.  1.
</event>
<event>
 7    1  0.1543346E-008  0.4614232E+02  0.7816164E-02  0.1320468E+00
        -11   -1    0    0    0    0  0.00000000000E+00  0.00000000000E+00  0.45593999997E+02  0.45594000000E+02  0.51100000000E-03 0.  1.
         11   -1    0    0    0    0 -0.00000000000E+00 -0.00000000000E+00 -0.45593999997E+02  0.45594000000E+02  0.51100000000E-03 0. -1.
    9900012    2    1    2    0    0 -0.28971745685E+01 -0.44926674212E+02  0.15210352051E+01  0.46142320692E+02  0.10000026722E+02 0.  0.
        -12    1    1    2    0    0  0.28971745685E+01  0.44926674212E+02 -0.15210352051E+01  0.45045679308E+02  0.00000000000E+00 0.  1.
         11    1    3    3    0    0  0.23567314924E+01 -0.10515579641E+02  0.17217129656E+01  0.10913106538E+02  0.51100000000E-03 0. -1.
        -11    1    3    3    0    0 -0.40065090631E+01 -0.19380691716E+02  0.23620987896E+01  0.19930951739E+02  0.51100000000E-03 0.  1.
        -12    1    3    3    0    0 -0.12473969979E+01 -0.15030402856E+02 -0.25627765501E+01  0.15298262415E+02  0.00000000000E+00 0.  1.
</event>
<event>
 7    1  0.1543346E-008  0.4614232E+02  0.7816164E-02  0.1320468E+00
        -11   -1    0    0    0    0  0.00000000000E+00  0.00000000000E+00  0.45593999997E+02  0.45594000000E+02  0.51100000000E-03 0. -1.
         11   -1    0    0    0    0 -0.00000000000E+00 -0.00000000000E+00 -0.45593999997E+02  0.45594000000E+02  0.51100000000E-03 0.  1.
    9900012    2    1    2    0    0  0.40059833914E+02 -0.72954488699E+01 -0.19263949306E+02  0.46142316408E+02  0.99999876609E+01 0.  0.
        -12    1    1    2    0    0 -0.40059833914E+02  0.72954488699E+01  0.19263949306E+02  0.45045683592E+02  0.00000000000E+00 0.  1.
         11    1    3    3    0    0  0.18969158621E+02 -0.43260152146E+01 -0.11495220819E+02  0.22598307201E+02  0.51100000000E-03 0. -1.
        -11    1    3    3    0    0  0.11596154572E+02  0.15879290972E+00 -0.69352815314E+01  0.13512740145E+02  0.51100000000E-03 0.  1.
         12    1    3    3    0    0  0.94945207213E+01 -0.31282265650E+01 -0.83344695566E+00  0.10031269062E+02  0.00000000000E+00 0. -1.
</event>
<event>
 7    1  0.1543346E-008  0.4614232E+02  0.7816164E-02  0.1320468E+00
        -11   -1    0    0    0    0  0.00000000000E+00  0.00000000000E+00  0.45593999997E+02  0.45594000000E+02  0.51100000000E-03 0.  1.
         11   -1    0    0    0    0 -0.00000000000E+00 -0.00000000000E+00 -0.45593999997E+02  0.45594000000E+02  0.51100000000E-03 0. -1.
    9900012    2    1    2    0    0 -0.14878466411E+01 -0.83112628690E+01 -0.44247290967E+02  0.46142317232E+02  0.99999951744E+01 0.  0.
        -12    1    1    2    0    0  0.14878466411E+01  0.83112628690E+01  0.44247290967E+02  0.45045682768E+02  0.00000000000E+00 0.  1.
         11    1    3    3    0    0  0.13172381651E+01 -0.38499074325E+01 -0.26920294926E+02  0.27226075421E+02  0.51100000000E-03 0. -1.
        -11    1    3    3    0    0 -0.42294496853E+01 -0.41663667527E+01 -0.11915003832E+02  0.13312181382E+02  0.51100000000E-03 0.  1.
         12    1    3    3    0    0  0.14243648791E+01 -0.29498868383E+00 -0.54119922084E+01  0.56040604294E+01  0.00000000000E+00 0. -1.
</event>
<event>
 7    1  0.1543346E-008  0.4614232E+02  0.7816164E-02  0.1320468E+00
        -11   -1    0    0    0    0  0.00000000000E+00  0.00000000000E+00  0.45593999997E+02  0.45594000000E+02  0.51100000000E-03 0. -1.
         11   -1    0    0    0    0 -0.00000000000E+00 -0.00000000000E+00 -0.45593999997E+02  0.45594000000E+02  0.51100000000E-03 0.  1.
    9900012    2    1    2    0    0 -0.43772826917E+02 -0.93162734097E+01  0.51244285789E+01  0.46142322129E+02  0.10000039831E+02 0.  0.
        -12    1    1    2    0    0  0.43772826917E+02  0.93162734097E+01 -0.51244285789E+01  0.45045677871E+02  0.00000000000E+00 0.  1.
         11    1    3    3    0    0 -0.87906660433E+01 -0.42656712101E+01  0.11594517943E+01  0.98395167097E+01  0.51100000000E-03 0.  1.
        -11    1    3    3    0    0 -0.13853507858E+02 -0.44719968418E+01 -0.99730676967E+00  0.14591540589E+02  0.51100000000E-03 0. -1.
         12    1    3    3    0    0 -0.21128653016E+02 -0.57860535780E+00  0.49622835543E+01  0.21711264830E+02  0.00000000000E+00 0. -1.
</event>
<event>
 7    1  0.1543346E-008  0.4614232E+02  0.7816164E-02  0.1320468E+00
        -11   -1    0    0    0    0  0.00000000000E+00  0.00000000000E+00  0.45593999997E+02  0.45594000000E+02  0.51100000000E-03 0. -1.
         11   -1    0    0    0    0 -0.00000000000E+00 -0.00000000000E+00 -0.45593999997E+02  0.45594000000E+02  0.51100000000E-03 0.  1.
    9900012    2    1    2    0    0  0.13937279044E+02 -0.38284290158E+02  0.19214027474E+02  0.46142317945E+02  0.10000001679E+02 0.  0.
        -12    1    1    2    0    0 -0.13937279044E+02  0.38284290158E+02 -0.19214027474E+02  0.45045682055E+02  0.00000000000E+00 0.  1.
         11    1    3    3    0    0  0.33386915355E+01 -0.13779371995E+02  0.79217647307E+01  0.16241068636E+02  0.51100000000E-03 0. -1.
        -11    1    3    3    0    0  0.90566586638E+01 -0.13569452681E+02  0.89646164182E+01  0.18614979452E+02  0.51100000000E-03 0.  1.
        -12    1    3    3    0    0  0.15419288442E+01 -0.10935465482E+02  0.23276463250E+01  0.11286269857E+02  0.00000000000E+00 0.  1.
</event>
<event>
 7    1  0.1543346E-008  0.4614232E+02  0.7816164E-02  0.1320468E+00
        -11   -1    0    0    0    0  0.00000000000E+00  0.00000000000E+00  0.45593999997E+02  0.45594000000E+02  0.51100000000E-03 0.  1.
         11   -1    0    0    0    0 -0.00000000000E+00 -0.00000000000E+00 -0.45593999997E+02  0.45594000000E+02  0.51100000000E-03 0. -1.
    9900012    2    1    2    0    0 -0.86826747514E+01 -0.38652204850E+02 -0.21441354428E+02  0.46142318072E+02  0.10000002838E+02 0.  0.
        -12    1    1    2    0    0  0.86826747514E+01  0.38652204850E+02  0.21441354428E+02  0.45045681928E+02  0.00000000000E+00 0.  1.
         11    1    3    3    0    0  0.30744594525E+00 -0.71865122154E+01 -0.65542772446E+01  0.97313427281E+01  0.51100000000E-03 0.  1.
        -11    1    3    3    0    0 -0.29157912330E+01 -0.48457352039E+01 -0.43869241886E+01  0.71573802664E+01  0.51100000000E-03 0. -1.
         12    1    3    3    0    0 -0.60743294637E+01 -0.26619957431E+02 -0.10500152995E+02  0.29253595078E+02  0.00000000000E+00 0. -1.
</event>
<event>
 7    1  0.1543346E-008  0.4614232E+02  0.7816164E-02  0.1320468E+00
        -11   -1    0    0    0    0  0.00000000000E+00  0.00000000000E+00  0.45593999997E+02  0.45594000000E+02  0.51100000000E-03 0. -1.
         11   -1    0    0    0    0 -0.00000000000E+00 -0.00000000000E+00 -0.45593999997E+02  0.45594000000E+02  0.51100000000E-03 0.  1.
    9900012    2    1    2    0    0 -0.30098607694E+02 -0.31358249073E+02  0.11825695736E+02  0.46142322630E+02  0.10000044402E+02 0.  0.
        -12    1    1    2    0    0  0.30098607694E+02  0.31358249073E+02 -0.11825695736E+02  0.45045677370E+02  0.00000000000E+00 0.  1.
         11    1    3    3    0    0 -0.19688747548E+02 -0.18704109792E+02  0.37165283927E+01  0.27409908549E+02  0.51100000000E-03 0. -1.
        -11    1    3    3    0    0 -0.49459465200E+01 -0.38374805183E+01  0.46507296677E+01  0.77985851544E+01  0.51100000000E-03 0.  1.
        -12    1    3    3    0    0 -0.54639136267E+01 -0.88166587620E+01  0.34584376759E+01  0.10933828927E+02  0.00000000000E+00 0.  1.
</event>
<event>
 7    1  0.1543346E-008  0.4614232E+02  0.7816164E-02  0.1320468E+00
        -11   -1    0    0    0    0  0.00000000000E+00  0.00000000000E+00  0.45593999997E+02  0.45594000000E+02  0.51100000000E-03 0.  1.
         11   -1    0    0    0    0 -0.00000000000E+00 -0.00000000000E+00 -0.45593999997E+02  0.45594000000E+02  0.51100000000E-03 0. -1.
    9900012    2    1    2    0    0  0.22510922489E+02 -0.81693330178E+01 -0.38152770479E+02  0.46142317316E+02  0.99999959416E+01 0.  0.
        -12    1    1    2    0    0 -0.22510922489E+02  0.81693330178E+01  0.38152770479E+02  0.45045682684E+02  0.00000000000E+00 0.  1.
         11    1    3    3    0    0  0.50397287210E-01 -0.30004116005E+00  0.44960676078E+00  0.54287299136E+00  0.51100000000E-03 0. -1.
        -11    1    3    3    0    0  0.85887476682E+01 -0.24594077369E+01 -0.18886925874E+02  0.20893330088E+02  0.51100000000E-03 0.  1.
         12    1    3    3    0    0  0.13871777533E+02 -0.54098841209E+01 -0.19715451365E+02  0.24706114237E+02  0.00000000000E+00 0. -1.
</event>
<event>
 7    1  0.1543346E-008  0.4614232E+02  0.7816164E-02  0.1320468E+00
        -11   -1    0    0    0    0  0.00000000000E+00  0.00000000000E+00  0.45593999997E+02  0.45594000000E+02  0.51100000000E-03 0.  1.
         11   -1    0    0    0    0 -0.00000000000E+00 -0.00000000000E+00 -0.45593999997E+02  0.45594000000E+02  0.51100000000E-03 0. -1.
    9900012    2    1    2    0    0  0.95029755218E+01  0.42859083086E+02 -0.10094822000E+02  0.46142323427E+02  0.10000051665E+02 0.  0.
        -12    1    1    2    0    0 -0.95029755218E+01 -0.42859083086E+02  0.10094822000E+02  0.45045676573E+02  0.00000000000E+00 0.  1.
         11    1    3    3    0    0  0.23216228357E+00  0.13920050179E+02 -0.25452824302E+01  0.14152743876E+02  0.51100000000E-03 0. -1.
        -11    1    3    3    0    0 -0.10903271181E+00  0.64246503974E+01  0.10521899397E+00  0.64264369723E+01  0.51100000000E-03 0.  1.
         12    1    3    3    0    0  0.93798459500E+01  0.22514382509E+02 -0.76547585637E+01  0.25563142578E+02  0.00000000000E+00 0. -1.
</event>
<event>
 7    1  0.1543346E-008  0.4614232E+02  0.7816164E-02  0.1320468E+00
        -11   -1    0    0    0    0  0.00000000000E+00  0.00000000000E+00  0.45593999997E+02  0.45594000000E+02  0.51100000000E-03 0. -1.
         11   -1    0    0    0    0 -0.00000000000E+00 -0.00000000000E+00 -0.45593999997E+02  0.45594000000E+02  0.51100000000E-03 0.  1.
    9900012    2    1    2    0    0 -0.44125885100E+02  0.59613441170E+01 -0.68177818532E+01  0.46142317532E+02  0.99999979135E+01 0.  0.
        -12    1    1    2    0    0  0.44125885100E+02 -0.59613441170E+01  0.68177818532E+01  0.45045682468E+02  0.00000000000E+00 0.  1.
         11    1    3    3    0    0 -0.24947802347E+00 -0.32378983408E+00 -0.12987918292E+01  0.13615945129E+01  0.51100000000E-03 0. -1.
        -11    1    3    3    0    0 -0.43837245943E+00  0.15305589900E-01 -0.40244705572E+00  0.59528864263E+00  0.51100000000E-03 0.  1.
         12    1    3    3    0    0 -0.43438034618E+02  0.62698283612E+01 -0.51165429683E+01  0.44185434377E+02  0.00000000000E+00 0. -1.
</event>
<event>
 7    1  0.1543346E-008  0.4614232E+02  0.7816164E-02  0.1320468E+00
        -11   -1    0    0    0    0  0.00000000000E+00  0.00000000000E+00  0.45593999997E+02  0.45594000000E+02  0.51100000000E-03 0. -1.
         11   -1    0    0    0    0 -0.00000000000E+00 -0.00000000000E+00 -0.45593999997E+02  0.45594000000E+02  0.51100000000E-03 0.  1.
    9900012    2    1    2    0    0 -0.33168270721E+02 -0.29490989437E+02  0.76981120656E+01  0.46142316856E+02  0.99999917432E+01 0.  0.
        -12    1    1    2    0    0  0.33168270721E+02  0.29490989437E+02 -0.76981120656E+01  0.45045683144E+02  0.00000000000E+00 0.  1.
         11    1    3    3    0    0 -0.29184050745E+00 -0.22452498773E+01 -0.44364835941E+00  0.23071935379E+01  0.51100000000E-03 0. -1.
        -11    1    3    3    0    0 -0.16432654343E+01 -0.33763895108E+01  0.94331454882E+00  0.38717140926E+01  0.51100000000E-03 0.  1.
         12    1    3    3    0    0 -0.31233164779E+02 -0.23869350049E+02  0.71984458762E+01  0.39963409225E+02  0.00000000000E+00 0. -1.
</event>
<event>
 7    1  0.1543346E-008  0.4614232E+02  0.7816164E-02  0.1320468E+00
        -11   -1    0    0    0    0  0.00000000000E+00  0.00000000000E+00  0.45593999997E+02  0.45594000000E+02  0.51100000000E-03 0. -1.
         11   -1    0    0    0    0 -0.00000000000E+00 -0.00000000000E+00 -0.45593999997E+02  0.45594000000E+02  0.51100000000E-03 0.  1.
    9900012    2    1    2    0    0  0.15047866964E+02  0.36049204925E+02 -0.22430558064E+02  0.46142318621E+02  0.10000007837E+02 0.  0.
        -12    1    1    2    0    0 -0.15047866964E+02 -0.36049204925E+02  0.22430558064E+02  0.45045681379E+02  0.00000000000E+00 0.  1.
         11    1    3    3    0    0  0.61293577473E+01  0.74521173805E+01 -0.76771043474E+01  0.12330491120E+02  0.51100000000E-03 0. -1.
        -11    1    3    3    0    0  0.32620666788E+01  0.83990251610E+01 -0.18897297886E+01  0.92062903282E+01  0.51100000000E-03 0.  1.
        -12    1    3    3    0    0  0.56564425376E+01  0.20198062384E+02 -0.12863723928E+02  0.24605537172E+02  0.00000000000E+00 0.  1.
</event>
<event>
 7    1  0.1543346E-008  0.4614232E+02  0.7816164E-02  0.1320468E+00
        -11   -1    0    0    0    0  0.00000000000E+00  0.00000000000E+00  0.45593999997E+02  0.45594000000E+02  0.51100000000E-03 0.  1.
         11   -1    0    0    0    0 -0.00000000000E+00 -0.00000000000E+00 -0.45593999997E+02  0.45594000000E+02  0.51100000000E-03 0. -1.
    9900012    2    1    2    0    0  0.33698227079E+02 -0.29654514661E+02  0.37619846140E+01  0.46142320115E+02  0.10000021469E+02 0.  0.
        -12    1    1    2    0    0 -0.33698227079E+02  0.29654514661E+02 -0.37619846140E+01  0.45045679885E+02  0.00000000000E+00 0.  1.
         11    1    3    3    0    0  0.79655725513E+01 -0.83493118269E+01  0.37385074636E+01  0.12130036784E+02  0.51100000000E-03 0. -1.
        -11    1    3    3    0    0  0.88418268525E+01 -0.37369257489E+01 -0.75629497255E+00  0.96288368191E+01  0.51100000000E-03 0.  1.
         12    1    3    3    0    0  0.16890827675E+02 -0.17568277085E+02  0.77977212297E+00  0.24383446513E+02  0.00000000000E+00 0. -1.
</event>
<event>
 7    1  0.1543346E-008  0.4614232E+02  0.7816164E-02  0.1320468E+00
        -11   -1    0    0    0    0  0.00000000000E+00  0.00000000000E+00  0.45593999997E+02  0.45594000000E+02  0.51100000000E-03 0.  1.
         11   -1    0    0    0    0 -0.00000000000E+00 -0.00000000000E+00 -0.45593999997E+02  0.45594000000E+02  0.51100000000E-03 0. -1.
    9900012    2    1    2    0    0 -0.63740353687E+01  0.10969060573E+02 -0.43222272761E+02  0.46142317861E+02  0.10000000908E+02 0.  0.
        -12    1    1    2    0    0  0.63740353687E+01 -0.10969060573E+02  0.43222272761E+02  0.45045682139E+02  0.00000000000E+00 0.  1.
         11    1    3    3    0    0  0.16632262661E+01  0.10612432372E+01 -0.41169747155E+01  0.45653083017E+01  0.51100000000E-03 0. -1.
        -11    1    3    3    0    0 -0.11361917394E+01  0.77444074240E+00 -0.78482978189E+00  0.15832397733E+01  0.51100000000E-03 0.  1.
         12    1    3    3    0    0 -0.69010698953E+01  0.91333765930E+01 -0.38320468264E+02  0.39993769786E+02  0.00000000000E+00 0. -1.
</event>
<event>
 7    1  0.1543346E-008  0.4614232E+02  0.7816164E-02  0.1320468E+00
        -11   -1    0    0    0    0  0.00000000000E+00  0.00000000000E+00  0.45593999997E+02  0.45594000000E+02  0.51100000000E-03 0. -1.
         11   -1    0    0    0    0 -0.00000000000E+00 -0.00000000000E+00 -0.45593999997E+02  0.45594000000E+02  0.51100000000E-03 0.  1.
    9900012    2    1    2    0    0  0.37622635795E+02  0.14259402243E+02  0.20256361196E+02  0.46142318238E+02  0.10000004345E+02 0.  0.
        -12    1    1    2    0    0 -0.37622635795E+02 -0.14259402243E+02 -0.20256361196E+02  0.45045681762E+02  0.00000000000E+00 0.  1.
         11    1    3    3    0    0  0.27171171371E+01  0.32141914048E+01  0.28680338079E+01  0.50930707935E+01  0.51100000000E-03 0. -1.
        -11    1    3    3    0    0  0.36649030252E+00  0.51653134550E+00  0.14453860666E+01  0.15780560558E+01  0.51100000000E-03 0.  1.
         12    1    3    3    0    0  0.34539028356E+02  0.10528679493E+02  0.15942941322E+02  0.39471191388E+02  0.00000000000E+00 0. -1.
</event>
<event>
 7    1  0.1543346E-008  0.4614232E+02  0.7816164E-02  0.1320468E+00
        -11   -1    0    0    0    0  0.00000000000E+00  0.00000000000E+00  0.45593999997E+02  0.45594000000E+02  0.51100000000E-03 0.  1.
         11   -1    0    0    0    0 -0.00000000000E+00 -0.00000000000E+00 -0.45593999997E+02  0.45594000000E+02  0.51100000000E-03 0. -1.
    9900012    2    1    2    0    0 -0.27921810497E+02  0.19174868474E+02 -0.29695291888E+02  0.46142318268E+02  0.10000004618E+02 0.  0.
        -12    1    1    2    0    0  0.27921810497E+02 -0.19174868474E+02  0.29695291888E+02  0.45045681732E+02  0.00000000000E+00 0.  1.
         11    1    3    3    0    0 -0.31232239679E+01  0.30876879721E+01 -0.32887961269E+00  0.44041465719E+01  0.51100000000E-03 0. -1.
        -11    1    3    3    0    0 -0.15231989587E+02  0.10984950594E+02 -0.19619175324E+02  0.27158694501E+02  0.51100000000E-03 0.  1.
         12    1    3    3    0    0 -0.95665969419E+01  0.51022299072E+01 -0.97472369518E+01  0.14579477195E+02  0.00000000000E+00 0. -1.
</event>
<event>
 7    1  0.1543346E-008  0.4614232E+02  0.7816164E-02  0.1320468E+00
        -11   -1    0    0    0    0  0.00000000000E+00  0.00000000000E+00  0.45593999997E+02  0.45594000000E+02  0.51100000000E-03 0.  1.
         11   -1    0    0    0    0 -0.00000000000E+00 -0.00000000000E+00 -0.45593999997E+02  0.45594000000E+02  0.51100000000E-03 0. -1.
    9900012    2    1    2    0    0 -0.24739897574E+02 -0.18915802202E+02 -0.32546019726E+02  0.46142317577E+02  0.99999983205E+01 0.  0.
        -12    1    1    2    0    0  0.24739897574E+02  0.18915802202E+02  0.32546019726E+02  0.45045682423E+02  0.00000000000E+00 0.  1.
         11    1    3    3    0    0 -0.75635988283E+01 -0.59915048330E+01 -0.46128952544E+01  0.10695090476E+02  0.51100000000E-03 0. -1.
        -11    1    3    3    0    0 -0.16503042419E+02 -0.11221278682E+02 -0.26108048176E+02  0.32861796727E+02  0.51100000000E-03 0.  1.
        -12    1    3    3    0    0 -0.67325632726E+00 -0.17030186871E+01 -0.18250762963E+01  0.25854303739E+01  0.00000000000E+00 0.  1.
</event>
<event>
 7    1  0.1543346E-008  0.4614232E+02  0.7816164E-02  0.1320468E+00
        -11   -1    0    0    0    0  0.00000000000E+00  0.00000000000E+00  0.45593999997E+02  0.45594000000E+02  0.51100000000E-03 0.  1.
         11   -1    0    0    0    0 -0.00000000000E+00 -0.00000000000E+00 -0.45593999997E+02  0.45594000000E+02  0.51100000000E-03 0. -1.
    9900012    2    1    2    0    0  0.42509175489E+02 -0.12175493328E+02 -0.85930700932E+01  0.46142317719E+02  0.99999996143E+01 0.  0.
        -12    1    1    2    0    0 -0.42509175489E+02  0.12175493328E+02  0.85930700932E+01  0.45045682281E+02  0.00000000000E+00 0.  1.
         11    1    3    3    0    0  0.10905674171E+02 -0.12876049192E+01 -0.17581704945E+01  0.11121277772E+02  0.51100000000E-03 0. -1.
        -11    1    3    3    0    0  0.21645329856E+02 -0.88421467574E+01 -0.12342507351E+01  0.23414252903E+02  0.51100000000E-03 0.  1.
        -12    1    3    3    0    0  0.99581714626E+01 -0.20457416510E+01 -0.56006488636E+01  0.11606787044E+02  0.00000000000E+00 0.  1.
</event>
<event>
 7    1  0.1543346E-008  0.4614232E+02  0.7816164E-02  0.1320468E+00
        -11   -1    0    0    0    0  0.00000000000E+00  0.00000000000E+00  0.45593999997E+02  0.45594000000E+02  0.51100000000E-03 0. -1.
         11   -1    0    0    0    0 -0.00000000000E+00 -0.00000000000E+00 -0.45593999997E+02  0.45594000000E+02  0.51100000000E-03 0.  1.
    9900012    2    1    2    0    0 -0.30575222520E+01 -0.40871281739E+02 -0.18689644169E+02  0.46142324154E+02  0.10000058292E+02 0.  0.
        -12    1    1    2    0    0  0.30575222520E+01  0.40871281739E+02  0.18689644169E+02  0.45045675846E+02  0.00000000000E+00 0.  1.
         11    1    3    3    0    0 -0.39667272730E+01 -0.12267648410E+02 -0.81872632261E+01  0.15272897635E+02  0.51100000000E-03 0. -1.
        -11    1    3    3    0    0  0.28584973806E+01 -0.20077564494E+02 -0.74975668322E+01  0.21621589025E+02  0.51100000000E-03 0.  1.
        -12    1    3    3    0    0 -0.19492923597E+01 -0.85260688342E+01 -0.30048141110E+01  0.92478374937E+01  0.00000000000E+00 0.  1.
</event>
<event>
 7    1  0.1543346E-008  0.4614232E+02  0.7816164E-02  0.1320468E+00
        -11   -1    0    0    0    0  0.00000000000E+00  0.00000000000E+00  0.45593999997E+02  0.45594000000E+02  0.51100000000E-03 0.  1.
         11   -1    0    0    0    0 -0.00000000000E+00 -0.00000000000E+00 -0.45593999997E+02  0.45594000000E+02  0.51100000000E-03 0. -1.
    9900012    2    1    2    0    0  0.79859777130E+00  0.28967664818E+02 -0.34486956657E+02  0.46142317156E+02  0.99999944807E+01 0.  0.
        -12    1    1    2    0    0 -0.79859777130E+00 -0.28967664818E+02  0.34486956657E+02  0.45045682844E+02  0.00000000000E+00 0.  1.
         11    1    3    3    0    0  0.23175156461E+01  0.80007599699E+01 -0.10455482505E+02  0.13367877675E+02  0.51100000000E-03 0. -1.
        -11    1    3    3    0    0  0.20983846079E+01  0.17532322829E+01 -0.29240651737E+01  0.40033984065E+01  0.51100000000E-03 0.  1.
        -12    1    3    3    0    0 -0.36173024827E+01  0.19213672565E+02 -0.21107408979E+02  0.28771041074E+02  0.00000000000E+00 0.  1.
</event>
<event>
 7    1  0.1543346E-008  0.4614231E+02  0.7816164E-02  0.1320468E+00
        -11   -1    0    0    0    0  0.00000000000E+00  0.00000000000E+00  0.45593999997E+02  0.45594000000E+02  0.51100000000E-03 0. -1.
         11   -1    0    0    0    0 -0.00000000000E+00 -0.00000000000E+00 -0.45593999997E+02  0.45594000000E+02  0.51100000000E-03 0.  1.
    9900012    2    1    2    0    0  0.11032540399E+02 -0.42360282324E+02  0.10630316746E+02  0.46142310969E+02  0.99999380622E+01 0.  0.
        -12    1    1    2    0    0 -0.11032540399E+02  0.42360282324E+02 -0.10630316746E+02  0.45045689031E+02  0.00000000000E+00 0.  1.
         11    1    3    3    0    0  0.81351751331E+01 -0.22737808016E+02  0.80787692092E+01  0.25464789416E+02  0.51100000000E-03 0. -1.
        -11    1    3    3    0    0 -0.53855505276E+00 -0.15157424952E+01 -0.10201191418E+01  0.19047729999E+01  0.51100000000E-03 0.  1.
         12    1    3    3    0    0  0.34359203182E+01 -0.18106731813E+02  0.35716666783E+01  0.18772748553E+02  0.00000000000E+00 0. -1.
</event>
<event>
 7    1  0.1543346E-008  0.4614232E+02  0.7816164E-02  0.1320468E+00
        -11   -1    0    0    0    0  0.00000000000E+00  0.00000000000E+00  0.45593999997E+02  0.45594000000E+02  0.51100000000E-03 0. -1.
         11   -1    0    0    0    0 -0.00000000000E+00 -0.00000000000E+00 -0.45593999997E+02  0.45594000000E+02  0.51100000000E-03 0.  1.
    9900012    2    1    2    0    0 -0.35658987384E+02  0.27047614952E+02  0.50967142212E+01  0.46142319278E+02  0.10000013830E+02 0.  0.
        -12    1    1    2    0    0  0.35658987384E+02 -0.27047614952E+02 -0.50967142212E+01  0.45045680722E+02  0.00000000000E+00 0.  1.
         11    1    3    3    0    0 -0.74664041718E+01  0.77303384222E+01  0.41924741715E+01  0.11536124276E+02  0.51100000000E-03 0. -1.
        -11    1    3    3    0    0 -0.98896051568E+01  0.39997374415E+01 -0.65954716566E+00  0.10688180036E+02  0.51100000000E-03 0.  1.
        -12    1    3    3    0    0 -0.18302978056E+02  0.15317539088E+02  0.15637872154E+01  0.23918014965E+02  0.00000000000E+00 0.  1.
</event>
<event>
 7    1  0.1543346E-008  0.4614232E+02  0.7816164E-02  0.1320468E+00
        -11   -1    0    0    0    0  0.00000000000E+00  0.00000000000E+00  0.45593999997E+02  0.45594000000E+02  0.51100000000E-03 0.  1.
         11   -1    0    0    0    0 -0.00000000000E+00 -0.00000000000E+00 -0.45593999997E+02  0.45594000000E+02  0.51100000000E-03 0. -1.
    9900012    2    1    2    0    0 -0.28299710651E+02  0.66638337561E+01 -0.34406876608E+02  0.46142318063E+02  0.10000002751E+02 0.  0.
        -12    1    1    2    0    0  0.28299710651E+02 -0.66638337561E+01  0.34406876608E+02  0.45045681937E+02  0.00000000000E+00 0.  1.
         11    1    3    3    0    0 -0.16469130836E+02  0.33674490754E+01 -0.20936865965E+02  0.26850034273E+02  0.51100000000E-03 0. -1.
        -11    1    3    3    0    0 -0.60754446488E+01  0.48998781841E+01 -0.69772251990E+01  0.10469073772E+02  0.51100000000E-03 0.  1.
        -12    1    3    3    0    0 -0.57551351671E+01 -0.16034935035E+01 -0.64927854435E+01  0.88232100180E+01  0.00000000000E+00 0.  1.
</event>
<event>
 7    1  0.1543346E-008  0.4614233E+02  0.7816164E-02  0.1320468E+00
        -11   -1    0    0    0    0  0.00000000000E+00  0.00000000000E+00  0.45593999997E+02  0.45594000000E+02  0.51100000000E-03 0.  1.
         11   -1    0    0    0    0 -0.00000000000E+00 -0.00000000000E+00 -0.45593999997E+02  0.45594000000E+02  0.51100000000E-03 0. -1.
    9900012    2    1    2    0    0 -0.38146183800E+02 -0.10091442951E+02 -0.21728879117E+02  0.46142325990E+02  0.10000075037E+02 0.  0.
        -12    1    1    2    0    0  0.38146183800E+02  0.10091442951E+02  0.21728879117E+02  0.45045674010E+02  0.00000000000E+00 0.  1.
         11    1    3    3    0    0 -0.21852817471E+01 -0.11267123235E+00  0.13061660509E+00  0.21920793963E+01  0.51100000000E-03 0. -1.
        -11    1    3    3    0    0 -0.93279033062E+01  0.81084126312E+00 -0.46312567438E+01  0.10445850034E+02  0.51100000000E-03 0.  1.
         12    1    3    3    0    0 -0.26632998747E+02 -0.10789612982E+02 -0.17228238979E+02  0.33504396560E+02  0.00000000000E+00 0. -1.
</event>
<event>
 7    1  0.1543346E-008  0.4614232E+02  0.7816164E-02  0.1320468E+00
        -11   -1    0    0    0    0  0.00000000000E+00  0.00000000000E+00  0.45593999997E+02  0.45594000000E+02  0.51100000000E-03 0.  1.
         11   -1    0    0    0    0 -0.00000000000E+00 -0.00000000000E+00 -0.45593999997E+02  0.45594000000E+02  0.51100000000E-03 0. -1.
    9900012    2    1    2    0    0 -0.23008163066E+02 -0.37447984722E+02  0.98684514120E+01  0.46142318069E+02  0.10000002804E+02 0.  0.
        -12    1    1    2    0    0  0.23008163066E+02  0.37447984722E+02 -0.98684514120E+01  0.45045681931E+02  0.00000000000E+00 0.  1.
         11    1    3    3    0    0 -0.12041049415E+01 -0.57196086525E+01  0.10302331547E+01  0.59350798193E+01  0.51100000000E-03 0.  1.
        -11    1    3    3    0    0 -0.26861062299E+01 -0.75774432364E+01 -0.40084664633E+00  0.80494404137E+01  0.51100000000E-03 0. -1.
        -12    1    3    3    0    0 -0.19117951894E+02 -0.24150932833E+02  0.92390649037E+01  0.32157797836E+02  0.00000000000E+00 0.  1.
</event>
<event>
 7    1  0.1543346E-008  0.4614232E+02  0.7816164E-02  0.1320468E+00
        -11   -1    0    0    0    0  0.00000000000E+00  0.00000000000E+00  0.45593999997E+02  0.45594000000E+02  0.51100000000E-03 0.  1.
         11   -1    0    0    0    0 -0.00000000000E+00 -0.00000000000E+00 -0.45593999997E+02  0.45594000000E+02  0.51100000000E-03 0. -1.
    9900012    2    1    2    0    0 -0.39982972866E+02 -0.14079011253E+02 -0.15239974221E+02  0.46142317728E+02  0.99999997007E+01 0.  0.
        -12    1    1    2    0    0  0.39982972866E+02  0.14079011253E+02  0.15239974221E+02  0.45045682272E+02  0.00000000000E+00 0.  1.
         11    1    3    3    0    0 -0.75935990257E+01 -0.71731051117E+00 -0.26151257780E+01  0.80632601117E+01  0.51100000000E-03 0. -1.
        -11    1    3    3    0    0 -0.23864848345E+02 -0.95321041782E+01 -0.53818624322E+01  0.26255598262E+02  0.51100000000E-03 0.  1.
        -12    1    3    3    0    0 -0.85245254955E+01 -0.38295965633E+01 -0.72429860105E+01  0.11823459355E+02  0.00000000000E+00 0.  1.
</event>
<event>
 7    1  0.1543346E-008  0.4614232E+02  0.7816164E-02  0.1320468E+00
        -11   -1    0    0    0    0  0.00000000000E+00  0.00000000000E+00  0.45593999997E+02  0.45594000000E+02  0.51100000000E-03 0.  1.
         11   -1    0    0    0    0 -0.00000000000E+00 -0.00000000000E+00 -0.45593999997E+02  0.45594000000E+02  0.51100000000E-03 0. -1.
    9900012    2    1    2    0    0 -0.29159603390E+02  0.27145336622E+02 -0.21022886342E+02  0.46142317407E+02  0.99999967666E+01 0.  0.
        -12    1    1    2    0    0  0.29159603390E+02 -0.27145336622E+02  0.21022886342E+02  0.45045682593E+02  0.00000000000E+00 0.  1.
         11    1    3    3    0    0 -0.10412997776E+02  0.52117803296E+01 -0.94166056689E+01  0.14975501309E+02  0.51100000000E-03 0. -1.
        -11    1    3    3    0    0 -0.84504178410E+00  0.14134040028E+01 -0.10933792226E+01  0.19766853259E+01  0.51100000000E-03 0.  1.
         12    1    3    3    0    0 -0.17901563830E+02  0.20520152289E+02 -0.10512901451E+02  0.29190130771E+02  0.00000000000E+00 0. -1.
</event>
<event>
 7    1  0.1543346E-008  0.4614232E+02  0.7816164E-02  0.1320468E+00
        -11   -1    0    0    0    0  0.00000000000E+00  0.00000000000E+00  0.45593999997E+02  0.45594000000E+02  0.51100000000E-03 0.  1.
         11   -1    0    0    0    0 -0.00000000000E+00 -0.00000000000E+00 -0.45593999997E+02  0.45594000000E+02  0.51100000000E-03 0. -1.
    9900012    2    1    2    0    0  0.10665472852E+02  0.14396944078E+02 -0.41329035567E+02  0.46142317734E+02  0.99999997489E+01 0.  0.
        -12    1    1    2    0    0 -0.10665472852E+02 -0.14396944078E+02  0.41329035567E+02  0.45045682266E+02  0.00000000000E+00 0.  1.
         11    1    3    3    0    0  0.64227765914E+01  0.58260149574E+01 -0.11027305152E+02  0.14028398647E+02  0.51100000000E-03 0. -1.
        -11    1    3    3    0    0  0.25941879626E+01  0.37069768983E+01 -0.21065038025E+02  0.21545470896E+02  0.51100000000E-03 0.  1.
         12    1    3    3    0    0  0.16485082978E+01  0.48639522219E+01 -0.92366923908E+01  0.10568448190E+02  0.00000000000E+00 0. -1.
</event>
<event>
 7    1  0.1543346E-008  0.4614233E+02  0.7816164E-02  0.1320468E+00
        -11   -1    0    0    0    0  0.00000000000E+00  0.00000000000E+00  0.45593999997E+02  0.45594000000E+02  0.51100000000E-03 0. -1.
         11   -1    0    0    0    0 -0.00000000000E+00 -0.00000000000E+00 -0.45593999997E+02  0.45594000000E+02  0.51100000000E-03 0.  1.
    9900012    2    1    2    0    0  0.18494411030E+02 -0.41073882369E+02 -0.75330149735E-01  0.46142326214E+02  0.10000077077E+02 0.  0.
        -12    1    1    2    0    0 -0.18494411030E+02  0.41073882369E+02  0.75330149735E-01  0.45045673786E+02  0.00000000000E+00 0.  1.
         11    1    3    3    0    0  0.13891125786E+02 -0.26530300861E+02 -0.18090775632E+01  0.30001549981E+02  0.51100000000E-03 0. -1.
        -11    1    3    3    0    0  0.56269712073E+01 -0.10988672877E+02  0.12155604318E+01  0.12405294192E+02  0.51100000000E-03 0.  1.
         12    1    3    3    0    0 -0.10236859633E+01 -0.35549086316E+01  0.51818698169E+00  0.37354820409E+01  0.00000000000E+00 0. -1.
</event>
<event>
 7    1  0.1543346E-008  0.4614232E+02  0.7816164E-02  0.1320468E+00
        -11   -1    0    0    0    0  0.00000000000E+00  0.00000000000E+00  0.45593999997E+02  0.45594000000E+02  0.51100000000E-03 0. -1.
         11   -1    0    0    0    0 -0.00000000000E+00 -0.00000000000E+00 -0.45593999997E+02  0.45594000000E+02  0.51100000000E-03 0.  1.
    9900012    2    1    2    0    0 -0.12877861786E+01  0.11977624019E+02  0.43404971800E+02  0.46142318216E+02  0.10000004148E+02 0.  0.
        -12    1    1    2    0    0  0.12877861786E+01 -0.11977624019E+02 -0.43404971800E+02  0.45045681784E+02  0.00000000000E+00 0.  1.
         11    1    3    3    0    0 -0.16407824691E+01  0.21649997539E+01  0.25468040295E+02  0.25612506081E+02  0.51100000000E-03 0. -1.
        -11    1    3    3    0    0  0.42532386027E+00  0.43890268462E+00  0.10072753686E+01  0.11781934825E+01  0.51100000000E-03 0.  1.
         12    1    3    3    0    0 -0.72327569690E-01  0.93737215805E+01  0.16929656137E+02  0.19351618652E+02  0.00000000000E+00 0. -1.
</event>
<event>
 7    1  0.1707420E-008  0.4614232E+02  0.7816164E-02  0.1320468E+00
        -11   -1    0    0    0    0  0.00000000000E+00  0.00000000000E+00  0.45593999997E+02  0.45594000000E+02  0.51100000000E-03 0. -1.
         11   -1    0    0    0    0 -0.00000000000E+00 -0.00000000000E+00 -0.45593999997E+02  0.45594000000E+02  0.51100000000E-03 0.  1.
    9900012    2    1    2    0    0  0.12770162050E+02 -0.37449312521E+02  0.21531037047E+02  0.46142316485E+02  0.99999883614E+01 0.  0.
        -12    1    1    2    0    0 -0.12770162050E+02  0.37449312521E+02 -0.21531037047E+02  0.45045683515E+02  0.00000000000E+00 0.  1.
         11    1    3    3    0    0  0.69786133429E+01 -0.29331856237E+02  0.18410069937E+02  0.35326894993E+02  0.51100000000E-03 0. -1.
        -11    1    3    3    0    0  0.42001217899E+01 -0.68963140254E+01  0.14481410606E+01  0.82034921210E+01  0.51100000000E-03 0.  1.
         12    1    3    3    0    0  0.15914269169E+01 -0.12211422581E+01  0.16728260496E+01  0.26119293709E+01  0.00000000000E+00 0. -1.
</event>
<event>
 7    1  0.1543346E-008  0.4614232E+02  0.7816164E-02  0.1320468E+00
        -11   -1    0    0    0    0  0.00000000000E+00  0.00000000000E+00  0.45593999997E+02  0.45594000000E+02  0.51100000000E-03 0. -1.
         11   -1    0    0    0    0 -0.00000000000E+00 -0.00000000000E+00 -0.45593999997E+02  0.45594000000E+02  0.51100000000E-03 0.  1.
    9900012    2    1    2    0    0  0.30515100561E+02 -0.14579207803E+02  0.29755483058E+02  0.46142318360E+02  0.10000005459E+02 0.  0.
        -12    1    1    2    0    0 -0.30515100561E+02  0.14579207803E+02 -0.29755483058E+02  0.45045681640E+02  0.00000000000E+00 0.  1.
         11    1    3    3    0    0  0.12446668779E+02 -0.61245879625E+01  0.17126921659E+02  0.22039999709E+02  0.51100000000E-03 0. -1.
        -11    1    3    3    0    0  0.13334696482E+02 -0.39443654383E+01  0.75496204667E+01  0.15823050225E+02  0.51100000000E-03 0.  1.
         12    1    3    3    0    0  0.47337352996E+01 -0.45102544026E+01  0.50789409328E+01  0.82792684255E+01  0.00000000000E+00 0. -1.
</event>
<event>
 7    1  0.1543346E-008  0.4614232E+02  0.7816164E-02  0.1320468E+00
        -11   -1    0    0    0    0  0.00000000000E+00  0.00000000000E+00  0.45593999997E+02  0.45594000000E+02  0.51100000000E-03 0. -1.
         11   -1    0    0    0    0 -0.00000000000E+00 -0.00000000000E+00 -0.45593999997E+02  0.45594000000E+02  0.51100000000E-03 0.  1.
    9900012    2    1    2    0    0  0.22962751755E+02  0.23338188584E+02  0.30937913182E+02  0.46142317781E+02  0.10000000181E+02 0.  0.
        -12    1    1    2    0    0 -0.22962751755E+02 -0.23338188584E+02 -0.30937913182E+02  0.45045682219E+02  0.00000000000E+00 0.  1.
         11    1    3    3    0    0  0.73124162703E+01  0.55347093238E+01  0.88837368927E+01  0.12768133006E+02  0.51100000000E-03 0. -1.
        -11    1    3    3    0    0  0.60049170164E+01  0.18448128411E+01  0.41911323025E+01  0.75516854431E+01  0.51100000000E-03 0.  1.
        -12    1    3    3    0    0  0.96454184678E+01  0.15958666419E+02  0.17863043987E+02  0.25822499332E+02  0.00000000000E+00 0.  1.
</event>
<event>
 7    1  0.1543346E-008  0.4614232E+02  0.7816164E-02  0.1320468E+00
        -11   -1    0    0    0    0  0.00000000000E+00  0.00000000000E+00  0.45593999997E+02  0.45594000000E+02  0.51100000000E-03 0.  1.
         11   -1    0    0    0    0 -0.00000000000E+00 -0.00000000000E+00 -0.45593999997E+02  0.45594000000E+02  0.51100000000E-03 0. -1.
    9900012    2    1    2    0    0  0.12285631073E+02  0.26845543182E+02 -0.34021957714E+02  0.46142317340E+02  0.99999961601E+01 0.  0.
        -12    1    1    2    0    0 -0.12285631073E+02 -0.26845543182E+02  0.34021957714E+02  0.45045682660E+02  0.00000000000E+00 0.  1.
         11    1    3    3    0    0  0.87149211513E+01  0.15510073282E+02 -0.19557489732E+02  0.26438752405E+02  0.51100000000E-03 0. -1.
        -11    1    3    3    0    0  0.43411047146E+01  0.45273714418E+01 -0.88396631373E+01  0.10838908015E+02  0.51100000000E-03 0.  1.
        -12    1    3    3    0    0 -0.77039479336E+00  0.68080984584E+01 -0.56248048452E+01  0.88646569197E+01  0.00000000000E+00 0.  1.
</event>
<event>
 7    1  0.1543346E-008  0.4614233E+02  0.7816164E-02  0.1320468E+00
        -11   -1    0    0    0    0  0.00000000000E+00  0.00000000000E+00  0.45593999997E+02  0.45594000000E+02  0.51100000000E-03 0. -1.
         11   -1    0    0    0    0 -0.00000000000E+00 -0.00000000000E+00 -0.45593999997E+02  0.45594000000E+02  0.51100000000E-03 0.  1.
    9900012    2    1    2    0    0 -0.14361296691E+00  0.43183279674E+02  0.12817798868E+02  0.46142331663E+02  0.10000126769E+02 0.  0.
        -12    1    1    2    0    0  0.14361296691E+00 -0.43183279674E+02 -0.12817798868E+02  0.45045668337E+02  0.00000000000E+00 0.  1.
         11    1    3    3    0    0  0.35669157668E+00  0.12093004346E+02 -0.51991705691E+00  0.12109430086E+02  0.51100000000E-03 0. -1.
        -11    1    3    3    0    0 -0.16966518248E+00  0.11381793844E+02  0.68312914553E+01  0.13275562533E+02  0.51100000000E-03 0.  1.
         12    1    3    3    0    0 -0.33063936111E+00  0.19708481485E+02  0.65064244693E+01  0.20757339044E+02  0.00000000000E+00 0. -1.
</event>
<event>
 7    1  0.1543346E-008  0.4614232E+02  0.7816164E-02  0.1320468E+00
        -11   -1    0    0    0    0  0.00000000000E+00  0.00000000000E+00  0.45593999997E+02  0.45594000000E+02  0.51100000000E-03 0. -1.
         11   -1    0    0    0    0 -0.00000000000E+00 -0.00000000000E+00 -0.45593999997E+02  0.45594000000E+02  0.51100000000E-03 0.  1.
    9900012    2    1    2    0    0  0.17947357308E+02 -0.40425151452E+01  0.41117685534E+02  0.46142316225E+02  0.99999859921E+01 0.  0.
        -12    1    1    2    0    0 -0.17947357308E+02  0.40425151452E+01 -0.41117685534E+02  0.45045683775E+02  0.00000000000E+00 0.  1.
         11    1    3    3    0    0  0.14012140366E+01 -0.35226845591E+01  0.69957423771E+01  0.79569541249E+01  0.51100000000E-03 0.  1.
        -11    1    3    3    0    0  0.92747316504E+01  0.77256778064E+00  0.23236451509E+02  0.25030984542E+02  0.51100000000E-03 0. -1.
        -12    1    3    3    0    0  0.72714116213E+01 -0.12923983668E+01  0.10885491648E+02  0.13154377558E+02  0.00000000000E+00 0.  1.
</event>
<event>
 7    1  0.1543346E-008  0.4614232E+02  0.7816164E-02  0.1320468E+00
        -11   -1    0    0    0    0  0.00000000000E+00  0.00000000000E+00  0.45593999997E+02  0.45594000000E+02  0.51100000000E-03 0.  1.
         11   -1    0    0    0    0 -0.00000000000E+00 -0.00000000000E+00 -0.45593999997E+02  0.45594000000E+02  0.51100000000E-03 0. -1.
    9900012    2    1    2    0    0  0.66880547399E+01 -0.41071383420E+02 -0.17248910648E+02  0.46142317290E+02  0.99999957076E+01 0.  0.
        -12    1    1    2    0    0 -0.66880547399E+01  0.41071383420E+02  0.17248910648E+02  0.45045682710E+02  0.00000000000E+00 0.  1.
         11    1    3    3    0    0  0.66006736037E+00 -0.12458436912E+02 -0.75935156208E+01  0.14605129885E+02  0.51100000000E-03 0. -1.
        -11    1    3    3    0    0  0.91235982313E-01 -0.13175131789E+02 -0.65285668601E+01  0.14704237728E+02  0.51100000000E-03 0.  1.
        -12    1    3    3    0    0  0.59367513972E+01 -0.15437814720E+02 -0.31268281674E+01  0.16832949678E+02  0.00000000000E+00 0.  1.
</event>
<event>
 7    1  0.1543346E-008  0.4614232E+02  0.7816164E-02  0.1320468E+00
        -11   -1    0    0    0    0  0.00000000000E+00  0.00000000000E+00  0.45593999997E+02  0.45594000000E+02  0.51100000000E-03 0.  1.
         11   -1    0    0    0    0 -0.00000000000E+00 -0.00000000000E+00 -0.45593999997E+02  0.45594000000E+02  0.51100000000E-03 0. -1.
    9900012    2    1    2    0    0  0.25138250758E+02 -0.28645556898E+02 -0.24012786535E+02  0.46142317650E+02  0.99999989908E+01 0.  0.
        -12    1    1    2    0    0 -0.25138250758E+02  0.28645556898E+02  0.24012786535E+02  0.45045682350E+02  0.00000000000E+00 0.  1.
         11    1    3    3    0    0  0.12933180084E+02 -0.14982436758E+02 -0.12242280036E+02  0.23272601467E+02  0.51100000000E-03 0. -1.
        -11    1    3    3    0    0 -0.43858688347E+00 -0.26081573234E+01 -0.27094803063E+01  0.37863078149E+01  0.51100000000E-03 0.  1.
        -12    1    3    3    0    0  0.12643657557E+02 -0.11054962816E+02 -0.90610261928E+01  0.19083408368E+02  0.00000000000E+00 0.  1.
</event>
<event>
 7    1  0.1628605E-008  0.4614232E+02  0.7816164E-02  0.1320468E+00
        -11   -1    0    0    0    0  0.00000000000E+00  0.00000000000E+00  0.45593999997E+02  0.45594000000E+02  0.51100000000E-03 0. -1.
         11   -1    0    0    0    0 -0.00000000000E+00 -0.00000000000E+00 -0.45593999997E+02  0.45594000000E+02  0.51100000000E-03 0.  1.
    9900012    2    1    2    0    0  0.27966187036E+02 -0.25504013562E+02  0.24424399354E+02  0.46142316423E+02  0.99999878004E+01 0.  0.
        -12    1    1    2    0    0 -0.27966187036E+02  0.25504013562E+02 -0.24424399354E+02  0.45045683577E+02  0.00000000000E+00 0.  1.
         11    1    3    3    0    0  0.19864790221E+02 -0.22919295816E+02  0.16984195181E+02  0.34761572137E+02  0.51100000000E-03 0. -1.
        -11    1    3    3    0    0  0.65542043451E+01 -0.16387285425E+01  0.53824632664E+01  0.86379359171E+01  0.51100000000E-03 0.  1.
         12    1    3    3    0    0  0.15471924699E+01 -0.94598920339E+00  0.20577409064E+01  0.27428083691E+01  0.00000000000E+00 0. -1.
</event>
<event>
 7    1  0.1543346E-008  0.4614233E+02  0.7816164E-02  0.1320468E+00
        -11   -1    0    0    0    0  0.00000000000E+00  0.00000000000E+00  0.45593999997E+02  0.45594000000E+02  0.51100000000E-03 0.  1.
         11   -1    0    0    0    0 -0.00000000000E+00 -0.00000000000E+00 -0.45593999997E+02  0.45594000000E+02  0.51100000000E-03 0. -1.
    9900012    2    1    2    0    0  0.14317222579E+02 -0.20945198051E+02 -0.37221341424E+02  0.46142329384E+02  0.10000105988E+02 0.  0.
        -12    1    1    2    0    0 -0.14317222579E+02  0.20945198051E+02  0.37221341424E+02  0.45045670616E+02  0.00000000000E+00 0.  1.
         11    1    3    3    0    0  0.74560905601E+00 -0.13064233658E+01 -0.29545229252E+01  0.33154005567E+01  0.51100000000E-03 0. -1.
        -11    1    3    3    0    0  0.12398004253E+02 -0.10404409547E+02 -0.19146119903E+02  0.25070623348E+02  0.51100000000E-03 0.  1.
        -12    1    3    3    0    0  0.11736092704E+01 -0.92343651382E+01 -0.15120698596E+02  0.17756305479E+02  0.00000000000E+00 0.  1.
</event>
<event>
 7    1  0.1543346E-008  0.4614232E+02  0.7816164E-02  0.1320468E+00
        -11   -1    0    0    0    0  0.00000000000E+00  0.00000000000E+00  0.45593999997E+02  0.45594000000E+02  0.51100000000E-03 0.  1.
         11   -1    0    0    0    0 -0.00000000000E+00 -0.00000000000E+00 -0.45593999997E+02  0.45594000000E+02  0.51100000000E-03 0. -1.
    9900012    2    1    2    0    0 -0.95387375630E+01 -0.31928328196E+00 -0.44022995006E+02  0.46142317128E+02  0.99999942304E+01 0.  0.
        -12    1    1    2    0    0  0.95387375630E+01  0.31928328196E+00  0.44022995006E+02  0.45045682872E+02  0.00000000000E+00 0.  1.
         11    1    3    3    0    0  0.56453800036E-01  0.11337094691E+01 -0.13074030045E+00  0.11426186936E+01  0.51100000000E-03 0. -1.
        -11    1    3    3    0    0 -0.73330618977E+00  0.44197487088E+00 -0.34698463852E+01  0.35739213691E+01  0.51100000000E-03 0.  1.
         12    1    3    3    0    0 -0.88618851733E+01 -0.18949676219E+01 -0.40422408320E+02  0.41425777066E+02  0.00000000000E+00 0. -1.
</event>
<event>
 7    1  0.1543346E-008  0.4614232E+02  0.7816164E-02  0.1320468E+00
        -11   -1    0    0    0    0  0.00000000000E+00  0.00000000000E+00  0.45593999997E+02  0.45594000000E+02  0.51100000000E-03 0. -1.
         11   -1    0    0    0    0 -0.00000000000E+00 -0.00000000000E+00 -0.45593999997E+02  0.45594000000E+02  0.51100000000E-03 0.  1.
    9900012    2    1    2    0    0  0.24865854610E+02  0.37469162356E+02  0.26200696162E+01  0.46142316322E+02  0.99999868814E+01 0.  0.
        -12    1    1    2    0    0 -0.24865854610E+02 -0.37469162356E+02 -0.26200696162E+01  0.45045683678E+02  0.00000000000E+00 0.  1.
         11    1    3    3    0    0  0.18364167448E+02  0.23708697873E+02  0.31497704939E+01  0.30154038790E+02  0.51100000000E-03 0. -1.
        -11    1    3    3    0    0  0.38460679596E+01  0.98293484548E+01 -0.25069986071E+01  0.10848657616E+02  0.51100000000E-03 0.  1.
         12    1    3    3    0    0  0.26556192030E+01  0.39311160281E+01  0.19772977294E+01  0.51396199167E+01  0.00000000000E+00 0. -1.
</event>
<event>
 7    1  0.1543346E-008  0.4614232E+02  0.7816164E-02  0.1320468E+00
        -11   -1    0    0    0    0  0.00000000000E+00  0.00000000000E+00  0.45593999997E+02  0.45594000000E+02  0.51100000000E-03 0.  1.
         11   -1    0    0    0    0 -0.00000000000E+00 -0.00000000000E+00 -0.45593999997E+02  0.45594000000E+02  0.51100000000E-03 0. -1.
    9900012    2    1    2    0    0  0.17814025446E+02  0.39116185752E+02 -0.13479541744E+02  0.46142317233E+02  0.99999951822E+01 0.  0.
        -12    1    1    2    0    0 -0.17814025446E+02 -0.39116185752E+02  0.13479541744E+02  0.45045682767E+02  0.00000000000E+00 0.  1.
         11    1    3    3    0    0  0.13689446249E+01  0.79120455220E+01 -0.50651930044E+01  0.94937165621E+01  0.51100000000E-03 0. -1.
        -11    1    3    3    0    0  0.12637062768E+02  0.25023332392E+02 -0.87904607864E+01  0.29379154523E+02  0.51100000000E-03 0.  1.
        -12    1    3    3    0    0  0.38080180534E+01  0.61808078374E+01  0.37611204707E+00  0.72694461474E+01  0.00000000000E+00 0.  1.
</event>
<event>
 7    1  0.1543346E-008  0.4614232E+02  0.7816164E-02  0.1320468E+00
        -11   -1    0    0    0    0  0.00000000000E+00  0.00000000000E+00  0.45593999997E+02  0.45594000000E+02  0.51100000000E-03 0.  1.
         11   -1    0    0    0    0 -0.00000000000E+00 -0.00000000000E+00 -0.45593999997E+02  0.45594000000E+02  0.51100000000E-03 0. -1.
    9900012    2    1    2    0    0 -0.29630858667E+02  0.30255156032E+01 -0.33793072130E+02  0.46142320363E+02  0.10000023723E+02 0.  0.
        -12    1    1    2    0    0  0.29630858667E+02 -0.30255156032E+01  0.33793072130E+02  0.45045679637E+02  0.00000000000E+00 0.  1.
         11    1    3    3    0    0 -0.83905244378E+01 -0.18036965844E+01 -0.78005321468E+01  0.11597522311E+02  0.51100000000E-03 0. -1.
        -11    1    3    3    0    0 -0.19528631365E+02  0.37280766344E+01 -0.25694109559E+02  0.32487740221E+02  0.51100000000E-03 0.  1.
         12    1    3    3    0    0 -0.17117028646E+01  0.11011355532E+01 -0.29843042430E+00  0.20570578314E+01  0.00000000000E+00 0. -1.
</event>
<event>
 7    1  0.1543346E-008  0.4614232E+02  0.7816164E-02  0.1320468E+00
        -11   -1    0    0    0    0  0.00000000000E+00  0.00000000000E+00  0.45593999997E+02  0.45594000000E+02  0.51100000000E-03 0.  1.
         11   -1    0    0    0    0 -0.00000000000E+00 -0.00000000000E+00 -0.45593999997E+02  0.45594000000E+02  0.51100000000E-03 0. -1.
    9900012    2    1    2    0    0 -0.21062733700E+02  0.20179146243E+02 -0.34326036984E+02  0.46142317532E+02  0.99999979070E+01 0.  0.
        -12    1    1    2    0    0  0.21062733700E+02 -0.20179146243E+02  0.34326036984E+02  0.45045682468E+02  0.00000000000E+00 0.  1.
         11    1    3    3    0    0 -0.14712300343E+02  0.99707077781E+01 -0.25380766021E+02  0.30984674907E+02  0.51100000000E-03 0. -1.
        -11    1    3    3    0    0 -0.47896592128E+00  0.15655132299E+01 -0.46837014763E+00  0.17028243841E+01  0.51100000000E-03 0.  1.
         12    1    3    3    0    0 -0.58714674355E+01  0.86429252348E+01 -0.84769008152E+01  0.13454818241E+02  0.00000000000E+00 0. -1.
</event>
<event>
 7    1  0.1543346E-008  0.4614231E+02  0.7816164E-02  0.1320468E+00
        -11   -1    0    0    0    0  0.00000000000E+00  0.00000000000E+00  0.45593999997E+02  0.45594000000E+02  0.51100000000E-03 0.  1.
         11   -1    0    0    0    0 -0.00000000000E+00 -0.00000000000E+00 -0.45593999997E+02  0.45594000000E+02  0.51100000000E-03 0. -1.
    9900012    2    1    2    0    0 -0.10607123582E+02 -0.72011811733E+01 -0.43182702957E+02  0.46142313019E+02  0.99999567552E+01 0.  0.
        -12    1    1    2    0    0  0.10607123582E+02  0.72011811733E+01  0.43182702957E+02  0.45045686981E+02  0.00000000000E+00 0.  1.
         11    1    3    3    0    0 -0.50910063143E+01 -0.53089413301E+01 -0.16629060362E+02  0.18183202471E+02  0.51100000000E-03 0. -1.
        -11    1    3    3    0    0 -0.64118249581E+01 -0.13844278416E+01 -0.25948583109E+02  0.26764848316E+02  0.51100000000E-03 0.  1.
        -12    1    3    3    0    0  0.89570769061E+00 -0.50781200157E+00 -0.60505948559E+00  0.11942622313E+01  0.00000000000E+00 0.  1.
</event>
<event>
 7    1  0.1543346E-008  0.4614232E+02  0.7816164E-02  0.1320468E+00
        -11   -1    0    0    0    0  0.00000000000E+00  0.00000000000E+00  0.45593999997E+02  0.45594000000E+02  0.51100000000E-03 0. -1.
         11   -1    0    0    0    0 -0.00000000000E+00 -0.00000000000E+00 -0.45593999997E+02  0.45594000000E+02  0.51100000000E-03 0.  1.
    9900012    2    1    2    0    0 -0.39298432291E+02  0.21321179639E+02 -0.54912551981E+01  0.46142319126E+02  0.10000012448E+02 0.  0.
        -12    1    1    2    0    0  0.39298432291E+02 -0.21321179639E+02  0.54912551981E+01  0.45045680874E+02  0.00000000000E+00 0.  1.
         11    1    3    3    0    0 -0.20869930747E+02  0.97745924210E+01 -0.21548542536E+01  0.23146059351E+02  0.51100000000E-03 0.  1.
        -11    1    3    3    0    0 -0.17719665902E+02  0.11194339112E+02 -0.15195695604E+01  0.21014492136E+02  0.51100000000E-03 0. -1.
        -12    1    3    3    0    0 -0.70883564223E+00  0.35224810613E+00 -0.18168313841E+01  0.19817676388E+01  0.00000000000E+00 0.  1.
</event>
<event>
 7    1  0.1543346E-008  0.4614232E+02  0.7816164E-02  0.1320468E+00
        -11   -1    0    0    0    0  0.00000000000E+00  0.00000000000E+00  0.45593999997E+02  0.45594000000E+02  0.51100000000E-03 0.  1.
         11   -1    0    0    0    0 -0.00000000000E+00 -0.00000000000E+00 -0.45593999997E+02  0.45594000000E+02  0.51100000000E-03 0. -1.
    9900012    2    1    2    0    0 -0.10719270753E+02 -0.34769896565E+02 -0.26556827435E+02  0.46142317010E+02  0.99999931511E+01 0.  0.
        -12    1    1    2    0    0  0.10719270753E+02  0.34769896565E+02  0.26556827435E+02  0.45045682990E+02  0.00000000000E+00 0.  1.
         11    1    3    3    0    0 -0.11359330082E+02 -0.30065700487E+02 -0.24512478743E+02  0.40420815678E+02  0.51100000000E-03 0. -1.
        -11    1    3    3    0    0 -0.71620797649E-01 -0.13135002543E+01 -0.18254152983E+01  0.22500119397E+01  0.51100000000E-03 0.  1.
         12    1    3    3    0    0  0.71168012609E+00 -0.33906958236E+01 -0.21893339365E+00  0.34714893923E+01  0.00000000000E+00 0. -1.
</event>
<event>
 7    1  0.1543346E-008  0.4614232E+02  0.7816164E-02  0.1320468E+00
        -11   -1    0    0    0    0  0.00000000000E+00  0.00000000000E+00  0.45593999997E+02  0.45594000000E+02  0.51100000000E-03 0. -1.
         11   -1    0    0    0    0 -0.00000000000E+00 -0.00000000000E+00 -0.45593999997E+02  0.45594000000E+02  0.51100000000E-03 0.  1.
    9900012    2    1    2    0    0  0.18247618782E+02 -0.39128094842E+02  0.12850293722E+02  0.46142318232E+02  0.10000004298E+02 0.  0.
        -12    1    1    2    0    0 -0.18247618782E+02  0.39128094842E+02 -0.12850293722E+02  0.45045681768E+02  0.00000000000E+00 0.  1.
         11    1    3    3    0    0  0.21962565988E+01 -0.49208032574E+01  0.39379219426E+01  0.66742098583E+01  0.51100000000E-03 0. -1.
        -11    1    3    3    0    0  0.13515371851E+02 -0.32903566498E+02  0.78647107123E+01  0.36430257196E+02  0.51100000000E-03 0.  1.
         12    1    3    3    0    0  0.25359903323E+01 -0.13037250865E+01  0.10476610671E+01  0.30378511777E+01  0.00000000000E+00 0. -1.
</event>
<event>
 7    1  0.1574237E-008  0.4614232E+02  0.7816164E-02  0.1320468E+00
        -11   -1    0    0    0    0  0.00000000000E+00  0.00000000000E+00  0.45593999997E+02  0.45594000000E+02  0.51100000000E-03 0.  1.
         11   -1    0    0    0    0 -0.00000000000E+00 -0.00000000000E+00 -0.45593999997E+02  0.45594000000E+02  0.51100000000E-03 0. -1.
    9900012    2    1    2    0    0 -0.31728773853E+02  0.22256081344E+02 -0.22957902161E+02  0.46142317425E+02  0.99999969369E+01 0.  0.
        -12    1    1    2    0    0  0.31728773853E+02 -0.22256081344E+02  0.22957902161E+02  0.45045682575E+02  0.00000000000E+00 0.  1.
         11    1    3    3    0    0 -0.11237796101E+02  0.38879343406E+01 -0.89687765749E+01  0.14894396535E+02  0.51100000000E-03 0. -1.
        -11    1    3    3    0    0 -0.30622177400E+01  0.34093041183E+01 -0.49516190882E+00  0.46093077176E+01  0.51100000000E-03 0.  1.
         12    1    3    3    0    0 -0.17428760012E+02  0.14958842885E+02 -0.13493963677E+02  0.26638613172E+02  0.00000000000E+00 0. -1.
</event>
<event>
 7    1  0.1543346E-008  0.4614232E+02  0.7816164E-02  0.1320468E+00
        -11   -1    0    0    0    0  0.00000000000E+00  0.00000000000E+00  0.45593999997E+02  0.45594000000E+02  0.51100000000E-03 0. -1.
         11   -1    0    0    0    0 -0.00000000000E+00 -0.00000000000E+00 -0.45593999997E+02  0.45594000000E+02  0.51100000000E-03 0.  1.
    9900012    2    1    2    0    0 -0.28243302186E+02 -0.26477982912E+02  0.23029237819E+02  0.46142317721E+02  0.99999996322E+01 0.  0.
        -12    1    1    2    0    0  0.28243302186E+02  0.26477982912E+02 -0.23029237819E+02  0.45045682279E+02  0.00000000000E+00 0.  1.
         11    1    3    3    0    0 -0.37383768046E+01 -0.78661767958E+01  0.71773181031E+01  0.11285658773E+02  0.51100000000E-03 0. -1.
        -11    1    3    3    0    0 -0.12861181434E+02 -0.11190780860E+02  0.10651809231E+02  0.20102353203E+02  0.51100000000E-03 0.  1.
        -12    1    3    3    0    0 -0.11643743948E+02 -0.74210252569E+01  0.52001104844E+01  0.14754305746E+02  0.00000000000E+00 0.  1.
</event>
<event>
 7    1  0.1543346E-008  0.4614232E+02  0.7816164E-02  0.1320468E+00
        -11   -1    0    0    0    0  0.00000000000E+00  0.00000000000E+00  0.45593999997E+02  0.45594000000E+02  0.51100000000E-03 0. -1.
         11   -1    0    0    0    0 -0.00000000000E+00 -0.00000000000E+00 -0.45593999997E+02  0.45594000000E+02  0.51100000000E-03 0.  1.
    9900012    2    1    2    0    0 -0.29174017808E+02 -0.34321798065E+02  0.65027795718E-01  0.46142319119E+02  0.10000012380E+02 0.  0.
        -12    1    1    2    0    0  0.29174017808E+02  0.34321798065E+02 -0.65027795718E-01  0.45045680881E+02  0.00000000000E+00 0.  1.
         11    1    3    3    0    0 -0.51676285612E+01 -0.12465836636E+02 -0.75416269080E+00  0.13515555098E+02  0.51100000000E-03 0. -1.
        -11    1    3    3    0    0 -0.68954169126E+01 -0.66152867937E+01 -0.11670873020E+01  0.96265719128E+01  0.51100000000E-03 0.  1.
         12    1    3    3    0    0 -0.17110972334E+02 -0.15240674635E+02  0.19862777885E+01  0.23000192108E+02  0.00000000000E+00 0. -1.
</event>
<event>
 7    1  0.1543346E-008  0.4614232E+02  0.7816164E-02  0.1320468E+00
        -11   -1    0    0    0    0  0.00000000000E+00  0.00000000000E+00  0.45593999997E+02  0.45594000000E+02  0.51100000000E-03 0. -1.
         11   -1    0    0    0    0 -0.00000000000E+00 -0.00000000000E+00 -0.45593999997E+02  0.45594000000E+02  0.51100000000E-03 0.  1.
    9900012    2    1    2    0    0  0.21453885522E+02  0.38922273199E+02  0.73417246634E+01  0.46142317898E+02  0.10000001251E+02 0.  0.
        -12    1    1    2    0    0 -0.21453885522E+02 -0.38922273199E+02 -0.73417246634E+01  0.45045682102E+02  0.00000000000E+00 0.  1.
         11    1    3    3    0    0  0.67018050360E+00  0.20766982879E+01  0.21168398854E+01  0.30402021393E+01  0.51100000000E-03 0. -1.
        -11    1    3    3    0    0  0.20649484350E+01  0.12666728752E+01 -0.55742460181E+00  0.24857985960E+01  0.51100000000E-03 0.  1.
         12    1    3    3    0    0  0.18718756583E+02  0.35578902036E+02  0.57823093798E+01  0.40616317163E+02  0.00000000000E+00 0. -1.
</event>
<event>
 7    1  0.1543346E-008  0.4614232E+02  0.7816164E-02  0.1320468E+00
        -11   -1    0    0    0    0  0.00000000000E+00  0.00000000000E+00  0.45593999997E+02  0.45594000000E+02  0.51100000000E-03 0.  1.
         11   -1    0    0    0    0 -0.00000000000E+00 -0.00000000000E+00 -0.45593999997E+02  0.45594000000E+02  0.51100000000E-03 0. -1.
    9900012    2    1    2    0    0 -0.44789863020E+02 -0.43649201871E+01 -0.19821989209E+01  0.46142317963E+02  0.10000001841E+02 0.  0.
        -12    1    1    2    0    0  0.44789863020E+02  0.43649201871E+01  0.19821989209E+01  0.45045682037E+02  0.00000000000E+00 0.  1.
         11    1    3    3    0    0 -0.31587176530E+02 -0.17911050228E+01 -0.42368158300E+01  0.31920344405E+02  0.51100000000E-03 0. -1.
        -11    1    3    3    0    0 -0.12442574793E+02 -0.31273628708E+01  0.13218456662E+01  0.12897493642E+02  0.51100000000E-03 0.  1.
        -12    1    3    3    0    0 -0.76011169728E+00  0.55354770655E+00  0.93277124288E+00  0.13244799158E+01  0.00000000000E+00 0.  1.
</event>
<event>
 7    1  0.1543346E-008  0.4614232E+02  0.7816164E-02  0.1320468E+00
        -11   -1    0    0    0    0  0.00000000000E+00  0.00000000000E+00  0.45593999997E+02  0.45594000000E+02  0.51100000000E-03 0.  1.
         11   -1    0    0    0    0 -0.00000000000E+00 -0.00000000000E+00 -0.45593999997E+02  0.45594000000E+02  0.51100000000E-03 0. -1.
    9900012    2    1    2    0    0 -0.30926993058E+01  0.33950222018E+02 -0.29443693598E+02  0.46142318112E+02  0.10000003198E+02 0.  0.
        -12    1    1    2    0    0  0.30926993058E+01 -0.33950222018E+02  0.29443693598E+02  0.45045681888E+02  0.00000000000E+00 0.  1.
         11    1    3    3    0    0 -0.43737405826E+01  0.26284864456E+02 -0.23632280238E+02  0.35616125220E+02  0.51100000000E-03 0. -1.
        -11    1    3    3    0    0  0.14362574635E+01  0.59467462865E+01 -0.21605075462E+01  0.64880212712E+01  0.51100000000E-03 0.  1.
         12    1    3    3    0    0 -0.15521618673E+00  0.17186112759E+01 -0.36509058132E+01  0.40381716209E+01  0.00000000000E+00 0. -1.
</event>
<event>
 7    1  0.1543346E-008  0.4614232E+02  0.7816164E-02  0.1320468E+00
        -11   -1    0    0    0    0  0.00000000000E+00  0.00000000000E+00  0.45593999997E+02  0.45594000000E+02  0.51100000000E-03 0.  1.
         11   -1    0    0    0    0 -0.00000000000E+00 -0.00000000000E+00 -0.45593999997E+02  0.45594000000E+02  0.51100000000E-03 0. -1.
    9900012    2    1    2    0    0 -0.28104180161E+02  0.21385535284E+02 -0.27962965499E+02  0.46142317617E+02  0.99999986824E+01 0.  0.
        -12    1    1    2    0    0  0.28104180161E+02 -0.21385535284E+02  0.27962965499E+02  0.45045682383E+02  0.00000000000E+00 0.  1.
         11    1    3    3    0    0 -0.12779015582E+02  0.65328977903E+01 -0.13410828586E+02  0.19642614806E+02  0.51100000000E-03 0. -1.
        -11    1    3    3    0    0 -0.67907660562E+01  0.37386185248E+01 -0.29045104839E+01  0.82781612401E+01  0.51100000000E-03 0.  1.
         12    1    3    3    0    0 -0.85343985220E+01  0.11114018969E+02 -0.11647626429E+02  0.18221541571E+02  0.00000000000E+00 0. -1.
</event>
<event>
 7    1  0.1543346E-008  0.4614232E+02  0.7816164E-02  0.1320468E+00
        -11   -1    0    0    0    0  0.00000000000E+00  0.00000000000E+00  0.45593999997E+02  0.45594000000E+02  0.51100000000E-03 0.  1.
         11   -1    0    0    0    0 -0.00000000000E+00 -0.00000000000E+00 -0.45593999997E+02  0.45594000000E+02  0.51100000000E-03 0. -1.
    9900012    2    1    2    0    0 -0.14567529540E+02  0.28175179959E+02 -0.31985307784E+02  0.46142316560E+02  0.99999890433E+01 0.  0.
        -12    1    1    2    0    0  0.14567529540E+02 -0.28175179959E+02  0.31985307784E+02  0.45045683440E+02  0.00000000000E+00 0.  1.
         11    1    3    3    0    0 -0.45480160788E+01  0.56975586307E+01 -0.12397307923E+02  0.14381928542E+02  0.51100000000E-03 0. -1.
        -11    1    3    3    0    0 -0.88978751608E+01  0.22017238368E+02 -0.18213969261E+02  0.29927907448E+02  0.51100000000E-03 0.  1.
        -12    1    3    3    0    0 -0.11216383004E+01  0.46038296016E+00 -0.13740305995E+01  0.18324805689E+01  0.00000000000E+00 0.  1.
</event>
<event>
 7    1  0.1543346E-008  0.4614232E+02  0.7816164E-02  0.1320468E+00
        -11   -1    0    0    0    0  0.00000000000E+00  0.00000000000E+00  0.45593999997E+02  0.45594000000E+02  0.51100000000E-03 0.  1.
         11   -1    0    0    0    0 -0.00000000000E+00 -0.00000000000E+00 -0.45593999997E+02  0.45594000000E+02  0.51100000000E-03 0. -1.
    9900012    2    1    2    0    0  0.20580116769E+02  0.30860133960E+02 -0.25558255242E+02  0.46142317796E+02  0.10000000314E+02 0.  0.
        -12    1    1    2    0    0 -0.20580116769E+02 -0.30860133960E+02  0.25558255242E+02  0.45045682204E+02  0.00000000000E+00 0.  1.
         11    1    3    3    0    0  0.45654695012E+01  0.32560134162E+01 -0.44800227732E+01  0.71774465823E+01  0.51100000000E-03 0. -1.
        -11    1    3    3    0    0  0.12490162591E+02  0.14290490541E+02 -0.11545842620E+02  0.22215507276E+02  0.51100000000E-03 0.  1.
        -12    1    3    3    0    0  0.35244846773E+01  0.13313630002E+02 -0.95323898493E+01  0.16749363938E+02  0.00000000000E+00 0.  1.
</event>
<event>
 7    1  0.1543346E-008  0.4614232E+02  0.7816164E-02  0.1320468E+00
        -11   -1    0    0    0    0  0.00000000000E+00  0.00000000000E+00  0.45593999997E+02  0.45594000000E+02  0.51100000000E-03 0.  1.
         11   -1    0    0    0    0 -0.00000000000E+00 -0.00000000000E+00 -0.45593999997E+02  0.45594000000E+02  0.51100000000E-03 0. -1.
    9900012    2    1    2    0    0  0.83110462347E+01  0.30712412731E+02 -0.31887108601E+02  0.46142317851E+02  0.10000000823E+02 0.  0.
        -12    1    1    2    0    0 -0.83110462347E+01 -0.30712412731E+02  0.31887108601E+02  0.45045682149E+02  0.00000000000E+00 0.  1.
         11    1    3    3    0    0  0.52663403712E+01  0.21524776102E+02 -0.22825340882E+02  0.31812678507E+02  0.51100000000E-03 0. -1.
        -11    1    3    3    0    0  0.70881096946E+00  0.40070587269E-01 -0.30624375103E+01  0.31436511270E+01  0.51100000000E-03 0.  1.
        -12    1    3    3    0    0  0.23358948940E+01  0.91475660419E+01 -0.59993302092E+01  0.11185988218E+02  0.00000000000E+00 0.  1.
</event>
<event>
 7    1  0.1543346E-008  0.4614232E+02  0.7816164E-02  0.1320468E+00
        -11   -1    0    0    0    0  0.00000000000E+00  0.00000000000E+00  0.45593999997E+02  0.45594000000E+02  0.51100000000E-03 0.  1.
         11   -1    0    0    0    0 -0.00000000000E+00 -0.00000000000E+00 -0.45593999997E+02  0.45594000000E+02  0.51100000000E-03 0. -1.
    9900012    2    1    2    0    0  0.32987243067E+02 -0.99935415291E+01 -0.29001454821E+02  0.46142318085E+02  0.10000002957E+02 0.  0.
        -12    1    1    2    0    0 -0.32987243067E+02  0.99935415291E+01  0.29001454821E+02  0.45045681915E+02  0.00000000000E+00 0.  1.
         11    1    3    3    0    0  0.17627968442E+02 -0.63448116062E+01 -0.11922918011E+02  0.22207158302E+02  0.51100000000E-03 0. -1.
        -11    1    3    3    0    0  0.35909872918E+01  0.40213714868E+00 -0.13031064711E+01  0.38412225596E+01  0.51100000000E-03 0.  1.
        -12    1    3    3    0    0  0.11768287333E+02 -0.40508670715E+01 -0.15775430338E+02  0.20093937223E+02  0.00000000000E+00 0.  1.
</event>
<event>
 7    1  0.1543346E-008  0.4614232E+02  0.7816164E-02  0.1320468E+00
        -11   -1    0    0    0    0  0.00000000000E+00  0.00000000000E+00  0.45593999997E+02  0.45594000000E+02  0.51100000000E-03 0.  1.
         11   -1    0    0    0    0 -0.00000000000E+00 -0.00000000000E+00 -0.45593999997E+02  0.45594000000E+02  0.51100000000E-03 0. -1.
    9900012    2    1    2    0    0 -0.34827209071E+02 -0.24603182349E+02 -0.14521102897E+02  0.46142317602E+02  0.99999985462E+01 0.  0.
        -12    1    1    2    0    0  0.34827209071E+02  0.24603182349E+02  0.14521102897E+02  0.45045682398E+02  0.00000000000E+00 0.  1.
         11    1    3    3    0    0 -0.20406555687E+02 -0.17733259768E+02 -0.12170649228E+02  0.29648283591E+02  0.51100000000E-03 0. -1.
        -11    1    3    3    0    0 -0.12614345892E+02 -0.46052669457E+01 -0.19022024254E+01  0.13562764476E+02  0.51100000000E-03 0.  1.
        -12    1    3    3    0    0 -0.18063074928E+01 -0.22646556355E+01 -0.44825124330E+00  0.29312695344E+01  0.00000000000E+00 0.  1.
</event>
<event>
 7    1  0.1543346E-008  0.4614232E+02  0.7816164E-02  0.1320468E+00
        -11   -1    0    0    0    0  0.00000000000E+00  0.00000000000E+00  0.45593999997E+02  0.45594000000E+02  0.51100000000E-03 0.  1.
         11   -1    0    0    0    0 -0.00000000000E+00 -0.00000000000E+00 -0.45593999997E+02  0.45594000000E+02  0.51100000000E-03 0. -1.
    9900012    2    1    2    0    0 -0.90681927193E+01 -0.17406704374E+02 -0.40544890224E+02  0.46142316526E+02  0.99999887412E+01 0.  0.
        -12    1    1    2    0    0  0.90681927193E+01  0.17406704374E+02  0.40544890224E+02  0.45045683474E+02  0.00000000000E+00 0.  1.
         11    1    3    3    0    0 -0.90354274127E+01 -0.13801980407E+02 -0.27020629954E+02  0.31658301519E+02  0.51100000000E-03 0. -1.
        -11    1    3    3    0    0  0.67136933974E+00 -0.52667302034E+00 -0.85481864944E+01  0.85906701639E+01  0.51100000000E-03 0.  1.
        -12    1    3    3    0    0 -0.70413464635E+00 -0.30780509467E+01 -0.49760737754E+01  0.58933448439E+01  0.00000000000E+00 0.  1.
</event>
<event>
 7    1  0.1543346E-008  0.4614232E+02  0.7816164E-02  0.1320468E+00
        -11   -1    0    0    0    0  0.00000000000E+00  0.00000000000E+00  0.45593999997E+02  0.45594000000E+02  0.51100000000E-03 0.  1.
         11   -1    0    0    0    0 -0.00000000000E+00 -0.00000000000E+00 -0.45593999997E+02  0.45594000000E+02  0.51100000000E-03 0. -1.
    9900012    2    1    2    0    0 -0.68091586333E+01  0.26684445456E+02 -0.35646727467E+02  0.46142318190E+02  0.10000003910E+02 0.  0.
        -12    1    1    2    0    0  0.68091586333E+01 -0.26684445456E+02  0.35646727467E+02  0.45045681810E+02  0.00000000000E+00 0.  1.
         11    1    3    3    0    0 -0.34721667768E-01  0.61945538292E+01 -0.14243713060E+02  0.15532451987E+02  0.51100000000E-03 0. -1.
        -11    1    3    3    0    0 -0.58331908153E+01  0.19949580486E+02 -0.20559232241E+02  0.29235148490E+02  0.51100000000E-03 0.  1.
         12    1    3    3    0    0 -0.94124615030E+00  0.54031114167E+00 -0.84378216636E+00  0.13747177127E+01  0.00000000000E+00 0. -1.
</event>
<event>
 7    1  0.1543346E-008  0.4614232E+02  0.7816164E-02  0.1320468E+00
        -11   -1    0    0    0    0  0.00000000000E+00  0.00000000000E+00  0.45593999997E+02  0.45594000000E+02  0.51100000000E-03 0.  1.
         11   -1    0    0    0    0 -0.00000000000E+00 -0.00000000000E+00 -0.45593999997E+02  0.45594000000E+02  0.51100000000E-03 0. -1.
    9900012    2    1    2    0    0  0.31165828180E+01 -0.42049649471E+02 -0.15850155409E+02  0.46142317237E+02  0.99999952178E+01 0.  0.
        -12    1    1    2    0    0 -0.31165828180E+01  0.42049649471E+02  0.15850155409E+02  0.45045682763E+02  0.00000000000E+00 0.  1.
         11    1    3    3    0    0 -0.65218972339E+00 -0.35465037949E+02 -0.13894108318E+02  0.38095150798E+02  0.51100000000E-03 0. -1.
        -11    1    3    3    0    0  0.29413238312E+01 -0.50287602951E+01 -0.22788692373E+01  0.62556423528E+01  0.51100000000E-03 0.  1.
         12    1    3    3    0    0  0.82744871019E+00 -0.15558512277E+01  0.32282214640E+00  0.17915240855E+01  0.00000000000E+00 0. -1.
</event>
<event>
 7    1  0.1543346E-008  0.4614232E+02  0.7816164E-02  0.1320468E+00
        -11   -1    0    0    0    0  0.00000000000E+00  0.00000000000E+00  0.45593999997E+02  0.45594000000E+02  0.51100000000E-03 0. -1.
         11   -1    0    0    0    0 -0.00000000000E+00 -0.00000000000E+00 -0.45593999997E+02  0.45594000000E+02  0.51100000000E-03 0.  1.
    9900012    2    1    2    0    0 -0.44307896907E+02  0.57824263471E+01  0.56997647396E+01  0.46142317623E+02  0.99999987375E+01 0.  0.
        -12    1    1    2    0    0  0.44307896907E+02 -0.57824263471E+01 -0.56997647396E+01  0.45045682377E+02  0.00000000000E+00 0.  1.
         11    1    3    3    0    0 -0.16290864407E+02  0.12718456371E+01  0.36596197956E+01  0.16745228328E+02  0.51100000000E-03 0. -1.
        -11    1    3    3    0    0 -0.26599719157E+02  0.36691682666E+01  0.36434725877E+01  0.27097652071E+02  0.51100000000E-03 0.  1.
        -12    1    3    3    0    0 -0.14173133424E+01  0.84141244349E+00 -0.16033276438E+01  0.22994372233E+01  0.00000000000E+00 0.  1.
</event>
<event>
 7    1  0.1543346E-008  0.4614232E+02  0.7816164E-02  0.1320468E+00
        -11   -1    0    0    0    0  0.00000000000E+00  0.00000000000E+00  0.45593999997E+02  0.45594000000E+02  0.51100000000E-03 0.  1.
         11   -1    0    0    0    0 -0.00000000000E+00 -0.00000000000E+00 -0.45593999997E+02  0.45594000000E+02  0.51100000000E-03 0. -1.
    9900012    2    1    2    0    0  0.69555401023E+01 -0.11991157863E+02 -0.42859608749E+02  0.46142317997E+02  0.10000002153E+02 0.  0.
        -12    1    1    2    0    0 -0.69555401023E+01  0.11991157863E+02  0.42859608749E+02  0.45045682003E+02  0.00000000000E+00 0.  1.
         11    1    3    3    0    0  0.50393554296E+01 -0.13385942249E+02 -0.37830202067E+02  0.40443822047E+02  0.51100000000E-03 0. -1.
        -11    1    3    3    0    0  0.84466968274E+00  0.36115580286E+00 -0.81217795360E+00  0.12261866401E+01  0.51100000000E-03 0.  1.
         12    1    3    3    0    0  0.10715149900E+01  0.10336285838E+01 -0.42172287277E+01  0.44723093101E+01  0.00000000000E+00 0. -1.
</event>
<event>
 7    1  0.1543346E-008  0.4614232E+02  0.7816164E-02  0.1320468E+00
        -11   -1    0    0    0    0  0.00000000000E+00  0.00000000000E+00  0.45593999997E+02  0.45594000000E+02  0.51100000000E-03 0.  1.
         11   -1    0    0    0    0 -0.00000000000E+00 -0.00000000000E+00 -0.45593999997E+02  0.45594000000E+02  0.51100000000E-03 0. -1.
    9900012    2    1    2    0    0  0.53430109414E+01 -0.13976937236E+02 -0.42487774359E+02  0.46142317516E+02  0.99999977690E+01 0.  0.
        -12    1    1    2    0    0 -0.53430109414E+01  0.13976937236E+02  0.42487774359E+02  0.45045682484E+02  0.00000000000E+00 0.  1.
         11    1    3    3    0    0  0.28919552017E+01 -0.25454991511E+01 -0.77330670664E+01  0.86396352545E+01  0.51100000000E-03 0. -1.
        -11    1    3    3    0    0  0.39845680074E+01 -0.10832195764E+02 -0.33500386701E+02  0.35432882421E+02  0.51100000000E-03 0.  1.
        -12    1    3    3    0    0 -0.15335122678E+01 -0.59924232135E+00 -0.12543205914E+01  0.20697998409E+01  0.00000000000E+00 0.  1.
</event>
<event>
 7    1  0.1543346E-008  0.4614232E+02  0.7816164E-02  0.1320468E+00
        -11   -1    0    0    0    0  0.00000000000E+00  0.00000000000E+00  0.45593999997E+02  0.45594000000E+02  0.51100000000E-03 0. -1.
         11   -1    0    0    0    0 -0.00000000000E+00 -0.00000000000E+00 -0.45593999997E+02  0.45594000000E+02  0.51100000000E-03 0.  1.
    9900012    2    1    2    0    0  0.19618842974E+02  0.12536015489E+02  0.38562452515E+02  0.46142318432E+02  0.10000006117E+02 0.  0.
        -12    1    1    2    0    0 -0.19618842974E+02 -0.12536015489E+02 -0.38562452515E+02  0.45045681568E+02  0.00000000000E+00 0.  1.
         11    1    3    3    0    0  0.66058575989E+01  0.84129798205E+01  0.19245195249E+02  0.22018018179E+02  0.51100000000E-03 0. -1.
        -11    1    3    3    0    0  0.63682350362E+01  0.22797420794E+01  0.56393054526E+01  0.88064412604E+01  0.51100000000E-03 0.  1.
        -12    1    3    3    0    0  0.66447503392E+01  0.18432935890E+01  0.13677951813E+02  0.15317858993E+02  0.00000000000E+00 0.  1.
</event>
<event>
 7    1  0.1543346E-008  0.4614232E+02  0.7816164E-02  0.1320468E+00
        -11   -1    0    0    0    0  0.00000000000E+00  0.00000000000E+00  0.45593999997E+02  0.45594000000E+02  0.51100000000E-03 0.  1.
         11   -1    0    0    0    0 -0.00000000000E+00 -0.00000000000E+00 -0.45593999997E+02  0.45594000000E+02  0.51100000000E-03 0. -1.
    9900012    2    1    2    0    0  0.74208253017E+01 -0.36324239803E+02 -0.25585042421E+02  0.46142318286E+02  0.10000004784E+02 0.  0.
        -12    1    1    2    0    0 -0.74208253017E+01  0.36324239803E+02  0.25585042421E+02  0.45045681714E+02  0.00000000000E+00 0.  1.
         11    1    3    3    0    0  0.43205815167E+01 -0.71679382930E+01 -0.91495148726E+01  0.12400015592E+02  0.51100000000E-03 0. -1.
        -11    1    3    3    0    0 -0.85452016994E-01 -0.12895966651E+02 -0.69471789742E+01  0.14648431789E+02  0.51100000000E-03 0.  1.
         12    1    3    3    0    0  0.31856958020E+01 -0.16260334859E+02 -0.94883485738E+01  0.19093870905E+02  0.00000000000E+00 0. -1.
</event>
<event>
 7    1  0.1543346E-008  0.4614232E+02  0.7816164E-02  0.1320468E+00
        -11   -1    0    0    0    0  0.00000000000E+00  0.00000000000E+00  0.45593999997E+02  0.45594000000E+02  0.51100000000E-03 0. -1.
         11   -1    0    0    0    0 -0.00000000000E+00 -0.00000000000E+00 -0.45593999997E+02  0.45594000000E+02  0.51100000000E-03 0.  1.
    9900012    2    1    2    0    0  0.32812798360E+02 -0.13689448376E+02  0.27659224720E+02  0.46142318241E+02  0.10000004373E+02 0.  0.
        -12    1    1    2    0    0 -0.32812798360E+02  0.13689448376E+02 -0.27659224720E+02  0.45045681759E+02  0.00000000000E+00 0.  1.
         11    1    3    3    0    0  0.11764235739E+02 -0.25072434642E+01  0.65102078867E+01  0.13677218990E+02  0.51100000000E-03 0. -1.
        -11    1    3    3    0    0  0.86554127834E+01 -0.43907951726E+01  0.47139350607E+01  0.10789644884E+02  0.51100000000E-03 0.  1.
         12    1    3    3    0    0  0.12393149837E+02 -0.67914097394E+01  0.16435081773E+02  0.21675454367E+02  0.00000000000E+00 0. -1.
</event>
<event>
 7    1  0.1543346E-008  0.4614232E+02  0.7816164E-02  0.1320468E+00
        -11   -1    0    0    0    0  0.00000000000E+00  0.00000000000E+00  0.45593999997E+02  0.45594000000E+02  0.51100000000E-03 0.  1.
         11   -1    0    0    0    0 -0.00000000000E+00 -0.00000000000E+00 -0.45593999997E+02  0.45594000000E+02  0.51100000000E-03 0. -1.
    9900012    2    1    2    0    0 -0.15167534884E+02 -0.51386608892E+01 -0.42102892257E+02  0.46142317781E+02  0.10000000177E+02 0.  0.
        -12    1    1    2    0    0  0.15167534884E+02  0.51386608892E+01  0.42102892257E+02  0.45045682219E+02  0.00000000000E+00 0.  1.
         11    1    3    3    0    0 -0.12084346256E+02 -0.10044532347E+01 -0.21355233771E+02  0.24557816687E+02  0.51100000000E-03 0. -1.
        -11    1    3    3    0    0 -0.33449495981E+01 -0.28522657728E+01 -0.18164900689E+02  0.18689240893E+02  0.51100000000E-03 0.  1.
         12    1    3    3    0    0  0.26176096990E+00 -0.12819418817E+01 -0.25827577968E+01  0.28952602008E+01  0.00000000000E+00 0. -1.
</event>
<event>
 7    1  0.1543346E-008  0.4614232E+02  0.7816164E-02  0.1320468E+00
        -11   -1    0    0    0    0  0.00000000000E+00  0.00000000000E+00  0.45593999997E+02  0.45594000000E+02  0.51100000000E-03 0. -1.
         11   -1    0    0    0    0 -0.00000000000E+00 -0.00000000000E+00 -0.45593999997E+02  0.45594000000E+02  0.51100000000E-03 0.  1.
    9900012    2    1    2    0    0  0.35472361176E+02  0.20677433914E+02 -0.18527513375E+02  0.46142318381E+02  0.10000005651E+02 0.  0.
        -12    1    1    2    0    0 -0.35472361176E+02 -0.20677433914E+02  0.18527513375E+02  0.45045681619E+02  0.00000000000E+00 0.  1.
         11    1    3    3    0    0  0.96660659390E+01  0.74749185103E+01 -0.60356691356E+01  0.13628519349E+02  0.51100000000E-03 0. -1.
        -11    1    3    3    0    0  0.25901319206E+02  0.13537021124E+02 -0.12926978623E+02  0.31956784164E+02  0.51100000000E-03 0.  1.
        -12    1    3    3    0    0 -0.95023968438E-01 -0.33450572071E+00  0.43513438319E+00  0.55701486803E+00  0.00000000000E+00 0.  1.
</event>
<event>
 7    1  0.1543346E-008  0.4614232E+02  0.7816164E-02  0.1320468E+00
        -11   -1    0    0    0    0  0.00000000000E+00  0.00000000000E+00  0.45593999997E+02  0.45594000000E+02  0.51100000000E-03 0. -1.
         11   -1    0    0    0    0 -0.00000000000E+00 -0.00000000000E+00 -0.45593999997E+02  0.45594000000E+02  0.51100000000E-03 0.  1.
    9900012    2    1    2    0    0  0.36805639986E+02 -0.25667705208E+02 -0.39531156887E+01  0.46142319307E+02  0.10000014099E+02 0.  0.
        -12    1    1    2    0    0 -0.36805639986E+02  0.25667705208E+02  0.39531156887E+01  0.45045680693E+02  0.00000000000E+00 0.  1.
         11    1    3    3    0    0  0.32282546061E+02 -0.19942125229E+02 -0.10000203735E+01  0.37958545544E+02  0.51100000000E-03 0. -1.
        -11    1    3    3    0    0  0.81354952949E+00 -0.56456496075E-01 -0.59766713361E+00  0.10110669793E+01  0.51100000000E-03 0.  1.
         12    1    3    3    0    0  0.37095443958E+01 -0.56691234828E+01 -0.23554281815E+01  0.71727067837E+01  0.00000000000E+00 0. -1.
</event>
<event>
 7    1  0.1880070E-008  0.4614232E+02  0.7816164E-02  0.1320468E+00
        -11   -1    0    0    0    0  0.00000000000E+00  0.00000000000E+00  0.45593999997E+02  0.45594000000E+02  0.51100000000E-03 0. -1.
         11   -1    0    0    0    0 -0.00000000000E+00 -0.00000000000E+00 -0.45593999997E+02  0.45594000000E+02  0.51100000000E-03 0.  1.
    9900012    2    1    2    0    0  0.41009938863E+02 -0.74055924271E+01  0.17101333120E+02  0.46142317863E+02  0.10000000930E+02 0.  0.
        -12    1    1    2    0    0 -0.41009938863E+02  0.74055924271E+01 -0.17101333120E+02  0.45045682137E+02  0.00000000000E+00 0.  1.
         11    1    3    3    0    0  0.28834577224E+02 -0.26969886658E+01  0.15311493176E+02  0.32758944047E+02  0.51100000000E-03 0. -1.
        -11    1    3    3    0    0  0.84526153411E+01 -0.43825725726E+01  0.14493022185E+01  0.96308943323E+01  0.51100000000E-03 0.  1.
         12    1    3    3    0    0  0.37227462980E+01 -0.32603118880E+00  0.34053772538E+00  0.37524794840E+01  0.00000000000E+00 0. -1.
</event>
<event>
 7    1  0.1543346E-008  0.4614232E+02  0.7816164E-02  0.1320468E+00
        -11   -1    0    0    0    0  0.00000000000E+00  0.00000000000E+00  0.45593999997E+02  0.45594000000E+02  0.51100000000E-03 0.  1.
         11   -1    0    0    0    0 -0.00000000000E+00 -0.00000000000E+00 -0.45593999997E+02  0.45594000000E+02  0.51100000000E-03 0. -1.
    9900012    2    1    2    0    0 -0.27018531100E+02  0.26865765392E+02 -0.24027956890E+02  0.46142322236E+02  0.10000040807E+02 0.  0.
        -12    1    1    2    0    0  0.27018531100E+02 -0.26865765392E+02  0.24027956890E+02  0.45045677764E+02  0.00000000000E+00 0.  1.
         11    1    3    3    0    0 -0.95611242446E+01  0.84401808503E+01 -0.56826542147E+01  0.13962245836E+02  0.51100000000E-03 0. -1.
        -11    1    3    3    0    0 -0.14649046036E+02  0.15411667259E+02 -0.11455133504E+02  0.24152310890E+02  0.51100000000E-03 0.  1.
        -12    1    3    3    0    0 -0.28083608198E+01  0.30139172830E+01 -0.68901691709E+01  0.80277655102E+01  0.00000000000E+00 0.  1.
</event>
<event>
 7    1  0.1543346E-008  0.4614232E+02  0.7816164E-02  0.1320468E+00
        -11   -1    0    0    0    0  0.00000000000E+00  0.00000000000E+00  0.45593999997E+02  0.45594000000E+02  0.51100000000E-03 0.  1.
         11   -1    0    0    0    0 -0.00000000000E+00 -0.00000000000E+00 -0.45593999997E+02  0.45594000000E+02  0.51100000000E-03 0. -1.
    9900012    2    1    2    0    0  0.33219143705E+02  0.47323449248E+01 -0.30053400021E+02  0.46142318189E+02  0.10000003899E+02 0.  0.
        -12    1    1    2    0    0 -0.33219143705E+02 -0.47323449248E+01  0.30053400021E+02  0.45045681811E+02  0.00000000000E+00 0.  1.
         11    1    3    3    0    0  0.10004908359E+02  0.22607559446E+01 -0.14305747234E+02  0.17602943302E+02  0.51100000000E-03 0. -1.
        -11    1    3    3    0    0  0.12262921460E+02  0.29006704307E+01 -0.63932898891E+01  0.14130367566E+02  0.51100000000E-03 0.  1.
        -12    1    3    3    0    0  0.10951313886E+02 -0.42908145054E+00 -0.93543628979E+01  0.14409007320E+02  0.00000000000E+00 0.  1.
</event>
<event>
 7    1  0.1543346E-008  0.4614232E+02  0.7816164E-02  0.1320468E+00
        -11   -1    0    0    0    0  0.00000000000E+00  0.00000000000E+00  0.45593999997E+02  0.45594000000E+02  0.51100000000E-03 0.  1.
         11   -1    0    0    0    0 -0.00000000000E+00 -0.00000000000E+00 -0.45593999997E+02  0.45594000000E+02  0.51100000000E-03 0. -1.
    9900012    2    1    2    0    0  0.44600907531E+02 -0.60126136743E+01 -0.19289843945E+01  0.46142318114E+02  0.10000003217E+02 0.  0.
        -12    1    1    2    0    0 -0.44600907531E+02  0.60126136743E+01  0.19289843945E+01  0.45045681886E+02  0.00000000000E+00 0.  1.
         11    1    3    3    0    0  0.16233415390E+01  0.12426511538E+01 -0.12328469697E+00  0.20480769077E+01  0.51100000000E-03 0.  1.
        -11    1    3    3    0    0  0.17606346080E+02 -0.43957446878E+01 -0.35961513178E+01  0.18499683732E+02  0.51100000000E-03 0. -1.
         12    1    3    3    0    0  0.25371219912E+02 -0.28595201404E+01  0.17904516203E+01  0.25594557474E+02  0.00000000000E+00 0. -1.
</event>
<event>
 7    1  0.1543346E-008  0.4614232E+02  0.7816164E-02  0.1320468E+00
        -11   -1    0    0    0    0  0.00000000000E+00  0.00000000000E+00  0.45593999997E+02  0.45594000000E+02  0.51100000000E-03 0. -1.
         11   -1    0    0    0    0 -0.00000000000E+00 -0.00000000000E+00 -0.45593999997E+02  0.45594000000E+02  0.51100000000E-03 0.  1.
    9900012    2    1    2    0    0 -0.36445423384E+02  0.19721221876E+02  0.17661189029E+02  0.46142322340E+02  0.10000041754E+02 0.  0.
        -12    1    1    2    0    0  0.36445423384E+02 -0.19721221876E+02 -0.17661189029E+02  0.45045677660E+02  0.00000000000E+00 0.  1.
         11    1    3    3    0    0 -0.21857400711E+02  0.12225122835E+02  0.85293182657E+01  0.26456546723E+02  0.51100000000E-03 0. -1.
        -11    1    3    3    0    0 -0.44748944403E+01  0.45722572518E+00  0.49148694291E+01  0.66625578708E+01  0.51100000000E-03 0.  1.
        -12    1    3    3    0    0 -0.10113128233E+02  0.70388733160E+01  0.42170013339E+01  0.13023217746E+02  0.00000000000E+00 0.  1.
</event>
<event>
 7    1  0.1543346E-008  0.4614232E+02  0.7816164E-02  0.1320468E+00
        -11   -1    0    0    0    0  0.00000000000E+00  0.00000000000E+00  0.45593999997E+02  0.45594000000E+02  0.51100000000E-03 0.  1.
         11   -1    0    0    0    0 -0.00000000000E+00 -0.00000000000E+00 -0.45593999997E+02  0.45594000000E+02  0.51100000000E-03 0. -1.
    9900012    2    1    2    0    0 -0.25164087488E+02 -0.32732237219E+02 -0.18013407123E+02  0.46142317758E+02  0.99999999703E+01 0.  0.
        -12    1    1    2    0    0  0.25164087488E+02  0.32732237219E+02  0.18013407123E+02  0.45045682242E+02  0.00000000000E+00 0.  1.
         11    1    3    3    0    0 -0.15166501052E+01 -0.69012393088E+00 -0.28998747104E+01  0.33445137433E+01  0.51100000000E-03 0. -1.
        -11    1    3    3    0    0 -0.85076640817E+01 -0.14224722624E+02 -0.49048607112E+01  0.17285275257E+02  0.51100000000E-03 0.  1.
         12    1    3    3    0    0 -0.15139773301E+02 -0.17817390664E+02 -0.10208671702E+02  0.25512528758E+02  0.00000000000E+00 0. -1.
</event>
<event>
 7    1  0.1543346E-008  0.4614232E+02  0.7816164E-02  0.1320468E+00
        -11   -1    0    0    0    0  0.00000000000E+00  0.00000000000E+00  0.45593999997E+02  0.45594000000E+02  0.51100000000E-03 0.  1.
         11   -1    0    0    0    0 -0.00000000000E+00 -0.00000000000E+00 -0.45593999997E+02  0.45594000000E+02  0.51100000000E-03 0. -1.
    9900012    2    1    2    0    0  0.26470789739E+02  0.36002637646E+02 -0.56763405762E+01  0.46142317974E+02  0.10000001939E+02 0.  0.
        -12    1    1    2    0    0 -0.26470789739E+02 -0.36002637646E+02  0.56763405762E+01  0.45045682026E+02  0.00000000000E+00 0.  1.
         11    1    3    3    0    0  0.97236174099E+01  0.92727296651E+01 -0.16770667730E+01  0.13540487591E+02  0.51100000000E-03 0. -1.
        -11    1    3    3    0    0  0.54323440386E+00 -0.18041413876E+00  0.62891313924E+00  0.85040277330E+00  0.51100000000E-03 0.  1.
         12    1    3    3    0    0  0.16203937925E+02  0.26910322120E+02 -0.46281869424E+01  0.31751427610E+02  0.00000000000E+00 0. -1.
</event>
<event>
 7    1  0.1543346E-008  0.4614232E+02  0.7816164E-02  0.1320468E+00
        -11   -1    0    0    0    0  0.00000000000E+00  0.00000000000E+00  0.45593999997E+02  0.45594000000E+02  0.51100000000E-03 0. -1.
         11   -1    0    0    0    0 -0.00000000000E+00 -0.00000000000E+00 -0.45593999997E+02  0.45594000000E+02  0.51100000000E-03 0.  1.
    9900012    2    1    2    0    0 -0.26625849123E+02  0.91102642610E+01  0.35173580399E+02  0.46142317471E+02  0.99999973531E+01 0.  0.
        -12    1    1    2    0    0  0.26625849123E+02 -0.91102642610E+01 -0.35173580399E+02  0.45045682529E+02  0.00000000000E+00 0.  1.
         11    1    3    3    0    0 -0.20822996184E+02  0.52990827903E+01  0.29207509727E+02  0.36259565265E+02  0.51100000000E-03 0. -1.
        -11    1    3    3    0    0 -0.48024847133E+01  0.36169114138E+01  0.29455044527E+01  0.66949163056E+01  0.51100000000E-03 0.  1.
         12    1    3    3    0    0 -0.10003682264E+01  0.19427005692E+00  0.30205662196E+01  0.31878359008E+01  0.00000000000E+00 0. -1.
</event>
<event>
 7    1  0.1543346E-008  0.4614232E+02  0.7816164E-02  0.1320468E+00
        -11   -1    0    0    0    0  0.00000000000E+00  0.00000000000E+00  0.45593999997E+02  0.45594000000E+02  0.51100000000E-03 0.  1.
         11   -1    0    0    0    0 -0.00000000000E+00 -0.00000000000E+00 -0.45593999997E+02  0.45594000000E+02  0.51100000000E-03 0. -1.
    9900012    2    1    2    0    0  0.90923630411E+01 -0.13661281106E+02 -0.41950113167E+02  0.46142315835E+02  0.99999824386E+01 0.  0.
        -12    1    1    2    0    0 -0.90923630411E+01  0.13661281106E+02  0.41950113167E+02  0.45045684165E+02  0.00000000000E+00 0.  1.
         11    1    3    3    0    0  0.80772891456E+01 -0.10600744945E+02 -0.33761442268E+02  0.36296740592E+02  0.51100000000E-03 0. -1.
        -11    1    3    3    0    0 -0.16775314415E+01 -0.18832183855E+01 -0.35607164660E+01  0.43634075259E+01  0.51100000000E-03 0.  1.
        -12    1    3    3    0    0  0.26926053369E+01 -0.11773177755E+01 -0.46279544330E+01  0.54821677171E+01  0.00000000000E+00 0.  1.
</event>
<event>
 7    1  0.1543346E-008  0.4614232E+02  0.7816164E-02  0.1320468E+00
        -11   -1    0    0    0    0  0.00000000000E+00  0.00000000000E+00  0.45593999997E+02  0.45594000000E+02  0.51100000000E-03 0.  1.
         11   -1    0    0    0    0 -0.00000000000E+00 -0.00000000000E+00 -0.45593999997E+02  0.45594000000E+02  0.51100000000E-03 0. -1.
    9900012    2    1    2    0    0  0.24291572035E+02  0.21523161142E+01 -0.37873480469E+02  0.46142318082E+02  0.10000002928E+02 0.  0.
        -12    1    1    2    0    0 -0.24291572035E+02 -0.21523161142E+01  0.37873480469E+02  0.45045681918E+02  0.00000000000E+00 0.  1.
         11    1    3    3    0    0  0.15161505015E+02  0.20556975935E+01 -0.30772596949E+02  0.34366405837E+02  0.51100000000E-03 0. -1.
        -11    1    3    3    0    0  0.65343317662E+01 -0.38608573866E+00 -0.38727340680E+01  0.76055652815E+01  0.51100000000E-03 0.  1.
         12    1    3    3    0    0  0.25957352542E+01  0.48270425939E+00 -0.32281494521E+01  0.41703469636E+01  0.00000000000E+00 0. -1.
</event>
<event>
 7    1  0.1543346E-008  0.4614232E+02  0.7816164E-02  0.1320468E+00
        -11   -1    0    0    0    0  0.00000000000E+00  0.00000000000E+00  0.45593999997E+02  0.45594000000E+02  0.51100000000E-03 0.  1.
         11   -1    0    0    0    0 -0.00000000000E+00 -0.00000000000E+00 -0.45593999997E+02  0.45594000000E+02  0.51100000000E-03 0. -1.
    9900012    2    1    2    0    0  0.10849538414E+02 -0.60677686674E+01 -0.43296457598E+02  0.46142317177E+02  0.99999946774E+01 0.  0.
        -12    1    1    2    0    0 -0.10849538414E+02  0.60677686674E+01  0.43296457598E+02  0.45045682823E+02  0.00000000000E+00 0.  1.
         11    1    3    3    0    0  0.32970473835E+01  0.18997559692E+01 -0.90472835385E+01  0.98149342269E+01  0.51100000000E-03 0. -1.
        -11    1    3    3    0    0  0.22054013328E+01 -0.40662810535E+01 -0.78546910928E+01  0.91156244476E+01  0.51100000000E-03 0.  1.
        -12    1    3    3    0    0  0.53470896978E+01 -0.39012435830E+01 -0.26394482967E+02  0.27211758503E+02  0.00000000000E+00 0.  1.
</event>
<event>
 7    1  0.1543346E-008  0.4614232E+02  0.7816164E-02  0.1320468E+00
        -11   -1    0    0    0    0  0.00000000000E+00  0.00000000000E+00  0.45593999997E+02  0.45594000000E+02  0.51100000000E-03 0.  1.
         11   -1    0    0    0    0 -0.00000000000E+00 -0.00000000000E+00 -0.45593999997E+02  0.45594000000E+02  0.51100000000E-03 0. -1.
    9900012    2    1    2    0    0 -0.29920491907E+02  0.14990668745E+01 -0.33639715187E+02  0.46142317906E+02  0.10000001323E+02 0.  0.
        -12    1    1    2    0    0  0.29920491907E+02 -0.14990668745E+01  0.33639715187E+02  0.45045682094E+02  0.00000000000E+00 0.  1.
         11    1    3    3    0    0 -0.21596841101E+02  0.26501247401E+01 -0.26333024046E+02  0.34159550090E+02  0.51100000000E-03 0. -1.
        -11    1    3    3    0    0 -0.58424988756E+01  0.77598704902E-01 -0.71159927746E+01  0.92075060738E+01  0.51100000000E-03 0.  1.
        -12    1    3    3    0    0 -0.24811519303E+01 -0.12286565706E+01 -0.19069836573E+00  0.27752617420E+01  0.00000000000E+00 0.  1.
</event>
<event>
 7    1  0.1543346E-008  0.4614232E+02  0.7816164E-02  0.1320468E+00
        -11   -1    0    0    0    0  0.00000000000E+00  0.00000000000E+00  0.45593999997E+02  0.45594000000E+02  0.51100000000E-03 0. -1.
         11   -1    0    0    0    0 -0.00000000000E+00 -0.00000000000E+00 -0.45593999997E+02  0.45594000000E+02  0.51100000000E-03 0.  1.
    9900012    2    1    2    0    0  0.34791638426E+02  0.78937378244E+01  0.27501715880E+02  0.46142316771E+02  0.99999909759E+01 0.  0.
        -12    1    1    2    0    0 -0.34791638426E+02 -0.78937378244E+01 -0.27501715880E+02  0.45045683229E+02  0.00000000000E+00 0.  1.
         11    1    3    3    0    0  0.17271432039E+02  0.36715107899E+01  0.90368021103E+01  0.19835477024E+02  0.51100000000E-03 0. -1.
        -11    1    3    3    0    0  0.73147246316E+01  0.42598837900E+00  0.10552717102E+02  0.12847042501E+02  0.51100000000E-03 0.  1.
        -12    1    3    3    0    0  0.10205481756E+02  0.37962386555E+01  0.79121966676E+01  0.13459797246E+02  0.00000000000E+00 0.  1.
</event>
<event>
 7    1  0.1543346E-008  0.4614232E+02  0.7816164E-02  0.1320468E+00
        -11   -1    0    0    0    0  0.00000000000E+00  0.00000000000E+00  0.45593999997E+02  0.45594000000E+02  0.51100000000E-03 0.  1.
         11   -1    0    0    0    0 -0.00000000000E+00 -0.00000000000E+00 -0.45593999997E+02  0.45594000000E+02  0.51100000000E-03 0. -1.
    9900012    2    1    2    0    0  0.74127102442E+01 -0.15734192157E+01 -0.44403711482E+02  0.46142317471E+02  0.99999973521E+01 0.  0.
        -12    1    1    2    0    0 -0.74127102442E+01  0.15734192157E+01  0.44403711482E+02  0.45045682529E+02  0.00000000000E+00 0.  1.
         11    1    3    3    0    0  0.69563142354E+01 -0.12493928188E+01 -0.20797181608E+02  0.21965292013E+02  0.51100000000E-03 0. -1.
        -11    1    3    3    0    0 -0.95097067792E+00  0.17931781854E+01 -0.16597947599E+02  0.16721593763E+02  0.51100000000E-03 0.  1.
         12    1    3    3    0    0  0.14073666867E+01 -0.21172045823E+01 -0.70085822752E+01  0.74554316939E+01  0.00000000000E+00 0. -1.
</event>
<event>
 7    1  0.1543346E-008  0.4614232E+02  0.7816164E-02  0.1320468E+00
        -11   -1    0    0    0    0  0.00000000000E+00  0.00000000000E+00  0.45593999997E+02  0.45594000000E+02  0.51100000000E-03 0.  1.
         11   -1    0    0    0    0 -0.00000000000E+00 -0.00000000000E+00 -0.45593999997E+02  0.45594000000E+02  0.51100000000E-03 0. -1.
    9900012    2    1    2    0    0  0.95787275906E+01  0.29070553697E+02 -0.33049423326E+02  0.46142317668E+02  0.99999991553E+01 0.  0.
        -12    1    1    2    0    0 -0.95787275906E+01 -0.29070553697E+02  0.33049423326E+02  0.45045682332E+02  0.00000000000E+00 0.  1.
         11    1    3    3    0    0  0.23228357368E+00  0.12715687197E+01 -0.61735235664E+01  0.63073953541E+01  0.51100000000E-03 0.  1.
        -11    1    3    3    0    0  0.44267276749E+01  0.16401675431E+02 -0.15464725745E+02  0.22973215219E+02  0.51100000000E-03 0. -1.
         12    1    3    3    0    0  0.49197163420E+01  0.11397309546E+02 -0.11411174015E+02  0.16861707095E+02  0.00000000000E+00 0. -1.
</event>
<event>
 7    1  0.1543346E-008  0.4614231E+02  0.7816164E-02  0.1320468E+00
        -11   -1    0    0    0    0  0.00000000000E+00  0.00000000000E+00  0.45593999997E+02  0.45594000000E+02  0.51100000000E-03 0.  1.
         11   -1    0    0    0    0 -0.00000000000E+00 -0.00000000000E+00 -0.45593999997E+02  0.45594000000E+02  0.51100000000E-03 0. -1.
    9900012    2    1    2    0    0 -0.30418850067E+02  0.17437606529E+02 -0.28279625236E+02  0.46142314698E+02  0.99999720690E+01 0.  0.
        -12    1    1    2    0    0  0.30418850067E+02 -0.17437606529E+02  0.28279625236E+02  0.45045685302E+02  0.00000000000E+00 0.  1.
         11    1    3    3    0    0 -0.12252862309E+02  0.12050055230E+02 -0.13490738956E+02  0.21848032031E+02  0.51100000000E-03 0. -1.
        -11    1    3    3    0    0 -0.13889669025E+02  0.55831239147E+01 -0.10987977324E+02  0.18569594078E+02  0.51100000000E-03 0.  1.
        -12    1    3    3    0    0 -0.42763187325E+01 -0.19557261559E+00 -0.38009089563E+01  0.57246885892E+01  0.00000000000E+00 0.  1.
</event>
<event>
 7    1  0.1886756E-008  0.4614232E+02  0.7816164E-02  0.1320468E+00
        -11   -1    0    0    0    0  0.00000000000E+00  0.00000000000E+00  0.45593999997E+02  0.45594000000E+02  0.51100000000E-03 0. -1.
         11   -1    0    0    0    0 -0.00000000000E+00 -0.00000000000E+00 -0.45593999997E+02  0.45594000000E+02  0.51100000000E-03 0.  1.
    9900012    2    1    2    0    0 -0.29607967230E+02  0.29063929896E+02  0.17543368165E+02  0.46142317510E+02  0.99999977067E+01 0.  0.
        -12    1    1    2    0    0  0.29607967230E+02 -0.29063929896E+02 -0.17543368165E+02  0.45045682490E+02  0.00000000000E+00 0.  1.
         11    1    3    3    0    0 -0.15020723931E+02  0.95156334288E+01  0.99606498829E+01  0.20380970863E+02  0.51100000000E-03 0. -1.
        -11    1    3    3    0    0 -0.68233377399E+00  0.24033436282E+01  0.30006093551E+00  0.25162823372E+01  0.51100000000E-03 0.  1.
         12    1    3    3    0    0 -0.13904909525E+02  0.17144952839E+02  0.72826573465E+01  0.23245064310E+02  0.00000000000E+00 0. -1.
</event>
<event>
 7    1  0.1543346E-008  0.4614232E+02  0.7816164E-02  0.1320468E+00
        -11   -1    0    0    0    0  0.00000000000E+00  0.00000000000E+00  0.45593999997E+02  0.45594000000E+02  0.51100000000E-03 0. -1.
         11   -1    0    0    0    0 -0.00000000000E+00 -0.00000000000E+00 -0.45593999997E+02  0.45594000000E+02  0.51100000000E-03 0.  1.
    9900012    2    1    2    0    0 -0.36114557468E+02 -0.69008735593E+01  0.26023646723E+02  0.46142317568E+02  0.99999982389E+01 0.  0.
        -12    1    1    2    0    0  0.36114557468E+02  0.69008735593E+01 -0.26023646723E+02  0.45045682432E+02  0.00000000000E+00 0.  1.
         11    1    3    3    0    0 -0.22556267211E+01 -0.12444304826E+01 -0.21692639236E+00  0.25852497852E+01  0.51100000000E-03 0.  1.
        -11    1    3    3    0    0 -0.24471213141E+02 -0.15663802784E+01  0.18195334051E+02  0.30534636091E+02  0.51100000000E-03 0. -1.
        -12    1    3    3    0    0 -0.93877176065E+01 -0.40900627984E+01  0.80452390646E+01  0.13022431692E+02  0.00000000000E+00 0.  1.
</event>
<event>
 7    1  0.1543346E-008  0.4614232E+02  0.7816164E-02  0.1320468E+00
        -11   -1    0    0    0    0  0.00000000000E+00  0.00000000000E+00  0.45593999997E+02  0.45594000000E+02  0.51100000000E-03 0.  1.
         11   -1    0    0    0    0 -0.00000000000E+00 -0.00000000000E+00 -0.45593999997E+02  0.45594000000E+02  0.51100000000E-03 0. -1.
    9900012    2    1    2    0    0  0.39106293774E+02 -0.17344234467E+00 -0.22355787257E+02  0.46142317423E+02  0.99999969138E+01 0.  0.
        -12    1    1    2    0    0 -0.39106293774E+02  0.17344234467E+00  0.22355787257E+02  0.45045682577E+02  0.00000000000E+00 0.  1.
         11    1    3    3    0    0  0.14377669865E+02 -0.10961594309E+01 -0.40339401382E+01  0.14973030072E+02  0.51100000000E-03 0. -1.
        -11    1    3    3    0    0  0.14461679156E+02  0.16856631503E+01 -0.80984780546E+01  0.16660341273E+02  0.51100000000E-03 0.  1.
         12    1    3    3    0    0  0.10266944753E+02 -0.76294606399E+00 -0.10223369064E+02  0.14508946077E+02  0.00000000000E+00 0. -1.
</event>
<event>
 7    1  0.1543346E-008  0.4614232E+02  0.7816164E-02  0.1320468E+00
        -11   -1    0    0    0    0  0.00000000000E+00  0.00000000000E+00  0.45593999997E+02  0.45594000000E+02  0.51100000000E-03 0.  1.
         11   -1    0    0    0    0 -0.00000000000E+00 -0.00000000000E+00 -0.45593999997E+02  0.45594000000E+02  0.51100000000E-03 0. -1.
    9900012    2    1    2    0    0  0.13322476628E+02  0.28921484287E+01 -0.42933208935E+02  0.46142319458E+02  0.10000015477E+02 0.  0.
        -12    1    1    2    0    0 -0.13322476628E+02 -0.28921484287E+01  0.42933208935E+02  0.45045680542E+02  0.00000000000E+00 0.  1.
         11    1    3    3    0    0  0.72689707763E+01  0.39155365548E+01 -0.19285896774E+02  0.20978922215E+02  0.51100000000E-03 0. -1.
        -11    1    3    3    0    0  0.21417753582E+01 -0.27487620858E+01 -0.54363156678E+01  0.64572767473E+01  0.51100000000E-03 0.  1.
        -12    1    3    3    0    0  0.39117304930E+01  0.17253739597E+01 -0.18210996493E+02  0.18706120496E+02  0.00000000000E+00 0.  1.
</event>
<event>
 7    1  0.1543346E-008  0.4614232E+02  0.7816164E-02  0.1320468E+00
        -11   -1    0    0    0    0  0.00000000000E+00  0.00000000000E+00  0.45593999997E+02  0.45594000000E+02  0.51100000000E-03 0.  1.
         11   -1    0    0    0    0 -0.00000000000E+00 -0.00000000000E+00 -0.45593999997E+02  0.45594000000E+02  0.51100000000E-03 0. -1.
    9900012    2    1    2    0    0 -0.20774238761E+02  0.30074809800E+02 -0.26325850163E+02  0.46142316884E+02  0.99999920006E+01 0.  0.
        -12    1    1    2    0    0  0.20774238761E+02 -0.30074809800E+02  0.26325850163E+02  0.45045683116E+02  0.00000000000E+00 0.  1.
         11    1    3    3    0    0 -0.21247289909E+02  0.28450501174E+02 -0.26130247849E+02  0.44087052503E+02  0.51100000000E-03 0. -1.
        -11    1    3    3    0    0  0.84973974451E+00  0.12567388555E+01 -0.19017517980E+00  0.15289267623E+01  0.51100000000E-03 0.  1.
         12    1    3    3    0    0 -0.37668859613E+00  0.36756977065E+00 -0.54271345726E-02  0.52633761840E+00  0.00000000000E+00 0. -1.
</event>
<event>
 7    1  0.1543346E-008  0.4614233E+02  0.7816164E-02  0.1320468E+00
        -11   -1    0    0    0    0  0.00000000000E+00  0.00000000000E+00  0.45593999997E+02  0.45594000000E+02  0.51100000000E-03 0.  1.
         11   -1    0    0    0    0 -0.00000000000E+00 -0.00000000000E+00 -0.45593999997E+02  0.45594000000E+02  0.51100000000E-03 0. -1.
    9900012    2    1    2    0    0 -0.28613844249E+02 -0.23459682201E+02 -0.25690540081E+02  0.46142327385E+02  0.10000087756E+02 0.  0.
        -12    1    1    2    0    0  0.28613844249E+02  0.23459682201E+02  0.25690540081E+02  0.45045672615E+02  0.00000000000E+00 0.  1.
         11    1    3    3    0    0 -0.14095681148E+02 -0.13522503331E+02 -0.12715375194E+02  0.23307232567E+02  0.51100000000E-03 0. -1.
        -11    1    3    3    0    0 -0.68491494138E+01 -0.55574744927E+01 -0.25694682418E+01  0.91868676781E+01  0.51100000000E-03 0.  1.
         12    1    3    3    0    0 -0.76690136869E+01 -0.43797043779E+01 -0.10405696646E+02  0.13648227139E+02  0.00000000000E+00 0. -1.
</event>
<event>
 7    1  0.1543346E-008  0.4614231E+02  0.7816164E-02  0.1320468E+00
        -11   -1    0    0    0    0  0.00000000000E+00  0.00000000000E+00  0.45593999997E+02  0.45594000000E+02  0.51100000000E-03 0.  1.
         11   -1    0    0    0    0 -0.00000000000E+00 -0.00000000000E+00 -0.45593999997E+02  0.45594000000E+02  0.51100000000E-03 0. -1.
    9900012    2    1    2    0    0 -0.18158622250E+02 -0.33502652877E+02 -0.24019794771E+02  0.46142313718E+02  0.99999631299E+01 0.  0.
        -12    1    1    2    0    0  0.18158622250E+02  0.33502652877E+02  0.24019794771E+02  0.45045686282E+02  0.00000000000E+00 0.  1.
         11    1    3    3    0    0 -0.29987787419E+01 -0.15478383162E+02 -0.10164380273E+02  0.18758668552E+02  0.51100000000E-03 0.  1.
        -11    1    3    3    0    0 -0.12289129740E+02 -0.13964474193E+02 -0.11612467453E+02  0.21928945480E+02  0.51100000000E-03 0. -1.
        -12    1    3    3    0    0 -0.28707137686E+01 -0.40597955209E+01 -0.22429470455E+01  0.54546996857E+01  0.00000000000E+00 0.  1.
</event>
<event>
 7    1  0.1989172E-008  0.4614232E+02  0.7816164E-02  0.1320468E+00
        -11   -1    0    0    0    0  0.00000000000E+00  0.00000000000E+00  0.45593999997E+02  0.45594000000E+02  0.51100000000E-03 0.  1.
         11   -1    0    0    0    0 -0.00000000000E+00 -0.00000000000E+00 -0.45593999997E+02  0.45594000000E+02  0.51100000000E-03 0. -1.
    9900012    2    1    2    0    0  0.26049993125E+02 -0.27382979371E+02 -0.24508851587E+02  0.46142317552E+02  0.99999980958E+01 0.  0.
        -12    1    1    2    0    0 -0.26049993125E+02  0.27382979371E+02  0.24508851587E+02  0.45045682448E+02  0.00000000000E+00 0.  1.
         11    1    3    3    0    0  0.19439693246E+02 -0.24618185009E+02 -0.20612667766E+02  0.37534501187E+02  0.51100000000E-03 0. -1.
        -11    1    3    3    0    0  0.59486998644E+01 -0.23382744684E+01 -0.22379324385E+01  0.67722152525E+01  0.51100000000E-03 0.  1.
         12    1    3    3    0    0  0.66160001488E+00 -0.42651989350E+00 -0.16582513819E+01  0.18356011127E+01  0.00000000000E+00 0. -1.
</event>
<event>
 7    1  0.1543346E-008  0.4614232E+02  0.7816164E-02  0.1320468E+00
        -11   -1    0    0    0    0  0.00000000000E+00  0.00000000000E+00  0.45593999997E+02  0.45594000000E+02  0.51100000000E-03 0.  1.
         11   -1    0    0    0    0 -0.00000000000E+00 -0.00000000000E+00 -0.45593999997E+02  0.45594000000E+02  0.51100000000E-03 0. -1.
    9900012    2    1    2    0    0 -0.26258330683E+02  0.20116620651E+02 -0.30576709063E+02  0.46142317701E+02  0.99999994519E+01 0.  0.
        -12    1    1    2    0    0  0.26258330683E+02 -0.20116620651E+02  0.30576709063E+02  0.45045682299E+02  0.00000000000E+00 0.  1.
         11    1    3    3    0    0 -0.11908790151E+02  0.58988656603E+01 -0.13650195996E+02  0.19051082644E+02  0.51100000000E-03 0. -1.
        -11    1    3    3    0    0 -0.13229902647E+01 -0.47000699880E+00 -0.49036904791E+00  0.14871690837E+01  0.51100000000E-03 0.  1.
         12    1    3    3    0    0 -0.13026550267E+02  0.14687761990E+02 -0.16436144019E+02  0.25604065973E+02  0.00000000000E+00 0. -1.
</event>
<event>
 7    1  0.1543346E-008  0.4614232E+02  0.7816164E-02  0.1320468E+00
        -11   -1    0    0    0    0  0.00000000000E+00  0.00000000000E+00  0.45593999997E+02  0.45594000000E+02  0.51100000000E-03 0.  1.
         11   -1    0    0    0    0 -0.00000000000E+00 -0.00000000000E+00 -0.45593999997E+02  0.45594000000E+02  0.51100000000E-03 0. -1.
    9900012    2    1    2    0    0 -0.22592953919E+02  0.37784080150E+02 -0.95412349240E+01  0.46142318260E+02  0.10000004551E+02 0.  0.
        -12    1    1    2    0    0  0.22592953919E+02 -0.37784080150E+02  0.95412349240E+01  0.45045681740E+02  0.00000000000E+00 0.  1.
         11    1    3    3    0    0 -0.90102549968E+01  0.15715636622E+02 -0.27277886594E+01  0.18319573160E+02  0.51100000000E-03 0. -1.
        -11    1    3    3    0    0 -0.71413791686E+01  0.61906619967E+01 -0.19143885414E+00  0.94530546112E+01  0.51100000000E-03 0.  1.
        -12    1    3    3    0    0 -0.64413197533E+01  0.15877781531E+02 -0.66220074104E+01  0.18369690489E+02  0.00000000000E+00 0.  1.
</event>
<event>
 7    1  0.1543346E-008  0.4614232E+02  0.7816164E-02  0.1320468E+00
        -11   -1    0    0    0    0  0.00000000000E+00  0.00000000000E+00  0.45593999997E+02  0.45594000000E+02  0.51100000000E-03 0.  1.
         11   -1    0    0    0    0 -0.00000000000E+00 -0.00000000000E+00 -0.45593999997E+02  0.45594000000E+02  0.51100000000E-03 0. -1.
    9900012    2    1    2    0    0 -0.34459664801E+02  0.19199354353E+02 -0.21749248723E+02  0.46142317346E+02  0.99999962121E+01 0.  0.
        -12    1    1    2    0    0  0.34459664801E+02 -0.19199354353E+02  0.21749248723E+02  0.45045682654E+02  0.00000000000E+00 0.  1.
         11    1    3    3    0    0 -0.14811319543E+02  0.11999726721E+02 -0.11612570130E+02  0.22320851535E+02  0.51100000000E-03 0. -1.
        -11    1    3    3    0    0 -0.59465695245E+01  0.35997081927E+01 -0.56602471402E+01  0.89642616055E+01  0.51100000000E-03 0.  1.
         12    1    3    3    0    0 -0.13701775734E+02  0.35999194389E+01 -0.44764314527E+01  0.14857204205E+02  0.00000000000E+00 0. -1.
</event>
<event>
 7    1  0.1543346E-008  0.4614232E+02  0.7816164E-02  0.1320468E+00
        -11   -1    0    0    0    0  0.00000000000E+00  0.00000000000E+00  0.45593999997E+02  0.45594000000E+02  0.51100000000E-03 0.  1.
         11   -1    0    0    0    0 -0.00000000000E+00 -0.00000000000E+00 -0.45593999997E+02  0.45594000000E+02  0.51100000000E-03 0. -1.
    9900012    2    1    2    0    0  0.78396544869E+01  0.11290074203E+02 -0.42897407893E+02  0.46142316945E+02  0.99999925582E+01 0.  0.
        -12    1    1    2    0    0 -0.78396544869E+01 -0.11290074203E+02  0.42897407893E+02  0.45045683055E+02  0.00000000000E+00 0.  1.
         11    1    3    3    0    0  0.14573071746E+01 -0.10025262117E+01 -0.63616562164E+01  0.66029897079E+01  0.51100000000E-03 0. -1.
        -11    1    3    3    0    0 -0.86537386553E+00  0.37803653794E+01 -0.10995236148E+02  0.11659127435E+02  0.51100000000E-03 0.  1.
         12    1    3    3    0    0  0.72477211778E+01  0.85122350357E+01 -0.25540515528E+02  0.27880199802E+02  0.00000000000E+00 0. -1.
</event>
<event>
 7    1  0.1543346E-008  0.4614232E+02  0.7816164E-02  0.1320468E+00
        -11   -1    0    0    0    0  0.00000000000E+00  0.00000000000E+00  0.45593999997E+02  0.45594000000E+02  0.51100000000E-03 0. -1.
         11   -1    0    0    0    0 -0.00000000000E+00 -0.00000000000E+00 -0.45593999997E+02  0.45594000000E+02  0.51100000000E-03 0.  1.
    9900012    2    1    2    0    0  0.11839134912E+01 -0.15530398454E+02  0.42267227882E+02  0.46142317853E+02  0.10000000837E+02 0.  0.
        -12    1    1    2    0    0 -0.11839134912E+01  0.15530398454E+02 -0.42267227882E+02  0.45045682147E+02  0.00000000000E+00 0.  1.
         11    1    3    3    0    0 -0.10834514917E+00  0.15718272230E-01  0.27684458725E+01  0.27706097787E+01  0.51100000000E-03 0. -1.
        -11    1    3    3    0    0  0.39501014539E+01 -0.36137966267E+01  0.84532031127E+01  0.10005971751E+02  0.51100000000E-03 0.  1.
        -12    1    3    3    0    0 -0.26578428136E+01 -0.11932320100E+02  0.31045578896E+02  0.33365736323E+02  0.00000000000E+00 0.  1.
</event>
<event>
 7    1  0.1543346E-008  0.4614232E+02  0.7816164E-02  0.1320468E+00
        -11   -1    0    0    0    0  0.00000000000E+00  0.00000000000E+00  0.45593999997E+02  0.45594000000E+02  0.51100000000E-03 0. -1.
         11   -1    0    0    0    0 -0.00000000000E+00 -0.00000000000E+00 -0.45593999997E+02  0.45594000000E+02  0.51100000000E-03 0.  1.
    9900012    2    1    2    0    0 -0.37784122430E+02 -0.15725519961E+02  0.18819714820E+02  0.46142317057E+02  0.99999935770E+01 0.  0.
        -12    1    1    2    0    0  0.37784122430E+02  0.15725519961E+02 -0.18819714820E+02  0.45045682943E+02  0.00000000000E+00 0.  1.
         11    1    3    3    0    0 -0.98704320668E+01 -0.74304572941E+00  0.52568281189E+01  0.11207666496E+02  0.51100000000E-03 0. -1.
        -11    1    3    3    0    0 -0.14697645820E+02 -0.11059235498E+02  0.72304449608E+01  0.19763775374E+02  0.51100000000E-03 0.  1.
         12    1    3    3    0    0 -0.13216044543E+02 -0.39232387345E+01  0.63324417408E+01  0.15170875187E+02  0.00000000000E+00 0. -1.
</event>
<event>
 7    1  0.1543346E-008  0.4614232E+02  0.7816164E-02  0.1320468E+00
        -11   -1    0    0    0    0  0.00000000000E+00  0.00000000000E+00  0.45593999997E+02  0.45594000000E+02  0.51100000000E-03 0. -1.
         11   -1    0    0    0    0 -0.00000000000E+00 -0.00000000000E+00 -0.45593999997E+02  0.45594000000E+02  0.51100000000E-03 0.  1.
    9900012    2    1    2    0    0 -0.15402451193E+02  0.40493156537E+02  0.12336217550E+02  0.46142317715E+02  0.99999995787E+01 0.  0.
        -12    1    1    2    0    0  0.15402451193E+02 -0.40493156537E+02 -0.12336217550E+02  0.45045682285E+02  0.00000000000E+00 0.  1.
         11    1    3    3    0    0 -0.12796290636E+02  0.35494531079E+02  0.12435521370E+02  0.39727181911E+02  0.51100000000E-03 0. -1.
        -11    1    3    3    0    0  0.14733206948E+00 -0.28981682191E+00  0.29605509280E+00  0.43971514422E+00  0.51100000000E-03 0.  1.
        -12    1    3    3    0    0 -0.27534926266E+01  0.52884422799E+01 -0.39535891306E+00  0.59754206599E+01  0.00000000000E+00 0.  1.
</event>
<event>
 7    1  0.1543346E-008  0.4614232E+02  0.7816164E-02  0.1320468E+00
        -11   -1    0    0    0    0  0.00000000000E+00  0.00000000000E+00  0.45593999997E+02  0.45594000000E+02  0.51100000000E-03 0.  1.
         11   -1    0    0    0    0 -0.00000000000E+00 -0.00000000000E+00 -0.45593999997E+02  0.45594000000E+02  0.51100000000E-03 0. -1.
    9900012    2    1    2    0    0 -0.31343257722E+02  0.84416852759E+01 -0.31232220403E+02  0.46142318229E+02  0.10000004271E+02 0.  0.
        -12    1    1    2    0    0  0.31343257722E+02 -0.84416852759E+01  0.31232220403E+02  0.45045681771E+02  0.00000000000E+00 0.  1.
         11    1    3    3    0    0 -0.19958215416E+02  0.61519345719E+01 -0.18213385991E+02  0.27711082459E+02  0.51100000000E-03 0. -1.
        -11    1    3    3    0    0 -0.17728053645E+01 -0.58781255445E+00  0.15197671590E+00  0.18738889089E+01  0.51100000000E-03 0.  1.
        -12    1    3    3    0    0 -0.96122369412E+01  0.28775632585E+01 -0.13170811128E+02  0.16557346861E+02  0.00000000000E+00 0.  1.
</event>
<event>
 7    1  0.1543346E-008  0.4614232E+02  0.7816164E-02  0.1320468E+00
        -11   -1    0    0    0    0  0.00000000000E+00  0.00000000000E+00  0.45593999997E+02  0.45594000000E+02  0.51100000000E-03 0.  1.
         11   -1    0    0    0    0 -0.00000000000E+00 -0.00000000000E+00 -0.45593999997E+02  0.45594000000E+02  0.51100000000E-03 0. -1.
    9900012    2    1    2    0    0 -0.22438730823E+02 -0.13774671242E+02 -0.36549628179E+02  0.46142317312E+02  0.99999959036E+01 0.  0.
        -12    1    1    2    0    0  0.22438730823E+02  0.13774671242E+02  0.36549628179E+02  0.45045682688E+02  0.00000000000E+00 0.  1.
         11    1    3    3    0    0 -0.19705210085E+02 -0.79697395900E+01 -0.27137903078E+02  0.34471406083E+02  0.51100000000E-03 0. -1.
        -11    1    3    3    0    0 -0.20202512860E+01 -0.55076941355E+01 -0.69723222500E+01  0.91120462997E+01  0.51100000000E-03 0.  1.
        -12    1    3    3    0    0 -0.71326945222E+00 -0.29723751687E+00 -0.24394028520E+01  0.25588649295E+01  0.00000000000E+00 0.  1.
</event>
<event>
 7    1  0.1543346E-008  0.4614232E+02  0.7816164E-02  0.1320468E+00
        -11   -1    0    0    0    0  0.00000000000E+00  0.00000000000E+00  0.45593999997E+02  0.45594000000E+02  0.51100000000E-03 0.  1.
         11   -1    0    0    0    0 -0.00000000000E+00 -0.00000000000E+00 -0.45593999997E+02  0.45594000000E+02  0.51100000000E-03 0. -1.
    9900012    2    1    2    0    0 -0.11015820754E+02  0.43187912481E+02 -0.65245048351E+01  0.46142320355E+02  0.10000023649E+02 0.  0.
        -12    1    1    2    0    0  0.11015820754E+02 -0.43187912481E+02  0.65245048351E+01  0.45045679645E+02  0.00000000000E+00 0.  1.
         11    1    3    3    0    0 -0.35929185595E+01  0.67441689477E+01 -0.42789684650E+01  0.87579934892E+01  0.51100000000E-03 0. -1.
        -11    1    3    3    0    0 -0.75029774792E+01  0.33629961293E+02 -0.15864284570E+01  0.34493270693E+02  0.51100000000E-03 0.  1.
        -12    1    3    3    0    0  0.80075284426E-01  0.28137822408E+01 -0.65910791303E+00  0.28910561722E+01  0.00000000000E+00 0.  1.
</event>
<event>
 7    1  0.1543346E-008  0.4614232E+02  0.7816164E-02  0.1320468E+00
        -11   -1    0    0    0    0  0.00000000000E+00  0.00000000000E+00  0.45593999997E+02  0.45594000000E+02  0.51100000000E-03 0.  1.
         11   -1    0    0    0    0 -0.00000000000E+00 -0.00000000000E+00 -0.45593999997E+02  0.45594000000E+02  0.51100000000E-03 0. -1.
    9900012    2    1    2    0    0  0.12051918397E+02 -0.42734690978E+02 -0.75901863261E+01  0.46142317870E+02  0.10000000997E+02 0.  0.
        -12    1    1    2    0    0 -0.12051918397E+02  0.42734690978E+02  0.75901863261E+01  0.45045682130E+02  0.00000000000E+00 0.  1.
         11    1    3    3    0    0  0.21669743446E+01 -0.13996629872E+02  0.40699447302E+00  0.14169229702E+02  0.51100000000E-03 0.  1.
        -11    1    3    3    0    0  0.30150434594E+01 -0.17317439921E+02 -0.36362447081E+01  0.17950111095E+02  0.51100000000E-03 0. -1.
        -12    1    3    3    0    0  0.68699005932E+01 -0.11420621185E+02 -0.43609360910E+01  0.14022977073E+02  0.00000000000E+00 0.  1.
</event>
<event>
 7    1  0.1543346E-008  0.4614232E+02  0.7816164E-02  0.1320468E+00
        -11   -1    0    0    0    0  0.00000000000E+00  0.00000000000E+00  0.45593999997E+02  0.45594000000E+02  0.51100000000E-03 0.  1.
         11   -1    0    0    0    0 -0.00000000000E+00 -0.00000000000E+00 -0.45593999997E+02  0.45594000000E+02  0.51100000000E-03 0. -1.
    9900012    2    1    2    0    0 -0.33248288801E+02  0.13019265591E+02 -0.27462037785E+02  0.46142317587E+02  0.99999984164E+01 0.  0.
        -12    1    1    2    0    0  0.33248288801E+02 -0.13019265591E+02  0.27462037785E+02  0.45045682413E+02  0.00000000000E+00 0.  1.
         11    1    3    3    0    0 -0.25254423376E+02  0.68180279387E+01 -0.17544642456E+02  0.31497394879E+02  0.51100000000E-03 0. -1.
        -11    1    3    3    0    0 -0.89311302033E+00  0.23447840473E+01 -0.12787404690E+01  0.28161748070E+01  0.51100000000E-03 0.  1.
         12    1    3    3    0    0 -0.71007524049E+01  0.38564536050E+01 -0.86386548595E+01  0.11828747901E+02  0.00000000000E+00 0. -1.
</event>
<event>
 7    1  0.1543346E-008  0.4614232E+02  0.7816164E-02  0.1320468E+00
        -11   -1    0    0    0    0  0.00000000000E+00  0.00000000000E+00  0.45593999997E+02  0.45594000000E+02  0.51100000000E-03 0. -1.
         11   -1    0    0    0    0 -0.00000000000E+00 -0.00000000000E+00 -0.45593999997E+02  0.45594000000E+02  0.51100000000E-03 0.  1.
    9900012    2    1    2    0    0 -0.19250874678E+01  0.14369120776E+02  0.42648985261E+02  0.46142317216E+02  0.99999950310E+01 0.  0.
        -12    1    1    2    0    0  0.19250874678E+01 -0.14369120776E+02 -0.42648985261E+02  0.45045682784E+02  0.00000000000E+00 0.  1.
         11    1    3    3    0    0 -0.38449575013E+01  0.38499376434E+01  0.23425698116E+02  0.24049304575E+02  0.51100000000E-03 0. -1.
        -11    1    3    3    0    0  0.19340772270E+01  0.62361958445E+01  0.12860162938E+02  0.14422710716E+02  0.51100000000E-03 0.  1.
         12    1    3    3    0    0 -0.14207193440E-01  0.42829872884E+01  0.63631242068E+01  0.76703019254E+01  0.00000000000E+00 0. -1.
</event>
<event>
 7    1  0.1543346E-008  0.4614232E+02  0.7816164E-02  0.1320468E+00
        -11   -1    0    0    0    0  0.00000000000E+00  0.00000000000E+00  0.45593999997E+02  0.45594000000E+02  0.51100000000E-03 0.  1.
         11   -1    0    0    0    0 -0.00000000000E+00 -0.00000000000E+00 -0.45593999997E+02  0.45594000000E+02  0.51100000000E-03 0. -1.
    9900012    2    1    2    0    0 -0.24150806914E+02  0.60867404176E+00 -0.38019488672E+02  0.46142317881E+02  0.10000001091E+02 0.  0.
        -12    1    1    2    0    0  0.24150806914E+02 -0.60867404176E+00  0.38019488672E+02  0.45045682119E+02  0.00000000000E+00 0.  1.
         11    1    3    3    0    0 -0.10606206758E+02  0.77442130104E+00 -0.15738916317E+02  0.18994863444E+02  0.51100000000E-03 0. -1.
        -11    1    3    3    0    0  0.41730068230E-01 -0.17655385950E+01 -0.18306059309E+01  0.25436167684E+01  0.51100000000E-03 0.  1.
        -12    1    3    3    0    0 -0.13586330224E+02  0.15997913357E+01 -0.20449966424E+02  0.24603837669E+02  0.00000000000E+00 0.  1.
</event>
<event>
 7    1  0.1543346E-008  0.4614232E+02  0.7816164E-02  0.1320468E+00
        -11   -1    0    0    0    0  0.00000000000E+00  0.00000000000E+00  0.45593999997E+02  0.45594000000E+02  0.51100000000E-03 0.  1.
         11   -1    0    0    0    0 -0.00000000000E+00 -0.00000000000E+00 -0.45593999997E+02  0.45594000000E+02  0.51100000000E-03 0. -1.
    9900012    2    1    2    0    0 -0.81566210049E+01  0.41805083085E+02 -0.14660083825E+02  0.46142317679E+02  0.99999992541E+01 0.  0.
        -12    1    1    2    0    0  0.81566210049E+01 -0.41805083085E+02  0.14660083825E+02  0.45045682321E+02  0.00000000000E+00 0.  1.
         11    1    3    3    0    0 -0.69193504584E+01  0.21872772454E+02 -0.11044493444E+02  0.25461272971E+02  0.51100000000E-03 0. -1.
        -11    1    3    3    0    0  0.50948754133E+00  0.11604554233E+02 -0.52302921374E+00  0.11627502583E+02  0.51100000000E-03 0.  1.
        -12    1    3    3    0    0 -0.17467580878E+01  0.83277563976E+01 -0.30925611677E+01  0.90535421251E+01  0.00000000000E+00 0.  1.
</event>
<event>
 7    1  0.1543346E-008  0.4614232E+02  0.7816164E-02  0.1320468E+00
        -11   -1    0    0    0    0  0.00000000000E+00  0.00000000000E+00  0.45593999997E+02  0.45594000000E+02  0.51100000000E-03 0.  1.
         11   -1    0    0    0    0 -0.00000000000E+00 -0.00000000000E+00 -0.45593999997E+02  0.45594000000E+02  0.51100000000E-03 0. -1.
    9900012    2    1    2    0    0 -0.95998165330E+01  0.43967783811E+02  0.19470349466E+01  0.46142318344E+02  0.10000005319E+02 0.  0.
        -12    1    1    2    0    0  0.95998165330E+01 -0.43967783811E+02 -0.19470349466E+01  0.45045681656E+02  0.00000000000E+00 0.  1.
         11    1    3    3    0    0 -0.26199625459E+01  0.23957818906E+02  0.91419553562E+00  0.24117981761E+02  0.51100000000E-03 0. -1.
        -11    1    3    3    0    0 -0.37282844709E+01  0.52473826869E+01 -0.17118502414E+01  0.66607478310E+01  0.51100000000E-03 0.  1.
        -12    1    3    3    0    0 -0.32515695161E+01  0.14762582219E+02  0.27446896524E+01  0.15363588753E+02  0.00000000000E+00 0.  1.
</event>
<event>
 7    1  0.1543346E-008  0.4614232E+02  0.7816164E-02  0.1320468E+00
        -11   -1    0    0    0    0  0.00000000000E+00  0.00000000000E+00  0.45593999997E+02  0.45594000000E+02  0.51100000000E-03 0. -1.
         11   -1    0    0    0    0 -0.00000000000E+00 -0.00000000000E+00 -0.45593999997E+02  0.45594000000E+02  0.51100000000E-03 0.  1.
    9900012    2    1    2    0    0 -0.24902898063E+02 -0.13880913316E+02 -0.34875197227E+02  0.46142317987E+02  0.10000002059E+02 0.  0.
        -12    1    1    2    0    0  0.24902898063E+02  0.13880913316E+02  0.34875197227E+02  0.45045682013E+02  0.00000000000E+00 0.  1.
         11    1    3    3    0    0 -0.12311711364E+02 -0.49441891131E+01 -0.17974261495E+02  0.22340486102E+02  0.51100000000E-03 0. -1.
        -11    1    3    3    0    0 -0.13155652380E+01 -0.23164878448E+01 -0.31628354584E+00  0.26826970334E+01  0.51100000000E-03 0.  1.
        -12    1    3    3    0    0 -0.11275621460E+02 -0.66202363581E+01 -0.16584652186E+02  0.21119134852E+02  0.00000000000E+00 0.  1.
</event>
<event>
 7    1  0.1543346E-008  0.4614232E+02  0.7816164E-02  0.1320468E+00
        -11   -1    0    0    0    0  0.00000000000E+00  0.00000000000E+00  0.45593999997E+02  0.45594000000E+02  0.51100000000E-03 0. -1.
         11   -1    0    0    0    0 -0.00000000000E+00 -0.00000000000E+00 -0.45593999997E+02  0.45594000000E+02  0.51100000000E-03 0.  1.
    9900012    2    1    2    0    0 -0.30961058740E+02  0.32611752143E+02 -0.26457295244E+01  0.46142318510E+02  0.10000006833E+02 0.  0.
        -12    1    1    2    0    0  0.30961058740E+02 -0.32611752143E+02  0.26457295244E+01  0.45045681490E+02  0.00000000000E+00 0.  1.
         11    1    3    3    0    0 -0.15869753442E+02  0.14291247090E+02 -0.36065112218E-01  0.21356266496E+02  0.51100000000E-03 0. -1.
        -11    1    3    3    0    0 -0.51281076527E+01  0.24315648403E+01 -0.20145089150E+01  0.60223120228E+01  0.51100000000E-03 0.  1.
         12    1    3    3    0    0 -0.99631976454E+01  0.15888940213E+02 -0.59515549717E+00  0.18763739992E+02  0.00000000000E+00 0. -1.
</event>
<event>
 7    1  0.1543346E-008  0.4614232E+02  0.7816164E-02  0.1320468E+00
        -11   -1    0    0    0    0  0.00000000000E+00  0.00000000000E+00  0.45593999997E+02  0.45594000000E+02  0.51100000000E-03 0.  1.
         11   -1    0    0    0    0 -0.00000000000E+00 -0.00000000000E+00 -0.45593999997E+02  0.45594000000E+02  0.51100000000E-03 0. -1.
    9900012    2    1    2    0    0 -0.42523877679E+02 -0.13533857807E+02  0.61374368212E+01  0.46142316403E+02  0.99999876121E+01 0.  0.
        -12    1    1    2    0    0  0.42523877679E+02  0.13533857807E+02 -0.61374368212E+01  0.45045683597E+02  0.00000000000E+00 0.  1.
         11    1    3    3    0    0 -0.39922930394E+01  0.53649035121E+00  0.70377003065E+00  0.40891952908E+01  0.51100000000E-03 0. -1.
        -11    1    3    3    0    0 -0.11769393750E+02 -0.74996971158E+01  0.37190308785E+01  0.14442827874E+02  0.51100000000E-03 0.  1.
        -12    1    3    3    0    0 -0.26762190890E+02 -0.65706510423E+01  0.17146359121E+01  0.27610293238E+02  0.00000000000E+00 0.  1.
</event>
<event>
 7    1  0.1543346E-008  0.4614230E+02  0.7816164E-02  0.1320468E+00
        -11   -1    0    0    0    0  0.00000000000E+00  0.00000000000E+00  0.45593999997E+02  0.45594000000E+02  0.51100000000E-03 0.  1.
         11   -1    0    0    0    0 -0.00000000000E+00 -0.00000000000E+00 -0.45593999997E+02  0.45594000000E+02  0.51100000000E-03 0. -1.
    9900012    2    1    2    0    0  0.23125771488E+02  0.17067712028E+02 -0.34684385024E+02  0.46142304698E+02  0.99998808791E+01 0.  0.
        -12    1    1    2    0    0 -0.23125771488E+02 -0.17067712028E+02  0.34684385024E+02  0.45045695302E+02  0.00000000000E+00 0.  1.
         11    1    3    3    0    0  0.13249923474E+02  0.42150570602E+01 -0.15531396128E+02  0.20845897535E+02  0.51100000000E-03 0. -1.
        -11    1    3    3    0    0  0.86607941878E+01  0.12215338088E+02 -0.16320470455E+02  0.22149076656E+02  0.51100000000E-03 0.  1.
        -12    1    3    3    0    0  0.12150538252E+01  0.63731687971E+00 -0.28325184405E+01  0.31473305068E+01  0.00000000000E+00 0.  1.
</event>
<event>
 7    1  0.1649259E-008  0.4614232E+02  0.7816164E-02  0.1320468E+00
        -11   -1    0    0    0    0  0.00000000000E+00  0.00000000000E+00  0.45593999997E+02  0.45594000000E+02  0.51100000000E-03 0. -1.
         11   -1    0    0    0    0 -0.00000000000E+00 -0.00000000000E+00 -0.45593999997E+02  0.45594000000E+02  0.51100000000E-03 0.  1.
    9900012    2    1    2    0    0 -0.43740967191E+02  0.51301476991E+01  0.94616532959E+01  0.46142317529E+02  0.99999978820E+01 0.  0.
        -12    1    1    2    0    0  0.43740967191E+02 -0.51301476991E+01 -0.94616532959E+01  0.45045682471E+02  0.00000000000E+00 0.  1.
         11    1    3    3    0    0 -0.79764141517E+01 -0.15631264193E+01  0.40268051642E+01  0.90709264694E+01  0.51100000000E-03 0. -1.
        -11    1    3    3    0    0 -0.10165589978E+02  0.31243029270E+00  0.18601291519E+00  0.10172090904E+02  0.51100000000E-03 0.  1.
         12    1    3    3    0    0 -0.25598963061E+02  0.63808438257E+01  0.52488352165E+01  0.26899300155E+02  0.00000000000E+00 0. -1.
</event>
<event>
 7    1  0.1543346E-008  0.4614232E+02  0.7816164E-02  0.1320468E+00
        -11   -1    0    0    0    0  0.00000000000E+00  0.00000000000E+00  0.45593999997E+02  0.45594000000E+02  0.51100000000E-03 0.  1.
         11   -1    0    0    0    0 -0.00000000000E+00 -0.00000000000E+00 -0.45593999997E+02  0.45594000000E+02  0.51100000000E-03 0. -1.
    9900012    2    1    2    0    0  0.77751460717E+01  0.66985608983E+01 -0.43861029272E+02  0.46142317595E+02  0.99999984849E+01 0.  0.
        -12    1    1    2    0    0 -0.77751460717E+01 -0.66985608983E+01  0.43861029272E+02  0.45045682405E+02  0.00000000000E+00 0.  1.
         11    1    3    3    0    0  0.32620162890E+01 -0.47618339616E+00 -0.67816766628E+01  0.75404667970E+01  0.51100000000E-03 0. -1.
        -11    1    3    3    0    0 -0.10496159471E+01  0.21337203255E+01 -0.37719657668E+01  0.44589440533E+01  0.51100000000E-03 0.  1.
         12    1    3    3    0    0  0.55627457298E+01  0.50410239689E+01 -0.33307386842E+02  0.34142906745E+02  0.00000000000E+00 0. -1.
</event>
<event>
 7    1  0.1543346E-008  0.4614232E+02  0.7816164E-02  0.1320468E+00
        -11   -1    0    0    0    0  0.00000000000E+00  0.00000000000E+00  0.45593999997E+02  0.45594000000E+02  0.51100000000E-03 0. -1.
         11   -1    0    0    0    0 -0.00000000000E+00 -0.00000000000E+00 -0.45593999997E+02  0.45594000000E+02  0.51100000000E-03 0.  1.
    9900012    2    1    2    0    0 -0.12088809536E+02 -0.15540745575E+02  0.40514926784E+02  0.46142318950E+02  0.10000010837E+02 0.  0.
        -12    1    1    2    0    0  0.12088809536E+02  0.15540745575E+02 -0.40514926784E+02  0.45045681050E+02  0.00000000000E+00 0.  1.
         11    1    3    3    0    0 -0.65796656623E+00 -0.13186540199E+01  0.53246862591E+01  0.55248576856E+01  0.51100000000E-03 0. -1.
        -11    1    3    3    0    0 -0.76536520593E+01 -0.56418901938E+01  0.10287882224E+02  0.14008919863E+02  0.51100000000E-03 0.  1.
        -12    1    3    3    0    0 -0.37771909102E+01 -0.85802013609E+01  0.24902358301E+02  0.26608541401E+02  0.00000000000E+00 0.  1.
</event>
<event>
 7    1  0.1543346E-008  0.4614232E+02  0.7816164E-02  0.1320468E+00
        -11   -1    0    0    0    0  0.00000000000E+00  0.00000000000E+00  0.45593999997E+02  0.45594000000E+02  0.51100000000E-03 0.  1.
         11   -1    0    0    0    0 -0.00000000000E+00 -0.00000000000E+00 -0.45593999997E+02  0.45594000000E+02  0.51100000000E-03 0. -1.
    9900012    2    1    2    0    0 -0.12419024705E+02 -0.36340836390E+02 -0.23541983031E+02  0.46142317308E+02  0.99999958678E+01 0.  0.
        -12    1    1    2    0    0  0.12419024705E+02  0.36340836390E+02  0.23541983031E+02  0.45045682692E+02  0.00000000000E+00 0.  1.
         11    1    3    3    0    0 -0.81952732973E+01 -0.24311411792E+02 -0.15314167760E+02  0.29878604087E+02  0.51100000000E-03 0. -1.
        -11    1    3    3    0    0  0.37314241450E+00 -0.73874958189E+01 -0.34023434123E+01  0.81418837312E+01  0.51100000000E-03 0.  1.
         12    1    3    3    0    0 -0.45968938222E+01 -0.46419287795E+01 -0.48254718589E+01  0.81218294901E+01  0.00000000000E+00 0. -1.
</event>
<event>
 7    1  0.1543346E-008  0.4614232E+02  0.7816164E-02  0.1320468E+00
        -11   -1    0    0    0    0  0.00000000000E+00  0.00000000000E+00  0.45593999997E+02  0.45594000000E+02  0.51100000000E-03 0.  1.
         11   -1    0    0    0    0 -0.00000000000E+00 -0.00000000000E+00 -0.45593999997E+02  0.45594000000E+02  0.51100000000E-03 0. -1.
    9900012    2    1    2    0    0  0.39287653394E+02  0.18033743728E+01 -0.21962279891E+02  0.46142316451E+02  0.99999880547E+01 0.  0.
        -12    1    1    2    0    0 -0.39287653394E+02 -0.18033743728E+01  0.21962279891E+02  0.45045683549E+02  0.00000000000E+00 0.  1.
         11    1    3    3    0    0  0.31537959639E+01 -0.15026920459E+01 -0.30861197629E+01  0.46613997703E+01  0.51100000000E-03 0. -1.
        -11    1    3    3    0    0  0.20767721519E+02  0.52776236419E+01 -0.10327928486E+02  0.23786922362E+02  0.51100000000E-03 0.  1.
        -12    1    3    3    0    0  0.15366135912E+02 -0.19715572232E+01 -0.85482316424E+01  0.17693994319E+02  0.00000000000E+00 0.  1.
</event>
<event>
 7    1  0.1543346E-008  0.4614232E+02  0.7816164E-02  0.1320468E+00
        -11   -1    0    0    0    0  0.00000000000E+00  0.00000000000E+00  0.45593999997E+02  0.45594000000E+02  0.51100000000E-03 0.  1.
         11   -1    0    0    0    0 -0.00000000000E+00 -0.00000000000E+00 -0.45593999997E+02  0.45594000000E+02  0.51100000000E-03 0. -1.
    9900012    2    1    2    0    0 -0.39711006391E+02  0.11943782075E+02 -0.17592482785E+02  0.46142318638E+02  0.10000007996E+02 0.  0.
        -12    1    1    2    0    0  0.39711006391E+02 -0.11943782075E+02  0.17592482785E+02  0.45045681362E+02  0.00000000000E+00 0.  1.
         11    1    3    3    0    0 -0.28798690468E+02  0.11360454022E+02 -0.12839773446E+02  0.33515433321E+02  0.51100000000E-03 0. -1.
        -11    1    3    3    0    0 -0.32209441547E+01 -0.37429707713E+00 -0.35075186672E+01  0.47767423011E+01  0.51100000000E-03 0.  1.
         12    1    3    3    0    0 -0.76913717680E+01  0.95762512934E+00 -0.12451906721E+01  0.78501430161E+01  0.00000000000E+00 0. -1.
</event>
<event>
 7    1  0.1543346E-008  0.4614232E+02  0.7816164E-02  0.1320468E+00
        -11   -1    0    0    0    0  0.00000000000E+00  0.00000000000E+00  0.45593999997E+02  0.45594000000E+02  0.51100000000E-03 0.  1.
         11   -1    0    0    0    0 -0.00000000000E+00 -0.00000000000E+00 -0.45593999997E+02  0.45594000000E+02  0.51100000000E-03 0. -1.
    9900012    2    1    2    0    0 -0.25758643304E+02 -0.10442576322E+02 -0.35447966696E+02  0.46142318210E+02  0.10000004092E+02 0.  0.
        -12    1    1    2    0    0  0.25758643304E+02  0.10442576322E+02  0.35447966696E+02  0.45045681790E+02  0.00000000000E+00 0.  1.
         11    1    3    3    0    0 -0.20522022448E+02 -0.50803231816E+01 -0.26973678524E+02  0.34271597897E+02  0.51100000000E-03 0. -1.
        -11    1    3    3    0    0  0.39169976119E+00 -0.12960319641E+01 -0.11273442231E+01  0.17618265560E+01  0.51100000000E-03 0.  1.
         12    1    3    3    0    0 -0.56283206164E+01 -0.40662211765E+01 -0.73469439483E+01  0.10108893757E+02  0.00000000000E+00 0. -1.
</event>
<event>
 7    1  0.1543346E-008  0.4614232E+02  0.7816164E-02  0.1320468E+00
        -11   -1    0    0    0    0  0.00000000000E+00  0.00000000000E+00  0.45593999997E+02  0.45594000000E+02  0.51100000000E-03 0. -1.
         11   -1    0    0    0    0 -0.00000000000E+00 -0.00000000000E+00 -0.45593999997E+02  0.45594000000E+02  0.51100000000E-03 0.  1.
    9900012    2    1    2    0    0  0.25305431259E+02  0.28789858435E+02 -0.23662052270E+02  0.46142317437E+02  0.99999970465E+01 0.  0.
        -12    1    1    2    0    0 -0.25305431259E+02 -0.28789858435E+02  0.23662052270E+02  0.45045682563E+02  0.00000000000E+00 0.  1.
         11    1    3    3    0    0  0.17639381706E+02  0.17413566019E+02 -0.12316082128E+02  0.27677896375E+02  0.51100000000E-03 0. -1.
        -11    1    3    3    0    0  0.21319004224E+01  0.65898541746E+00 -0.32318335507E+01  0.39273412828E+01  0.51100000000E-03 0.  1.
         12    1    3    3    0    0  0.55341491299E+01  0.10717306999E+02 -0.81141365912E+01  0.14537079779E+02  0.00000000000E+00 0. -1.
</event>
<event>
 7    1  0.1543346E-008  0.4614232E+02  0.7816164E-02  0.1320468E+00
        -11   -1    0    0    0    0  0.00000000000E+00  0.00000000000E+00  0.45593999997E+02  0.45594000000E+02  0.51100000000E-03 0.  1.
         11   -1    0    0    0    0 -0.00000000000E+00 -0.00000000000E+00 -0.45593999997E+02  0.45594000000E+02  0.51100000000E-03 0. -1.
    9900012    2    1    2    0    0 -0.17133978497E+01 -0.35335205539E+01 -0.44874179577E+02  0.46142317717E+02  0.99999995956E+01 0.  0.
        -12    1    1    2    0    0  0.17133978497E+01  0.35335205539E+01  0.44874179577E+02  0.45045682283E+02  0.00000000000E+00 0.  1.
         11    1    3    3    0    0 -0.86957571643E+00 -0.52944933170E+01 -0.20951755295E+02  0.21627849445E+02  0.51100000000E-03 0. -1.
        -11    1    3    3    0    0 -0.23701221595E+01  0.14443919601E+01 -0.21171007245E+02  0.21352173079E+02  0.51100000000E-03 0.  1.
         12    1    3    3    0    0  0.15263000262E+01  0.31658080303E+00 -0.27514170364E+01  0.31622951922E+01  0.00000000000E+00 0. -1.
</event>
<event>
 7    1  0.1543346E-008  0.4614232E+02  0.7816164E-02  0.1320468E+00
        -11   -1    0    0    0    0  0.00000000000E+00  0.00000000000E+00  0.45593999997E+02  0.45594000000E+02  0.51100000000E-03 0. -1.
         11   -1    0    0    0    0 -0.00000000000E+00 -0.00000000000E+00 -0.45593999997E+02  0.45594000000E+02  0.51100000000E-03 0.  1.
    9900012    2    1    2    0    0 -0.13866318440E+02  0.14735541629E+02  0.40245529037E+02  0.46142316726E+02  0.99999905620E+01 0.  0.
        -12    1    1    2    0    0  0.13866318440E+02 -0.14735541629E+02 -0.40245529037E+02  0.45045683274E+02  0.00000000000E+00 0.  1.
         11    1    3    3    0    0 -0.41600823069E+01  0.13399064793E+01  0.88679091161E+01  0.98864273894E+01  0.51100000000E-03 0. -1.
        -11    1    3    3    0    0 -0.75478629872E+01  0.99817940649E+01  0.28961233660E+02  0.31549318595E+02  0.51100000000E-03 0.  1.
        -12    1    3    3    0    0 -0.21583731455E+01  0.34138410850E+01  0.24163862607E+01  0.47065707420E+01  0.00000000000E+00 0.  1.
</event>
<event>
 7    1  0.1543346E-008  0.4614232E+02  0.7816164E-02  0.1320468E+00
        -11   -1    0    0    0    0  0.00000000000E+00  0.00000000000E+00  0.45593999997E+02  0.45594000000E+02  0.51100000000E-03 0.  1.
         11   -1    0    0    0    0 -0.00000000000E+00 -0.00000000000E+00 -0.45593999997E+02  0.45594000000E+02  0.51100000000E-03 0. -1.
    9900012    2    1    2    0    0 -0.19540706553E+02  0.20539014512E+02 -0.35006037994E+02  0.46142322896E+02  0.10000046823E+02 0.  0.
        -12    1    1    2    0    0  0.19540706553E+02 -0.20539014512E+02  0.35006037994E+02  0.45045677104E+02  0.00000000000E+00 0.  1.
         11    1    3    3    0    0  0.46469946231E+00 -0.44476966761E+00 -0.88616981971E+00  0.10950172866E+01  0.51100000000E-03 0. -1.
        -11    1    3    3    0    0 -0.12479927918E+01  0.30904194548E+01 -0.25412901913E+01  0.41912211243E+01  0.51100000000E-03 0.  1.
         12    1    3    3    0    0 -0.18757413223E+02  0.17893364725E+02 -0.31578577983E+02  0.40856084485E+02  0.00000000000E+00 0. -1.
</event>
<event>
 7    1  0.1543346E-008  0.4614232E+02  0.7816164E-02  0.1320468E+00
        -11   -1    0    0    0    0  0.00000000000E+00  0.00000000000E+00  0.45593999997E+02  0.45594000000E+02  0.51100000000E-03 0.  1.
         11   -1    0    0    0    0 -0.00000000000E+00 -0.00000000000E+00 -0.45593999997E+02  0.45594000000E+02  0.51100000000E-03 0. -1.
    9900012    2    1    2    0    0  0.55133433173E+01  0.11918137384E+02 -0.43089145867E+02  0.46142318245E+02  0.10000004410E+02 0.  0.
        -12    1    1    2    0    0 -0.55133433173E+01 -0.11918137384E+02  0.43089145867E+02  0.45045681755E+02  0.00000000000E+00 0.  1.
         11    1    3    3    0    0  0.33586589085E+01  0.15612547579E+01 -0.15518190527E+02  0.15954069812E+02  0.51100000000E-03 0. -1.
        -11    1    3    3    0    0  0.14533243128E+01 -0.15662781869E+00 -0.60792637377E+01  0.62525300228E+01  0.51100000000E-03 0.  1.
         12    1    3    3    0    0  0.70136009599E+00  0.10513510445E+02 -0.21491691603E+02  0.23935718410E+02  0.00000000000E+00 0. -1.
</event>
<event>
 7    1  0.1543346E-008  0.4614232E+02  0.7816164E-02  0.1320468E+00
        -11   -1    0    0    0    0  0.00000000000E+00  0.00000000000E+00  0.45593999997E+02  0.45594000000E+02  0.51100000000E-03 0.  1.
         11   -1    0    0    0    0 -0.00000000000E+00 -0.00000000000E+00 -0.45593999997E+02  0.45594000000E+02  0.51100000000E-03 0. -1.
    9900012    2    1    2    0    0 -0.12663083836E+02  0.36112698677E+02 -0.23762002586E+02  0.46142318022E+02  0.10000002376E+02 0.  0.
        -12    1    1    2    0    0  0.12663083836E+02 -0.36112698677E+02  0.23762002586E+02  0.45045681978E+02  0.00000000000E+00 0.  1.
         11    1    3    3    0    0 -0.53950308801E+01  0.17371394477E+02 -0.79525575735E+01  0.19852326728E+02  0.51100000000E-03 0. -1.
        -11    1    3    3    0    0 -0.36530264509E+01  0.11232733196E+02 -0.12831598350E+02  0.17440436169E+02  0.51100000000E-03 0.  1.
        -12    1    3    3    0    0 -0.36150265050E+01  0.75085710043E+01 -0.29778466625E+01  0.88495551246E+01  0.00000000000E+00 0.  1.
</event>
<event>
 7    1  0.1543346E-008  0.4614232E+02  0.7816164E-02  0.1320468E+00
        -11   -1    0    0    0    0  0.00000000000E+00  0.00000000000E+00  0.45593999997E+02  0.45594000000E+02  0.51100000000E-03 0.  1.
         11   -1    0    0    0    0 -0.00000000000E+00 -0.00000000000E+00 -0.45593999997E+02  0.45594000000E+02  0.51100000000E-03 0. -1.
    9900012    2    1    2    0    0 -0.37023080090E+02 -0.10971802356E+02 -0.23195358073E+02  0.46142317161E+02  0.99999945277E+01 0.  0.
        -12    1    1    2    0    0  0.37023080090E+02  0.10971802356E+02  0.23195358073E+02  0.45045682839E+02  0.00000000000E+00 0.  1.
         11    1    3    3    0    0 -0.29070692562E+02 -0.11282527927E+02 -0.16236274841E+02  0.35157036614E+02  0.51100000000E-03 0. -1.
        -11    1    3    3    0    0 -0.74667820566E+01  0.52840026231E+00 -0.51155361755E+01  0.90664630227E+01  0.51100000000E-03 0.  1.
         12    1    3    3    0    0 -0.48560547124E+00 -0.21767469143E+00 -0.18435470559E+01  0.19188175245E+01  0.00000000000E+00 0. -1.
</event>
<event>
 7    1  0.1543346E-008  0.4614232E+02  0.7816164E-02  0.1320468E+00
        -11   -1    0    0    0    0  0.00000000000E+00  0.00000000000E+00  0.45593999997E+02  0.45594000000E+02  0.51100000000E-03 0.  1.
         11   -1    0    0    0    0 -0.00000000000E+00 -0.00000000000E+00 -0.45593999997E+02  0.45594000000E+02  0.51100000000E-03 0. -1.
    9900012    2    1    2    0    0  0.55823735648E+01 -0.43409041950E+02  0.10658595014E+02  0.46142318017E+02  0.10000002333E+02 0.  0.
        -12    1    1    2    0    0 -0.55823735648E+01  0.43409041950E+02 -0.10658595014E+02  0.45045681983E+02  0.00000000000E+00 0.  1.
         11    1    3    3    0    0  0.17201052997E+01 -0.25192614249E+02  0.89344199475E+01  0.26785265259E+02  0.51100000000E-03 0. -1.
        -11    1    3    3    0    0  0.37783656644E+01 -0.89581755528E+01  0.25801604524E+01  0.10058935557E+02  0.51100000000E-03 0.  1.
        -12    1    3    3    0    0  0.83902600659E-01 -0.92582521487E+01 -0.85598538619E+00  0.92981172006E+01  0.00000000000E+00 0.  1.
</event>
<event>
 7    1  0.1543346E-008  0.4614232E+02  0.7816164E-02  0.1320468E+00
        -11   -1    0    0    0    0  0.00000000000E+00  0.00000000000E+00  0.45593999997E+02  0.45594000000E+02  0.51100000000E-03 0. -1.
         11   -1    0    0    0    0 -0.00000000000E+00 -0.00000000000E+00 -0.45593999997E+02  0.45594000000E+02  0.51100000000E-03 0.  1.
    9900012    2    1    2    0    0 -0.19186119805E+02 -0.38037590480E+02  0.14633795228E+02  0.46142318237E+02  0.10000004341E+02 0.  0.
        -12    1    1    2    0    0  0.19186119805E+02  0.38037590480E+02 -0.14633795228E+02  0.45045681763E+02  0.00000000000E+00 0.  1.
         11    1    3    3    0    0 -0.56389523340E+01 -0.21070565746E+02  0.87352858203E+01  0.23496206990E+02  0.51100000000E-03 0. -1.
        -11    1    3    3    0    0 -0.12335412586E+02 -0.15496853484E+02  0.61131777876E+01  0.20728864284E+02  0.51100000000E-03 0.  1.
        -12    1    3    3    0    0 -0.12117548849E+01 -0.14701712501E+01 -0.21466837983E+00  0.19172469635E+01  0.00000000000E+00 0.  1.
</event>
<event>
 7    1  0.1543346E-008  0.4614231E+02  0.7816164E-02  0.1320468E+00
        -11   -1    0    0    0    0  0.00000000000E+00  0.00000000000E+00  0.45593999997E+02  0.45594000000E+02  0.51100000000E-03 0. -1.
         11   -1    0    0    0    0 -0.00000000000E+00 -0.00000000000E+00 -0.45593999997E+02  0.45594000000E+02  0.51100000000E-03 0.  1.
    9900012    2    1    2    0    0  0.11982444188E+02 -0.16475907820E+02  0.40175609378E+02  0.46142311015E+02  0.99999384817E+01 0.  0.
        -12    1    1    2    0    0 -0.11982444188E+02  0.16475907820E+02 -0.40175609378E+02  0.45045688985E+02  0.00000000000E+00 0.  1.
         11    1    3    3    0    0  0.24426515862E+01 -0.24677770599E+01  0.45340307423E+01  0.57108585539E+01  0.51100000000E-03 0. -1.
        -11    1    3    3    0    0  0.95019812173E+01 -0.11547517170E+02  0.34720107262E+02  0.37803685646E+02  0.51100000000E-03 0.  1.
        -12    1    3    3    0    0  0.37811384520E-01 -0.24606135901E+01  0.92147137361E+00  0.26277668148E+01  0.00000000000E+00 0.  1.
</event>
<event>
 7    1  0.1543346E-008  0.4614231E+02  0.7816164E-02  0.1320468E+00
        -11   -1    0    0    0    0  0.00000000000E+00  0.00000000000E+00  0.45593999997E+02  0.45594000000E+02  0.51100000000E-03 0. -1.
         11   -1    0    0    0    0 -0.00000000000E+00 -0.00000000000E+00 -0.45593999997E+02  0.45594000000E+02  0.51100000000E-03 0.  1.
    9900012    2    1    2    0    0 -0.36096387063E+02 -0.20694120998E+02 -0.17260303232E+02  0.46142313519E+02  0.99999613201E+01 0.  0.
        -12    1    1    2    0    0  0.36096387063E+02  0.20694120998E+02  0.17260303232E+02  0.45045686481E+02  0.00000000000E+00 0.  1.
         11    1    3    3    0    0 -0.12758516994E+02 -0.68759441367E+01 -0.39358768497E+01  0.15018305180E+02  0.51100000000E-03 0. -1.
        -11    1    3    3    0    0 -0.11285975611E+02 -0.24928024155E+01 -0.47601340526E+01  0.12499847433E+02  0.51100000000E-03 0.  1.
        -12    1    3    3    0    0 -0.12051894457E+02 -0.11325374446E+02 -0.85642923296E+01  0.18624160906E+02  0.00000000000E+00 0.  1.
</event>
<event>
 7    1  0.1543346E-008  0.4614232E+02  0.7816164E-02  0.1320468E+00
        -11   -1    0    0    0    0  0.00000000000E+00  0.00000000000E+00  0.45593999997E+02  0.45594000000E+02  0.51100000000E-03 0.  1.
         11   -1    0    0    0    0 -0.00000000000E+00 -0.00000000000E+00 -0.45593999997E+02  0.45594000000E+02  0.51100000000E-03 0. -1.
    9900012    2    1    2    0    0 -0.24312277813E+02 -0.14205389751E+02 -0.35160113473E+02  0.46142317300E+02  0.99999957983E+01 0.  0.
        -12    1    1    2    0    0  0.24312277813E+02  0.14205389751E+02  0.35160113473E+02  0.45045682700E+02  0.00000000000E+00 0.  1.
         11    1    3    3    0    0 -0.10094410639E+02 -0.41112579884E+01 -0.84120903908E+01  0.13768181920E+02  0.51100000000E-03 0. -1.
        -11    1    3    3    0    0 -0.47439062818E+01 -0.84954452983E+00 -0.52408642147E+01  0.71199038404E+01  0.51100000000E-03 0.  1.
         12    1    3    3    0    0 -0.94739608927E+01 -0.92445872325E+01 -0.21507158868E+02  0.25254231540E+02  0.00000000000E+00 0. -1.
</event>
<event>
 7    1  0.1543346E-008  0.4614232E+02  0.7816164E-02  0.1320468E+00
        -11   -1    0    0    0    0  0.00000000000E+00  0.00000000000E+00  0.45593999997E+02  0.45594000000E+02  0.51100000000E-03 0.  1.
         11   -1    0    0    0    0 -0.00000000000E+00 -0.00000000000E+00 -0.45593999997E+02  0.45594000000E+02  0.51100000000E-03 0. -1.
    9900012    2    1    2    0    0 -0.11837868244E+02  0.41137713608E+02 -0.14023796606E+02  0.46142317891E+02  0.10000001180E+02 0.  0.
        -12    1    1    2    0    0  0.11837868244E+02 -0.41137713608E+02  0.14023796606E+02  0.45045682109E+02  0.00000000000E+00 0.  1.
         11    1    3    3    0    0 -0.21715004337E+01  0.12852038413E+02 -0.14156281106E+01  0.13110846987E+02  0.51100000000E-03 0. -1.
        -11    1    3    3    0    0 -0.72118176380E+01  0.24377128366E+02 -0.12695422258E+02  0.28415285457E+02  0.51100000000E-03 0.  1.
         12    1    3    3    0    0 -0.24545501719E+01  0.39085468287E+01  0.87253762744E-01  0.46161854466E+01  0.00000000000E+00 0. -1.
</event>
<event>
 7    1  0.1543346E-008  0.4614232E+02  0.7816164E-02  0.1320468E+00
        -11   -1    0    0    0    0  0.00000000000E+00  0.00000000000E+00  0.45593999997E+02  0.45594000000E+02  0.51100000000E-03 0.  1.
         11   -1    0    0    0    0 -0.00000000000E+00 -0.00000000000E+00 -0.45593999997E+02  0.45594000000E+02  0.51100000000E-03 0. -1.
    9900012    2    1    2    0    0 -0.40603357961E+02  0.17462404000E+02  0.86916772165E+01  0.46142317809E+02  0.10000000438E+02 0.  0.
        -12    1    1    2    0    0  0.40603357961E+02 -0.17462404000E+02 -0.86916772165E+01  0.45045682191E+02  0.00000000000E+00 0.  1.
         11    1    3    3    0    0 -0.17562124927E+02  0.11197150908E+02  0.53877707281E+01  0.21513542109E+02  0.51100000000E-03 0. -1.
        -11    1    3    3    0    0 -0.77694572389E+01  0.25641366610E+01 -0.12307641387E+01  0.82736958628E+01  0.51100000000E-03 0.  1.
         12    1    3    3    0    0 -0.15271775795E+02  0.37011164318E+01  0.45346706272E+01  0.16355079837E+02  0.00000000000E+00 0. -1.
</event>
<event>
 7    1  0.2450568E-008  0.4614232E+02  0.7816164E-02  0.1320468E+00
        -11   -1    0    0    0    0  0.00000000000E+00  0.00000000000E+00  0.45593999997E+02  0.45594000000E+02  0.51100000000E-03 0.  1.
         11   -1    0    0    0    0 -0.00000000000E+00 -0.00000000000E+00 -0.45593999997E+02  0.45594000000E+02  0.51100000000E-03 0. -1.
    9900012    2    1    2    0    0  0.36629073717E+02  0.91931704800E+00 -0.26202657627E+02  0.46142318166E+02  0.10000003689E+02 0.  0.
        -12    1    1    2    0    0 -0.36629073717E+02 -0.91931704800E+00  0.26202657627E+02  0.45045681834E+02  0.00000000000E+00 0.  1.
         11    1    3    3    0    0  0.29370071655E+02  0.12676215384E+01 -0.23721353359E+02  0.37774469935E+02  0.51100000000E-03 0. -1.
        -11    1    3    3    0    0 -0.25860340556E+00 -0.18579019708E+00 -0.49838632670E+00  0.59142447571E+00  0.51100000000E-03 0.  1.
         12    1    3    3    0    0  0.75176054676E+01 -0.16251429328E+00 -0.19829179411E+01  0.77764237554E+01  0.00000000000E+00 0. -1.
</event>
<event>
 7    1  0.1543346E-008  0.4614232E+02  0.7816164E-02  0.1320468E+00
        -11   -1    0    0    0    0  0.00000000000E+00  0.00000000000E+00  0.45593999997E+02  0.45594000000E+02  0.51100000000E-03 0. -1.
         11   -1    0    0    0    0 -0.00000000000E+00 -0.00000000000E+00 -0.45593999997E+02  0.45594000000E+02  0.51100000000E-03 0.  1.
    9900012    2    1    2    0    0  0.39521202912E+02 -0.19709247439E+02  0.88731937710E+01  0.46142317832E+02  0.10000000650E+02 0.  0.
        -12    1    1    2    0    0 -0.39521202912E+02  0.19709247439E+02 -0.88731937710E+01  0.45045682168E+02  0.00000000000E+00 0.  1.
         11    1    3    3    0    0  0.18567562779E+02 -0.85722489256E+01  0.19131503419E+01  0.20540155396E+02  0.51100000000E-03 0. -1.
        -11    1    3    3    0    0  0.24042380118E+01 -0.34878924435E+01  0.28920785359E+01  0.51293150258E+01  0.51100000000E-03 0.  1.
        -12    1    3    3    0    0  0.18549402122E+02 -0.76491060700E+01  0.40679648931E+01  0.20472847411E+02  0.00000000000E+00 0.  1.
</event>
<event>
 7    1  0.1543346E-008  0.4614232E+02  0.7816164E-02  0.1320468E+00
        -11   -1    0    0    0    0  0.00000000000E+00  0.00000000000E+00  0.45593999997E+02  0.45594000000E+02  0.51100000000E-03 0.  1.
         11   -1    0    0    0    0 -0.00000000000E+00 -0.00000000000E+00 -0.45593999997E+02  0.45594000000E+02  0.51100000000E-03 0. -1.
    9900012    2    1    2    0    0  0.59713390341E+01  0.36120836700E+02 -0.26243888827E+02  0.46142318359E+02  0.10000005449E+02 0.  0.
        -12    1    1    2    0    0 -0.59713390341E+01 -0.36120836700E+02  0.26243888827E+02  0.45045681641E+02  0.00000000000E+00 0.  1.
         11    1    3    3    0    0 -0.73677742813E+00  0.24571353594E+00 -0.54269220361E+00  0.94748678583E+00  0.51100000000E-03 0. -1.
        -11    1    3    3    0    0  0.70965891773E+01  0.19932913641E+02 -0.13275393812E+02  0.24978364745E+02  0.51100000000E-03 0.  1.
         12    1    3    3    0    0 -0.38847271505E+00  0.15942209523E+02 -0.12425802811E+02  0.20216466828E+02  0.00000000000E+00 0. -1.
</event>
<event>
 7    1  0.1543346E-008  0.4614232E+02  0.7816164E-02  0.1320468E+00
        -11   -1    0    0    0    0  0.00000000000E+00  0.00000000000E+00  0.45593999997E+02  0.45594000000E+02  0.51100000000E-03 0.  1.
         11   -1    0    0    0    0 -0.00000000000E+00 -0.00000000000E+00 -0.45593999997E+02  0.45594000000E+02  0.51100000000E-03 0. -1.
    9900012    2    1    2    0    0 -0.15678454128E+02 -0.15337573580E+02 -0.39345374245E+02  0.46142316948E+02  0.99999925873E+01 0.  0.
        -12    1    1    2    0    0  0.15678454128E+02  0.15337573580E+02  0.39345374245E+02  0.45045683052E+02  0.00000000000E+00 0.  1.
         11    1    3    3    0    0 -0.10745707912E+01 -0.58789039378E+01 -0.10653213614E+02  0.12215038865E+02  0.51100000000E-03 0.  1.
        -11    1    3    3    0    0 -0.10636246497E+02 -0.41797302789E+01 -0.19630065499E+02  0.22714298503E+02  0.51100000000E-03 0. -1.
         12    1    3    3    0    0 -0.39676368396E+01 -0.52789393631E+01 -0.90620951315E+01  0.11212979580E+02  0.00000000000E+00 0. -1.
</event>
<event>
 7    1  0.1543346E-008  0.4614231E+02  0.7816164E-02  0.1320468E+00
        -11   -1    0    0    0    0  0.00000000000E+00  0.00000000000E+00  0.45593999997E+02  0.45594000000E+02  0.51100000000E-03 0.  1.
         11   -1    0    0    0    0 -0.00000000000E+00 -0.00000000000E+00 -0.45593999997E+02  0.45594000000E+02  0.51100000000E-03 0. -1.
    9900012    2    1    2    0    0 -0.39155592637E+02 -0.20764568149E+02 -0.80489766741E+01  0.46142314850E+02  0.99999734524E+01 0.  0.
        -12    1    1    2    0    0  0.39155592637E+02  0.20764568149E+02  0.80489766741E+01  0.45045685150E+02  0.00000000000E+00 0.  1.
         11    1    3    3    0    0 -0.12626124058E+02 -0.85828144423E+01 -0.18199685855E+01  0.15375174743E+02  0.51100000000E-03 0. -1.
        -11    1    3    3    0    0 -0.13906615975E+02 -0.23445618308E+01 -0.35281386229E+01  0.14537492922E+02  0.51100000000E-03 0.  1.
        -12    1    3    3    0    0 -0.12622852604E+02 -0.98371918754E+01 -0.27008694657E+01  0.16229647184E+02  0.00000000000E+00 0.  1.
</event>
<event>
 7    1  0.1543346E-008  0.4614232E+02  0.7816164E-02  0.1320468E+00
        -11   -1    0    0    0    0  0.00000000000E+00  0.00000000000E+00  0.45593999997E+02  0.45594000000E+02  0.51100000000E-03 0. -1.
         11   -1    0    0    0    0 -0.00000000000E+00 -0.00000000000E+00 -0.45593999997E+02  0.45594000000E+02  0.51100000000E-03 0.  1.
    9900012    2    1    2    0    0  0.34227624925E+02  0.22484121976E+02  0.18762926613E+02  0.46142318030E+02  0.10000002455E+02 0.  0.
        -12    1    1    2    0    0 -0.34227624925E+02 -0.22484121976E+02 -0.18762926613E+02  0.45045681970E+02  0.00000000000E+00 0.  1.
         11    1    3    3    0    0  0.15165822314E+02  0.74991345230E+01  0.63095721006E+01  0.18056851481E+02  0.51100000000E-03 0. -1.
        -11    1    3    3    0    0  0.66596448569E+01  0.32867984266E+01  0.69475817526E+01  0.10169700388E+02  0.51100000000E-03 0.  1.
        -12    1    3    3    0    0  0.12402157754E+02  0.11698189026E+02  0.55057727598E+01  0.17915766161E+02  0.00000000000E+00 0.  1.
</event>
<event>
 7    1  0.1543346E-008  0.4614232E+02  0.7816164E-02  0.1320468E+00
        -11   -1    0    0    0    0  0.00000000000E+00  0.00000000000E+00  0.45593999997E+02  0.45594000000E+02  0.51100000000E-03 0.  1.
         11   -1    0    0    0    0 -0.00000000000E+00 -0.00000000000E+00 -0.45593999997E+02  0.45594000000E+02  0.51100000000E-03 0. -1.
    9900012    2    1    2    0    0  0.15524821869E+02 -0.38076918483E+01 -0.42114069588E+02  0.46142317981E+02  0.10000002008E+02 0.  0.
        -12    1    1    2    0    0 -0.15524821869E+02  0.38076918483E+01  0.42114069588E+02  0.45045682019E+02  0.00000000000E+00 0.  1.
         11    1    3    3    0    0  0.13194545526E+02 -0.50058489686E+01 -0.27144347511E+02  0.30593629363E+02  0.51100000000E-03 0. -1.
        -11    1    3    3    0    0  0.14711222273E+00  0.18689503725E+01 -0.56368866874E+01  0.59404637268E+01  0.51100000000E-03 0.  1.
        -12    1    3    3    0    0  0.21831641211E+01 -0.67079325219E+00 -0.93328353895E+01  0.96082248919E+01  0.00000000000E+00 0.  1.
</event>
<event>
 7    1  0.1543346E-008  0.4614232E+02  0.7816164E-02  0.1320468E+00
        -11   -1    0    0    0    0  0.00000000000E+00  0.00000000000E+00  0.45593999997E+02  0.45594000000E+02  0.51100000000E-03 0.  1.
         11   -1    0    0    0    0 -0.00000000000E+00 -0.00000000000E+00 -0.45593999997E+02  0.45594000000E+02  0.51100000000E-03 0. -1.
    9900012    2    1    2    0    0  0.13565641132E+02 -0.40232815752E+02 -0.15046838050E+02  0.46142318543E+02  0.10000007125E+02 0.  0.
        -12    1    1    2    0    0 -0.13565641132E+02  0.40232815752E+02  0.15046838050E+02  0.45045681457E+02  0.00000000000E+00 0.  1.
         11    1    3    3    0    0  0.93922160349E+01 -0.20217590307E+02 -0.65344861768E+01  0.23230673467E+02  0.51100000000E-03 0. -1.
        -11    1    3    3    0    0 -0.84476306272E+00 -0.10219990419E+02 -0.37385709221E+01  0.10915069473E+02  0.51100000000E-03 0.  1.
        -12    1    3    3    0    0  0.50181881602E+01 -0.97952350261E+01 -0.47737809506E+01  0.11996575603E+02  0.00000000000E+00 0.  1.
</event>
<event>
 7    1  0.1543346E-008  0.4614232E+02  0.7816164E-02  0.1320468E+00
        -11   -1    0    0    0    0  0.00000000000E+00  0.00000000000E+00  0.45593999997E+02  0.45594000000E+02  0.51100000000E-03 0.  1.
         11   -1    0    0    0    0 -0.00000000000E+00 -0.00000000000E+00 -0.45593999997E+02  0.45594000000E+02  0.51100000000E-03 0. -1.
    9900012    2    1    2    0    0 -0.35393569624E+01 -0.19681934642E+02 -0.40363446829E+02  0.46142318311E+02  0.10000005014E+02 0.  0.
        -12    1    1    2    0    0  0.35393569624E+01  0.19681934642E+02  0.40363446829E+02  0.45045681689E+02  0.00000000000E+00 0.  1.
         11    1    3    3    0    0 -0.16081765056E+01 -0.21800328376E+01 -0.10780140287E+02  0.11115313748E+02  0.51100000000E-03 0. -1.
        -11    1    3    3    0    0 -0.19778213772E+01 -0.15076126980E+02 -0.28635713433E+02  0.32422298903E+02  0.51100000000E-03 0.  1.
        -12    1    3    3    0    0  0.46640920387E-01 -0.24257748246E+01 -0.94759310906E+00  0.26047056601E+01  0.00000000000E+00 0.  1.
</event>
<event>
 7    1  0.1543346E-008  0.4614232E+02  0.7816164E-02  0.1320468E+00
        -11   -1    0    0    0    0  0.00000000000E+00  0.00000000000E+00  0.45593999997E+02  0.45594000000E+02  0.51100000000E-03 0.  1.
         11   -1    0    0    0    0 -0.00000000000E+00 -0.00000000000E+00 -0.45593999997E+02  0.45594000000E+02  0.51100000000E-03 0. -1.
    9900012    2    1    2    0    0 -0.24391640506E+02  0.11413098079E+02 -0.36109590842E+02  0.46142317797E+02  0.10000000328E+02 0.  0.
        -12    1    1    2    0    0  0.24391640506E+02 -0.11413098079E+02  0.36109590842E+02  0.45045682203E+02  0.00000000000E+00 0.  1.
         11    1    3    3    0    0 -0.80266939388E+01  0.43239934438E+01 -0.14250686268E+02  0.16917647421E+02  0.51100000000E-03 0. -1.
        -11    1    3    3    0    0 -0.11342218384E+02  0.23126894644E+01 -0.17676182804E+02  0.21129171523E+02  0.51100000000E-03 0.  1.
        -12    1    3    3    0    0 -0.50227281830E+01  0.47764151708E+01 -0.41827217697E+01  0.80954988534E+01  0.00000000000E+00 0.  1.
</event>
<event>
 7    1  0.1543346E-008  0.4614232E+02  0.7816164E-02  0.1320468E+00
        -11   -1    0    0    0    0  0.00000000000E+00  0.00000000000E+00  0.45593999997E+02  0.45594000000E+02  0.51100000000E-03 0.  1.
         11   -1    0    0    0    0 -0.00000000000E+00 -0.00000000000E+00 -0.45593999997E+02  0.45594000000E+02  0.51100000000E-03 0. -1.
    9900012    2    1    2    0    0 -0.37308893529E+02  0.16100253062E+02 -0.19440722968E+02  0.46142318802E+02  0.10000009496E+02 0.  0.
        -12    1    1    2    0    0  0.37308893529E+02 -0.16100253062E+02  0.19440722968E+02  0.45045681198E+02  0.00000000000E+00 0.  1.
         11    1    3    3    0    0 -0.54702640232E+01  0.44664622192E+01 -0.29371997383E+00  0.70681924793E+01  0.51100000000E-03 0. -1.
        -11    1    3    3    0    0 -0.24275220828E+02  0.73630732600E+01 -0.14635235925E+02  0.29286367561E+02  0.51100000000E-03 0.  1.
         12    1    3    3    0    0 -0.75634086784E+01  0.42707175826E+01 -0.45117670687E+01  0.97877587623E+01  0.00000000000E+00 0. -1.
</event>
<event>
 7    1  0.1543346E-008  0.4614232E+02  0.7816164E-02  0.1320468E+00
        -11   -1    0    0    0    0  0.00000000000E+00  0.00000000000E+00  0.45593999997E+02  0.45594000000E+02  0.51100000000E-03 0. -1.
         11   -1    0    0    0    0 -0.00000000000E+00 -0.00000000000E+00 -0.45593999997E+02  0.45594000000E+02  0.51100000000E-03 0.  1.
    9900012    2    1    2    0    0 -0.38746467839E+02  0.19992456081E+02 -0.11319297061E+02  0.46142317009E+02  0.99999931423E+01 0.  0.
        -12    1    1    2    0    0  0.38746467839E+02 -0.19992456081E+02  0.11319297061E+02  0.45045682991E+02  0.00000000000E+00 0.  1.
         11    1    3    3    0    0 -0.23575460712E+02  0.16130367576E+02 -0.49455338297E+01  0.28990505532E+02  0.51100000000E-03 0. -1.
        -11    1    3    3    0    0 -0.27618001233E+00 -0.28464178849E+00 -0.43641064275E+00  0.58970404204E+00  0.51100000000E-03 0.  1.
         12    1    3    3    0    0 -0.14894827115E+02  0.41467302936E+01 -0.59373525881E+01  0.16562107435E+02  0.00000000000E+00 0. -1.
</event>
<event>
 7    1  0.1543346E-008  0.4614232E+02  0.7816164E-02  0.1320468E+00
        -11   -1    0    0    0    0  0.00000000000E+00  0.00000000000E+00  0.45593999997E+02  0.45594000000E+02  0.51100000000E-03 0.  1.
         11   -1    0    0    0    0 -0.00000000000E+00 -0.00000000000E+00 -0.45593999997E+02  0.45594000000E+02  0.51100000000E-03 0. -1.
    9900012    2    1    2    0    0 -0.57794401255E+01  0.41478411277E+02 -0.16590748259E+02  0.46142318098E+02  0.10000003070E+02 0.  0.
        -12    1    1    2    0    0  0.57794401255E+01 -0.41478411277E+02  0.16590748259E+02  0.45045681902E+02  0.00000000000E+00 0.  1.
         11    1    3    3    0    0 -0.66116551306E+01  0.17274117074E+02 -0.55834914161E+01  0.19320571443E+02  0.51100000000E-03 0. -1.
        -11    1    3    3    0    0  0.38524034386E+00  0.31063099831E+01 -0.27313321237E+01  0.41542444878E+01  0.51100000000E-03 0.  1.
         12    1    3    3    0    0  0.44697466131E+00  0.21097984221E+02 -0.82759247187E+01  0.22667502167E+02  0.00000000000E+00 0. -1.
</event>
<event>
 7    1  0.1543346E-008  0.4614232E+02  0.7816164E-02  0.1320468E+00
        -11   -1    0    0    0    0  0.00000000000E+00  0.00000000000E+00  0.45593999997E+02  0.45594000000E+02  0.51100000000E-03 0. -1.
         11   -1    0    0    0    0 -0.00000000000E+00 -0.00000000000E+00 -0.45593999997E+02  0.45594000000E+02  0.51100000000E-03 0.  1.
    9900012    2    1    2    0    0  0.12047393676E+02  0.38079984084E+02  0.20829994395E+02  0.46142317091E+02  0.99999938939E+01 0.  0.
        -12    1    1    2    0    0 -0.12047393676E+02 -0.38079984084E+02 -0.20829994395E+02  0.45045682909E+02  0.00000000000E+00 0.  1.
         11    1    3    3    0    0  0.61671070074E+01  0.18649314262E+02  0.13358976286E+02  0.23754839064E+02  0.51100000000E-03 0. -1.
        -11    1    3    3    0    0  0.25633983059E+01  0.64531146723E+01  0.54800349210E+01  0.88455911529E+01  0.51100000000E-03 0.  1.
         12    1    3    3    0    0  0.33168883631E+01  0.12977555150E+02  0.19909831877E+01  0.13541886875E+02  0.00000000000E+00 0. -1.
</event>
<event>
 7    1  0.1543346E-008  0.4614232E+02  0.7816164E-02  0.1320468E+00
        -11   -1    0    0    0    0  0.00000000000E+00  0.00000000000E+00  0.45593999997E+02  0.45594000000E+02  0.51100000000E-03 0.  1.
         11   -1    0    0    0    0 -0.00000000000E+00 -0.00000000000E+00 -0.45593999997E+02  0.45594000000E+02  0.51100000000E-03 0. -1.
    9900012    2    1    2    0    0 -0.20204249258E+02  0.25348233179E+02 -0.31278881419E+02  0.46142322780E+02  0.10000045768E+02 0.  0.
        -12    1    1    2    0    0  0.20204249258E+02 -0.25348233179E+02  0.31278881419E+02  0.45045677220E+02  0.00000000000E+00 0.  1.
         11    1    3    3    0    0 -0.14699790349E+02  0.17364488005E+02 -0.26217384444E+02  0.34712541355E+02  0.51100000000E-03 0. -1.
        -11    1    3    3    0    0 -0.58699953734E+01  0.69092368446E+01 -0.48261933766E+01  0.10270664157E+02  0.51100000000E-03 0.  1.
         12    1    3    3    0    0  0.36553646479E+00  0.10745083297E+01 -0.23530359839E+00  0.11591172681E+01  0.00000000000E+00 0. -1.
</event>
<event>
 7    1  0.1543346E-008  0.4614232E+02  0.7816164E-02  0.1320468E+00
        -11   -1    0    0    0    0  0.00000000000E+00  0.00000000000E+00  0.45593999997E+02  0.45594000000E+02  0.51100000000E-03 0.  1.
         11   -1    0    0    0    0 -0.00000000000E+00 -0.00000000000E+00 -0.45593999997E+02  0.45594000000E+02  0.51100000000E-03 0. -1.
    9900012    2    1    2    0    0  0.27405646198E+02  0.31276384716E+02 -0.17315650898E+02  0.46142318182E+02  0.10000003838E+02 0.  0.
        -12    1    1    2    0    0 -0.27405646198E+02 -0.31276384716E+02  0.17315650898E+02  0.45045681818E+02  0.00000000000E+00 0.  1.
         11    1    3    3    0    0  0.11119006444E+01  0.28907318161E+01 -0.36183774611E+01  0.47629097396E+01  0.51100000000E-03 0. -1.
        -11    1    3    3    0    0  0.24844698974E+02  0.25378412837E+02 -0.11299349026E+02  0.37269266077E+02  0.51100000000E-03 0.  1.
        -12    1    3    3    0    0  0.14490465797E+01  0.30072400628E+01 -0.23979244103E+01  0.41101423653E+01  0.00000000000E+00 0.  1.
</event>
<event>
 7    1  0.1543346E-008  0.4614232E+02  0.7816164E-02  0.1320468E+00
        -11   -1    0    0    0    0  0.00000000000E+00  0.00000000000E+00  0.45593999997E+02  0.45594000000E+02  0.51100000000E-03 0.  1.
         11   -1    0    0    0    0 -0.00000000000E+00 -0.00000000000E+00 -0.45593999997E+02  0.45594000000E+02  0.51100000000E-03 0. -1.
    9900012    2    1    2    0    0 -0.37935994143E+02  0.42990671771E+01 -0.23905896200E+02  0.46142317595E+02  0.99999984850E+01 0.  0.
        -12    1    1    2    0    0  0.37935994143E+02 -0.42990671771E+01  0.23905896200E+02  0.45045682405E+02  0.00000000000E+00 0.  1.
         11    1    3    3    0    0 -0.25809331745E+02 -0.57978822647E-01 -0.18151002151E+02  0.31552873815E+02  0.51100000000E-03 0. -1.
        -11    1    3    3    0    0 -0.99745798779E+00 -0.59493167288E+00 -0.11849295211E+00  0.11674360683E+01  0.51100000000E-03 0.  1.
         12    1    3    3    0    0 -0.11129204411E+02  0.49519776727E+01 -0.56364010968E+01  0.13422007712E+02  0.00000000000E+00 0. -1.
</event>
<event>
 7    1  0.1543346E-008  0.4614232E+02  0.7816164E-02  0.1320468E+00
        -11   -1    0    0    0    0  0.00000000000E+00  0.00000000000E+00  0.45593999997E+02  0.45594000000E+02  0.51100000000E-03 0.  1.
         11   -1    0    0    0    0 -0.00000000000E+00 -0.00000000000E+00 -0.45593999997E+02  0.45594000000E+02  0.51100000000E-03 0. -1.
    9900012    2    1    2    0    0  0.14187043194E+02  0.35196275154E+02 -0.24270630997E+02  0.46142317540E+02  0.99999979860E+01 0.  0.
        -12    1    1    2    0    0 -0.14187043194E+02 -0.35196275154E+02  0.24270630997E+02  0.45045682460E+02  0.00000000000E+00 0.  1.
         11    1    3    3    0    0  0.56791006430E+01  0.18549932478E+02 -0.15211465824E+02  0.24652400934E+02  0.51100000000E-03 0. -1.
        -11    1    3    3    0    0  0.88325150319E+01  0.15718868314E+02 -0.72545895380E+01  0.19435154039E+02  0.51100000000E-03 0.  1.
        -12    1    3    3    0    0 -0.32457248075E+00  0.92747436091E+00 -0.18045756351E+01  0.20547625674E+01  0.00000000000E+00 0.  1.
</event>
<event>
 7    1  0.1543346E-008  0.4614232E+02  0.7816164E-02  0.1320468E+00
        -11   -1    0    0    0    0  0.00000000000E+00  0.00000000000E+00  0.45593999997E+02  0.45594000000E+02  0.51100000000E-03 0. -1.
         11   -1    0    0    0    0 -0.00000000000E+00 -0.00000000000E+00 -0.45593999997E+02  0.45594000000E+02  0.51100000000E-03 0.  1.
    9900012    2    1    2    0    0  0.78671034001E+01  0.23668088270E+02  0.37510582360E+02  0.46142317551E+02  0.99999980885E+01 0.  0.
        -12    1    1    2    0    0 -0.78671034001E+01 -0.23668088270E+02 -0.37510582360E+02  0.45045682449E+02  0.00000000000E+00 0.  1.
         11    1    3    3    0    0  0.51213851839E+00  0.67108933383E+01  0.46553955409E+01  0.81835862044E+01  0.51100000000E-03 0.  1.
        -11    1    3    3    0    0  0.79642331075E+01  0.16045712956E+02  0.31035341840E+02  0.35834150703E+02  0.51100000000E-03 0. -1.
         12    1    3    3    0    0 -0.60926822582E+00  0.91148197511E+00  0.18198449798E+01  0.21245806439E+01  0.00000000000E+00 0. -1.
</event>
<event>
 7    1  0.1543346E-008  0.4614232E+02  0.7816164E-02  0.1320468E+00
        -11   -1    0    0    0    0  0.00000000000E+00  0.00000000000E+00  0.45593999997E+02  0.45594000000E+02  0.51100000000E-03 0.  1.
         11   -1    0    0    0    0 -0.00000000000E+00 -0.00000000000E+00 -0.45593999997E+02  0.45594000000E+02  0.51100000000E-03 0. -1.
    9900012    2    1    2    0    0 -0.15926897100E+02  0.25834413236E+00 -0.42135266401E+02  0.46142317991E+02  0.10000002097E+02 0.  0.
        -12    1    1    2    0    0  0.15926897100E+02 -0.25834413236E+00  0.42135266401E+02  0.45045682009E+02  0.00000000000E+00 0.  1.
         11    1    3    3    0    0 -0.15443734147E+01 -0.88630921095E+00 -0.42618459331E+01  0.46188704550E+01  0.51100000000E-03 0. -1.
        -11    1    3    3    0    0 -0.13644312850E+02  0.28766061866E+01 -0.26014760514E+02  0.29516265027E+02  0.51100000000E-03 0.  1.
        -12    1    3    3    0    0 -0.73821083558E+00 -0.17319528433E+01 -0.11858659954E+02  0.12007182509E+02  0.00000000000E+00 0.  1.
</event>
<event>
 7    1  0.1543346E-008  0.4614232E+02  0.7816164E-02  0.1320468E+00
        -11   -1    0    0    0    0  0.00000000000E+00  0.00000000000E+00  0.45593999997E+02  0.45594000000E+02  0.51100000000E-03 0.  1.
         11   -1    0    0    0    0 -0.00000000000E+00 -0.00000000000E+00 -0.45593999997E+02  0.45594000000E+02  0.51100000000E-03 0. -1.
    9900012    2    1    2    0    0 -0.14847631766E+02 -0.45340270895E+01 -0.42285977796E+02  0.46142317756E+02  0.99999999489E+01 0.  0.
        -12    1    1    2    0    0  0.14847631766E+02  0.45340270895E+01  0.42285977796E+02  0.45045682244E+02  0.00000000000E+00 0.  1.
         11    1    3    3    0    0 -0.12106815640E+02 -0.22133111689E+01 -0.35352677709E+02  0.37433748847E+02  0.51100000000E-03 0. -1.
        -11    1    3    3    0    0 -0.22689282557E+01 -0.84170547040E+00 -0.10749777756E+01  0.26480334227E+01  0.51100000000E-03 0.  1.
         12    1    3    3    0    0 -0.47188787076E+00 -0.14790104502E+01 -0.58583223109E+01  0.60605354856E+01  0.00000000000E+00 0. -1.
</event>
<event>
 7    1  0.1543346E-008  0.4614232E+02  0.7816164E-02  0.1320468E+00
        -11   -1    0    0    0    0  0.00000000000E+00  0.00000000000E+00  0.45593999997E+02  0.45594000000E+02  0.51100000000E-03 0.  1.
         11   -1    0    0    0    0 -0.00000000000E+00 -0.00000000000E+00 -0.45593999997E+02  0.45594000000E+02  0.51100000000E-03 0. -1.
    9900012    2    1    2    0    0  0.49477794767E+01  0.39248485098E+02 -0.21545056037E+02  0.46142317145E+02  0.99999943799E+01 0.  0.
        -12    1    1    2    0    0 -0.49477794767E+01 -0.39248485098E+02  0.21545056037E+02  0.45045682855E+02  0.00000000000E+00 0.  1.
         11    1    3    3    0    0  0.15730920641E+01  0.86012103350E+01 -0.93148179808E+00  0.87933552453E+01  0.51100000000E-03 0. -1.
        -11    1    3    3    0    0  0.43714846386E+01  0.26648017362E+02 -0.17427160394E+02  0.32139269234E+02  0.51100000000E-03 0.  1.
        -12    1    3    3    0    0 -0.99679722601E+00  0.39992574010E+01 -0.31864138457E+01  0.52096926651E+01  0.00000000000E+00 0.  1.
</event>
<event>
 7    1  0.1543346E-008  0.4614232E+02  0.7816164E-02  0.1320468E+00
        -11   -1    0    0    0    0  0.00000000000E+00  0.00000000000E+00  0.45593999997E+02  0.45594000000E+02  0.51100000000E-03 0.  1.
         11   -1    0    0    0    0 -0.00000000000E+00 -0.00000000000E+00 -0.45593999997E+02  0.45594000000E+02  0.51100000000E-03 0. -1.
    9900012    2    1    2    0    0  0.17760915425E+02  0.37535799192E+02 -0.17456438117E+02  0.46142316861E+02  0.99999917956E+01 0.  0.
        -12    1    1    2    0    0 -0.17760915425E+02 -0.37535799192E+02  0.17456438117E+02  0.45045683139E+02  0.00000000000E+00 0.  1.
         11    1    3    3    0    0  0.71513489551E+01  0.94280717227E+01 -0.55739070974E+01  0.13080472808E+02  0.51100000000E-03 0. -1.
        -11    1    3    3    0    0  0.41060587857E+01  0.18152584986E+02 -0.96451720008E+01  0.20961999037E+02  0.51100000000E-03 0.  1.
        -12    1    3    3    0    0  0.65035076842E+01  0.99551424827E+01 -0.22373590190E+01  0.12099845017E+02  0.00000000000E+00 0.  1.
</event>
<event>
 7    1  0.1543346E-008  0.4614232E+02  0.7816164E-02  0.1320468E+00
        -11   -1    0    0    0    0  0.00000000000E+00  0.00000000000E+00  0.45593999997E+02  0.45594000000E+02  0.51100000000E-03 0.  1.
         11   -1    0    0    0    0 -0.00000000000E+00 -0.00000000000E+00 -0.45593999997E+02  0.45594000000E+02  0.51100000000E-03 0. -1.
    9900012    2    1    2    0    0  0.40493040801E+01  0.24927586098E+02 -0.37300563795E+02  0.46142317947E+02  0.10000001694E+02 0.  0.
        -12    1    1    2    0    0 -0.40493040801E+01 -0.24927586098E+02  0.37300563795E+02  0.45045682053E+02  0.00000000000E+00 0.  1.
         11    1    3    3    0    0 -0.64662306741E+00  0.96838857062E+00 -0.22587271696E+01  0.25412096534E+01  0.51100000000E-03 0.  1.
        -11    1    3    3    0    0  0.25052136494E+00  0.18462990548E+02 -0.28567187205E+02  0.34015128487E+02  0.51100000000E-03 0. -1.
        -12    1    3    3    0    0  0.44454057826E+01  0.54962069790E+01 -0.64746494207E+01  0.95859798065E+01  0.00000000000E+00 0.  1.
</event>
<event>
 7    1  0.1543346E-008  0.4614231E+02  0.7816164E-02  0.1320468E+00
        -11   -1    0    0    0    0  0.00000000000E+00  0.00000000000E+00  0.45593999997E+02  0.45594000000E+02  0.51100000000E-03 0. -1.
         11   -1    0    0    0    0 -0.00000000000E+00 -0.00000000000E+00 -0.45593999997E+02  0.45594000000E+02  0.51100000000E-03 0.  1.
    9900012    2    1    2    0    0  0.21103615131E+02  0.39795933414E+02 -0.18697491534E+00  0.46142313775E+02  0.99999636512E+01 0.  0.
        -12    1    1    2    0    0 -0.21103615131E+02 -0.39795933414E+02  0.18697491534E+00  0.45045686225E+02  0.00000000000E+00 0.  1.
         11    1    3    3    0    0  0.63091008749E+01  0.54510854219E+01 -0.80894858995E+00  0.83769615141E+01  0.51100000000E-03 0. -1.
        -11    1    3    3    0    0  0.36156323836E+00  0.12117040844E+00 -0.47186271720E+00  0.60668354867E+00  0.51100000000E-03 0.  1.
         12    1    3    3    0    0  0.14432951017E+02  0.34223677584E+02  0.10938363918E+01  0.37158668712E+02  0.00000000000E+00 0. -1.
</event>
<event>
 7    1  0.1543346E-008  0.4614232E+02  0.7816164E-02  0.1320468E+00
        -11   -1    0    0    0    0  0.00000000000E+00  0.00000000000E+00  0.45593999997E+02  0.45594000000E+02  0.51100000000E-03 0.  1.
         11   -1    0    0    0    0 -0.00000000000E+00 -0.00000000000E+00 -0.45593999997E+02  0.45594000000E+02  0.51100000000E-03 0. -1.
    9900012    2    1    2    0    0 -0.41942502391E+02 -0.15516280012E+02  0.54023202358E+01  0.46142317453E+02  0.99999971895E+01 0.  0.
        -12    1    1    2    0    0  0.41942502391E+02  0.15516280012E+02 -0.54023202358E+01  0.45045682547E+02  0.00000000000E+00 0.  1.
         11    1    3    3    0    0 -0.12759602803E+02 -0.18493782098E+01  0.71377702875E+00  0.12912673672E+02  0.51100000000E-03 0. -1.
        -11    1    3    3    0    0 -0.24862122387E+02 -0.13981062881E+02  0.46309672295E+01  0.28897077821E+02  0.51100000000E-03 0.  1.
        -12    1    3    3    0    0 -0.43207772007E+01  0.31416107873E+00  0.57575977520E-01  0.43325659597E+01  0.00000000000E+00 0.  1.
</event>
<event>
 7    1  0.1543346E-008  0.4614232E+02  0.7816164E-02  0.1320468E+00
        -11   -1    0    0    0    0  0.00000000000E+00  0.00000000000E+00  0.45593999997E+02  0.45594000000E+02  0.51100000000E-03 0. -1.
         11   -1    0    0    0    0 -0.00000000000E+00 -0.00000000000E+00 -0.45593999997E+02  0.45594000000E+02  0.51100000000E-03 0.  1.
    9900012    2    1    2    0    0 -0.41834454664E+02  0.15325889251E+02 -0.66414682624E+01  0.46142316755E+02  0.99999908218E+01 0.  0.
        -12    1    1    2    0    0  0.41834454664E+02 -0.15325889251E+02  0.66414682624E+01  0.45045683245E+02  0.00000000000E+00 0.  1.
         11    1    3    3    0    0 -0.29495597639E+00 -0.49653993314E+00  0.24622798762E+00  0.62783709370E+00  0.51100000000E-03 0.  1.
        -11    1    3    3    0    0 -0.16133005353E+02  0.49823996003E+01  0.59904957254E+00  0.16895473599E+02  0.51100000000E-03 0. -1.
         12    1    3    3    0    0 -0.25406493335E+02  0.10840029583E+02 -0.74867458226E+01  0.28619006062E+02  0.00000000000E+00 0. -1.
</event>
<event>
 7    1  0.1543346E-008  0.4614232E+02  0.7816164E-02  0.1320468E+00
        -11   -1    0    0    0    0  0.00000000000E+00  0.00000000000E+00  0.45593999997E+02  0.45594000000E+02  0.51100000000E-03 0.  1.
         11   -1    0    0    0    0 -0.00000000000E+00 -0.00000000000E+00 -0.45593999997E+02  0.45594000000E+02  0.51100000000E-03 0. -1.
    9900012    2    1    2    0    0  0.59087719531E+01 -0.19398896195E+02 -0.40222912327E+02  0.46142318346E+02  0.10000005335E+02 0.  0.
        -12    1    1    2    0    0 -0.59087719531E+01  0.19398896195E+02  0.40222912327E+02  0.45045681654E+02  0.00000000000E+00 0.  1.
         11    1    3    3    0    0  0.52007590146E+01 -0.15566114367E+02 -0.33185902324E+02  0.37022370591E+02  0.51100000000E-03 0. -1.
        -11    1    3    3    0    0  0.68327308164E+00 -0.47374013895E+01 -0.51718049119E+01  0.70468007164E+01  0.51100000000E-03 0.  1.
        -12    1    3    3    0    0  0.24739856819E-01  0.90461956219E+00 -0.18652050915E+01  0.20731470392E+01  0.00000000000E+00 0.  1.
</event>
<event>
 7    1  0.1543346E-008  0.4614232E+02  0.7816164E-02  0.1320468E+00
        -11   -1    0    0    0    0  0.00000000000E+00  0.00000000000E+00  0.45593999997E+02  0.45594000000E+02  0.51100000000E-03 0. -1.
         11   -1    0    0    0    0 -0.00000000000E+00 -0.00000000000E+00 -0.45593999997E+02  0.45594000000E+02  0.51100000000E-03 0.  1.
    9900012    2    1    2    0    0 -0.46800571829E+01  0.19177410106E+02  0.40489967454E+02  0.46142318098E+02  0.10000003072E+02 0.  0.
        -12    1    1    2    0    0  0.46800571829E+01 -0.19177410106E+02 -0.40489967454E+02  0.45045681902E+02  0.00000000000E+00 0.  1.
         11    1    3    3    0    0  0.47798264614E+00  0.33417723419E+01  0.13819236740E+02  0.14225583086E+02  0.51100000000E-03 0. -1.
        -11    1    3    3    0    0 -0.53802585527E+01  0.81220240451E+01  0.13432821365E+02  0.16593828575E+02  0.51100000000E-03 0.  1.
        -12    1    3    3    0    0  0.22221872364E+00  0.77136137186E+01  0.13237909349E+02  0.15322906437E+02  0.00000000000E+00 0.  1.
</event>
<event>
 7    1  0.1543346E-008  0.4614232E+02  0.7816164E-02  0.1320468E+00
        -11   -1    0    0    0    0  0.00000000000E+00  0.00000000000E+00  0.45593999997E+02  0.45594000000E+02  0.51100000000E-03 0.  1.
         11   -1    0    0    0    0 -0.00000000000E+00 -0.00000000000E+00 -0.45593999997E+02  0.45594000000E+02  0.51100000000E-03 0. -1.
    9900012    2    1    2    0    0 -0.16482858169E+02  0.12618594999E+02 -0.39977494215E+02  0.46142316557E+02  0.99999890224E+01 0.  0.
        -12    1    1    2    0    0  0.16482858169E+02 -0.12618594999E+02  0.39977494215E+02  0.45045683443E+02  0.00000000000E+00 0.  1.
         11    1    3    3    0    0 -0.62588855580E+01  0.18976480905E+01 -0.89150332882E+01  0.11056786852E+02  0.51100000000E-03 0. -1.
        -11    1    3    3    0    0 -0.90571538500E+01  0.47860860888E+01 -0.20374099473E+02  0.22804442232E+02  0.51100000000E-03 0.  1.
        -12    1    3    3    0    0 -0.11668187605E+01  0.59348608194E+01 -0.10688361454E+02  0.12281087473E+02  0.00000000000E+00 0.  1.
</event>
<event>
 7    1  0.1543346E-008  0.4614232E+02  0.7816164E-02  0.1320468E+00
        -11   -1    0    0    0    0  0.00000000000E+00  0.00000000000E+00  0.45593999997E+02  0.45594000000E+02  0.51100000000E-03 0.  1.
         11   -1    0    0    0    0 -0.00000000000E+00 -0.00000000000E+00 -0.45593999997E+02  0.45594000000E+02  0.51100000000E-03 0. -1.
    9900012    2    1    2    0    0 -0.13429853447E+02 -0.42862802457E+02  0.33959694855E+01  0.46142318666E+02  0.10000008253E+02 0.  0.
        -12    1    1    2    0    0  0.13429853447E+02  0.42862802457E+02 -0.33959694855E+01  0.45045681334E+02  0.00000000000E+00 0.  1.
         11    1    3    3    0    0 -0.13648118982E+02 -0.29913460805E+02  0.29731315787E+01  0.33014024304E+02  0.51100000000E-03 0. -1.
        -11    1    3    3    0    0 -0.19467148058E+00 -0.83850965301E+01 -0.67905901104E+00  0.84148001881E+01  0.51100000000E-03 0.  1.
         12    1    3    3    0    0  0.41293701601E+00 -0.45642451220E+01  0.11018969178E+01  0.47134941743E+01  0.00000000000E+00 0. -1.
</event>
<event>
 7    1  0.1543346E-008  0.4614232E+02  0.7816164E-02  0.1320468E+00
        -11   -1    0    0    0    0  0.00000000000E+00  0.00000000000E+00  0.45593999997E+02  0.45594000000E+02  0.51100000000E-03 0. -1.
         11   -1    0    0    0    0 -0.00000000000E+00 -0.00000000000E+00 -0.45593999997E+02  0.45594000000E+02  0.51100000000E-03 0.  1.
    9900012    2    1    2    0    0  0.26457547931E+02  0.36819945788E+00  0.36455127214E+02  0.46142315261E+02  0.99999772058E+01 0.  0.
        -12    1    1    2    0    0 -0.26457547931E+02 -0.36819945788E+00 -0.36455127214E+02  0.45045684739E+02  0.00000000000E+00 0.  1.
         11    1    3    3    0    0  0.11550234288E+02 -0.30774004495E+01  0.10897831612E+02  0.16175321936E+02  0.51100000000E-03 0. -1.
        -11    1    3    3    0    0  0.36067855421E+01  0.17429407015E+01  0.46278461805E+01  0.61207601462E+01  0.51100000000E-03 0.  1.
        -12    1    3    3    0    0  0.11300528101E+02  0.17026592058E+01  0.20929449422E+02  0.23846233179E+02  0.00000000000E+00 0.  1.
</event>
<event>
 7    1  0.1543346E-008  0.4614233E+02  0.7816164E-02  0.1320468E+00
        -11   -1    0    0    0    0  0.00000000000E+00  0.00000000000E+00  0.45593999997E+02  0.45594000000E+02  0.51100000000E-03 0.  1.
         11   -1    0    0    0    0 -0.00000000000E+00 -0.00000000000E+00 -0.45593999997E+02  0.45594000000E+02  0.51100000000E-03 0. -1.
    9900012    2    1    2    0    0 -0.36465076239E+02 -0.24629280100E+02 -0.96337718060E+01  0.46142325596E+02  0.10000071441E+02 0.  0.
        -12    1    1    2    0    0  0.36465076239E+02  0.24629280100E+02  0.96337718060E+01  0.45045674404E+02  0.00000000000E+00 0.  1.
         11    1    3    3    0    0 -0.27261841827E+02 -0.17072344941E+02 -0.86446474829E+01  0.33307700490E+02  0.51100000000E-03 0. -1.
        -11    1    3    3    0    0 -0.38557136861E+01 -0.42562964861E+00 -0.15699720191E+00  0.38823107822E+01  0.51100000000E-03 0.  1.
         12    1    3    3    0    0 -0.53475207252E+01 -0.71313055108E+01 -0.83212712113E+00  0.89523143231E+01  0.00000000000E+00 0. -1.
</event>
<event>
 7    1  0.1543346E-008  0.4614232E+02  0.7816164E-02  0.1320468E+00
        -11   -1    0    0    0    0  0.00000000000E+00  0.00000000000E+00  0.45593999997E+02  0.45594000000E+02  0.51100000000E-03 0.  1.
         11   -1    0    0    0    0 -0.00000000000E+00 -0.00000000000E+00 -0.45593999997E+02  0.45594000000E+02  0.51100000000E-03 0. -1.
    9900012    2    1    2    0    0  0.27868455943E+02  0.99391368908E+01 -0.33965809339E+02  0.46142317822E+02  0.10000000555E+02 0.  0.
        -12    1    1    2    0    0 -0.27868455943E+02 -0.99391368908E+01  0.33965809339E+02  0.45045682178E+02  0.00000000000E+00 0.  1.
         11    1    3    3    0    0  0.20823036022E+02  0.31797019133E+01 -0.20627989911E+02  0.29482593194E+02  0.51100000000E-03 0. -1.
        -11    1    3    3    0    0  0.12832771233E+01  0.18722635733E+01 -0.44416270704E+01  0.49880078545E+01  0.51100000000E-03 0.  1.
        -12    1    3    3    0    0  0.57621427976E+01  0.48871714041E+01 -0.88961923583E+01  0.11671716773E+02  0.00000000000E+00 0.  1.
</event>
<event>
 7    1  0.1543346E-008  0.4614232E+02  0.7816164E-02  0.1320468E+00
        -11   -1    0    0    0    0  0.00000000000E+00  0.00000000000E+00  0.45593999997E+02  0.45594000000E+02  0.51100000000E-03 0.  1.
         11   -1    0    0    0    0 -0.00000000000E+00 -0.00000000000E+00 -0.45593999997E+02  0.45594000000E+02  0.51100000000E-03 0. -1.
    9900012    2    1    2    0    0  0.11121759390E+02  0.59452678145E+01 -0.43244349749E+02  0.46142317338E+02  0.99999961415E+01 0.  0.
        -12    1    1    2    0    0 -0.11121759390E+02 -0.59452678145E+01  0.43244349749E+02  0.45045682662E+02  0.00000000000E+00 0.  1.
         11    1    3    3    0    0  0.16916147077E+01  0.46818360946E+01 -0.11150873991E+02  0.12211598608E+02  0.51100000000E-03 0. -1.
        -11    1    3    3    0    0  0.82610298629E+01  0.26881716724E+00 -0.30900058492E+02  0.31986411055E+02  0.51100000000E-03 0.  1.
        -12    1    3    3    0    0  0.11691148189E+01  0.99461455271E+00 -0.11934172658E+01  0.19443076759E+01  0.00000000000E+00 0.  1.
</event>
<event>
 7    1  0.1543346E-008  0.4614232E+02  0.7816164E-02  0.1320468E+00
        -11   -1    0    0    0    0  0.00000000000E+00  0.00000000000E+00  0.45593999997E+02  0.45594000000E+02  0.51100000000E-03 0. -1.
         11   -1    0    0    0    0 -0.00000000000E+00 -0.00000000000E+00 -0.45593999997E+02  0.45594000000E+02  0.51100000000E-03 0.  1.
    9900012    2    1    2    0    0 -0.14194113109E+02 -0.37692320869E+02  0.20172497958E+02  0.46142316818E+02  0.99999913972E+01 0.  0.
        -12    1    1    2    0    0  0.14194113109E+02  0.37692320869E+02 -0.20172497958E+02  0.45045683182E+02  0.00000000000E+00 0.  1.
         11    1    3    3    0    0  0.64561282682E-01 -0.44337130906E+01  0.27327738829E+01  0.52086498524E+01  0.51100000000E-03 0. -1.
        -11    1    3    3    0    0 -0.34287694648E+01 -0.13103976533E+02  0.10130736156E+02  0.16914564031E+02  0.51100000000E-03 0.  1.
         12    1    3    3    0    0 -0.10829904927E+02 -0.20154631246E+02  0.73089879196E+01  0.24019102935E+02  0.00000000000E+00 0. -1.
</event>
<event>
 7    1  0.1543346E-008  0.4614232E+02  0.7816164E-02  0.1320468E+00
        -11   -1    0    0    0    0  0.00000000000E+00  0.00000000000E+00  0.45593999997E+02  0.45594000000E+02  0.51100000000E-03 0.  1.
         11   -1    0    0    0    0 -0.00000000000E+00 -0.00000000000E+00 -0.45593999997E+02  0.45594000000E+02  0.51100000000E-03 0. -1.
    9900012    2    1    2    0    0 -0.31161200203E+02 -0.32142474019E+02 -0.49954439455E+01  0.46142317695E+02  0.99999993945E+01 0.  0.
        -12    1    1    2    0    0  0.31161200203E+02  0.32142474019E+02  0.49954439455E+01  0.45045682305E+02  0.00000000000E+00 0.  1.
         11    1    3    3    0    0 -0.18797185632E+02 -0.23827896107E+02 -0.41521055854E+01  0.30632381586E+02  0.51100000000E-03 0. -1.
        -11    1    3    3    0    0 -0.55370679839E+00  0.46143707657E+00 -0.31459505937E+00  0.78643862235E+00  0.51100000000E-03 0.  1.
         12    1    3    3    0    0 -0.11810307772E+02 -0.87760149885E+01 -0.52874330069E+00  0.14723497486E+02  0.00000000000E+00 0. -1.
</event>
<event>
 7    1  0.1656062E-008  0.4614232E+02  0.7816164E-02  0.1320468E+00
        -11   -1    0    0    0    0  0.00000000000E+00  0.00000000000E+00  0.45593999997E+02  0.45594000000E+02  0.51100000000E-03 0.  1.
         11   -1    0    0    0    0 -0.00000000000E+00 -0.00000000000E+00 -0.45593999997E+02  0.45594000000E+02  0.51100000000E-03 0. -1.
    9900012    2    1    2    0    0  0.13083688223E+02  0.37496913563E+02 -0.21258222501E+02  0.46142318207E+02  0.10000004069E+02 0.  0.
        -12    1    1    2    0    0 -0.13083688223E+02 -0.37496913563E+02  0.21258222501E+02  0.45045681793E+02  0.00000000000E+00 0.  1.
         11    1    3    3    0    0  0.88541690503E+01  0.20807885548E+02 -0.86921967795E+01  0.24226404926E+02  0.51100000000E-03 0. -1.
        -11    1    3    3    0    0  0.96124902649E+00  0.14327251364E+00 -0.13423019647E+01  0.16571968892E+01  0.51100000000E-03 0.  1.
         12    1    3    3    0    0  0.32682701457E+01  0.16545755502E+02 -0.11223723757E+02  0.20258716392E+02  0.00000000000E+00 0. -1.
</event>
<event>
 7    1  0.1543346E-008  0.4614232E+02  0.7816164E-02  0.1320468E+00
        -11   -1    0    0    0    0  0.00000000000E+00  0.00000000000E+00  0.45593999997E+02  0.45594000000E+02  0.51100000000E-03 0.  1.
         11   -1    0    0    0    0 -0.00000000000E+00 -0.00000000000E+00 -0.45593999997E+02  0.45594000000E+02  0.51100000000E-03 0. -1.
    9900012    2    1    2    0    0  0.37829174633E+02  0.24283405635E+02 -0.28954106901E+01  0.46142316015E+02  0.99999840750E+01 0.  0.
        -12    1    1    2    0    0 -0.37829174633E+02 -0.24283405635E+02  0.28954106901E+01  0.45045683985E+02  0.00000000000E+00 0.  1.
         11    1    3    3    0    0  0.18219947982E+02  0.66297786473E+01 -0.32604631705E+01  0.19660902567E+02  0.51100000000E-03 0.  1.
        -11    1    3    3    0    0  0.15957029167E+02  0.15313837751E+02  0.73094180360E+00  0.22128594232E+02  0.51100000000E-03 0. -1.
        -12    1    3    3    0    0  0.36521974836E+01  0.23397892360E+01 -0.36588932323E+00  0.43528192158E+01  0.00000000000E+00 0.  1.
</event>
<event>
 7    1  0.1543346E-008  0.4614232E+02  0.7816164E-02  0.1320468E+00
        -11   -1    0    0    0    0  0.00000000000E+00  0.00000000000E+00  0.45593999997E+02  0.45594000000E+02  0.51100000000E-03 0. -1.
         11   -1    0    0    0    0 -0.00000000000E+00 -0.00000000000E+00 -0.45593999997E+02  0.45594000000E+02  0.51100000000E-03 0.  1.
    9900012    2    1    2    0    0 -0.28160867544E+02 -0.93052511191E+01  0.33904149150E+02  0.46142317756E+02  0.99999999506E+01 0.  0.
        -12    1    1    2    0    0  0.28160867544E+02  0.93052511191E+01 -0.33904149150E+02  0.45045682244E+02  0.00000000000E+00 0.  1.
         11    1    3    3    0    0 -0.15783476411E+02 -0.83433942865E+01  0.22900698529E+02  0.29037430141E+02  0.51100000000E-03 0. -1.
        -11    1    3    3    0    0 -0.10209763669E+02 -0.57925433410E+00  0.10832833385E+02  0.14897150370E+02  0.51100000000E-03 0.  1.
        -12    1    3    3    0    0 -0.21676274649E+01 -0.38260249850E+00  0.17061723699E+00  0.22077372444E+01  0.00000000000E+00 0.  1.
</event>
<event>
 7    1  0.1543346E-008  0.4614232E+02  0.7816164E-02  0.1320468E+00
        -11   -1    0    0    0    0  0.00000000000E+00  0.00000000000E+00  0.45593999997E+02  0.45594000000E+02  0.51100000000E-03 0.  1.
         11   -1    0    0    0    0 -0.00000000000E+00 -0.00000000000E+00 -0.45593999997E+02  0.45594000000E+02  0.51100000000E-03 0. -1.
    9900012    2    1    2    0    0  0.13352050852E+02 -0.22874172736E+02 -0.36436361847E+02  0.46142317577E+02  0.99999983167E+01 0.  0.
        -12    1    1    2    0    0 -0.13352050852E+02  0.22874172736E+02  0.36436361847E+02  0.45045682423E+02  0.00000000000E+00 0.  1.
         11    1    3    3    0    0  0.38046016094E+01 -0.45661897324E+01 -0.11304937366E+02  0.12772105981E+02  0.51100000000E-03 0. -1.
        -11    1    3    3    0    0  0.54004553911E+01 -0.32186650742E+01 -0.65935685227E+01  0.91104264124E+01  0.51100000000E-03 0.  1.
        -12    1    3    3    0    0  0.41469938518E+01 -0.15089317930E+02 -0.18537855958E+02  0.24259785183E+02  0.00000000000E+00 0.  1.
</event>
<event>
 7    1  0.1543346E-008  0.4614231E+02  0.7816164E-02  0.1320468E+00
        -11   -1    0    0    0    0  0.00000000000E+00  0.00000000000E+00  0.45593999997E+02  0.45594000000E+02  0.51100000000E-03 0. -1.
         11   -1    0    0    0    0 -0.00000000000E+00 -0.00000000000E+00 -0.45593999997E+02  0.45594000000E+02  0.51100000000E-03 0.  1.
    9900012    2    1    2    0    0 -0.43830872435E+02 -0.13492998563E+01  0.10302832299E+02  0.46142308287E+02  0.99999136040E+01 0.  0.
        -12    1    1    2    0    0  0.43830872435E+02  0.13492998563E+01 -0.10302832299E+02  0.45045691713E+02  0.00000000000E+00 0.  1.
         11    1    3    3    0    0 -0.85023516806E+01  0.19492486263E+01  0.22223365908E+01  0.90015740008E+01  0.51100000000E-03 0. -1.
        -11    1    3    3    0    0 -0.19586329218E+02  0.81445538732E+00  0.70683744824E+01  0.20838655137E+02  0.51100000000E-03 0.  1.
        -12    1    3    3    0    0 -0.15742191537E+02 -0.41130038698E+01  0.10121212256E+01  0.16302079149E+02  0.00000000000E+00 0.  1.
</event>
<event>
 7    1  0.1543346E-008  0.4614232E+02  0.7816164E-02  0.1320468E+00
        -11   -1    0    0    0    0  0.00000000000E+00  0.00000000000E+00  0.45593999997E+02  0.45594000000E+02  0.51100000000E-03 0.  1.
         11   -1    0    0    0    0 -0.00000000000E+00 -0.00000000000E+00 -0.45593999997E+02  0.45594000000E+02  0.51100000000E-03 0. -1.
    9900012    2    1    2    0    0  0.20873840304E+02 -0.37252833327E+02 -0.14339550325E+02  0.46142317594E+02  0.99999984733E+01 0.  0.
        -12    1    1    2    0    0 -0.20873840304E+02  0.37252833327E+02  0.14339550325E+02  0.45045682406E+02  0.00000000000E+00 0.  1.
         11    1    3    3    0    0  0.54027262147E+01 -0.13615758221E+02 -0.35092082902E+01  0.15062963373E+02  0.51100000000E-03 0. -1.
        -11    1    3    3    0    0  0.54496462913E+00 -0.19710534391E+01  0.94721282153E+00  0.22537192587E+01  0.51100000000E-03 0.  1.
        -12    1    3    3    0    0  0.14926149460E+02 -0.21666021667E+02 -0.11777554856E+02  0.28825634962E+02  0.00000000000E+00 0.  1.
</event>
<event>
 7    1  0.1543346E-008  0.4614232E+02  0.7816164E-02  0.1320468E+00
        -11   -1    0    0    0    0  0.00000000000E+00  0.00000000000E+00  0.45593999997E+02  0.45594000000E+02  0.51100000000E-03 0.  1.
         11   -1    0    0    0    0 -0.00000000000E+00 -0.00000000000E+00 -0.45593999997E+02  0.45594000000E+02  0.51100000000E-03 0. -1.
    9900012    2    1    2    0    0 -0.17173981260E+02  0.12790405172E+02 -0.39630462611E+02  0.46142315817E+02  0.99999822711E+01 0.  0.
        -12    1    1    2    0    0  0.17173981260E+02 -0.12790405172E+02  0.39630462611E+02  0.45045684183E+02  0.00000000000E+00 0.  1.
         11    1    3    3    0    0 -0.12842314330E+02  0.79474587167E+01 -0.18827254607E+02  0.24136127562E+02  0.51100000000E-03 0. -1.
        -11    1    3    3    0    0 -0.22193642304E+01  0.35331508886E+01 -0.86788730255E+01  0.96297232589E+01  0.51100000000E-03 0.  1.
        -12    1    3    3    0    0 -0.21123026994E+01  0.13097955665E+01 -0.12124334979E+02  0.12376464996E+02  0.00000000000E+00 0.  1.
</event>
<event>
 7    1  0.1543346E-008  0.4614232E+02  0.7816164E-02  0.1320468E+00
        -11   -1    0    0    0    0  0.00000000000E+00  0.00000000000E+00  0.45593999997E+02  0.45594000000E+02  0.51100000000E-03 0.  1.
         11   -1    0    0    0    0 -0.00000000000E+00 -0.00000000000E+00 -0.45593999997E+02  0.45594000000E+02  0.51100000000E-03 0. -1.
    9900012    2    1    2    0    0 -0.37806287112E+02  0.19098281769E+02 -0.15331464307E+02  0.46142317526E+02  0.99999978586E+01 0.  0.
        -12    1    1    2    0    0  0.37806287112E+02 -0.19098281769E+02  0.15331464307E+02  0.45045682474E+02  0.00000000000E+00 0.  1.
         11    1    3    3    0    0 -0.32109622398E+02  0.14086066016E+02 -0.89367760820E+01  0.36184403730E+02  0.51100000000E-03 0. -1.
        -11    1    3    3    0    0 -0.42842408853E+01  0.33913668670E+01 -0.49013386992E+01  0.73402459424E+01  0.51100000000E-03 0.  1.
         12    1    3    3    0    0 -0.14124238291E+01  0.16208488868E+01 -0.14933495254E+01  0.26176678536E+01  0.00000000000E+00 0. -1.
</event>
<event>
 7    1  0.1543346E-008  0.4614232E+02  0.7816164E-02  0.1320468E+00
        -11   -1    0    0    0    0  0.00000000000E+00  0.00000000000E+00  0.45593999997E+02  0.45594000000E+02  0.51100000000E-03 0. -1.
         11   -1    0    0    0    0 -0.00000000000E+00 -0.00000000000E+00 -0.45593999997E+02  0.45594000000E+02  0.51100000000E-03 0.  1.
    9900012    2    1    2    0    0 -0.10350728374E+02  0.42514435667E+02 -0.10700400455E+02  0.46142318877E+02  0.10000010175E+02 0.  0.
        -12    1    1    2    0    0  0.10350728374E+02 -0.42514435667E+02  0.10700400455E+02  0.45045681123E+02  0.00000000000E+00 0.  1.
         11    1    3    3    0    0  0.41900821352E+00  0.16081786784E+00 -0.10075004307E+01  0.11029449889E+01  0.51100000000E-03 0. -1.
        -11    1    3    3    0    0 -0.10756931810E+01  0.12441756144E+01  0.20705589349E+00  0.16576975549E+01  0.51100000000E-03 0.  1.
         12    1    3    3    0    0 -0.96940434070E+01  0.41109442184E+02 -0.98999559182E+01  0.43381676333E+02  0.00000000000E+00 0. -1.
</event>
<event>
 7    1  0.1543346E-008  0.4614232E+02  0.7816164E-02  0.1320468E+00
        -11   -1    0    0    0    0  0.00000000000E+00  0.00000000000E+00  0.45593999997E+02  0.45594000000E+02  0.51100000000E-03 0.  1.
         11   -1    0    0    0    0 -0.00000000000E+00 -0.00000000000E+00 -0.45593999997E+02  0.45594000000E+02  0.51100000000E-03 0. -1.
    9900012    2    1    2    0    0  0.41486685132E+02  0.16318444263E+02 -0.64557575260E+01  0.46142317947E+02  0.10000001693E+02 0.  0.
        -12    1    1    2    0    0 -0.41486685132E+02 -0.16318444263E+02  0.64557575260E+01  0.45045682053E+02  0.00000000000E+00 0.  1.
         11    1    3    3    0    0  0.78451104713E+01  0.26268200912E+01 -0.48403979288E+01  0.95851653334E+01  0.51100000000E-03 0. -1.
        -11    1    3    3    0    0  0.17309229403E+02  0.83550486473E+01  0.62033148396E+00  0.19230212475E+02  0.51100000000E-03 0.  1.
         12    1    3    3    0    0  0.16332345258E+02  0.53365755244E+01 -0.22356910811E+01  0.17326940139E+02  0.00000000000E+00 0. -1.
</event>
<event>
 7    1  0.1543346E-008  0.4614232E+02  0.7816164E-02  0.1320468E+00
        -11   -1    0    0    0    0  0.00000000000E+00  0.00000000000E+00  0.45593999997E+02  0.45594000000E+02  0.51100000000E-03 0.  1.
         11   -1    0    0    0    0 -0.00000000000E+00 -0.00000000000E+00 -0.45593999997E+02  0.45594000000E+02  0.51100000000E-03 0. -1.
    9900012    2    1    2    0    0 -0.12074764784E+02  0.42531044185E+02 -0.86269282070E+01  0.46142317029E+02  0.99999933263E+01 0.  0.
        -12    1    1    2    0    0  0.12074764784E+02 -0.42531044185E+02  0.86269282070E+01  0.45045682971E+02  0.00000000000E+00 0.  1.
         11    1    3    3    0    0 -0.49511392870E+01  0.13075931349E+02  0.41953547945E-01  0.13981971293E+02  0.51100000000E-03 0. -1.
        -11    1    3    3    0    0 -0.30713251610E+01  0.50643948936E+01 -0.35680117392E+01  0.69146107566E+01  0.51100000000E-03 0.  1.
        -12    1    3    3    0    0 -0.40523003359E+01  0.24390717942E+02 -0.51008700157E+01  0.25245734979E+02  0.00000000000E+00 0.  1.
</event>
<event>
 7    1  0.1543346E-008  0.4614232E+02  0.7816164E-02  0.1320468E+00
        -11   -1    0    0    0    0  0.00000000000E+00  0.00000000000E+00  0.45593999997E+02  0.45594000000E+02  0.51100000000E-03 0.  1.
         11   -1    0    0    0    0 -0.00000000000E+00 -0.00000000000E+00 -0.45593999997E+02  0.45594000000E+02  0.51100000000E-03 0. -1.
    9900012    2    1    2    0    0 -0.32564233000E+02  0.52556035092E+01 -0.30676750006E+02  0.46142316189E+02  0.99999856604E+01 0.  0.
        -12    1    1    2    0    0  0.32564233000E+02 -0.52556035092E+01  0.30676750006E+02  0.45045683811E+02  0.00000000000E+00 0.  1.
         11    1    3    3    0    0 -0.62023675197E+01 -0.12573737894E+01 -0.72161111161E+01  0.95980524898E+01  0.51100000000E-03 0. -1.
        -11    1    3    3    0    0 -0.63371738907E+00  0.30671573175E+00 -0.30273472705E+01  0.31081351365E+01  0.51100000000E-03 0.  1.
         12    1    3    3    0    0 -0.25728148091E+02  0.62062615669E+01 -0.20433291619E+02  0.33436128562E+02  0.00000000000E+00 0. -1.
</event>
<event>
 7    1  0.1543346E-008  0.4614232E+02  0.7816164E-02  0.1320468E+00
        -11   -1    0    0    0    0  0.00000000000E+00  0.00000000000E+00  0.45593999997E+02  0.45594000000E+02  0.51100000000E-03 0. -1.
         11   -1    0    0    0    0 -0.00000000000E+00 -0.00000000000E+00 -0.45593999997E+02  0.45594000000E+02  0.51100000000E-03 0.  1.
    9900012    2    1    2    0    0  0.13231953344E+02 -0.24296293758E+02  0.35548825750E+02  0.46142317722E+02  0.99999996471E+01 0.  0.
        -12    1    1    2    0    0 -0.13231953344E+02  0.24296293758E+02 -0.35548825750E+02  0.45045682278E+02  0.00000000000E+00 0.  1.
         11    1    3    3    0    0  0.23125112473E+01 -0.73669553738E+01  0.14004754606E+02  0.15992275998E+02  0.51100000000E-03 0. -1.
        -11    1    3    3    0    0  0.77936794538E+01 -0.68494123376E+01  0.12552137010E+02  0.16285331823E+02  0.51100000000E-03 0.  1.
        -12    1    3    3    0    0  0.31257626428E+01 -0.10079926046E+02  0.89919341339E+01  0.13864709902E+02  0.00000000000E+00 0.  1.
</event>
<event>
 7    1  0.1543346E-008  0.4614232E+02  0.7816164E-02  0.1320468E+00
        -11   -1    0    0    0    0  0.00000000000E+00  0.00000000000E+00  0.45593999997E+02  0.45594000000E+02  0.51100000000E-03 0. -1.
         11   -1    0    0    0    0 -0.00000000000E+00 -0.00000000000E+00 -0.45593999997E+02  0.45594000000E+02  0.51100000000E-03 0.  1.
    9900012    2    1    2    0    0  0.29491576237E+02 -0.34015988109E+02 -0.15076374438E+01  0.46142317780E+02  0.10000000171E+02 0.  0.
        -12    1    1    2    0    0 -0.29491576237E+02  0.34015988109E+02  0.15076374438E+01  0.45045682220E+02  0.00000000000E+00 0.  1.
         11    1    3    3    0    0  0.10234462550E+02 -0.78932347961E+01  0.12186320260E+00  0.12925255515E+02  0.51100000000E-03 0. -1.
        -11    1    3    3    0    0  0.53266397132E+01 -0.79150268078E+01 -0.36225393209E+01  0.10205073806E+02  0.51100000000E-03 0.  1.
         12    1    3    3    0    0  0.13930473975E+02 -0.18207726505E+02  0.19930386744E+01  0.23011988458E+02  0.00000000000E+00 0. -1.
</event>
<event>
 7    1  0.1543346E-008  0.4614232E+02  0.7816164E-02  0.1320468E+00
        -11   -1    0    0    0    0  0.00000000000E+00  0.00000000000E+00  0.45593999997E+02  0.45594000000E+02  0.51100000000E-03 0. -1.
         11   -1    0    0    0    0 -0.00000000000E+00 -0.00000000000E+00 -0.45593999997E+02  0.45594000000E+02  0.51100000000E-03 0.  1.
    9900012    2    1    2    0    0  0.14375566510E+02  0.28829454669E+02  0.31485218820E+02  0.46142319040E+02  0.10000011662E+02 0.  0.
        -12    1    1    2    0    0 -0.14375566510E+02 -0.28829454669E+02 -0.31485218820E+02  0.45045680960E+02  0.00000000000E+00 0.  1.
         11    1    3    3    0    0  0.49408516171E+01  0.15923271621E+02  0.14578744846E+02  0.22147288669E+02  0.51100000000E-03 0. -1.
        -11    1    3    3    0    0  0.81509855769E+01  0.66291406023E+01  0.11820311226E+02  0.15814671313E+02  0.51100000000E-03 0.  1.
        -12    1    3    3    0    0  0.12837293156E+01  0.62770424461E+01  0.50861627473E+01  0.81803590580E+01  0.00000000000E+00 0.  1.
</event>
<event>
 7    1  0.1543346E-008  0.4614232E+02  0.7816164E-02  0.1320468E+00
        -11   -1    0    0    0    0  0.00000000000E+00  0.00000000000E+00  0.45593999997E+02  0.45594000000E+02  0.51100000000E-03 0. -1.
         11   -1    0    0    0    0 -0.00000000000E+00 -0.00000000000E+00 -0.45593999997E+02  0.45594000000E+02  0.51100000000E-03 0.  1.
    9900012    2    1    2    0    0  0.41327840139E+02 -0.15436732675E+02 -0.91011312597E+01  0.46142315673E+02  0.99999809625E+01 0.  0.
        -12    1    1    2    0    0 -0.41327840139E+02  0.15436732675E+02  0.91011312597E+01  0.45045684327E+02  0.00000000000E+00 0.  1.
         11    1    3    3    0    0  0.30515423344E+02 -0.92402725868E+01 -0.34982354984E+01  0.32075089263E+02  0.51100000000E-03 0. -1.
        -11    1    3    3    0    0  0.66193149301E+01 -0.55222914515E+01 -0.32548155029E+01  0.92143831719E+01  0.51100000000E-03 0.  1.
        -12    1    3    3    0    0  0.41931018649E+01 -0.67416863661E+00 -0.23480802584E+01  0.48528432387E+01  0.00000000000E+00 0.  1.
</event>
<event>
 7    1  0.1543346E-008  0.4614232E+02  0.7816164E-02  0.1320468E+00
        -11   -1    0    0    0    0  0.00000000000E+00  0.00000000000E+00  0.45593999997E+02  0.45594000000E+02  0.51100000000E-03 0.  1.
         11   -1    0    0    0    0 -0.00000000000E+00 -0.00000000000E+00 -0.45593999997E+02  0.45594000000E+02  0.51100000000E-03 0. -1.
    9900012    2    1    2    0    0  0.46145642953E+01 -0.22226824315E+02 -0.38907422787E+02  0.46142317958E+02  0.10000001793E+02 0.  0.
        -12    1    1    2    0    0 -0.46145642953E+01  0.22226824315E+02  0.38907422787E+02  0.45045682042E+02  0.00000000000E+00 0.  1.
         11    1    3    3    0    0  0.13399781249E+01 -0.15866916245E+02 -0.21123471229E+02  0.26452894162E+02  0.51100000000E-03 0. -1.
        -11    1    3    3    0    0  0.43491988740E+01 -0.54728997578E+01 -0.15656672404E+02  0.17146415183E+02  0.51100000000E-03 0.  1.
         12    1    3    3    0    0 -0.10746127036E+01 -0.88700831161E+00 -0.21272791531E+01  0.25430086124E+01  0.00000000000E+00 0. -1.
</event>
<event>
 7    1  0.1543346E-008  0.4614232E+02  0.7816164E-02  0.1320468E+00
        -11   -1    0    0    0    0  0.00000000000E+00  0.00000000000E+00  0.45593999997E+02  0.45594000000E+02  0.51100000000E-03 0.  1.
         11   -1    0    0    0    0 -0.00000000000E+00 -0.00000000000E+00 -0.45593999997E+02  0.45594000000E+02  0.51100000000E-03 0. -1.
    9900012    2    1    2    0    0  0.25568274207E+02  0.61745029061E+01 -0.36568461043E+02  0.46142317908E+02  0.10000001343E+02 0.  0.
        -12    1    1    2    0    0 -0.25568274207E+02 -0.61745029061E+01  0.36568461043E+02  0.45045682092E+02  0.00000000000E+00 0.  1.
         11    1    3    3    0    0  0.14074367457E+02  0.35242885068E+01 -0.16031933601E+02  0.21622472663E+02  0.51100000000E-03 0. -1.
        -11    1    3    3    0    0 -0.16954699377E+00  0.85972773841E-01  0.38534057112E+00  0.42968025066E+00  0.51100000000E-03 0.  1.
        -12    1    3    3    0    0  0.11663453743E+02  0.25642416254E+01 -0.20921868013E+02  0.24090164995E+02  0.00000000000E+00 0.  1.
</event>
<event>
 7    1  0.1543346E-008  0.4614232E+02  0.7816164E-02  0.1320468E+00
        -11   -1    0    0    0    0  0.00000000000E+00  0.00000000000E+00  0.45593999997E+02  0.45594000000E+02  0.51100000000E-03 0.  1.
         11   -1    0    0    0    0 -0.00000000000E+00 -0.00000000000E+00 -0.45593999997E+02  0.45594000000E+02  0.51100000000E-03 0. -1.
    9900012    2    1    2    0    0 -0.29829260222E+02  0.26719466754E+02 -0.20625199299E+02  0.46142317464E+02  0.99999972893E+01 0.  0.
        -12    1    1    2    0    0  0.29829260222E+02 -0.26719466754E+02  0.20625199299E+02  0.45045682536E+02  0.00000000000E+00 0.  1.
         11    1    3    3    0    0 -0.42338678884E+01  0.40399702321E+01 -0.38203845114E+01  0.69887291297E+01  0.51100000000E-03 0. -1.
        -11    1    3    3    0    0 -0.61637399912E+01  0.45862545313E+01 -0.82148709194E+01  0.11247645344E+02  0.51100000000E-03 0.  1.
        -12    1    3    3    0    0 -0.19431652343E+02  0.18093241991E+02 -0.85899438679E+01  0.27905942990E+02  0.00000000000E+00 0.  1.
</event>
<event>
 7    1  0.1543346E-008  0.4614232E+02  0.7816164E-02  0.1320468E+00
        -11   -1    0    0    0    0  0.00000000000E+00  0.00000000000E+00  0.45593999997E+02  0.45594000000E+02  0.51100000000E-03 0.  1.
         11   -1    0    0    0    0 -0.00000000000E+00 -0.00000000000E+00 -0.45593999997E+02  0.45594000000E+02  0.51100000000E-03 0. -1.
    9900012    2    1    2    0    0  0.23896652457E+02 -0.35899468859E+02 -0.13011210450E+02  0.46142318071E+02  0.10000002830E+02 0.  0.
        -12    1    1    2    0    0 -0.23896652457E+02  0.35899468859E+02  0.13011210450E+02  0.45045681929E+02  0.00000000000E+00 0.  1.
         11    1    3    3    0    0  0.76686907137E+01 -0.10507872588E+02 -0.66238498032E+01  0.14597931020E+02  0.51100000000E-03 0. -1.
        -11    1    3    3    0    0  0.25965015919E+00 -0.42027073785E+01 -0.19631853079E+01  0.46458868183E+01  0.51100000000E-03 0.  1.
        -12    1    3    3    0    0  0.15968311584E+02 -0.21188888893E+02 -0.44241753392E+01  0.26898500233E+02  0.00000000000E+00 0.  1.
</event>
<event>
 7    1  0.1543346E-008  0.4614232E+02  0.7816164E-02  0.1320468E+00
        -11   -1    0    0    0    0  0.00000000000E+00  0.00000000000E+00  0.45593999997E+02  0.45594000000E+02  0.51100000000E-03 0.  1.
         11   -1    0    0    0    0 -0.00000000000E+00 -0.00000000000E+00 -0.45593999997E+02  0.45594000000E+02  0.51100000000E-03 0. -1.
    9900012    2    1    2    0    0 -0.89238641639E+01 -0.61258093163E+01 -0.43725880178E+02  0.46142317757E+02  0.99999999657E+01 0.  0.
        -12    1    1    2    0    0  0.89238641639E+01  0.61258093163E+01  0.43725880178E+02  0.45045682243E+02  0.00000000000E+00 0.  1.
         11    1    3    3    0    0 -0.46661793442E+01  0.14846915357E+01 -0.13748295718E+02  0.14594285664E+02  0.51100000000E-03 0. -1.
        -11    1    3    3    0    0 -0.24968208245E+01 -0.76668443407E+01 -0.24969470316E+02  0.26239075145E+02  0.51100000000E-03 0.  1.
        -12    1    3    3    0    0 -0.17608639952E+01  0.56343488769E-01 -0.50081141442E+01  0.53089569484E+01  0.00000000000E+00 0.  1.
</event>
<event>
 7    1  0.1543346E-008  0.4614232E+02  0.7816164E-02  0.1320468E+00
        -11   -1    0    0    0    0  0.00000000000E+00  0.00000000000E+00  0.45593999997E+02  0.45594000000E+02  0.51100000000E-03 0.  1.
         11   -1    0    0    0    0 -0.00000000000E+00 -0.00000000000E+00 -0.45593999997E+02  0.45594000000E+02  0.51100000000E-03 0. -1.
    9900012    2    1    2    0    0  0.24755096980E+02  0.36403437937E+02 -0.95440212532E+01  0.46142318056E+02  0.10000002688E+02 0.  0.
        -12    1    1    2    0    0 -0.24755096980E+02 -0.36403437937E+02  0.95440212532E+01  0.45045681944E+02  0.00000000000E+00 0.  1.
         11    1    3    3    0    0  0.92489175732E+01  0.11744107989E+02 -0.35910840721E+01  0.15374083186E+02  0.51100000000E-03 0. -1.
        -11    1    3    3    0    0  0.52162485492E+01  0.33778737210E+01  0.58571727070E+00  0.62419824403E+01  0.51100000000E-03 0.  1.
        -12    1    3    3    0    0  0.10289930857E+02  0.21281456227E+02 -0.65386544519E+01  0.24526252430E+02  0.00000000000E+00 0.  1.
</event>
<event>
 7    1  0.1543346E-008  0.4614232E+02  0.7816164E-02  0.1320468E+00
        -11   -1    0    0    0    0  0.00000000000E+00  0.00000000000E+00  0.45593999997E+02  0.45594000000E+02  0.51100000000E-03 0. -1.
         11   -1    0    0    0    0 -0.00000000000E+00 -0.00000000000E+00 -0.45593999997E+02  0.45594000000E+02  0.51100000000E-03 0.  1.
    9900012    2    1    2    0    0 -0.23786342072E+02  0.59939360659E+01  0.37780893287E+02  0.46142320559E+02  0.10000025518E+02 0.  0.
        -12    1    1    2    0    0  0.23786342072E+02 -0.59939360659E+01 -0.37780893287E+02  0.45045679441E+02  0.00000000000E+00 0.  1.
         11    1    3    3    0    0 -0.19375552147E+02  0.35676774545E+01  0.32249694937E+02  0.37791310737E+02  0.51100000000E-03 0. -1.
        -11    1    3    3    0    0 -0.57154605558E+00  0.16695864926E+01  0.35511845226E+01  0.39654880815E+01  0.51100000000E-03 0.  1.
         12    1    3    3    0    0 -0.38392438698E+01  0.75667211877E+00  0.19800138267E+01  0.43855217410E+01  0.00000000000E+00 0. -1.
</event>
<event>
 7    1  0.1543346E-008  0.4614232E+02  0.7816164E-02  0.1320468E+00
        -11   -1    0    0    0    0  0.00000000000E+00  0.00000000000E+00  0.45593999997E+02  0.45594000000E+02  0.51100000000E-03 0.  1.
         11   -1    0    0    0    0 -0.00000000000E+00 -0.00000000000E+00 -0.45593999997E+02  0.45594000000E+02  0.51100000000E-03 0. -1.
    9900012    2    1    2    0    0  0.29996608380E+02  0.15764711737E+02 -0.29678119125E+02  0.46142318684E+02  0.10000008413E+02 0.  0.
        -12    1    1    2    0    0 -0.29996608380E+02 -0.15764711737E+02  0.29678119125E+02  0.45045681316E+02  0.00000000000E+00 0.  1.
         11    1    3    3    0    0  0.42056359613E+01  0.56062011642E+01 -0.66980241479E+01  0.96943485124E+01  0.51100000000E-03 0. -1.
        -11    1    3    3    0    0  0.20644809181E+02  0.58839971864E+01 -0.18973873456E+02  0.28650260788E+02  0.51100000000E-03 0.  1.
        -12    1    3    3    0    0  0.51461632374E+01  0.42745133861E+01 -0.40062215209E+01  0.77977093835E+01  0.00000000000E+00 0.  1.
</event>
<event>
 7    1  0.1543346E-008  0.4614232E+02  0.7816164E-02  0.1320468E+00
        -11   -1    0    0    0    0  0.00000000000E+00  0.00000000000E+00  0.45593999997E+02  0.45594000000E+02  0.51100000000E-03 0.  1.
         11   -1    0    0    0    0 -0.00000000000E+00 -0.00000000000E+00 -0.45593999997E+02  0.45594000000E+02  0.51100000000E-03 0. -1.
    9900012    2    1    2    0    0 -0.35579926202E+02  0.27461239696E+02  0.30104258317E+01  0.46142317656E+02  0.99999990402E+01 0.  0.
        -12    1    1    2    0    0  0.35579926202E+02 -0.27461239696E+02 -0.30104258317E+01  0.45045682344E+02  0.00000000000E+00 0.  1.
         11    1    3    3    0    0 -0.10263072952E+02  0.10000990734E+02  0.41888350064E+01  0.14929729437E+02  0.51100000000E-03 0.  1.
        -11    1    3    3    0    0 -0.21050315485E+02  0.16668892375E+02 -0.10516667866E+01  0.26871430150E+02  0.51100000000E-03 0. -1.
        -12    1    3    3    0    0 -0.42665377655E+01  0.79135658706E+00 -0.12674238816E+00  0.43411580696E+01  0.00000000000E+00 0.  1.
</event>
<event>
 7    1  0.1543346E-008  0.4614232E+02  0.7816164E-02  0.1320468E+00
        -11   -1    0    0    0    0  0.00000000000E+00  0.00000000000E+00  0.45593999997E+02  0.45594000000E+02  0.51100000000E-03 0.  1.
         11   -1    0    0    0    0 -0.00000000000E+00 -0.00000000000E+00 -0.45593999997E+02  0.45594000000E+02  0.51100000000E-03 0. -1.
    9900012    2    1    2    0    0 -0.15917786723E+02 -0.14422450031E+02 -0.39594578483E+02  0.46142316031E+02  0.99999842192E+01 0.  0.
        -12    1    1    2    0    0  0.15917786723E+02  0.14422450031E+02  0.39594578483E+02  0.45045683969E+02  0.00000000000E+00 0.  1.
         11    1    3    3    0    0 -0.66298962250E+01 -0.87201448425E+01 -0.26641577323E+02  0.28805730203E+02  0.51100000000E-03 0. -1.
        -11    1    3    3    0    0 -0.14444559279E+01  0.17765533600E+00 -0.61888562910E+00  0.15814657849E+01  0.51100000000E-03 0.  1.
         12    1    3    3    0    0 -0.78434345703E+01 -0.58799605242E+01 -0.12334115531E+02  0.15755120043E+02  0.00000000000E+00 0. -1.
</event>
<event>
 7    1  0.1543346E-008  0.4614232E+02  0.7816164E-02  0.1320468E+00
        -11   -1    0    0    0    0  0.00000000000E+00  0.00000000000E+00  0.45593999997E+02  0.45594000000E+02  0.51100000000E-03 0. -1.
         11   -1    0    0    0    0 -0.00000000000E+00 -0.00000000000E+00 -0.45593999997E+02  0.45594000000E+02  0.51100000000E-03 0.  1.
    9900012    2    1    2    0    0  0.10496757565E+02 -0.41244338910E+02  0.14759270715E+02  0.46142317814E+02  0.10000000485E+02 0.  0.
        -12    1    1    2    0    0 -0.10496757565E+02  0.41244338910E+02 -0.14759270715E+02  0.45045682186E+02  0.00000000000E+00 0.  1.
         11    1    3    3    0    0  0.34715650636E+01 -0.12759362353E+02  0.16264614386E+01  0.13322855127E+02  0.51100000000E-03 0.  1.
        -11    1    3    3    0    0  0.51632275749E+01 -0.89162008899E+01  0.31585034419E+01  0.10776534766E+02  0.51100000000E-03 0. -1.
         12    1    3    3    0    0  0.18619649264E+01 -0.19568775667E+02  0.99743058344E+01  0.22042927922E+02  0.00000000000E+00 0. -1.
</event>
<event>
 7    1  0.1543346E-008  0.4614232E+02  0.7816164E-02  0.1320468E+00
        -11   -1    0    0    0    0  0.00000000000E+00  0.00000000000E+00  0.45593999997E+02  0.45594000000E+02  0.51100000000E-03 0. -1.
         11   -1    0    0    0    0 -0.00000000000E+00 -0.00000000000E+00 -0.45593999997E+02  0.45594000000E+02  0.51100000000E-03 0.  1.
    9900012    2    1    2    0    0 -0.19960885990E+02  0.23947785183E+02  0.32514305993E+02  0.46142317866E+02  0.10000000961E+02 0.  0.
        -12    1    1    2    0    0  0.19960885990E+02 -0.23947785183E+02 -0.32514305993E+02  0.45045682134E+02  0.00000000000E+00 0.  1.
         11    1    3    3    0    0 -0.71900721303E+01  0.14261348679E+02  0.17783390507E+02  0.23902555963E+02  0.51100000000E-03 0.  1.
        -11    1    3    3    0    0 -0.11912523082E+02  0.10175651590E+02  0.14001191291E+02  0.21011555137E+02  0.51100000000E-03 0. -1.
        -12    1    3    3    0    0 -0.85829077795E+00 -0.48921508608E+00  0.72972419523E+00  0.12282067664E+01  0.00000000000E+00 0.  1.
</event>
<event>
 7    1  0.1543346E-008  0.4614232E+02  0.7816164E-02  0.1320468E+00
        -11   -1    0    0    0    0  0.00000000000E+00  0.00000000000E+00  0.45593999997E+02  0.45594000000E+02  0.51100000000E-03 0. -1.
         11   -1    0    0    0    0 -0.00000000000E+00 -0.00000000000E+00 -0.45593999997E+02  0.45594000000E+02  0.51100000000E-03 0.  1.
    9900012    2    1    2    0    0 -0.32748826406E+02  0.28809203392E+02  0.11254229756E+02  0.46142317427E+02  0.99999969564E+01 0.  0.
        -12    1    1    2    0    0  0.32748826406E+02 -0.28809203392E+02 -0.11254229756E+02  0.45045682573E+02  0.00000000000E+00 0.  1.
         11    1    3    3    0    0 -0.20003062629E+02  0.19313653093E+02  0.67255249904E+01  0.28607208829E+02  0.51100000000E-03 0. -1.
        -11    1    3    3    0    0 -0.12650096427E+02  0.79860778202E+01  0.27679822512E+01  0.15213944412E+02  0.51100000000E-03 0.  1.
        -12    1    3    3    0    0 -0.95667349479E-01  0.15094724787E+01  0.17607225144E+01  0.23211641860E+01  0.00000000000E+00 0.  1.
</event>
<event>
 7    1  0.1543346E-008  0.4614232E+02  0.7816164E-02  0.1320468E+00
        -11   -1    0    0    0    0  0.00000000000E+00  0.00000000000E+00  0.45593999997E+02  0.45594000000E+02  0.51100000000E-03 0.  1.
         11   -1    0    0    0    0 -0.00000000000E+00 -0.00000000000E+00 -0.45593999997E+02  0.45594000000E+02  0.51100000000E-03 0. -1.
    9900012    2    1    2    0    0 -0.33433113517E+02  0.99578648926E+01 -0.28498796986E+02  0.46142316719E+02  0.99999904932E+01 0.  0.
        -12    1    1    2    0    0  0.33433113517E+02 -0.99578648926E+01  0.28498796986E+02  0.45045683281E+02  0.00000000000E+00 0.  1.
         11    1    3    3    0    0 -0.94200990496E+01  0.58267468801E+01 -0.10592780119E+02  0.15326324942E+02  0.51100000000E-03 0. -1.
        -11    1    3    3    0    0 -0.22492180267E+01  0.88076571285E-01  0.14115649920E+00  0.22553635255E+01  0.51100000000E-03 0.  1.
         12    1    3    3    0    0 -0.21763796440E+02  0.40430414413E+01 -0.18047173366E+02  0.28560628251E+02  0.00000000000E+00 0. -1.
</event>
<event>
 7    1  0.1589547E-008  0.4614232E+02  0.7816164E-02  0.1320468E+00
        -11   -1    0    0    0    0  0.00000000000E+00  0.00000000000E+00  0.45593999997E+02  0.45594000000E+02  0.51100000000E-03 0.  1.
         11   -1    0    0    0    0 -0.00000000000E+00 -0.00000000000E+00 -0.45593999997E+02  0.45594000000E+02  0.51100000000E-03 0. -1.
    9900012    2    1    2    0    0  0.35999204761E+02  0.15990755599E+02 -0.21851006875E+02  0.46142317526E+02  0.99999978603E+01 0.  0.
        -12    1    1    2    0    0 -0.35999204761E+02 -0.15990755599E+02  0.21851006875E+02  0.45045682474E+02  0.00000000000E+00 0.  1.
         11    1    3    3    0    0  0.22144276200E+02  0.76675827916E+01 -0.17568032539E+02  0.29288164194E+02  0.51100000000E-03 0. -1.
        -11    1    3    3    0    0  0.73104148857E+01  0.52282969163E+01 -0.15734252800E+01  0.91243039088E+01  0.51100000000E-03 0.  1.
         12    1    3    3    0    0  0.65445136756E+01  0.30948758909E+01 -0.27095490554E+01  0.77298494238E+01  0.00000000000E+00 0. -1.
</event>
<event>
 7    1  0.1543346E-008  0.4614233E+02  0.7816164E-02  0.1320468E+00
        -11   -1    0    0    0    0  0.00000000000E+00  0.00000000000E+00  0.45593999997E+02  0.45594000000E+02  0.51100000000E-03 0.  1.
         11   -1    0    0    0    0 -0.00000000000E+00 -0.00000000000E+00 -0.45593999997E+02  0.45594000000E+02  0.51100000000E-03 0. -1.
    9900012    2    1    2    0    0  0.37625676038E+01 -0.42495474140E+01 -0.44686653928E+02  0.46142327539E+02  0.10000089163E+02 0.  0.
        -12    1    1    2    0    0 -0.37625676038E+01  0.42495474140E+01  0.44686653928E+02  0.45045672461E+02  0.00000000000E+00 0.  1.
         11    1    3    3    0    0  0.74629664357E+00 -0.22852372020E+01 -0.38538481064E+02  0.38613388750E+02  0.51100000000E-03 0. -1.
        -11    1    3    3    0    0 -0.38478287451E+00  0.57466874158E-01 -0.55620360665E+00  0.67876580299E+00  0.51100000000E-03 0.  1.
         12    1    3    3    0    0  0.34010538347E+01 -0.20217770862E+01 -0.55919692571E+01  0.68501729865E+01  0.00000000000E+00 0. -1.
</event>
<event>
 7    1  0.1543346E-008  0.4614232E+02  0.7816164E-02  0.1320468E+00
        -11   -1    0    0    0    0  0.00000000000E+00  0.00000000000E+00  0.45593999997E+02  0.45594000000E+02  0.51100000000E-03 0. -1.
         11   -1    0    0    0    0 -0.00000000000E+00 -0.00000000000E+00 -0.45593999997E+02  0.45594000000E+02  0.51100000000E-03 0.  1.
    9900012    2    1    2    0    0 -0.20441624717E+02 -0.24420847418E+02  0.31857112427E+02  0.46142318498E+02  0.10000006724E+02 0.  0.
        -12    1    1    2    0    0  0.20441624717E+02  0.24420847418E+02 -0.31857112427E+02  0.45045681502E+02  0.00000000000E+00 0.  1.
         11    1    3    3    0    0 -0.11301089785E+02 -0.76643015253E+01  0.10711778644E+02  0.17355066989E+02  0.51100000000E-03 0. -1.
        -11    1    3    3    0    0 -0.81402270668E+00 -0.48045787797E+01  0.41230768872E+01  0.63832886114E+01  0.51100000000E-03 0.  1.
         12    1    3    3    0    0 -0.83265122261E+01 -0.11951967113E+02  0.17022256896E+02  0.22403962899E+02  0.00000000000E+00 0. -1.
</event>
<event>
 7    1  0.1543346E-008  0.4614232E+02  0.7816164E-02  0.1320468E+00
        -11   -1    0    0    0    0  0.00000000000E+00  0.00000000000E+00  0.45593999997E+02  0.45594000000E+02  0.51100000000E-03 0.  1.
         11   -1    0    0    0    0 -0.00000000000E+00 -0.00000000000E+00 -0.45593999997E+02  0.45594000000E+02  0.51100000000E-03 0. -1.
    9900012    2    1    2    0    0 -0.51096993047E+01 -0.40059731737E+02 -0.19955507270E+02  0.46142318695E+02  0.10000008517E+02 0.  0.
        -12    1    1    2    0    0  0.51096993047E+01  0.40059731737E+02  0.19955507270E+02  0.45045681305E+02  0.00000000000E+00 0.  1.
         11    1    3    3    0    0 -0.13113062938E+01 -0.23543791770E+02 -0.11947954155E+02  0.26434508958E+02  0.51100000000E-03 0. -1.
        -11    1    3    3    0    0 -0.38074701342E+00 -0.58857714380E+01  0.11626229328E+00  0.58992195154E+01  0.51100000000E-03 0.  1.
        -12    1    3    3    0    0 -0.34176459975E+01 -0.10630168529E+02 -0.81238154084E+01  0.13808590222E+02  0.00000000000E+00 0.  1.
</event>
<event>
 7    1  0.1543346E-008  0.4614232E+02  0.7816164E-02  0.1320468E+00
        -11   -1    0    0    0    0  0.00000000000E+00  0.00000000000E+00  0.45593999997E+02  0.45594000000E+02  0.51100000000E-03 0.  1.
         11   -1    0    0    0    0 -0.00000000000E+00 -0.00000000000E+00 -0.45593999997E+02  0.45594000000E+02  0.51100000000E-03 0. -1.
    9900012    2    1    2    0    0 -0.29127217481E+02  0.66919872654E+01 -0.33703649067E+02  0.46142318163E+02  0.10000003665E+02 0.  0.
        -12    1    1    2    0    0  0.29127217481E+02 -0.66919872654E+01  0.33703649067E+02  0.45045681837E+02  0.00000000000E+00 0.  1.
         11    1    3    3    0    0 -0.28246258071E+01  0.53783263675E-01 -0.24068800444E+01  0.37113980384E+01  0.51100000000E-03 0. -1.
        -11    1    3    3    0    0 -0.18721358622E+02  0.56641203663E+01 -0.27884007920E+02  0.34060085527E+02  0.51100000000E-03 0.  1.
        -12    1    3    3    0    0 -0.75812330523E+01  0.97408363535E+00 -0.34127611026E+01  0.83708345979E+01  0.00000000000E+00 0.  1.
</event>
<event>
 7    1  0.1543346E-008  0.4614232E+02  0.7816164E-02  0.1320468E+00
        -11   -1    0    0    0    0  0.00000000000E+00  0.00000000000E+00  0.45593999997E+02  0.45594000000E+02  0.51100000000E-03 0. -1.
         11   -1    0    0    0    0 -0.00000000000E+00 -0.00000000000E+00 -0.45593999997E+02  0.45594000000E+02  0.51100000000E-03 0.  1.
    9900012    2    1    2    0    0 -0.38971038473E+02  0.83686926526E+01  0.20984199846E+02  0.46142317637E+02  0.99999988675E+01 0.  0.
        -12    1    1    2    0    0  0.38971038473E+02 -0.83686926526E+01 -0.20984199846E+02  0.45045682363E+02  0.00000000000E+00 0.  1.
         11    1    3    3    0    0 -0.78910335377E+01  0.49370756285E+01  0.60748549415E+01  0.11115169314E+02  0.51100000000E-03 0. -1.
        -11    1    3    3    0    0 -0.11457870796E+02  0.70784243797E+00  0.28256861162E+01  0.11822366361E+02  0.51100000000E-03 0.  1.
         12    1    3    3    0    0 -0.19622134140E+02  0.27237745862E+01  0.12083658789E+02  0.23204781962E+02  0.00000000000E+00 0. -1.
</event>
<event>
 7    1  0.1543346E-008  0.4614232E+02  0.7816164E-02  0.1320468E+00
        -11   -1    0    0    0    0  0.00000000000E+00  0.00000000000E+00  0.45593999997E+02  0.45594000000E+02  0.51100000000E-03 0.  1.
         11   -1    0    0    0    0 -0.00000000000E+00 -0.00000000000E+00 -0.45593999997E+02  0.45594000000E+02  0.51100000000E-03 0. -1.
    9900012    2    1    2    0    0  0.27715196332E+02 -0.13000268033E+02 -0.33045035761E+02  0.46142318019E+02  0.10000002350E+02 0.  0.
        -12    1    1    2    0    0 -0.27715196332E+02  0.13000268033E+02  0.33045035761E+02  0.45045681981E+02  0.00000000000E+00 0.  1.
         11    1    3    3    0    0  0.16140384228E+01 -0.21955331912E+01 -0.74487399523E+01  0.79315328381E+01  0.51100000000E-03 0.  1.
        -11    1    3    3    0    0  0.23307634598E+02 -0.90981974195E+01 -0.23483162232E+02  0.34314456655E+02  0.51100000000E-03 0. -1.
        -12    1    3    3    0    0  0.27935233122E+01 -0.17065374223E+01 -0.21131335768E+01  0.38963285260E+01  0.00000000000E+00 0.  1.
</event>
<event>
 7    1  0.1543346E-008  0.4614230E+02  0.7816164E-02  0.1320468E+00
        -11   -1    0    0    0    0  0.00000000000E+00  0.00000000000E+00  0.45593999997E+02  0.45594000000E+02  0.51100000000E-03 0.  1.
         11   -1    0    0    0    0 -0.00000000000E+00 -0.00000000000E+00 -0.45593999997E+02  0.45594000000E+02  0.51100000000E-03 0. -1.
    9900012    2    1    2    0    0  0.96286819009E+01 -0.47189168585E+01 -0.43750828645E+02  0.46142304328E+02  0.99998775069E+01 0.  0.
        -12    1    1    2    0    0 -0.96286819009E+01  0.47189168585E+01  0.43750828645E+02  0.45045695672E+02  0.00000000000E+00 0.  1.
         11    1    3    3    0    0  0.52606078349E+01 -0.23391616473E+01 -0.34980797767E+02  0.35451401731E+02  0.51100000000E-03 0. -1.
        -11    1    3    3    0    0  0.44155954868E+01 -0.30810993489E+01 -0.80495012554E+01  0.96842721680E+01  0.51100000000E-03 0.  1.
        -12    1    3    3    0    0 -0.47521420800E-01  0.70134413770E+00 -0.72052962244E+00  0.10066304296E+01  0.00000000000E+00 0.  1.
</event>
<event>
 7    1  0.1543346E-008  0.4614232E+02  0.7816164E-02  0.1320468E+00
        -11   -1    0    0    0    0  0.00000000000E+00  0.00000000000E+00  0.45593999997E+02  0.45594000000E+02  0.51100000000E-03 0.  1.
         11   -1    0    0    0    0 -0.00000000000E+00 -0.00000000000E+00 -0.45593999997E+02  0.45594000000E+02  0.51100000000E-03 0. -1.
    9900012    2    1    2    0    0  0.36641500291E+02 -0.15677662050E+02 -0.20993447877E+02  0.46142317802E+02  0.10000000372E+02 0.  0.
        -12    1    1    2    0    0 -0.36641500291E+02  0.15677662050E+02  0.20993447877E+02  0.45045682198E+02  0.00000000000E+00 0.  1.
         11    1    3    3    0    0  0.15991478327E+02 -0.41721298907E+01 -0.13382588206E+02  0.21265646340E+02  0.51100000000E-03 0. -1.
        -11    1    3    3    0    0  0.41079059877E+01 -0.19468699636E+01 -0.95395252672E+00  0.46449133408E+01  0.51100000000E-03 0.  1.
         12    1    3    3    0    0  0.16542115976E+02 -0.95586621962E+01 -0.66569071443E+01  0.20231758121E+02  0.00000000000E+00 0. -1.
</event>
<event>
 7    1  0.1543346E-008  0.4614232E+02  0.7816164E-02  0.1320468E+00
        -11   -1    0    0    0    0  0.00000000000E+00  0.00000000000E+00  0.45593999997E+02  0.45594000000E+02  0.51100000000E-03 0.  1.
         11   -1    0    0    0    0 -0.00000000000E+00 -0.00000000000E+00 -0.45593999997E+02  0.45594000000E+02  0.51100000000E-03 0. -1.
    9900012    2    1    2    0    0 -0.33895258816E+02  0.15672588703E+02 -0.25191165973E+02  0.46142318188E+02  0.10000003894E+02 0.  0.
        -12    1    1    2    0    0  0.33895258816E+02 -0.15672588703E+02  0.25191165973E+02  0.45045681812E+02  0.00000000000E+00 0.  1.
         11    1    3    3    0    0 -0.34916401293E+01  0.40063698092E+01 -0.47108943239E+01  0.71017656560E+01  0.51100000000E-03 0. -1.
        -11    1    3    3    0    0 -0.30124849862E+02  0.10636184579E+02 -0.18855491291E+02  0.37096691951E+02  0.51100000000E-03 0.  1.
        -12    1    3    3    0    0 -0.27876882385E+00  0.10300343153E+01 -0.16247803574E+01  0.19438605808E+01  0.00000000000E+00 0.  1.
</event>
<event>
 7    1  0.1543346E-008  0.4614232E+02  0.7816164E-02  0.1320468E+00
        -11   -1    0    0    0    0  0.00000000000E+00  0.00000000000E+00  0.45593999997E+02  0.45594000000E+02  0.51100000000E-03 0.  1.
         11   -1    0    0    0    0 -0.00000000000E+00 -0.00000000000E+00 -0.45593999997E+02  0.45594000000E+02  0.51100000000E-03 0. -1.
    9900012    2    1    2    0    0 -0.23539718303E+01 -0.46070033751E+01 -0.44747601437E+02  0.46142317656E+02  0.99999990373E+01 0.  0.
        -12    1    1    2    0    0  0.23539718303E+01  0.46070033751E+01  0.44747601437E+02  0.45045682344E+02  0.00000000000E+00 0.  1.
         11    1    3    3    0    0 -0.15116405872E+01 -0.43799474240E+01 -0.43064574454E+02  0.43313122375E+02  0.51100000000E-03 0. -1.
        -11    1    3    3    0    0 -0.21051141161E+00 -0.25092478585E+00  0.47694787170E+00  0.57858260949E+00  0.51100000000E-03 0.  1.
         12    1    3    3    0    0 -0.63181983142E+00  0.23868834757E-01 -0.21599748555E+01  0.22506126715E+01  0.00000000000E+00 0. -1.
</event>
<event>
 7    1  0.1543346E-008  0.4614232E+02  0.7816164E-02  0.1320468E+00
        -11   -1    0    0    0    0  0.00000000000E+00  0.00000000000E+00  0.45593999997E+02  0.45594000000E+02  0.51100000000E-03 0.  1.
         11   -1    0    0    0    0 -0.00000000000E+00 -0.00000000000E+00 -0.45593999997E+02  0.45594000000E+02  0.51100000000E-03 0. -1.
    9900012    2    1    2    0    0 -0.11477052667E+02  0.24583742817E+02 -0.35958731245E+02  0.46142317615E+02  0.99999986660E+01 0.  0.
        -12    1    1    2    0    0  0.11477052667E+02 -0.24583742817E+02  0.35958731245E+02  0.45045682385E+02  0.00000000000E+00 0.  1.
         11    1    3    3    0    0 -0.72531701676E+01  0.83194245281E+01 -0.10650911861E+02  0.15338292789E+02  0.51100000000E-03 0. -1.
        -11    1    3    3    0    0 -0.31946658186E+01  0.49578259145E+01 -0.11531960451E+02  0.12952684648E+02  0.51100000000E-03 0.  1.
        -12    1    3    3    0    0 -0.10292166809E+01  0.11306492375E+02 -0.13775858932E+02  0.17851340177E+02  0.00000000000E+00 0.  1.
</event>
<event>
 7    1  0.1543346E-008  0.4614232E+02  0.7816164E-02  0.1320468E+00
        -11   -1    0    0    0    0  0.00000000000E+00  0.00000000000E+00  0.45593999997E+02  0.45594000000E+02  0.51100000000E-03 0.  1.
         11   -1    0    0    0    0 -0.00000000000E+00 -0.00000000000E+00 -0.45593999997E+02  0.45594000000E+02  0.51100000000E-03 0. -1.
    9900012    2    1    2    0    0 -0.95766986612E+01 -0.41141694901E+02 -0.15644847188E+02  0.46142318075E+02  0.10000002862E+02 0.  0.
        -12    1    1    2    0    0  0.95766986612E+01  0.41141694901E+02  0.15644847188E+02  0.45045681925E+02  0.00000000000E+00 0.  1.
         11    1    3    3    0    0 -0.28554446116E+01 -0.14477086306E+02 -0.26749322006E+01  0.14996494736E+02  0.51100000000E-03 0. -1.
        -11    1    3    3    0    0 -0.67091002381E+01 -0.15074141269E+02 -0.56637722748E+01  0.17444772215E+02  0.51100000000E-03 0.  1.
        -12    1    3    3    0    0 -0.12153811537E-01 -0.11590467326E+02 -0.73061427128E+01  0.13701051123E+02  0.00000000000E+00 0.  1.
</event>
<event>
 7    1  0.1543346E-008  0.4614232E+02  0.7816164E-02  0.1320468E+00
        -11   -1    0    0    0    0  0.00000000000E+00  0.00000000000E+00  0.45593999997E+02  0.45594000000E+02  0.51100000000E-03 0.  1.
         11   -1    0    0    0    0 -0.00000000000E+00 -0.00000000000E+00 -0.45593999997E+02  0.45594000000E+02  0.51100000000E-03 0. -1.
    9900012    2    1    2    0    0 -0.20462233827E+02  0.49545925429E+01 -0.39822890261E+02  0.46142316642E+02  0.99999897955E+01 0.  0.
        -12    1    1    2    0    0  0.20462233827E+02 -0.49545925429E+01  0.39822890261E+02  0.45045683358E+02  0.00000000000E+00 0.  1.
         11    1    3    3    0    0 -0.30772128740E+01 -0.20433032325E+01 -0.98651489029E+01  0.10534015868E+02  0.51100000000E-03 0.  1.
        -11    1    3    3    0    0 -0.71326225127E+01  0.42648621397E+01 -0.99743804700E+01  0.12982743123E+02  0.51100000000E-03 0. -1.
        -12    1    3    3    0    0 -0.10252398440E+02  0.27330336357E+01 -0.19983360888E+02  0.22625557651E+02  0.00000000000E+00 0.  1.
</event>
<event>
 7    1  0.1543346E-008  0.4614232E+02  0.7816164E-02  0.1320468E+00
        -11   -1    0    0    0    0  0.00000000000E+00  0.00000000000E+00  0.45593999997E+02  0.45594000000E+02  0.51100000000E-03 0.  1.
         11   -1    0    0    0    0 -0.00000000000E+00 -0.00000000000E+00 -0.45593999997E+02  0.45594000000E+02  0.51100000000E-03 0. -1.
    9900012    2    1    2    0    0  0.44618915370E+01 -0.53469225743E+01 -0.44504107330E+02  0.46142316230E+02  0.99999860341E+01 0.  0.
        -12    1    1    2    0    0 -0.44618915370E+01  0.53469225743E+01  0.44504107330E+02  0.45045683770E+02  0.00000000000E+00 0.  1.
         11    1    3    3    0    0  0.36449891074E+01 -0.34588782639E+01 -0.29306111007E+02  0.29733784271E+02  0.51100000000E-03 0. -1.
        -11    1    3    3    0    0 -0.64675719957E-02  0.18685131982E+01 -0.83312661487E+01  0.85382304550E+01  0.51100000000E-03 0.  1.
        -12    1    3    3    0    0  0.82337000154E+00 -0.37565575086E+01 -0.68667301742E+01  0.78703015038E+01  0.00000000000E+00 0.  1.
</event>
<event>
 7    1  0.1543346E-008  0.4614232E+02  0.7816164E-02  0.1320468E+00
        -11   -1    0    0    0    0  0.00000000000E+00  0.00000000000E+00  0.45593999997E+02  0.45594000000E+02  0.51100000000E-03 0. -1.
         11   -1    0    0    0    0 -0.00000000000E+00 -0.00000000000E+00 -0.45593999997E+02  0.45594000000E+02  0.51100000000E-03 0.  1.
    9900012    2    1    2    0    0 -0.26670599860E+02 -0.34969060316E+02 -0.97446200842E+01  0.46142315447E+02  0.99999788977E+01 0.  0.
        -12    1    1    2    0    0  0.26670599860E+02  0.34969060316E+02  0.97446200842E+01  0.45045684553E+02  0.00000000000E+00 0.  1.
         11    1    3    3    0    0 -0.36510116206E+01 -0.62165881572E+01 -0.42932050083E+01  0.83909155445E+01  0.51100000000E-03 0.  1.
        -11    1    3    3    0    0 -0.18558092778E+02 -0.25717118063E+02 -0.30996182334E+01  0.31865037305E+02  0.51100000000E-03 0. -1.
         12    1    3    3    0    0 -0.44614954610E+01 -0.30353540962E+01 -0.23517968425E+01  0.58863625972E+01  0.00000000000E+00 0. -1.
</event>
<event>
 7    1  0.1543346E-008  0.4614232E+02  0.7816164E-02  0.1320468E+00
        -11   -1    0    0    0    0  0.00000000000E+00  0.00000000000E+00  0.45593999997E+02  0.45594000000E+02  0.51100000000E-03 0.  1.
         11   -1    0    0    0    0 -0.00000000000E+00 -0.00000000000E+00 -0.45593999997E+02  0.45594000000E+02  0.51100000000E-03 0. -1.
    9900012    2    1    2    0    0 -0.30713682483E+02 -0.29514337723E+02 -0.14652192498E+02  0.46142321318E+02  0.10000032434E+02 0.  0.
        -12    1    1    2    0    0  0.30713682483E+02  0.29514337723E+02  0.14652192498E+02  0.45045678682E+02  0.00000000000E+00 0.  1.
         11    1    3    3    0    0 -0.21949840689E+02 -0.20458221812E+02 -0.79372652368E+01  0.31037630800E+02  0.51100000000E-03 0. -1.
        -11    1    3    3    0    0 -0.29509238531E+01 -0.55428048246E+01 -0.51825190239E+01  0.81418143313E+01  0.51100000000E-03 0.  1.
         12    1    3    3    0    0 -0.58129179410E+01 -0.35133110862E+01 -0.15324082375E+01  0.69628761862E+01  0.00000000000E+00 0. -1.
</event>
<event>
 7    1  0.1543346E-008  0.4614232E+02  0.7816164E-02  0.1320468E+00
        -11   -1    0    0    0    0  0.00000000000E+00  0.00000000000E+00  0.45593999997E+02  0.45594000000E+02  0.51100000000E-03 0.  1.
         11   -1    0    0    0    0 -0.00000000000E+00 -0.00000000000E+00 -0.45593999997E+02  0.45594000000E+02  0.51100000000E-03 0. -1.
    9900012    2    1    2    0    0  0.36822865068E+01  0.35834147758E+01 -0.44751685914E+02  0.46142317771E+02  0.10000000088E+02 0.  0.
        -12    1    1    2    0    0 -0.36822865068E+01 -0.35834147758E+01  0.44751685914E+02  0.45045682229E+02  0.00000000000E+00 0.  1.
         11    1    3    3    0    0  0.12260614862E+01 -0.12156480981E+01 -0.19515955378E+02  0.19592180625E+02  0.51100000000E-03 0. -1.
        -11    1    3    3    0    0  0.29971605733E+01  0.59310741786E+01 -0.17614795166E+02  0.18826620021E+02  0.51100000000E-03 0.  1.
        -12    1    3    3    0    0 -0.54093555272E+00 -0.11320113048E+01 -0.76209353697E+01  0.77235171247E+01  0.00000000000E+00 0.  1.
</event>
<event>
 7    1  0.1543346E-008  0.4614232E+02  0.7816164E-02  0.1320468E+00
        -11   -1    0    0    0    0  0.00000000000E+00  0.00000000000E+00  0.45593999997E+02  0.45594000000E+02  0.51100000000E-03 0.  1.
         11   -1    0    0    0    0 -0.00000000000E+00 -0.00000000000E+00 -0.45593999997E+02  0.45594000000E+02  0.51100000000E-03 0. -1.
    9900012    2    1    2    0    0  0.20289481406E+01 -0.20913063497E+01 -0.44951344796E+02  0.46142316613E+02  0.99999895312E+01 0.  0.
        -12    1    1    2    0    0 -0.20289481406E+01  0.20913063497E+01  0.44951344796E+02  0.45045683387E+02  0.00000000000E+00 0.  1.
         11    1    3    3    0    0 -0.97127011847E+00 -0.16462228086E+00 -0.15588286681E+02  0.15619383728E+02  0.51100000000E-03 0. -1.
        -11    1    3    3    0    0  0.48064464877E+01  0.70581829199E+00 -0.13646953456E+02  0.14485836055E+02  0.51100000000E-03 0.  1.
        -12    1    3    3    0    0 -0.18062282287E+01 -0.26325023609E+01 -0.15716104659E+02  0.16037096830E+02  0.00000000000E+00 0.  1.
</event>
<event>
 7    1  0.1543346E-008  0.4614232E+02  0.7816164E-02  0.1320468E+00
        -11   -1    0    0    0    0  0.00000000000E+00  0.00000000000E+00  0.45593999997E+02  0.45594000000E+02  0.51100000000E-03 0.  1.
         11   -1    0    0    0    0 -0.00000000000E+00 -0.00000000000E+00 -0.45593999997E+02  0.45594000000E+02  0.51100000000E-03 0. -1.
    9900012    2    1    2    0    0 -0.35325073007E+01  0.40473470530E+02  0.19455929832E+02  0.46142316187E+02  0.99999856491E+01 0.  0.
        -12    1    1    2    0    0  0.35325073007E+01 -0.40473470530E+02 -0.19455929832E+02  0.45045683813E+02  0.00000000000E+00 0.  1.
         11    1    3    3    0    0 -0.97260340730E+00  0.98074881655E+01  0.32082364812E+01  0.10364630388E+02  0.51100000000E-03 0. -1.
        -11    1    3    3    0    0  0.30674236398E+01  0.10705715865E+02  0.55572128028E+01  0.12446045732E+02  0.51100000000E-03 0.  1.
        -12    1    3    3    0    0 -0.56273275332E+01  0.19960266499E+02  0.10690480548E+02  0.23331640067E+02  0.00000000000E+00 0.  1.
</event>
<event>
 7    1  0.1543346E-008  0.4614232E+02  0.7816164E-02  0.1320468E+00
        -11   -1    0    0    0    0  0.00000000000E+00  0.00000000000E+00  0.45593999997E+02  0.45594000000E+02  0.51100000000E-03 0.  1.
         11   -1    0    0    0    0 -0.00000000000E+00 -0.00000000000E+00 -0.45593999997E+02  0.45594000000E+02  0.51100000000E-03 0. -1.
    9900012    2    1    2    0    0 -0.10327569459E+02 -0.82853387573E+01 -0.43055869035E+02  0.46142318879E+02  0.10000010195E+02 0.  0.
        -12    1    1    2    0    0  0.10327569459E+02  0.82853387573E+01  0.43055869035E+02  0.45045681121E+02  0.00000000000E+00 0.  1.
         11    1    3    3    0    0 -0.90352823502E+00  0.18698352135E+01 -0.40164094204E+01  0.45215253942E+01  0.51100000000E-03 0. -1.
        -11    1    3    3    0    0 -0.62366286507E+00 -0.23412627978E+01 -0.99523505771E+01  0.10243034176E+02  0.51100000000E-03 0.  1.
         12    1    3    3    0    0 -0.88003783584E+01 -0.78139111730E+01 -0.29087109038E+02  0.31377759309E+02  0.00000000000E+00 0. -1.
</event>
<event>
 7    1  0.1543346E-008  0.4614232E+02  0.7816164E-02  0.1320468E+00
        -11   -1    0    0    0    0  0.00000000000E+00  0.00000000000E+00  0.45593999997E+02  0.45594000000E+02  0.51100000000E-03 0. -1.
         11   -1    0    0    0    0 -0.00000000000E+00 -0.00000000000E+00 -0.45593999997E+02  0.45594000000E+02  0.51100000000E-03 0.  1.
    9900012    2    1    2    0    0  0.40256640658E+02  0.19716886217E+02 -0.44453067950E+01  0.46142317947E+02  0.10000001694E+02 0.  0.
        -12    1    1    2    0    0 -0.40256640658E+02 -0.19716886217E+02  0.44453067950E+01  0.45045682053E+02  0.00000000000E+00 0.  1.
         11    1    3    3    0    0  0.34294689572E+02  0.16156501871E+02 -0.58974966689E+01  0.38365853995E+02  0.51100000000E-03 0. -1.
        -11    1    3    3    0    0  0.79155717555E+00  0.18338333262E+01  0.11772233549E+01  0.23184828054E+01  0.51100000000E-03 0.  1.
         12    1    3    3    0    0  0.51703939103E+01  0.17265510199E+01  0.27496651895E+00  0.54579811467E+01  0.00000000000E+00 0. -1.
</event>
<event>
 7    1  0.1543346E-008  0.4614232E+02  0.7816164E-02  0.1320468E+00
        -11   -1    0    0    0    0  0.00000000000E+00  0.00000000000E+00  0.45593999997E+02  0.45594000000E+02  0.51100000000E-03 0.  1.
         11   -1    0    0    0    0 -0.00000000000E+00 -0.00000000000E+00 -0.45593999997E+02  0.45594000000E+02  0.51100000000E-03 0. -1.
    9900012    2    1    2    0    0 -0.16315152887E+01 -0.32701389661E+02 -0.30936560543E+02  0.46142317564E+02  0.99999982065E+01 0.  0.
        -12    1    1    2    0    0  0.16315152887E+01  0.32701389661E+02  0.30936560543E+02  0.45045682436E+02  0.00000000000E+00 0.  1.
         11    1    3    3    0    0  0.53763589340E-01 -0.77389143046E+01 -0.13093821877E+02  0.15209926257E+02  0.51100000000E-03 0. -1.
        -11    1    3    3    0    0  0.58253885007E+00 -0.13588416509E+02 -0.10762952380E+02  0.17344323536E+02  0.51100000000E-03 0.  1.
         12    1    3    3    0    0 -0.22678177281E+01 -0.11374058847E+02 -0.70797862857E+01  0.13588067771E+02  0.00000000000E+00 0. -1.
</event>
<event>
 7    1  0.1543346E-008  0.4614232E+02  0.7816164E-02  0.1320468E+00
        -11   -1    0    0    0    0  0.00000000000E+00  0.00000000000E+00  0.45593999997E+02  0.45594000000E+02  0.51100000000E-03 0.  1.
         11   -1    0    0    0    0 -0.00000000000E+00 -0.00000000000E+00 -0.45593999997E+02  0.45594000000E+02  0.51100000000E-03 0. -1.
    9900012    2    1    2    0    0  0.18370254467E+01  0.96564150738E+01 -0.43960123265E+02  0.46142318165E+02  0.10000003679E+02 0.  0.
        -12    1    1    2    0    0 -0.18370254467E+01 -0.96564150738E+01  0.43960123265E+02  0.45045681835E+02  0.00000000000E+00 0.  1.
         11    1    3    3    0    0 -0.12503747892E+01  0.14548703915E+01 -0.11500914579E+02  0.11659807948E+02  0.51100000000E-03 0. -1.
        -11    1    3    3    0    0 -0.13783473680E+01 -0.56022737979E+00 -0.21255523179E+01  0.25945460298E+01  0.51100000000E-03 0.  1.
        -12    1    3    3    0    0  0.44657476038E+01  0.87617720621E+01 -0.30333656368E+02  0.31887964187E+02  0.00000000000E+00 0.  1.
</event>
<event>
 7    1  0.1543346E-008  0.4614232E+02  0.7816164E-02  0.1320468E+00
        -11   -1    0    0    0    0  0.00000000000E+00  0.00000000000E+00  0.45593999997E+02  0.45594000000E+02  0.51100000000E-03 0.  1.
         11   -1    0    0    0    0 -0.00000000000E+00 -0.00000000000E+00 -0.45593999997E+02  0.45594000000E+02  0.51100000000E-03 0. -1.
    9900012    2    1    2    0    0 -0.25624493000E+02  0.21379829428E+02 -0.30255607237E+02  0.46142317442E+02  0.99999970873E+01 0.  0.
        -12    1    1    2    0    0  0.25624493000E+02 -0.21379829428E+02  0.30255607237E+02  0.45045682558E+02  0.00000000000E+00 0.  1.
         11    1    3    3    0    0 -0.44338860438E+01  0.47499158575E+01 -0.75084892984E+01  0.99296756195E+01  0.51100000000E-03 0. -1.
        -11    1    3    3    0    0 -0.84680251097E+01  0.19102290266E+01 -0.79205736254E+01  0.11751251466E+02  0.51100000000E-03 0.  1.
        -12    1    3    3    0    0 -0.12722581846E+02  0.14719684544E+02 -0.14826544313E+02  0.24461390356E+02  0.00000000000E+00 0.  1.
</event>
<event>
 7    1  0.1543346E-008  0.4614232E+02  0.7816164E-02  0.1320468E+00
        -11   -1    0    0    0    0  0.00000000000E+00  0.00000000000E+00  0.45593999997E+02  0.45594000000E+02  0.51100000000E-03 0.  1.
         11   -1    0    0    0    0 -0.00000000000E+00 -0.00000000000E+00 -0.45593999997E+02  0.45594000000E+02  0.51100000000E-03 0. -1.
    9900012    2    1    2    0    0  0.33148429051E+02  0.26319428637E+02 -0.15413722286E+02  0.46142317554E+02  0.99999981116E+01 0.  0.
        -12    1    1    2    0    0 -0.33148429051E+02 -0.26319428637E+02  0.15413722286E+02  0.45045682446E+02  0.00000000000E+00 0.  1.
         11    1    3    3    0    0  0.84587222894E+01  0.54338060633E+01 -0.32949088378E+01  0.10579823043E+02  0.51100000000E-03 0. -1.
        -11    1    3    3    0    0  0.14284142251E+02  0.12568658136E+02 -0.26297670249E+01  0.19207383009E+02  0.51100000000E-03 0.  1.
        -12    1    3    3    0    0  0.10405564510E+02  0.83169644384E+01 -0.94890464229E+01  0.16355111502E+02  0.00000000000E+00 0.  1.
</event>
<event>
 7    1  0.1543346E-008  0.4614232E+02  0.7816164E-02  0.1320468E+00
        -11   -1    0    0    0    0  0.00000000000E+00  0.00000000000E+00  0.45593999997E+02  0.45594000000E+02  0.51100000000E-03 0.  1.
         11   -1    0    0    0    0 -0.00000000000E+00 -0.00000000000E+00 -0.45593999997E+02  0.45594000000E+02  0.51100000000E-03 0. -1.
    9900012    2    1    2    0    0  0.79295504072E+01 -0.41414854755E+02 -0.15844419144E+02  0.46142316721E+02  0.99999905168E+01 0.  0.
        -12    1    1    2    0    0 -0.79295504072E+01  0.41414854755E+02  0.15844419144E+02  0.45045683279E+02  0.00000000000E+00 0.  1.
         11    1    3    3    0    0  0.64985465776E+01 -0.28889973443E+02 -0.95574441414E+01  0.31116015361E+02  0.51100000000E-03 0. -1.
        -11    1    3    3    0    0  0.56733715163E-01 -0.11298504879E+02 -0.67039018980E+01  0.13137797842E+02  0.51100000000E-03 0.  1.
         12    1    3    3    0    0  0.13742701145E+01 -0.12263764333E+01  0.41692689541E+00  0.18885035186E+01  0.00000000000E+00 0. -1.
</event>
<event>
 7    1  0.1543346E-008  0.4614232E+02  0.7816164E-02  0.1320468E+00
        -11   -1    0    0    0    0  0.00000000000E+00  0.00000000000E+00  0.45593999997E+02  0.45594000000E+02  0.51100000000E-03 0.  1.
         11   -1    0    0    0    0 -0.00000000000E+00 -0.00000000000E+00 -0.45593999997E+02  0.45594000000E+02  0.51100000000E-03 0. -1.
    9900012    2    1    2    0    0 -0.31359538670E+02  0.11559828616E+01 -0.32316505935E+02  0.46142317435E+02  0.99999970218E+01 0.  0.
        -12    1    1    2    0    0  0.31359538670E+02 -0.11559828616E+01  0.32316505935E+02  0.45045682565E+02  0.00000000000E+00 0.  1.
         11    1    3    3    0    0 -0.12246400330E+01  0.38080359464E+00 -0.19856330076E+01  0.23637879114E+01  0.51100000000E-03 0. -1.
        -11    1    3    3    0    0 -0.13531206145E+02  0.21486219582E+01 -0.78276432736E+01  0.15779167137E+02  0.51100000000E-03 0.  1.
        -12    1    3    3    0    0 -0.16603692492E+02 -0.13734426912E+01 -0.22503229654E+02  0.27999362386E+02  0.00000000000E+00 0.  1.
</event>
<event>
 7    1  0.1543346E-008  0.4614232E+02  0.7816164E-02  0.1320468E+00
        -11   -1    0    0    0    0  0.00000000000E+00  0.00000000000E+00  0.45593999997E+02  0.45594000000E+02  0.51100000000E-03 0.  1.
         11   -1    0    0    0    0 -0.00000000000E+00 -0.00000000000E+00 -0.45593999997E+02  0.45594000000E+02  0.51100000000E-03 0. -1.
    9900012    2    1    2    0    0 -0.44567430205E+02 -0.58071229225E+01 -0.30223682999E+01  0.46142320720E+02  0.10000026977E+02 0.  0.
        -12    1    1    2    0    0  0.44567430205E+02  0.58071229225E+01  0.30223682999E+01  0.45045679280E+02  0.00000000000E+00 0.  1.
         11    1    3    3    0    0 -0.79910361857E+01 -0.18593839333E+01 -0.35934638248E+01  0.89569498410E+01  0.51100000000E-03 0. -1.
        -11    1    3    3    0    0 -0.23131932128E+02 -0.50911059882E+01  0.56845561685E+00  0.23692378230E+02  0.51100000000E-03 0.  1.
         12    1    3    3    0    0 -0.13444461891E+02  0.11433669990E+01  0.26399080715E-02  0.13492992649E+02  0.00000000000E+00 0. -1.
</event>
<event>
 7    1  0.1543346E-008  0.4614232E+02  0.7816164E-02  0.1320468E+00
        -11   -1    0    0    0    0  0.00000000000E+00  0.00000000000E+00  0.45593999997E+02  0.45594000000E+02  0.51100000000E-03 0.  1.
         11   -1    0    0    0    0 -0.00000000000E+00 -0.00000000000E+00 -0.45593999997E+02  0.45594000000E+02  0.51100000000E-03 0. -1.
    9900012    2    1    2    0    0  0.30255609830E+02 -0.29875563182E+02 -0.14871526049E+02  0.46142317758E+02  0.99999999732E+01 0.  0.
        -12    1    1    2    0    0 -0.30255609830E+02  0.29875563182E+02  0.14871526049E+02  0.45045682242E+02  0.00000000000E+00 0.  1.
         11    1    3    3    0    0  0.68806928619E+01 -0.66138602007E+01 -0.77519845470E+01  0.12295541700E+02  0.51100000000E-03 0. -1.
        -11    1    3    3    0    0  0.16960007828E+02 -0.15339230407E+02 -0.42811308202E+01  0.23265036780E+02  0.51100000000E-03 0.  1.
         12    1    3    3    0    0  0.64149091406E+01 -0.79224725739E+01 -0.28384106813E+01  0.10581739279E+02  0.00000000000E+00 0. -1.
</event>
<event>
 7    1  0.1543346E-008  0.4614232E+02  0.7816164E-02  0.1320468E+00
        -11   -1    0    0    0    0  0.00000000000E+00  0.00000000000E+00  0.45593999997E+02  0.45594000000E+02  0.51100000000E-03 0.  1.
         11   -1    0    0    0    0 -0.00000000000E+00 -0.00000000000E+00 -0.45593999997E+02  0.45594000000E+02  0.51100000000E-03 0. -1.
    9900012    2    1    2    0    0 -0.29354362567E+02  0.31241519365E+02 -0.13834822446E+02  0.46142318231E+02  0.10000004284E+02 0.  0.
        -12    1    1    2    0    0  0.29354362567E+02 -0.31241519365E+02  0.13834822446E+02  0.45045681769E+02  0.00000000000E+00 0.  1.
         11    1    3    3    0    0 -0.17111694587E+02  0.18291614849E+02 -0.54838409847E+01  0.25641095485E+02  0.51100000000E-03 0. -1.
        -11    1    3    3    0    0 -0.61415978552E+00  0.74438909985E-01 -0.18886649229E+01  0.19874075690E+01  0.51100000000E-03 0.  1.
        -12    1    3    3    0    0 -0.11628508194E+02  0.12875465605E+02 -0.64623165381E+01  0.18513815177E+02  0.00000000000E+00 0.  1.
</event>
<event>
 7    1  0.1543346E-008  0.4614232E+02  0.7816164E-02  0.1320468E+00
        -11   -1    0    0    0    0  0.00000000000E+00  0.00000000000E+00  0.45593999997E+02  0.45594000000E+02  0.51100000000E-03 0. -1.
         11   -1    0    0    0    0 -0.00000000000E+00 -0.00000000000E+00 -0.45593999997E+02  0.45594000000E+02  0.51100000000E-03 0.  1.
    9900012    2    1    2    0    0  0.15179885056E+02 -0.41980604951E+02  0.60260619781E+01  0.46142317351E+02  0.99999962608E+01 0.  0.
        -12    1    1    2    0    0 -0.15179885056E+02  0.41980604951E+02 -0.60260619781E+01  0.45045682649E+02  0.00000000000E+00 0.  1.
         11    1    3    3    0    0  0.26886976352E+01 -0.50787047059E+01  0.13698132301E+01  0.59075142835E+01  0.51100000000E-03 0. -1.
        -11    1    3    3    0    0  0.72594756099E+00 -0.13123795562E+01 -0.16438887980E+01  0.22252439422E+01  0.51100000000E-03 0.  1.
        -12    1    3    3    0    0  0.11765239860E+02 -0.35589520689E+02  0.63001375460E+01  0.38009559125E+02  0.00000000000E+00 0.  1.
</event>
<event>
 7    1  0.1543346E-008  0.4614232E+02  0.7816164E-02  0.1320468E+00
        -11   -1    0    0    0    0  0.00000000000E+00  0.00000000000E+00  0.45593999997E+02  0.45594000000E+02  0.51100000000E-03 0.  1.
         11   -1    0    0    0    0 -0.00000000000E+00 -0.00000000000E+00 -0.45593999997E+02  0.45594000000E+02  0.51100000000E-03 0. -1.
    9900012    2    1    2    0    0 -0.10821573237E+02 -0.42625052632E+02 -0.97525455114E+01  0.46142315377E+02  0.99999782624E+01 0.  0.
        -12    1    1    2    0    0  0.10821573237E+02  0.42625052632E+02  0.97525455114E+01  0.45045684623E+02  0.00000000000E+00 0.  1.
         11    1    3    3    0    0 -0.98794601611E+00 -0.86095300854E+01 -0.49432144482E+01  0.99767437054E+01  0.51100000000E-03 0.  1.
        -11    1    3    3    0    0  0.60851365759E+00 -0.35268409706E+01 -0.98596470284E+00  0.37122799948E+01  0.51100000000E-03 0. -1.
         12    1    3    3    0    0 -0.10442140878E+02 -0.30488681576E+02 -0.38233663603E+01  0.32453291677E+02  0.00000000000E+00 0. -1.
</event>
<event>
 7    1  0.1543346E-008  0.4614232E+02  0.7816164E-02  0.1320468E+00
        -11   -1    0    0    0    0  0.00000000000E+00  0.00000000000E+00  0.45593999997E+02  0.45594000000E+02  0.51100000000E-03 0. -1.
         11   -1    0    0    0    0 -0.00000000000E+00 -0.00000000000E+00 -0.45593999997E+02  0.45594000000E+02  0.51100000000E-03 0.  1.
    9900012    2    1    2    0    0  0.40654523153E+02  0.16141606029E+02 -0.10759729842E+02  0.46142317807E+02  0.10000000416E+02 0.  0.
        -12    1    1    2    0    0 -0.40654523153E+02 -0.16141606029E+02  0.10759729842E+02  0.45045682193E+02  0.00000000000E+00 0.  1.
         11    1    3    3    0    0 -0.21399561687E+00 -0.10990114010E+00 -0.49804144217E+00  0.55309847575E+00  0.51100000000E-03 0. -1.
        -11    1    3    3    0    0  0.18873718962E+02  0.49366932310E+01 -0.65433662081E+01  0.20576779367E+02  0.51100000000E-03 0.  1.
         12    1    3    3    0    0  0.21994799807E+02  0.11314813938E+02 -0.37183221917E+01  0.25012439964E+02  0.00000000000E+00 0. -1.
</event>
<event>
 7    1  0.1543346E-008  0.4614232E+02  0.7816164E-02  0.1320468E+00
        -11   -1    0    0    0    0  0.00000000000E+00  0.00000000000E+00  0.45593999997E+02  0.45594000000E+02  0.51100000000E-03 0.  1.
         11   -1    0    0    0    0 -0.00000000000E+00 -0.00000000000E+00 -0.45593999997E+02  0.45594000000E+02  0.51100000000E-03 0. -1.
    9900012    2    1    2    0    0 -0.25374337152E+02  0.12360086261E+02 -0.35106762815E+02  0.46142317481E+02  0.99999974432E+01 0.  0.
        -12    1    1    2    0    0  0.25374337152E+02 -0.12360086261E+02  0.35106762815E+02  0.45045682519E+02  0.00000000000E+00 0.  1.
         11    1    3    3    0    0 -0.15765792333E+02  0.65291219713E+01 -0.21494372218E+02  0.27444447141E+02  0.51100000000E-03 0.  1.
        -11    1    3    3    0    0 -0.82564925459E+00  0.23176901442E+01 -0.62312343851E+01  0.66993780696E+01  0.51100000000E-03 0. -1.
        -12    1    3    3    0    0 -0.87828955649E+01  0.35132741454E+01 -0.73811562121E+01  0.11998492270E+02  0.00000000000E+00 0.  1.
</event>
<event>
 7    1  0.1543346E-008  0.4614231E+02  0.7816164E-02  0.1320468E+00
        -11   -1    0    0    0    0  0.00000000000E+00  0.00000000000E+00  0.45593999997E+02  0.45594000000E+02  0.51100000000E-03 0. -1.
         11   -1    0    0    0    0 -0.00000000000E+00 -0.00000000000E+00 -0.45593999997E+02  0.45594000000E+02  0.51100000000E-03 0.  1.
    9900012    2    1    2    0    0  0.15264281386E+02  0.34826875122E+02  0.24149631252E+02  0.46142309788E+02  0.99999272990E+01 0.  0.
        -12    1    1    2    0    0 -0.15264281386E+02 -0.34826875122E+02 -0.24149631252E+02  0.45045690212E+02  0.00000000000E+00 0.  1.
         11    1    3    3    0    0  0.40998405243E+01  0.61307811411E+01  0.14948896762E+01  0.75252817310E+01  0.51100000000E-03 0. -1.
        -11    1    3    3    0    0  0.63214376403E+01  0.21539312872E+02  0.18177176051E+02  0.28884464722E+02  0.51100000000E-03 0.  1.
         12    1    3    3    0    0  0.48430032214E+01  0.71567811089E+01  0.44775655255E+01  0.97325633354E+01  0.00000000000E+00 0. -1.
</event>
<event>
 7    1  0.1543346E-008  0.4614232E+02  0.7816164E-02  0.1320468E+00
        -11   -1    0    0    0    0  0.00000000000E+00  0.00000000000E+00  0.45593999997E+02  0.45594000000E+02  0.51100000000E-03 0. -1.
         11   -1    0    0    0    0 -0.00000000000E+00 -0.00000000000E+00 -0.45593999997E+02  0.45594000000E+02  0.51100000000E-03 0.  1.
    9900012    2    1    2    0    0 -0.31501198557E+02 -0.37733190703E+01  0.31977336664E+02  0.46142317549E+02  0.99999980700E+01 0.  0.
        -12    1    1    2    0    0  0.31501198557E+02  0.37733190703E+01 -0.31977336664E+02  0.45045682451E+02  0.00000000000E+00 0.  1.
         11    1    3    3    0    0 -0.16497188797E+02 -0.40285891135E+01  0.18146458620E+02  0.24853183482E+02  0.51100000000E-03 0. -1.
        -11    1    3    3    0    0 -0.74160316160E+01  0.29937879167E+01  0.81788890892E+01  0.11439165967E+02  0.51100000000E-03 0.  1.
        -12    1    3    3    0    0 -0.75879781434E+01 -0.27385178735E+01  0.56519889542E+01  0.98499681008E+01  0.00000000000E+00 0.  1.
</event>
<event>
 7    1  0.1543346E-008  0.4614231E+02  0.7816164E-02  0.1320468E+00
        -11   -1    0    0    0    0  0.00000000000E+00  0.00000000000E+00  0.45593999997E+02  0.45594000000E+02  0.51100000000E-03 0. -1.
         11   -1    0    0    0    0 -0.00000000000E+00 -0.00000000000E+00 -0.45593999997E+02  0.45594000000E+02  0.51100000000E-03 0.  1.
    9900012    2    1    2    0    0  0.40845770949E+02 -0.10345844176E+02  0.15927985782E+02  0.46142309560E+02  0.99999252148E+01 0.  0.
        -12    1    1    2    0    0 -0.40845770949E+02  0.10345844176E+02 -0.15927985782E+02  0.45045690440E+02  0.00000000000E+00 0.  1.
         11    1    3    3    0    0  0.88963573371E+01 -0.49471543202E+01  0.19534063970E+01  0.10365100412E+02  0.51100000000E-03 0.  1.
        -11    1    3    3    0    0  0.12487092586E+02 -0.50478921012E+01  0.55926429261E+01  0.14583770126E+02  0.51100000000E-03 0. -1.
         12    1    3    3    0    0  0.19462321026E+02 -0.35079775419E+00  0.83819364592E+01  0.21193439022E+02  0.00000000000E+00 0. -1.
</event>
<event>
 7    1  0.1543346E-008  0.4614232E+02  0.7816164E-02  0.1320468E+00
        -11   -1    0    0    0    0  0.00000000000E+00  0.00000000000E+00  0.45593999997E+02  0.45594000000E+02  0.51100000000E-03 0.  1.
         11   -1    0    0    0    0 -0.00000000000E+00 -0.00000000000E+00 -0.45593999997E+02  0.45594000000E+02  0.51100000000E-03 0. -1.
    9900012    2    1    2    0    0  0.29499716651E+02  0.32131753404E+02 -0.11244134062E+02  0.46142318630E+02  0.10000007920E+02 0.  0.
        -12    1    1    2    0    0 -0.29499716651E+02 -0.32131753404E+02  0.11244134062E+02  0.45045681370E+02  0.00000000000E+00 0.  1.
         11    1    3    3    0    0  0.28931550472E+01  0.38053858691E+01 -0.26682415297E+01  0.54745612483E+01  0.51100000000E-03 0. -1.
        -11    1    3    3    0    0  0.24000614005E+02  0.27991195193E+02 -0.91235206281E+01  0.37983879605E+02  0.51100000000E-03 0.  1.
        -12    1    3    3    0    0  0.26059475987E+01  0.33517234202E+00  0.54762809534E+00  0.26838777761E+01  0.00000000000E+00 0.  1.
</event>
<event>
 7    1  0.1543346E-008  0.4614232E+02  0.7816164E-02  0.1320468E+00
        -11   -1    0    0    0    0  0.00000000000E+00  0.00000000000E+00  0.45593999997E+02  0.45594000000E+02  0.51100000000E-03 0. -1.
         11   -1    0    0    0    0 -0.00000000000E+00 -0.00000000000E+00 -0.45593999997E+02  0.45594000000E+02  0.51100000000E-03 0.  1.
    9900012    2    1    2    0    0  0.12766496186E+02 -0.42174437298E+02 -0.93513074450E+01  0.46142317219E+02  0.99999950599E+01 0.  0.
        -12    1    1    2    0    0 -0.12766496186E+02  0.42174437298E+02  0.93513074450E+01  0.45045682781E+02  0.00000000000E+00 0.  1.
         11    1    3    3    0    0  0.30474999288E+01 -0.14442826825E+02  0.87744244497E+00  0.14786899879E+02  0.51100000000E-03 0. -1.
        -11    1    3    3    0    0  0.10044778394E+02 -0.27361421088E+02 -0.10055654692E+02  0.30832793070E+02  0.51100000000E-03 0.  1.
        -12    1    3    3    0    0 -0.32578213664E+00 -0.37018938457E+00 -0.17309519802E+00  0.52262427095E+00  0.00000000000E+00 0.  1.
</event>
<event>
 7    1  0.1543346E-008  0.4614232E+02  0.7816164E-02  0.1320468E+00
        -11   -1    0    0    0    0  0.00000000000E+00  0.00000000000E+00  0.45593999997E+02  0.45594000000E+02  0.51100000000E-03 0.  1.
         11   -1    0    0    0    0 -0.00000000000E+00 -0.00000000000E+00 -0.45593999997E+02  0.45594000000E+02  0.51100000000E-03 0. -1.
    9900012    2    1    2    0    0 -0.54653625135E+01  0.18235643770E+00 -0.44712526457E+02  0.46142318038E+02  0.10000002523E+02 0.  0.
        -12    1    1    2    0    0  0.54653625135E+01 -0.18235643770E+00  0.44712526457E+02  0.45045681962E+02  0.00000000000E+00 0.  1.
         11    1    3    3    0    0 -0.92645077253E+00 -0.50045536981E+00 -0.73278298296E+00  0.12828631152E+01  0.51100000000E-03 0. -1.
        -11    1    3    3    0    0 -0.16667750062E+00 -0.61347719966E-01 -0.33233408066E+02  0.33233882663E+02  0.51100000000E-03 0.  1.
        -12    1    3    3    0    0 -0.43722342404E+01  0.74415952748E+00 -0.10746335408E+02  0.11625572260E+02  0.00000000000E+00 0.  1.
</event>
<event>
 7    1  0.1543346E-008  0.4614232E+02  0.7816164E-02  0.1320468E+00
        -11   -1    0    0    0    0  0.00000000000E+00  0.00000000000E+00  0.45593999997E+02  0.45594000000E+02  0.51100000000E-03 0. -1.
         11   -1    0    0    0    0 -0.00000000000E+00 -0.00000000000E+00 -0.45593999997E+02  0.45594000000E+02  0.51100000000E-03 0.  1.
    9900012    2    1    2    0    0  0.30419670111E+02 -0.33135034445E+02  0.24138421015E+01  0.46142317954E+02  0.10000001755E+02 0.  0.
        -12    1    1    2    0    0 -0.30419670111E+02  0.33135034445E+02 -0.24138421015E+01  0.45045682046E+02  0.00000000000E+00 0.  1.
         11    1    3    3    0    0  0.57218834169E+01 -0.28756135008E+01  0.50542286262E+00  0.64237493237E+01  0.51100000000E-03 0. -1.
        -11    1    3    3    0    0  0.20071875241E+02 -0.19636825918E+02  0.10219294894E+01  0.28098566654E+02  0.51100000000E-03 0.  1.
        -12    1    3    3    0    0  0.46259114529E+01 -0.10622595026E+02  0.88648974944E+00  0.11620001976E+02  0.00000000000E+00 0.  1.
</event>
<event>
 7    1  0.1543346E-008  0.4614232E+02  0.7816164E-02  0.1320468E+00
        -11   -1    0    0    0    0  0.00000000000E+00  0.00000000000E+00  0.45593999997E+02  0.45594000000E+02  0.51100000000E-03 0.  1.
         11   -1    0    0    0    0 -0.00000000000E+00 -0.00000000000E+00 -0.45593999997E+02  0.45594000000E+02  0.51100000000E-03 0. -1.
    9900012    2    1    2    0    0  0.76741577324E+01 -0.28204018192E+02 -0.34274686125E+02  0.46142318209E+02  0.10000004081E+02 0.  0.
        -12    1    1    2    0    0 -0.76741577324E+01  0.28204018192E+02  0.34274686125E+02  0.45045681791E+02  0.00000000000E+00 0.  1.
         11    1    3    3    0    0 -0.16215261031E+01 -0.11328955685E+02 -0.11414094996E+02  0.16163420079E+02  0.51100000000E-03 0. -1.
        -11    1    3    3    0    0  0.86523098132E+01 -0.14284436849E+02 -0.20205999828E+02  0.26214309652E+02  0.51100000000E-03 0.  1.
        -12    1    3    3    0    0  0.64337402219E+00 -0.25906256588E+01 -0.26545913002E+01  0.37645884778E+01  0.00000000000E+00 0.  1.
</event>
<event>
 7    1  0.1543346E-008  0.4614232E+02  0.7816164E-02  0.1320468E+00
        -11   -1    0    0    0    0  0.00000000000E+00  0.00000000000E+00  0.45593999997E+02  0.45594000000E+02  0.51100000000E-03 0. -1.
         11   -1    0    0    0    0 -0.00000000000E+00 -0.00000000000E+00 -0.45593999997E+02  0.45594000000E+02  0.51100000000E-03 0.  1.
    9900012    2    1    2    0    0 -0.13251967102E+02  0.11766639885E+02  0.41413102419E+02  0.46142317652E+02  0.99999990061E+01 0.  0.
        -12    1    1    2    0    0  0.13251967102E+02 -0.11766639885E+02 -0.41413102419E+02  0.45045682348E+02  0.00000000000E+00 0.  1.
         11    1    3    3    0    0  0.55027714391E+00  0.15731134523E+01  0.14303118954E+01  0.21961974520E+01  0.51100000000E-03 0. -1.
        -11    1    3    3    0    0 -0.10800226086E+02  0.55784225220E+01  0.21944546717E+02  0.25086386991E+02  0.51100000000E-03 0.  1.
         12    1    3    3    0    0 -0.30020181595E+01  0.46151039108E+01  0.18038243806E+02  0.18859733210E+02  0.00000000000E+00 0. -1.
</event>
<event>
 7    1  0.1543346E-008  0.4614232E+02  0.7816164E-02  0.1320468E+00
        -11   -1    0    0    0    0  0.00000000000E+00  0.00000000000E+00  0.45593999997E+02  0.45594000000E+02  0.51100000000E-03 0.  1.
         11   -1    0    0    0    0 -0.00000000000E+00 -0.00000000000E+00 -0.45593999997E+02  0.45594000000E+02  0.51100000000E-03 0. -1.
    9900012    2    1    2    0    0 -0.39796022075E+02  0.21104266558E+02  0.94454251327E-02  0.46142317308E+02  0.99999958721E+01 0.  0.
        -12    1    1    2    0    0  0.39796022075E+02 -0.21104266558E+02 -0.94454251327E-02  0.45045682692E+02  0.00000000000E+00 0.  1.
         11    1    3    3    0    0 -0.71837704666E+01  0.62428530216E+01 -0.16841093125E+01  0.96651951043E+01  0.51100000000E-03 0.  1.
        -11    1    3    3    0    0 -0.23050743606E+02  0.13646932220E+02  0.83468844775E+00  0.26800601576E+02  0.51100000000E-03 0. -1.
        -12    1    3    3    0    0 -0.95615080029E+01  0.12144813159E+01  0.85886628986E+00  0.96765206278E+01  0.00000000000E+00 0.  1.
</event>
<event>
 7    1  0.1543346E-008  0.4614231E+02  0.7816164E-02  0.1320468E+00
        -11   -1    0    0    0    0  0.00000000000E+00  0.00000000000E+00  0.45593999997E+02  0.45594000000E+02  0.51100000000E-03 0.  1.
         11   -1    0    0    0    0 -0.00000000000E+00 -0.00000000000E+00 -0.45593999997E+02  0.45594000000E+02  0.51100000000E-03 0. -1.
    9900012    2    1    2    0    0 -0.66012220757E+01  0.10785346799E+02 -0.43234411247E+02  0.46142310369E+02  0.99999325901E+01 0.  0.
        -12    1    1    2    0    0  0.66012220757E+01 -0.10785346799E+02  0.43234411247E+02  0.45045689631E+02  0.00000000000E+00 0.  1.
         11    1    3    3    0    0  0.24571096228E+00  0.78719996193E+01 -0.26018824054E+02  0.27184700795E+02  0.51100000000E-03 0. -1.
        -11    1    3    3    0    0 -0.10809470935E+01  0.17140419931E+00 -0.83472780558E+00  0.13764435292E+01  0.51100000000E-03 0.  1.
         12    1    3    3    0    0 -0.57659859445E+01  0.27419429805E+01 -0.16380859387E+02  0.17581166044E+02  0.00000000000E+00 0. -1.
</event>
<event>
 7    1  0.1543346E-008  0.4614232E+02  0.7816164E-02  0.1320468E+00
        -11   -1    0    0    0    0  0.00000000000E+00  0.00000000000E+00  0.45593999997E+02  0.45594000000E+02  0.51100000000E-03 0.  1.
         11   -1    0    0    0    0 -0.00000000000E+00 -0.00000000000E+00 -0.45593999997E+02  0.45594000000E+02  0.51100000000E-03 0. -1.
    9900012    2    1    2    0    0  0.38788725566E+02  0.13849797772E+02 -0.18240922765E+02  0.46142318823E+02  0.10000009686E+02 0.  0.
        -12    1    1    2    0    0 -0.38788725566E+02 -0.13849797772E+02  0.18240922765E+02  0.45045681177E+02  0.00000000000E+00 0.  1.
         11    1    3    3    0    0  0.25723107385E+02  0.11260854585E+02 -0.13097252047E+02  0.30984239719E+02  0.51100000000E-03 0. -1.
        -11    1    3    3    0    0  0.53584779233E+01 -0.43879509652E+00  0.62729586715E-01  0.53767798963E+01  0.51100000000E-03 0.  1.
         12    1    3    3    0    0  0.77071402579E+01  0.30277382835E+01 -0.52064003038E+01  0.97812992078E+01  0.00000000000E+00 0. -1.
</event>
<event>
 7    1  0.1543346E-008  0.4614232E+02  0.7816164E-02  0.1320468E+00
        -11   -1    0    0    0    0  0.00000000000E+00  0.00000000000E+00  0.45593999997E+02  0.45594000000E+02  0.51100000000E-03 0. -1.
         11   -1    0    0    0    0 -0.00000000000E+00 -0.00000000000E+00 -0.45593999997E+02  0.45594000000E+02  0.51100000000E-03 0.  1.
    9900012    2    1    2    0    0 -0.13033285286E+02  0.42601467636E+02 -0.66604769988E+01  0.46142317366E+02  0.99999963963E+01 0.  0.
        -12    1    1    2    0    0  0.13033285286E+02 -0.42601467636E+02  0.66604769988E+01  0.45045682634E+02  0.00000000000E+00 0.  1.
         11    1    3    3    0    0 -0.45512283063E+01  0.16489917972E+02 -0.22777199249E+01  0.17257435561E+02  0.51100000000E-03 0. -1.
        -11    1    3    3    0    0 -0.57291418052E+01  0.79985751888E+01  0.72450387201E+00  0.98653523504E+01  0.51100000000E-03 0.  1.
        -12    1    3    3    0    0 -0.27529151748E+01  0.18112974476E+02 -0.51072609458E+01  0.19019529455E+02  0.00000000000E+00 0.  1.
</event>
<event>
 7    1  0.1543346E-008  0.4614232E+02  0.7816164E-02  0.1320468E+00
        -11   -1    0    0    0    0  0.00000000000E+00  0.00000000000E+00  0.45593999997E+02  0.45594000000E+02  0.51100000000E-03 0.  1.
         11   -1    0    0    0    0 -0.00000000000E+00 -0.00000000000E+00 -0.45593999997E+02  0.45594000000E+02  0.51100000000E-03 0. -1.
    9900012    2    1    2    0    0 -0.33163149623E+02 -0.60328401731E+01 -0.29881831065E+02  0.46142317840E+02  0.10000000721E+02 0.  0.
        -12    1    1    2    0    0  0.33163149623E+02  0.60328401731E+01  0.29881831065E+02  0.45045682160E+02  0.00000000000E+00 0.  1.
         11    1    3    3    0    0 -0.94535703745E+01  0.10063219029E+01 -0.12053986966E+02  0.15351914494E+02  0.51100000000E-03 0. -1.
        -11    1    3    3    0    0 -0.13214018140E+02 -0.57247273076E+01 -0.87434357990E+01  0.16847268264E+02  0.51100000000E-03 0.  1.
        -12    1    3    3    0    0 -0.10495561109E+02 -0.13144347685E+01 -0.90844082994E+01  0.13943135081E+02  0.00000000000E+00 0.  1.
</event>
<event>
 7    1  0.1543346E-008  0.4614232E+02  0.7816164E-02  0.1320468E+00
        -11   -1    0    0    0    0  0.00000000000E+00  0.00000000000E+00  0.45593999997E+02  0.45594000000E+02  0.51100000000E-03 0.  1.
         11   -1    0    0    0    0 -0.00000000000E+00 -0.00000000000E+00 -0.45593999997E+02  0.45594000000E+02  0.51100000000E-03 0. -1.
    9900012    2    1    2    0    0 -0.15840611226E+02  0.41964577333E+02 -0.41427943023E+01  0.46142318083E+02  0.10000002933E+02 0.  0.
        -12    1    1    2    0    0  0.15840611226E+02 -0.41964577333E+02  0.41427943023E+01  0.45045681917E+02  0.00000000000E+00 0.  1.
         11    1    3    3    0    0 -0.10178912795E+02  0.25438610489E+02 -0.41958166666E+01  0.27718911361E+02  0.51100000000E-03 0. -1.
        -11    1    3    3    0    0  0.24011102020E+00  0.79052265075E+01  0.80052197814E+00  0.79492826805E+01  0.51100000000E-03 0.  1.
        -12    1    3    3    0    0 -0.59018094512E+01  0.86207403368E+01 -0.74749961390E+00  0.10474124041E+02  0.00000000000E+00 0.  1.
</event>
<event>
 7    1  0.1543346E-008  0.4614232E+02  0.7816164E-02  0.1320468E+00
        -11   -1    0    0    0    0  0.00000000000E+00  0.00000000000E+00  0.45593999997E+02  0.45594000000E+02  0.51100000000E-03 0. -1.
         11   -1    0    0    0    0 -0.00000000000E+00 -0.00000000000E+00 -0.45593999997E+02  0.45594000000E+02  0.51100000000E-03 0.  1.
    9900012    2    1    2    0    0  0.36344227489E+02  0.25180575649E+02  0.86109894433E+01  0.46142318731E+02  0.10000008847E+02 0.  0.
        -12    1    1    2    0    0 -0.36344227489E+02 -0.25180575649E+02 -0.86109894433E+01  0.45045681269E+02  0.00000000000E+00 0.  1.
         11    1    3    3    0    0  0.15187414994E+02  0.13986186375E+02  0.76119537655E+01  0.22004836375E+02  0.51100000000E-03 0. -1.
        -11    1    3    3    0    0  0.72573385410E+01  0.54542828950E+01  0.32155501197E+00  0.90841379605E+01  0.51100000000E-03 0.  1.
         12    1    3    3    0    0  0.13899473954E+02  0.57401063792E+01  0.67748066573E+00  0.15053344396E+02  0.00000000000E+00 0. -1.
</event>
<event>
 7    1  0.1543346E-008  0.4614232E+02  0.7816164E-02  0.1320468E+00
        -11   -1    0    0    0    0  0.00000000000E+00  0.00000000000E+00  0.45593999997E+02  0.45594000000E+02  0.51100000000E-03 0.  1.
         11   -1    0    0    0    0 -0.00000000000E+00 -0.00000000000E+00 -0.45593999997E+02  0.45594000000E+02  0.51100000000E-03 0. -1.
    9900012    2    1    2    0    0 -0.24558393362E+02  0.30217059073E+02 -0.22647917032E+02  0.46142317749E+02  0.99999998908E+01 0.  0.
        -12    1    1    2    0    0  0.24558393362E+02 -0.30217059073E+02  0.22647917032E+02  0.45045682251E+02  0.00000000000E+00 0.  1.
         11    1    3    3    0    0 -0.38325121866E+01  0.61992793772E+01 -0.34510721611E+01  0.80640631061E+01  0.51100000000E-03 0. -1.
        -11    1    3    3    0    0 -0.10085286383E+01 -0.47403479515E+00  0.20291905299E+00  0.11327026990E+01  0.51100000000E-03 0.  1.
        -12    1    3    3    0    0 -0.19717352537E+02  0.24491814491E+02 -0.19399763924E+02  0.36945551944E+02  0.00000000000E+00 0.  1.
</event>
<event>
 7    1  0.1543346E-008  0.4614232E+02  0.7816164E-02  0.1320468E+00
        -11   -1    0    0    0    0  0.00000000000E+00  0.00000000000E+00  0.45593999997E+02  0.45594000000E+02  0.51100000000E-03 0.  1.
         11   -1    0    0    0    0 -0.00000000000E+00 -0.00000000000E+00 -0.45593999997E+02  0.45594000000E+02  0.51100000000E-03 0. -1.
    9900012    2    1    2    0    0  0.33862408704E+02 -0.17748511801E+01 -0.29653005060E+02  0.46142317310E+02  0.99999958845E+01 0.  0.
        -12    1    1    2    0    0 -0.33862408704E+02  0.17748511801E+01  0.29653005060E+02  0.45045682690E+02  0.00000000000E+00 0.  1.
         11    1    3    3    0    0  0.30253220385E+02 -0.23931401572E+01 -0.27242735756E+02  0.40781749782E+02  0.51100000000E-03 0. -1.
        -11    1    3    3    0    0 -0.47722866010E+00  0.30790685980E+00  0.66926723843E-01  0.57186823291E+00  0.51100000000E-03 0.  1.
        -12    1    3    3    0    0  0.40864169788E+01  0.31038211735E+00 -0.24771960274E+01  0.47886992954E+01  0.00000000000E+00 0.  1.
</event>
<event>
 7    1  0.1543346E-008  0.4614232E+02  0.7816164E-02  0.1320468E+00
        -11   -1    0    0    0    0  0.00000000000E+00  0.00000000000E+00  0.45593999997E+02  0.45594000000E+02  0.51100000000E-03 0.  1.
         11   -1    0    0    0    0 -0.00000000000E+00 -0.00000000000E+00 -0.45593999997E+02  0.45594000000E+02  0.51100000000E-03 0. -1.
    9900012    2    1    2    0    0  0.24753630234E+02 -0.16816208372E+01 -0.37597119356E+02  0.46142318272E+02  0.10000004662E+02 0.  0.
        -12    1    1    2    0    0 -0.24753630234E+02  0.16816208372E+01  0.37597119356E+02  0.45045681728E+02  0.00000000000E+00 0.  1.
         11    1    3    3    0    0  0.17526808634E+02 -0.31502368397E+01 -0.25038325572E+02  0.30725083576E+02  0.51100000000E-03 0. -1.
        -11    1    3    3    0    0  0.48581826402E+01  0.10487849971E+01 -0.35890189438E+01  0.61304931103E+01  0.51100000000E-03 0.  1.
         12    1    3    3    0    0  0.23686389599E+01  0.41983100549E+00 -0.89697748409E+01  0.92867415864E+01  0.00000000000E+00 0. -1.
</event>
<event>
 7    1  0.1543346E-008  0.4614232E+02  0.7816164E-02  0.1320468E+00
        -11   -1    0    0    0    0  0.00000000000E+00  0.00000000000E+00  0.45593999997E+02  0.45594000000E+02  0.51100000000E-03 0.  1.
         11   -1    0    0    0    0 -0.00000000000E+00 -0.00000000000E+00 -0.45593999997E+02  0.45594000000E+02  0.51100000000E-03 0. -1.
    9900012    2    1    2    0    0 -0.15754497482E+02  0.27686126133E+02 -0.31849453993E+02  0.46142317734E+02  0.99999997541E+01 0.  0.
        -12    1    1    2    0    0  0.15754497482E+02 -0.27686126133E+02  0.31849453993E+02  0.45045682266E+02  0.00000000000E+00 0.  1.
         11    1    3    3    0    0 -0.12401394314E+02  0.23230761570E+02 -0.22897144085E+02  0.34896161272E+02  0.51100000000E-03 0. -1.
        -11    1    3    3    0    0  0.43512004332E+00  0.25048137066E+01 -0.35222298597E+01  0.43439066061E+01  0.51100000000E-03 0.  1.
         12    1    3    3    0    0 -0.37882232110E+01  0.19505508569E+01 -0.54300800480E+01  0.69022498556E+01  0.00000000000E+00 0. -1.
</event>
<event>
 7    1  0.1543346E-008  0.4614232E+02  0.7816164E-02  0.1320468E+00
        -11   -1    0    0    0    0  0.00000000000E+00  0.00000000000E+00  0.45593999997E+02  0.45594000000E+02  0.51100000000E-03 0.  1.
         11   -1    0    0    0    0 -0.00000000000E+00 -0.00000000000E+00 -0.45593999997E+02  0.45594000000E+02  0.51100000000E-03 0. -1.
    9900012    2    1    2    0    0  0.62855232261E+01  0.40395949953E+02  0.18914886655E+02  0.46142317499E+02  0.99999976058E+01 0.  0.
        -12    1    1    2    0    0 -0.62855232261E+01 -0.40395949953E+02 -0.18914886655E+02  0.45045682501E+02  0.00000000000E+00 0.  1.
         11    1    3    3    0    0  0.26698959991E+01  0.31607524602E+02  0.14701878734E+02  0.34961538792E+02  0.51100000000E-03 0. -1.
        -11    1    3    3    0    0  0.37182822937E+01  0.48673344551E+01  0.12164525584E+01  0.62447037561E+01  0.51100000000E-03 0.  1.
        -12    1    3    3    0    0 -0.10265506674E+00  0.39210908963E+01  0.29965553626E+01  0.49360749509E+01  0.00000000000E+00 0.  1.
</event>
<event>
 7    1  0.1543346E-008  0.4614232E+02  0.7816164E-02  0.1320468E+00
        -11   -1    0    0    0    0  0.00000000000E+00  0.00000000000E+00  0.45593999997E+02  0.45594000000E+02  0.51100000000E-03 0.  1.
         11   -1    0    0    0    0 -0.00000000000E+00 -0.00000000000E+00 -0.45593999997E+02  0.45594000000E+02  0.51100000000E-03 0. -1.
    9900012    2    1    2    0    0  0.10475623796E+01 -0.55911116541E+01 -0.44685069039E+02  0.46142319725E+02  0.10000017906E+02 0.  0.
        -12    1    1    2    0    0 -0.10475623796E+01  0.55911116541E+01  0.44685069039E+02  0.45045680275E+02  0.00000000000E+00 0.  1.
         11    1    3    3    0    0  0.13489828836E+01 -0.43812027154E+01 -0.24585546456E+02  0.25009274017E+02  0.51100000000E-03 0. -1.
        -11    1    3    3    0    0  0.26410313742E+01 -0.15517498867E+01 -0.14258445069E+02  0.14583765991E+02  0.51100000000E-03 0.  1.
        -12    1    3    3    0    0 -0.29424518782E+01  0.34184094793E+00 -0.58410775137E+01  0.65492797169E+01  0.00000000000E+00 0.  1.
</event>
<event>
 7    1  0.1543346E-008  0.4614232E+02  0.7816164E-02  0.1320468E+00
        -11   -1    0    0    0    0  0.00000000000E+00  0.00000000000E+00  0.45593999997E+02  0.45594000000E+02  0.51100000000E-03 0.  1.
         11   -1    0    0    0    0 -0.00000000000E+00 -0.00000000000E+00 -0.45593999997E+02  0.45594000000E+02  0.51100000000E-03 0. -1.
    9900012    2    1    2    0    0  0.14830178203E+02 -0.18352359144E+01 -0.42494837140E+02  0.46142318076E+02  0.10000002874E+02 0.  0.
        -12    1    1    2    0    0 -0.14830178203E+02  0.18352359144E+01  0.42494837140E+02  0.45045681924E+02  0.00000000000E+00 0.  1.
         11    1    3    3    0    0  0.82914943726E+00 -0.12173559265E+01 -0.90363058635E+01  0.91555594127E+01  0.51100000000E-03 0. -1.
        -11    1    3    3    0    0  0.69429410740E+01 -0.31610782845E+01 -0.11664844154E+02  0.13937913620E+02  0.51100000000E-03 0.  1.
        -12    1    3    3    0    0  0.70580876921E+01  0.25431982966E+01 -0.21793687123E+02  0.23048845044E+02  0.00000000000E+00 0.  1.
</event>
<event>
 7    1  0.1543346E-008  0.4614232E+02  0.7816164E-02  0.1320468E+00
        -11   -1    0    0    0    0  0.00000000000E+00  0.00000000000E+00  0.45593999997E+02  0.45594000000E+02  0.51100000000E-03 0.  1.
         11   -1    0    0    0    0 -0.00000000000E+00 -0.00000000000E+00 -0.45593999997E+02  0.45594000000E+02  0.51100000000E-03 0. -1.
    9900012    2    1    2    0    0 -0.23031551389E+02  0.26323264926E+02 -0.28385678932E+02  0.46142318696E+02  0.10000008523E+02 0.  0.
        -12    1    1    2    0    0  0.23031551389E+02 -0.26323264926E+02  0.28385678932E+02  0.45045681304E+02  0.00000000000E+00 0.  1.
         11    1    3    3    0    0 -0.13496535634E+02  0.12490621981E+02 -0.10374840687E+02  0.21114199752E+02  0.51100000000E-03 0. -1.
        -11    1    3    3    0    0  0.48890713283E+00  0.61393110476E+00 -0.70256304932E+00  0.10533454729E+01  0.51100000000E-03 0.  1.
         12    1    3    3    0    0 -0.10023922887E+02  0.13218711840E+02 -0.17308275195E+02  0.23974773471E+02  0.00000000000E+00 0. -1.
</event>
<event>
 7    1  0.1543346E-008  0.4614232E+02  0.7816164E-02  0.1320468E+00
        -11   -1    0    0    0    0  0.00000000000E+00  0.00000000000E+00  0.45593999997E+02  0.45594000000E+02  0.51100000000E-03 0.  1.
         11   -1    0    0    0    0 -0.00000000000E+00 -0.00000000000E+00 -0.45593999997E+02  0.45594000000E+02  0.51100000000E-03 0. -1.
    9900012    2    1    2    0    0 -0.34299424929E+02 -0.37835754149E+01 -0.28954231963E+02  0.46142317166E+02  0.99999945763E+01 0.  0.
        -12    1    1    2    0    0  0.34299424929E+02  0.37835754149E+01  0.28954231963E+02  0.45045682834E+02  0.00000000000E+00 0.  1.
         11    1    3    3    0    0  0.55111022026E+00 -0.27693194474E+00 -0.10819684022E+01  0.12454194721E+01  0.51100000000E-03 0. -1.
        -11    1    3    3    0    0 -0.26589806129E+02 -0.36480195524E+01 -0.19858609300E+02  0.33386976506E+02  0.51100000000E-03 0.  1.
         12    1    3    3    0    0 -0.82607290200E+01  0.14137608222E+00 -0.80136542611E+01  0.11509921188E+02  0.00000000000E+00 0. -1.
</event>
<event>
 7    1  0.1543346E-008  0.4614232E+02  0.7816164E-02  0.1320468E+00
        -11   -1    0    0    0    0  0.00000000000E+00  0.00000000000E+00  0.45593999997E+02  0.45594000000E+02  0.51100000000E-03 0. -1.
         11   -1    0    0    0    0 -0.00000000000E+00 -0.00000000000E+00 -0.45593999997E+02  0.45594000000E+02  0.51100000000E-03 0.  1.
    9900012    2    1    2    0    0 -0.52014177384E+01  0.91876203733E+01  0.43790939460E+02  0.46142317705E+02  0.99999994881E+01 0.  0.
        -12    1    1    2    0    0  0.52014177384E+01 -0.91876203733E+01 -0.43790939460E+02  0.45045682295E+02  0.00000000000E+00 0.  1.
         11    1    3    3    0    0 -0.55872101221E+01  0.10494916952E+02  0.42610548772E+02  0.44238208211E+02  0.51100000000E-03 0. -1.
        -11    1    3    3    0    0  0.41070800016E+00 -0.36118294108E+00  0.40401048757E+00  0.67996978868E+00  0.51100000000E-03 0.  1.
         12    1    3    3    0    0 -0.24915616456E-01 -0.94611363750E+00  0.77638020075E+00  0.12241397057E+01  0.00000000000E+00 0. -1.
</event>
<event>
 7    1  0.1553648E-008  0.4614232E+02  0.7816164E-02  0.1320468E+00
        -11   -1    0    0    0    0  0.00000000000E+00  0.00000000000E+00  0.45593999997E+02  0.45594000000E+02  0.51100000000E-03 0. -1.
         11   -1    0    0    0    0 -0.00000000000E+00 -0.00000000000E+00 -0.45593999997E+02  0.45594000000E+02  0.51100000000E-03 0.  1.
    9900012    2    1    2    0    0  0.89881693217E+01  0.33359498595E+02  0.28904499838E+02  0.46142318241E+02  0.10000004373E+02 0.  0.
        -12    1    1    2    0    0 -0.89881693217E+01 -0.33359498595E+02 -0.28904499838E+02  0.45045681759E+02  0.00000000000E+00 0.  1.
         11    1    3    3    0    0 -0.17589434140E+00  0.10417993373E+02  0.12695965340E+02  0.16424160889E+02  0.51100000000E-03 0. -1.
        -11    1    3    3    0    0  0.22853411960E+01  0.52957166392E+01  0.22508896718E+01  0.61914379332E+01  0.51100000000E-03 0.  1.
         12    1    3    3    0    0  0.68787224671E+01  0.17645788583E+02  0.13957644827E+02  0.23526719419E+02  0.00000000000E+00 0. -1.
</event>
<event>
 7    1  0.1543346E-008  0.4614232E+02  0.7816164E-02  0.1320468E+00
        -11   -1    0    0    0    0  0.00000000000E+00  0.00000000000E+00  0.45593999997E+02  0.45594000000E+02  0.51100000000E-03 0. -1.
         11   -1    0    0    0    0 -0.00000000000E+00 -0.00000000000E+00 -0.45593999997E+02  0.45594000000E+02  0.51100000000E-03 0.  1.
    9900012    2    1    2    0    0  0.29267740895E+02  0.25880500147E+02  0.22421250829E+02  0.46142318368E+02  0.10000005532E+02 0.  0.
        -12    1    1    2    0    0 -0.29267740895E+02 -0.25880500147E+02 -0.22421250829E+02  0.45045681632E+02  0.00000000000E+00 0.  1.
         11    1    3    3    0    0  0.15159418264E+02  0.13326753030E+02  0.11944675778E+02  0.23453903473E+02  0.51100000000E-03 0. -1.
        -11    1    3    3    0    0  0.41515175123E+01  0.34351501072E+01 -0.32455224333E+00  0.53982115866E+01  0.51100000000E-03 0.  1.
        -12    1    3    3    0    0  0.99568051189E+01  0.91185970096E+01  0.10801127294E+02  0.17290203308E+02  0.00000000000E+00 0.  1.
</event>
<event>
 7    1  0.1543346E-008  0.4614232E+02  0.7816164E-02  0.1320468E+00
        -11   -1    0    0    0    0  0.00000000000E+00  0.00000000000E+00  0.45593999997E+02  0.45594000000E+02  0.51100000000E-03 0.  1.
         11   -1    0    0    0    0 -0.00000000000E+00 -0.00000000000E+00 -0.45593999997E+02  0.45594000000E+02  0.51100000000E-03 0. -1.
    9900012    2    1    2    0    0 -0.40682581773E+02  0.19276468709E+02 -0.15680276928E+01  0.46142318559E+02  0.10000007276E+02 0.  0.
        -12    1    1    2    0    0  0.40682581773E+02 -0.19276468709E+02  0.15680276928E+01  0.45045681441E+02  0.00000000000E+00 0.  1.
         11    1    3    3    0    0 -0.20386036294E+02  0.77389468489E+01  0.28970072684E+01  0.21997145848E+02  0.51100000000E-03 0. -1.
        -11    1    3    3    0    0 -0.19893234949E+02  0.11425993347E+02 -0.49862905062E+01  0.23476737721E+02  0.51100000000E-03 0.  1.
         12    1    3    3    0    0 -0.40331053020E+00  0.11152851292E+00  0.52125554503E+00  0.66843499024E+00  0.00000000000E+00 0. -1.
</event>
<event>
 7    1  0.1543346E-008  0.4614232E+02  0.7816164E-02  0.1320468E+00
        -11   -1    0    0    0    0  0.00000000000E+00  0.00000000000E+00  0.45593999997E+02  0.45594000000E+02  0.51100000000E-03 0. -1.
         11   -1    0    0    0    0 -0.00000000000E+00 -0.00000000000E+00 -0.45593999997E+02  0.45594000000E+02  0.51100000000E-03 0.  1.
    9900012    2    1    2    0    0 -0.35763040575E+02 -0.27192501613E+02  0.32689825276E+01  0.46142318055E+02  0.10000002678E+02 0.  0.
        -12    1    1    2    0    0  0.35763040575E+02  0.27192501613E+02 -0.32689825276E+01  0.45045681945E+02  0.00000000000E+00 0.  1.
         11    1    3    3    0    0 -0.15642714292E+02 -0.94499218290E+01  0.89459034985E+00  0.18297426736E+02  0.51100000000E-03 0. -1.
        -11    1    3    3    0    0 -0.17480868548E+02 -0.12088915824E+02  0.33928500109E+01  0.21522873471E+02  0.51100000000E-03 0.  1.
        -12    1    3    3    0    0 -0.26394577341E+01 -0.56536639602E+01 -0.10184578331E+01  0.63220178474E+01  0.00000000000E+00 0.  1.
</event>
<event>
 7    1  0.1543346E-008  0.4614232E+02  0.7816164E-02  0.1320468E+00
        -11   -1    0    0    0    0  0.00000000000E+00  0.00000000000E+00  0.45593999997E+02  0.45594000000E+02  0.51100000000E-03 0.  1.
         11   -1    0    0    0    0 -0.00000000000E+00 -0.00000000000E+00 -0.45593999997E+02  0.45594000000E+02  0.51100000000E-03 0. -1.
    9900012    2    1    2    0    0  0.10225936042E+02  0.32168488446E+02 -0.29828376184E+02  0.46142318269E+02  0.10000004631E+02 0.  0.
        -12    1    1    2    0    0 -0.10225936042E+02 -0.32168488446E+02  0.29828376184E+02  0.45045681731E+02  0.00000000000E+00 0.  1.
         11    1    3    3    0    0  0.34565674306E+00  0.47840414020E+01 -0.42863797622E+01  0.64326963590E+01  0.51100000000E-03 0. -1.
        -11    1    3    3    0    0 -0.12758680338E+01  0.67664532156E+01 -0.70148196928E+01  0.98295688584E+01  0.51100000000E-03 0.  1.
        -12    1    3    3    0    0  0.11156147333E+02  0.20617993828E+02 -0.18527176729E+02  0.29880053052E+02  0.00000000000E+00 0.  1.
</event>
<event>
 7    1  0.1543346E-008  0.4614232E+02  0.7816164E-02  0.1320468E+00
        -11   -1    0    0    0    0  0.00000000000E+00  0.00000000000E+00  0.45593999997E+02  0.45594000000E+02  0.51100000000E-03 0. -1.
         11   -1    0    0    0    0 -0.00000000000E+00 -0.00000000000E+00 -0.45593999997E+02  0.45594000000E+02  0.51100000000E-03 0.  1.
    9900012    2    1    2    0    0 -0.31084809267E+02  0.21603269952E+02  0.24416115731E+02  0.46142319328E+02  0.10000014291E+02 0.  0.
        -12    1    1    2    0    0  0.31084809267E+02 -0.21603269952E+02 -0.24416115731E+02  0.45045680672E+02  0.00000000000E+00 0.  1.
         11    1    3    3    0    0 -0.14661273095E+02  0.10097061954E+02  0.61703340751E+01  0.18840823011E+02  0.51100000000E-03 0. -1.
        -11    1    3    3    0    0 -0.15234146758E+02  0.10798015305E+02  0.17917548400E+02  0.25878850494E+02  0.51100000000E-03 0.  1.
        -12    1    3    3    0    0 -0.11893894134E+01  0.70819269358E+00  0.32823325631E+00  0.14226458233E+01  0.00000000000E+00 0.  1.
</event>
<event>
 7    1  0.1543346E-008  0.4614232E+02  0.7816164E-02  0.1320468E+00
        -11   -1    0    0    0    0  0.00000000000E+00  0.00000000000E+00  0.45593999997E+02  0.45594000000E+02  0.51100000000E-03 0.  1.
         11   -1    0    0    0    0 -0.00000000000E+00 -0.00000000000E+00 -0.45593999997E+02  0.45594000000E+02  0.51100000000E-03 0. -1.
    9900012    2    1    2    0    0 -0.16963997799E+02  0.57736918049E+01 -0.41327964295E+02  0.46142319062E+02  0.10000011864E+02 0.  0.
        -12    1    1    2    0    0  0.16963997799E+02 -0.57736918049E+01  0.41327964295E+02  0.45045680938E+02  0.00000000000E+00 0.  1.
         11    1    3    3    0    0 -0.10618224591E+02  0.41580683036E+01 -0.27029144147E+02  0.29336169809E+02  0.51100000000E-03 0. -1.
        -11    1    3    3    0    0 -0.41305952247E+01  0.93713572351E+00 -0.28026631892E+01  0.50788740374E+01  0.51100000000E-03 0.  1.
         12    1    3    3    0    0 -0.22151779830E+01  0.67848777783E+00 -0.11496156959E+02  0.11727275215E+02  0.00000000000E+00 0. -1.
</event>
<event>
 7    1  0.1543346E-008  0.4614232E+02  0.7816164E-02  0.1320468E+00
        -11   -1    0    0    0    0  0.00000000000E+00  0.00000000000E+00  0.45593999997E+02  0.45594000000E+02  0.51100000000E-03 0. -1.
         11   -1    0    0    0    0 -0.00000000000E+00 -0.00000000000E+00 -0.45593999997E+02  0.45594000000E+02  0.51100000000E-03 0.  1.
    9900012    2    1    2    0    0 -0.35890786965E+02 -0.23249060990E+02 -0.14157894453E+02  0.46142318729E+02  0.10000008823E+02 0.  0.
        -12    1    1    2    0    0  0.35890786965E+02  0.23249060990E+02  0.14157894453E+02  0.45045681271E+02  0.00000000000E+00 0.  1.
         11    1    3    3    0    0 -0.20227707671E+02 -0.16160544945E+02 -0.61773428893E+01  0.26617342767E+02  0.51100000000E-03 0. -1.
        -11    1    3    3    0    0 -0.60574379013E+01 -0.10826507956E+01 -0.46626687785E+01  0.77204382694E+01  0.51100000000E-03 0.  1.
        -12    1    3    3    0    0 -0.96056413923E+01 -0.60058652488E+01 -0.33178827851E+01  0.11804537692E+02  0.00000000000E+00 0.  1.
</event>
<event>
 7    1  0.1543346E-008  0.4614232E+02  0.7816164E-02  0.1320468E+00
        -11   -1    0    0    0    0  0.00000000000E+00  0.00000000000E+00  0.45593999997E+02  0.45594000000E+02  0.51100000000E-03 0.  1.
         11   -1    0    0    0    0 -0.00000000000E+00 -0.00000000000E+00 -0.45593999997E+02  0.45594000000E+02  0.51100000000E-03 0. -1.
    9900012    2    1    2    0    0 -0.24128590033E+02 -0.99171847560E+01 -0.36722935232E+02  0.46142318936E+02  0.10000010713E+02 0.  0.
        -12    1    1    2    0    0  0.24128590033E+02  0.99171847560E+01  0.36722935232E+02  0.45045681064E+02  0.00000000000E+00 0.  1.
         11    1    3    3    0    0 -0.19139834633E+02 -0.82536466030E+01 -0.29008107634E+02  0.35720110033E+02  0.51100000000E-03 0. -1.
        -11    1    3    3    0    0 -0.11254161485E+01 -0.45437866822E+00  0.46162980886E+00  0.12985083068E+01  0.51100000000E-03 0.  1.
        -12    1    3    3    0    0 -0.38633392512E+01 -0.12091594848E+01 -0.81764574075E+01  0.91237005960E+01  0.00000000000E+00 0.  1.
</event>
<event>
 7    1  0.1543346E-008  0.4614232E+02  0.7816164E-02  0.1320468E+00
        -11   -1    0    0    0    0  0.00000000000E+00  0.00000000000E+00  0.45593999997E+02  0.45594000000E+02  0.51100000000E-03 0.  1.
         11   -1    0    0    0    0 -0.00000000000E+00 -0.00000000000E+00 -0.45593999997E+02  0.45594000000E+02  0.51100000000E-03 0. -1.
    9900012    2    1    2    0    0 -0.44126007608E+02 -0.15454959261E+01  0.89230290385E+01  0.46142317052E+02  0.99999935302E+01 0.  0.
        -12    1    1    2    0    0  0.44126007608E+02  0.15454959261E+01 -0.89230290385E+01  0.45045682948E+02  0.00000000000E+00 0.  1.
         11    1    3    3    0    0 -0.30546191134E+02 -0.53607682871E+01  0.74899084075E+01  0.31904644765E+02  0.51100000000E-03 0. -1.
        -11    1    3    3    0    0 -0.17510271027E+01  0.64680573947E+00 -0.22480863107E+00  0.18801576425E+01  0.51100000000E-03 0.  1.
         12    1    3    3    0    0 -0.11828789372E+02  0.31684666215E+01  0.16579292621E+01  0.12357514644E+02  0.00000000000E+00 0. -1.
</event>
<event>
 7    1  0.1543346E-008  0.4614232E+02  0.7816164E-02  0.1320468E+00
        -11   -1    0    0    0    0  0.00000000000E+00  0.00000000000E+00  0.45593999997E+02  0.45594000000E+02  0.51100000000E-03 0.  1.
         11   -1    0    0    0    0 -0.00000000000E+00 -0.00000000000E+00 -0.45593999997E+02  0.45594000000E+02  0.51100000000E-03 0. -1.
    9900012    2    1    2    0    0 -0.23903858109E+02 -0.27948860903E+02 -0.26011154075E+02  0.46142318802E+02  0.10000009487E+02 0.  0.
        -12    1    1    2    0    0  0.23903858109E+02  0.27948860903E+02  0.26011154075E+02  0.45045681198E+02  0.00000000000E+00 0.  1.
         11    1    3    3    0    0 -0.31634972287E+01 -0.73562096966E+01 -0.89487640196E+01  0.12008410118E+02  0.51100000000E-03 0.  1.
        -11    1    3    3    0    0 -0.17156330755E+02 -0.19010974529E+02 -0.14192993132E+02  0.29277942069E+02  0.51100000000E-03 0. -1.
         12    1    3    3    0    0 -0.35840301259E+01 -0.15816766779E+01 -0.28693969232E+01  0.48559666144E+01  0.00000000000E+00 0. -1.
</event>
<event>
 7    1  0.1543346E-008  0.4614232E+02  0.7816164E-02  0.1320468E+00
        -11   -1    0    0    0    0  0.00000000000E+00  0.00000000000E+00  0.45593999997E+02  0.45594000000E+02  0.51100000000E-03 0.  1.
         11   -1    0    0    0    0 -0.00000000000E+00 -0.00000000000E+00 -0.45593999997E+02  0.45594000000E+02  0.51100000000E-03 0. -1.
    9900012    2    1    2    0    0 -0.51288196735E+01  0.43805690408E+02 -0.91580644849E+01  0.46142318204E+02  0.10000004037E+02 0.  0.
        -12    1    1    2    0    0  0.51288196735E+01 -0.43805690408E+02  0.91580644849E+01  0.45045681796E+02  0.00000000000E+00 0.  1.
         11    1    3    3    0    0 -0.25002313598E+01  0.76521237130E+01 -0.26293779585E+01  0.84687533251E+01  0.51100000000E-03 0. -1.
        -11    1    3    3    0    0 -0.35136865153E+01  0.31395245011E+02 -0.80488959330E+01  0.32600492760E+02  0.51100000000E-03 0.  1.
        -12    1    3    3    0    0  0.88509820148E+00  0.47583216843E+01  0.15202094066E+01  0.50730721183E+01  0.00000000000E+00 0.  1.
</event>
<event>
 7    1  0.1543346E-008  0.4614232E+02  0.7816164E-02  0.1320468E+00
        -11   -1    0    0    0    0  0.00000000000E+00  0.00000000000E+00  0.45593999997E+02  0.45594000000E+02  0.51100000000E-03 0. -1.
         11   -1    0    0    0    0 -0.00000000000E+00 -0.00000000000E+00 -0.45593999997E+02  0.45594000000E+02  0.51100000000E-03 0.  1.
    9900012    2    1    2    0    0 -0.15347787640E+02  0.53355289314E+00  0.42347068263E+02  0.46142318136E+02  0.10000003418E+02 0.  0.
        -12    1    1    2    0    0  0.15347787640E+02 -0.53355289314E+00 -0.42347068263E+02  0.45045681864E+02  0.00000000000E+00 0.  1.
         11    1    3    3    0    0 -0.83632119816E+01  0.24011495184E+00  0.11570651440E+02  0.14278688485E+02  0.51100000000E-03 0. -1.
        -11    1    3    3    0    0 -0.61592111586E+01  0.14508737353E+00  0.17356182077E+02  0.18417219904E+02  0.51100000000E-03 0.  1.
        -12    1    3    3    0    0 -0.82536449940E+00  0.14835056777E+00  0.13420234747E+02  0.13446409748E+02  0.00000000000E+00 0.  1.
</event>
<event>
 7    1  0.1543346E-008  0.4614232E+02  0.7816164E-02  0.1320468E+00
        -11   -1    0    0    0    0  0.00000000000E+00  0.00000000000E+00  0.45593999997E+02  0.45594000000E+02  0.51100000000E-03 0.  1.
         11   -1    0    0    0    0 -0.00000000000E+00 -0.00000000000E+00 -0.45593999997E+02  0.45594000000E+02  0.51100000000E-03 0. -1.
    9900012    2    1    2    0    0  0.15919344874E+01 -0.18515273697E+02 -0.41033686974E+02  0.46142322270E+02  0.10000041114E+02 0.  0.
        -12    1    1    2    0    0 -0.15919344874E+01  0.18515273697E+02  0.41033686974E+02  0.45045677730E+02  0.00000000000E+00 0.  1.
         11    1    3    3    0    0 -0.15031954557E+01 -0.61331675320E+01 -0.60679912214E+01  0.87576171575E+01  0.51100000000E-03 0. -1.
        -11    1    3    3    0    0  0.17121072125E+01 -0.60019978839E+01 -0.22000332374E+02  0.22868535470E+02  0.51100000000E-03 0.  1.
        -12    1    3    3    0    0  0.13830227305E+01 -0.63801082815E+01 -0.12965363378E+02  0.14516169643E+02  0.00000000000E+00 0.  1.
</event>
<event>
 7    1  0.1543346E-008  0.4614231E+02  0.7816164E-02  0.1320468E+00
        -11   -1    0    0    0    0  0.00000000000E+00  0.00000000000E+00  0.45593999997E+02  0.45594000000E+02  0.51100000000E-03 0.  1.
         11   -1    0    0    0    0 -0.00000000000E+00 -0.00000000000E+00 -0.45593999997E+02  0.45594000000E+02  0.51100000000E-03 0. -1.
    9900012    2    1    2    0    0  0.17081980283E+02 -0.15172495382E+02 -0.38821581745E+02  0.46142313462E+02  0.99999607965E+01 0.  0.
        -12    1    1    2    0    0 -0.17081980283E+02  0.15172495382E+02  0.38821581745E+02  0.45045686538E+02  0.00000000000E+00 0.  1.
         11    1    3    3    0    0  0.67427432876E+01 -0.68083031239E+01 -0.21496673950E+02  0.23535602173E+02  0.51100000000E-03 0. -1.
        -11    1    3    3    0    0  0.10872622443E+02 -0.83130270020E+01 -0.15373715495E+02  0.20583281204E+02  0.51100000000E-03 0.  1.
         12    1    3    3    0    0 -0.53338544759E+00 -0.51165255999E-01 -0.19511922996E+01  0.20234300851E+01  0.00000000000E+00 0. -1.
</event>
<event>
 7    1  0.1543346E-008  0.4614232E+02  0.7816164E-02  0.1320468E+00
        -11   -1    0    0    0    0  0.00000000000E+00  0.00000000000E+00  0.45593999997E+02  0.45594000000E+02  0.51100000000E-03 0.  1.
         11   -1    0    0    0    0 -0.00000000000E+00 -0.00000000000E+00 -0.45593999997E+02  0.45594000000E+02  0.51100000000E-03 0. -1.
    9900012    2    1    2    0    0  0.97859734175E+01  0.43748695910E+02 -0.44045359251E+01  0.46142316453E+02  0.99999880686E+01 0.  0.
        -12    1    1    2    0    0 -0.97859734175E+01 -0.43748695910E+02  0.44045359251E+01  0.45045683547E+02  0.00000000000E+00 0.  1.
         11    1    3    3    0    0  0.82383118507E+01  0.37976670189E+02 -0.34457251557E+01  0.39012437541E+02  0.51100000000E-03 0. -1.
        -11    1    3    3    0    0  0.13173193026E+01  0.80650222581E+00  0.94063475312E+00  0.18084717264E+01  0.51100000000E-03 0.  1.
        -12    1    3    3    0    0  0.23034226420E+00  0.49655234954E+01 -0.18994455224E+01  0.53214071855E+01  0.00000000000E+00 0.  1.
</event>
<event>
 7    1  0.1543346E-008  0.4614232E+02  0.7816164E-02  0.1320468E+00
        -11   -1    0    0    0    0  0.00000000000E+00  0.00000000000E+00  0.45593999997E+02  0.45594000000E+02  0.51100000000E-03 0.  1.
         11   -1    0    0    0    0 -0.00000000000E+00 -0.00000000000E+00 -0.45593999997E+02  0.45594000000E+02  0.51100000000E-03 0. -1.
    9900012    2    1    2    0    0 -0.18281589108E+02  0.23994021965E+02 -0.33454202422E+02  0.46142320406E+02  0.10000024119E+02 0.  0.
        -12    1    1    2    0    0  0.18281589108E+02 -0.23994021965E+02  0.33454202422E+02  0.45045679594E+02  0.00000000000E+00 0.  1.
         11    1    3    3    0    0 -0.84900999854E+01  0.74809233153E+01 -0.82968998516E+01  0.14031555823E+02  0.51100000000E-03 0. -1.
        -11    1    3    3    0    0 -0.43410213099E+01  0.10873116003E+02 -0.18119824335E+02  0.21573065425E+02  0.51100000000E-03 0.  1.
        -12    1    3    3    0    0 -0.54504678126E+01  0.56399826471E+01 -0.70374782354E+01  0.10537699158E+02  0.00000000000E+00 0.  1.
</event>
<event>
 7    1  0.1543346E-008  0.4614232E+02  0.7816164E-02  0.1320468E+00
        -11   -1    0    0    0    0  0.00000000000E+00  0.00000000000E+00  0.45593999997E+02  0.45594000000E+02  0.51100000000E-03 0.  1.
         11   -1    0    0    0    0 -0.00000000000E+00 -0.00000000000E+00 -0.45593999997E+02  0.45594000000E+02  0.51100000000E-03 0. -1.
    9900012    2    1    2    0    0  0.12043191100E+02  0.22600186937E+02 -0.37058143362E+02  0.46142324393E+02  0.10000060474E+02 0.  0.
        -12    1    1    2    0    0 -0.12043191100E+02 -0.22600186937E+02  0.37058143362E+02  0.45045675607E+02  0.00000000000E+00 0.  1.
         11    1    3    3    0    0  0.24411506527E+01  0.58607060586E+01 -0.13834170316E+02  0.15221411255E+02  0.51100000000E-03 0. -1.
        -11    1    3    3    0    0  0.97599676195E+01  0.12842146796E+02 -0.20826895072E+02  0.26342688945E+02  0.51100000000E-03 0.  1.
        -12    1    3    3    0    0 -0.15792717200E+00  0.38973340829E+01 -0.23970779747E+01  0.45782241931E+01  0.00000000000E+00 0.  1.
</event>
<event>
 7    1  0.1543346E-008  0.4614232E+02  0.7816164E-02  0.1320468E+00
        -11   -1    0    0    0    0  0.00000000000E+00  0.00000000000E+00  0.45593999997E+02  0.45594000000E+02  0.51100000000E-03 0.  1.
         11   -1    0    0    0    0 -0.00000000000E+00 -0.00000000000E+00 -0.45593999997E+02  0.45594000000E+02  0.51100000000E-03 0. -1.
    9900012    2    1    2    0    0 -0.41583889979E+02 -0.15981234501E+02  0.66703615230E+01  0.46142317800E+02  0.10000000358E+02 0.  0.
        -12    1    1    2    0    0  0.41583889979E+02  0.15981234501E+02 -0.66703615230E+01  0.45045682200E+02  0.00000000000E+00 0.  1.
         11    1    3    3    0    0 -0.31683724827E+02 -0.11721956484E+02  0.19153215063E+01  0.33836831108E+02  0.51100000000E-03 0. -1.
        -11    1    3    3    0    0 -0.60738882694E+01 -0.43780006103E+01  0.35940280695E+01  0.83051818811E+01  0.51100000000E-03 0.  1.
         12    1    3    3    0    0 -0.38262768831E+01  0.11872259322E+00  0.11610119473E+01  0.40003048111E+01  0.00000000000E+00 0. -1.
</event>
<event>
 7    1  0.1543346E-008  0.4614232E+02  0.7816164E-02  0.1320468E+00
        -11   -1    0    0    0    0  0.00000000000E+00  0.00000000000E+00  0.45593999997E+02  0.45594000000E+02  0.51100000000E-03 0.  1.
         11   -1    0    0    0    0 -0.00000000000E+00 -0.00000000000E+00 -0.45593999997E+02  0.45594000000E+02  0.51100000000E-03 0. -1.
    9900012    2    1    2    0    0 -0.35167728048E+02 -0.25707964854E+02 -0.11464946700E+02  0.46142317012E+02  0.99999931711E+01 0.  0.
        -12    1    1    2    0    0  0.35167728048E+02  0.25707964854E+02  0.11464946700E+02  0.45045682988E+02  0.00000000000E+00 0.  1.
         11    1    3    3    0    0 -0.81063595383E+01 -0.49773703998E+01 -0.14679511543E+00  0.95136128851E+01  0.51100000000E-03 0. -1.
        -11    1    3    3    0    0 -0.26477546886E+01 -0.43429041091E+00  0.54193335858E+00  0.27373171315E+01  0.51100000000E-03 0.  1.
         12    1    3    3    0    0 -0.24413613821E+02 -0.20296304043E+02 -0.11860084943E+02  0.33891386996E+02  0.00000000000E+00 0. -1.
</event>
<event>
 7    1  0.1543346E-008  0.4614232E+02  0.7816164E-02  0.1320468E+00
        -11   -1    0    0    0    0  0.00000000000E+00  0.00000000000E+00  0.45593999997E+02  0.45594000000E+02  0.51100000000E-03 0.  1.
         11   -1    0    0    0    0 -0.00000000000E+00 -0.00000000000E+00 -0.45593999997E+02  0.45594000000E+02  0.51100000000E-03 0. -1.
    9900012    2    1    2    0    0  0.33033705303E+01  0.19937743239E+02 -0.40257764967E+02  0.46142317605E+02  0.99999985740E+01 0.  0.
        -12    1    1    2    0    0 -0.33033705303E+01 -0.19937743239E+02  0.40257764967E+02  0.45045682395E+02  0.00000000000E+00 0.  1.
         11    1    3    3    0    0  0.49832128907E+01  0.19192771537E+02 -0.33670453695E+02  0.39075495419E+02  0.51100000000E-03 0. -1.
        -11    1    3    3    0    0 -0.14568151340E+01 -0.17737396333E+00 -0.27864658871E+01  0.31493117119E+01  0.51100000000E-03 0.  1.
         12    1    3    3    0    0 -0.22302722639E+00  0.92234566555E+00 -0.38008453851E+01  0.39175104737E+01  0.00000000000E+00 0. -1.
</event>
<event>
 7    1  0.1543346E-008  0.4614232E+02  0.7816164E-02  0.1320468E+00
        -11   -1    0    0    0    0  0.00000000000E+00  0.00000000000E+00  0.45593999997E+02  0.45594000000E+02  0.51100000000E-03 0. -1.
         11   -1    0    0    0    0 -0.00000000000E+00 -0.00000000000E+00 -0.45593999997E+02  0.45594000000E+02  0.51100000000E-03 0.  1.
    9900012    2    1    2    0    0  0.33622314544E+02  0.13651800783E+01  0.29946448339E+02  0.46142317409E+02  0.99999967924E+01 0.  0.
        -12    1    1    2    0    0 -0.33622314544E+02 -0.13651800783E+01 -0.29946448339E+02  0.45045682591E+02  0.00000000000E+00 0.  1.
         11    1    3    3    0    0  0.23708360037E+02  0.37270966998E+01  0.17726032831E+02  0.29836049096E+02  0.51100000000E-03 0. -1.
        -11    1    3    3    0    0  0.64307196254E+01 -0.94858484256E+00  0.51289444394E+01  0.82800989987E+01  0.51100000000E-03 0.  1.
         12    1    3    3    0    0  0.34832348815E+01 -0.14133317789E+01  0.70914710685E+01  0.80261693150E+01  0.00000000000E+00 0. -1.
</event>
<event>
 7    1  0.1543346E-008  0.4614232E+02  0.7816164E-02  0.1320468E+00
        -11   -1    0    0    0    0  0.00000000000E+00  0.00000000000E+00  0.45593999997E+02  0.45594000000E+02  0.51100000000E-03 0.  1.
         11   -1    0    0    0    0 -0.00000000000E+00 -0.00000000000E+00 -0.45593999997E+02  0.45594000000E+02  0.51100000000E-03 0. -1.
    9900012    2    1    2    0    0 -0.20766694643E+02 -0.61549417946E+01 -0.39496511817E+02  0.46142319179E+02  0.10000012933E+02 0.  0.
        -12    1    1    2    0    0  0.20766694643E+02  0.61549417946E+01  0.39496511817E+02  0.45045680821E+02  0.00000000000E+00 0.  1.
         11    1    3    3    0    0 -0.15059698224E+02 -0.23925754969E+01 -0.28783690042E+02  0.32573297973E+02  0.51100000000E-03 0. -1.
        -11    1    3    3    0    0 -0.27150127053E+01 -0.36334798556E+01 -0.90995678711E+01  0.10167379483E+02  0.51100000000E-03 0.  1.
        -12    1    3    3    0    0 -0.29919837139E+01 -0.12888644211E+00 -0.16132539035E+01  0.34016417237E+01  0.00000000000E+00 0.  1.
</event>
<event>
 7    1  0.1543346E-008  0.4614232E+02  0.7816164E-02  0.1320468E+00
        -11   -1    0    0    0    0  0.00000000000E+00  0.00000000000E+00  0.45593999997E+02  0.45594000000E+02  0.51100000000E-03 0. -1.
         11   -1    0    0    0    0 -0.00000000000E+00 -0.00000000000E+00 -0.45593999997E+02  0.45594000000E+02  0.51100000000E-03 0.  1.
    9900012    2    1    2    0    0  0.32929672016E+02  0.15449985736E+01  0.30697934449E+02  0.46142317642E+02  0.99999989172E+01 0.  0.
        -12    1    1    2    0    0 -0.32929672016E+02 -0.15449985736E+01 -0.30697934449E+02  0.45045682358E+02  0.00000000000E+00 0.  1.
         11    1    3    3    0    0  0.23214832479E+02  0.23301437086E+01  0.15545362350E+02  0.28035982372E+02  0.51100000000E-03 0. -1.
        -11    1    3    3    0    0  0.45495229660E+01 -0.69292907664E+00  0.86833619084E+01  0.98274658085E+01  0.51100000000E-03 0.  1.
         12    1    3    3    0    0  0.51653165709E+01 -0.92216058373E-01  0.64692101900E+01  0.82788694616E+01  0.00000000000E+00 0. -1.
</event>
<event>
 7    1  0.1543346E-008  0.4614232E+02  0.7816164E-02  0.1320468E+00
        -11   -1    0    0    0    0  0.00000000000E+00  0.00000000000E+00  0.45593999997E+02  0.45594000000E+02  0.51100000000E-03 0.  1.
         11   -1    0    0    0    0 -0.00000000000E+00 -0.00000000000E+00 -0.45593999997E+02  0.45594000000E+02  0.51100000000E-03 0. -1.
    9900012    2    1    2    0    0 -0.25787861325E+02  0.36215413769E+02  0.72486892367E+01  0.46142317834E+02  0.10000000662E+02 0.  0.
        -12    1    1    2    0    0  0.25787861325E+02 -0.36215413769E+02 -0.72486892367E+01  0.45045682166E+02  0.00000000000E+00 0.  1.
         11    1    3    3    0    0 -0.59646011988E+01  0.12509222761E+02  0.31277059689E+01  0.14207028768E+02  0.51100000000E-03 0. -1.
        -11    1    3    3    0    0 -0.90352495800E+01  0.58251387060E+01  0.21099640074E+01  0.10955360528E+02  0.51100000000E-03 0.  1.
        -12    1    3    3    0    0 -0.10788010546E+02  0.17881052303E+02  0.20110192604E+01  0.20979928538E+02  0.00000000000E+00 0.  1.
</event>
<event>
 7    1  0.1543346E-008  0.4614232E+02  0.7816164E-02  0.1320468E+00
        -11   -1    0    0    0    0  0.00000000000E+00  0.00000000000E+00  0.45593999997E+02  0.45594000000E+02  0.51100000000E-03 0.  1.
         11   -1    0    0    0    0 -0.00000000000E+00 -0.00000000000E+00 -0.45593999997E+02  0.45594000000E+02  0.51100000000E-03 0. -1.
    9900012    2    1    2    0    0  0.19797577799E+02  0.15439290295E+02 -0.37400504670E+02  0.46142317398E+02  0.99999966911E+01 0.  0.
        -12    1    1    2    0    0 -0.19797577799E+02 -0.15439290295E+02  0.37400504670E+02  0.45045682602E+02  0.00000000000E+00 0.  1.
         11    1    3    3    0    0  0.69293052123E+01  0.88849192555E+01 -0.20204097493E+02  0.23133582011E+02  0.51100000000E-03 0. -1.
        -11    1    3    3    0    0  0.85389764743E+00  0.74932539277E+00  0.12599349101E+00  0.11430242156E+01  0.51100000000E-03 0.  1.
         12    1    3    3    0    0  0.12014374939E+02  0.58050456463E+01 -0.17322400667E+02  0.21865711171E+02  0.00000000000E+00 0. -1.
</event>
<event>
 7    1  0.1543346E-008  0.4614232E+02  0.7816164E-02  0.1320468E+00
        -11   -1    0    0    0    0  0.00000000000E+00  0.00000000000E+00  0.45593999997E+02  0.45594000000E+02  0.51100000000E-03 0.  1.
         11   -1    0    0    0    0 -0.00000000000E+00 -0.00000000000E+00 -0.45593999997E+02  0.45594000000E+02  0.51100000000E-03 0. -1.
    9900012    2    1    2    0    0 -0.43629679893E+02 -0.51543262475E+00 -0.11193695961E+02  0.46142317992E+02  0.10000002103E+02 0.  0.
        -12    1    1    2    0    0  0.43629679893E+02  0.51543262475E+00  0.11193695961E+02  0.45045682008E+02  0.00000000000E+00 0.  1.
         11    1    3    3    0    0 -0.16173871200E+01  0.60324073308E+00  0.57445907584E+00  0.18192976582E+01  0.51100000000E-03 0. -1.
        -11    1    3    3    0    0 -0.11086092492E+02 -0.23192868984E+01 -0.34067008054E+00  0.11331222124E+02  0.51100000000E-03 0.  1.
         12    1    3    3    0    0 -0.30926200280E+02  0.12006135406E+01 -0.11427484956E+02  0.32991798209E+02  0.00000000000E+00 0. -1.
</event>
<event>
 7    1  0.1543346E-008  0.4614232E+02  0.7816164E-02  0.1320468E+00
        -11   -1    0    0    0    0  0.00000000000E+00  0.00000000000E+00  0.45593999997E+02  0.45594000000E+02  0.51100000000E-03 0. -1.
         11   -1    0    0    0    0 -0.00000000000E+00 -0.00000000000E+00 -0.45593999997E+02  0.45594000000E+02  0.51100000000E-03 0.  1.
    9900012    2    1    2    0    0  0.14657412821E+02 -0.10129879967E+02  0.41372203965E+02  0.46142317857E+02  0.10000000878E+02 0.  0.
        -12    1    1    2    0    0 -0.14657412821E+02  0.10129879967E+02 -0.41372203965E+02  0.45045682143E+02  0.00000000000E+00 0.  1.
         11    1    3    3    0    0  0.91472478289E+01 -0.96653031186E+01  0.24527091311E+02  0.27904631079E+02  0.51100000000E-03 0. -1.
        -11    1    3    3    0    0  0.13324518358E+01  0.94805467971E+00  0.97316255038E+01  0.98680682394E+01  0.51100000000E-03 0.  1.
         12    1    3    3    0    0  0.41777131560E+01 -0.14126315285E+01  0.71134871506E+01  0.83696185392E+01  0.00000000000E+00 0. -1.
</event>
<event>
 7    1  0.1543346E-008  0.4614232E+02  0.7816164E-02  0.1320468E+00
        -11   -1    0    0    0    0  0.00000000000E+00  0.00000000000E+00  0.45593999997E+02  0.45594000000E+02  0.51100000000E-03 0. -1.
         11   -1    0    0    0    0 -0.00000000000E+00 -0.00000000000E+00 -0.45593999997E+02  0.45594000000E+02  0.51100000000E-03 0.  1.
    9900012    2    1    2    0    0 -0.50303531326E+01  0.44512782266E+02 -0.47351047623E+01  0.46142318133E+02  0.10000003394E+02 0.  0.
        -12    1    1    2    0    0  0.50303531326E+01 -0.44512782266E+02  0.47351047623E+01  0.45045681867E+02  0.00000000000E+00 0.  1.
         11    1    3    3    0    0 -0.35944669793E+01  0.43188028544E+02 -0.37382790374E+01  0.43498284252E+02  0.51100000000E-03 0. -1.
        -11    1    3    3    0    0 -0.99056036410E+00  0.16178116208E+01 -0.90982629521E+00  0.21038793748E+01  0.51100000000E-03 0.  1.
         12    1    3    3    0    0 -0.44532578922E+00 -0.29305789872E+00 -0.86999429612E-01  0.54015450688E+00  0.00000000000E+00 0. -1.
</event>
<event>
 7    1  0.1543346E-008  0.4614233E+02  0.7816164E-02  0.1320468E+00
        -11   -1    0    0    0    0  0.00000000000E+00  0.00000000000E+00  0.45593999997E+02  0.45594000000E+02  0.51100000000E-03 0. -1.
         11   -1    0    0    0    0 -0.00000000000E+00 -0.00000000000E+00 -0.45593999997E+02  0.45594000000E+02  0.51100000000E-03 0.  1.
    9900012    2    1    2    0    0  0.72776897542E+01 -0.43336524414E+02  0.99042015170E+01  0.46142330684E+02  0.10000117838E+02 0.  0.
        -12    1    1    2    0    0 -0.72776897542E+01  0.43336524414E+02 -0.99042015170E+01  0.45045669316E+02  0.00000000000E+00 0.  1.
         11    1    3    3    0    0  0.12582491186E+01 -0.21385716671E+02  0.42732853467E+00  0.21426961481E+02  0.51100000000E-03 0. -1.
        -11    1    3    3    0    0  0.29605129864E+01 -0.10555409793E+02  0.54946742205E+01  0.12262657057E+02  0.51100000000E-03 0.  1.
         12    1    3    3    0    0  0.30589276492E+01 -0.11395397951E+02  0.39821987618E+01  0.12452712146E+02  0.00000000000E+00 0. -1.
</event>
<event>
 7    1  0.1543346E-008  0.4614232E+02  0.7816164E-02  0.1320468E+00
        -11   -1    0    0    0    0  0.00000000000E+00  0.00000000000E+00  0.45593999997E+02  0.45594000000E+02  0.51100000000E-03 0.  1.
         11   -1    0    0    0    0 -0.00000000000E+00 -0.00000000000E+00 -0.45593999997E+02  0.45594000000E+02  0.51100000000E-03 0. -1.
    9900012    2    1    2    0    0 -0.21375164846E+02 -0.18937590118E+02 -0.34836525849E+02  0.46142317356E+02  0.99999963054E+01 0.  0.
        -12    1    1    2    0    0  0.21375164846E+02  0.18937590118E+02  0.34836525849E+02  0.45045682644E+02  0.00000000000E+00 0.  1.
         11    1    3    3    0    0 -0.20258470847E+02 -0.14665188109E+02 -0.30768774585E+02  0.39650862198E+02  0.51100000000E-03 0. -1.
        -11    1    3    3    0    0 -0.89987335655E+00 -0.26239404311E+01 -0.90421983621E+00  0.29176101894E+01  0.51100000000E-03 0.  1.
         12    1    3    3    0    0 -0.21682064197E+00 -0.16484615787E+01 -0.31635314272E+01  0.35738449684E+01  0.00000000000E+00 0. -1.
</event>
<event>
 7    1  0.1543346E-008  0.4614232E+02  0.7816164E-02  0.1320468E+00
        -11   -1    0    0    0    0  0.00000000000E+00  0.00000000000E+00  0.45593999997E+02  0.45594000000E+02  0.51100000000E-03 0.  1.
         11   -1    0    0    0    0 -0.00000000000E+00 -0.00000000000E+00 -0.45593999997E+02  0.45594000000E+02  0.51100000000E-03 0. -1.
    9900012    2    1    2    0    0  0.39299718831E+02  0.40114682349E+01  0.21646102288E+02  0.46142317389E+02  0.99999966065E+01 0.  0.
        -12    1    1    2    0    0 -0.39299718831E+02 -0.40114682349E+01 -0.21646102288E+02  0.45045682611E+02  0.00000000000E+00 0.  1.
         11    1    3    3    0    0  0.53748077854E+01  0.18610534110E+00  0.76523309830E+00  0.54321980711E+01  0.51100000000E-03 0. -1.
        -11    1    3    3    0    0  0.58897350130E+00  0.89702962121E+00 -0.28963878330E+00  0.11115047514E+01  0.51100000000E-03 0.  1.
        -12    1    3    3    0    0  0.33335937545E+02  0.29283332726E+01  0.21170507973E+02  0.39598614566E+02  0.00000000000E+00 0.  1.
</event>
<event>
 7    1  0.1543346E-008  0.4614232E+02  0.7816164E-02  0.1320468E+00
        -11   -1    0    0    0    0  0.00000000000E+00  0.00000000000E+00  0.45593999997E+02  0.45594000000E+02  0.51100000000E-03 0.  1.
         11   -1    0    0    0    0 -0.00000000000E+00 -0.00000000000E+00 -0.45593999997E+02  0.45594000000E+02  0.51100000000E-03 0. -1.
    9900012    2    1    2    0    0  0.98376017755E+01 -0.38354604167E+02 -0.21476949400E+02  0.46142318464E+02  0.10000006408E+02 0.  0.
        -12    1    1    2    0    0 -0.98376017755E+01  0.38354604167E+02  0.21476949400E+02  0.45045681536E+02  0.00000000000E+00 0.  1.
         11    1    3    3    0    0  0.58105563393E+01 -0.74113602184E+01 -0.39421146956E+01  0.10209363045E+02  0.51100000000E-03 0. -1.
        -11    1    3    3    0    0  0.42867907008E+01 -0.28882731528E+02 -0.17003806478E+02  0.33789320651E+02  0.51100000000E-03 0.  1.
        -12    1    3    3    0    0 -0.25974526452E+00 -0.20605124210E+01 -0.53102822581E+00  0.21436347675E+01  0.00000000000E+00 0.  1.
</event>
<event>
 7    1  0.1543346E-008  0.4614232E+02  0.7816164E-02  0.1320468E+00
        -11   -1    0    0    0    0  0.00000000000E+00  0.00000000000E+00  0.45593999997E+02  0.45594000000E+02  0.51100000000E-03 0.  1.
         11   -1    0    0    0    0 -0.00000000000E+00 -0.00000000000E+00 -0.45593999997E+02  0.45594000000E+02  0.51100000000E-03 0. -1.
    9900012    2    1    2    0    0 -0.32527241848E+02  0.22945262354E+01 -0.31077758746E+02  0.46142318725E+02  0.10000008787E+02 0.  0.
        -12    1    1    2    0    0  0.32527241848E+02 -0.22945262354E+01  0.31077758746E+02  0.45045681275E+02  0.00000000000E+00 0.  1.
         11    1    3    3    0    0 -0.15076899244E+02  0.49280808344E+01 -0.10708256723E+02  0.19138067661E+02  0.51100000000E-03 0. -1.
        -11    1    3    3    0    0 -0.76662688123E+01 -0.86284407496E+00 -0.10108949369E+02  0.12716408102E+02  0.51100000000E-03 0.  1.
         12    1    3    3    0    0 -0.97840737923E+01 -0.17707105241E+01 -0.10260552654E+02  0.14287842961E+02  0.00000000000E+00 0. -1.
</event>
<event>
 7    1  0.1543346E-008  0.4614232E+02  0.7816164E-02  0.1320468E+00
        -11   -1    0    0    0    0  0.00000000000E+00  0.00000000000E+00  0.45593999997E+02  0.45594000000E+02  0.51100000000E-03 0. -1.
         11   -1    0    0    0    0 -0.00000000000E+00 -0.00000000000E+00 -0.45593999997E+02  0.45594000000E+02  0.51100000000E-03 0.  1.
    9900012    2    1    2    0    0 -0.38276133437E+02 -0.20139788353E+01  0.23664213174E+02  0.46142317779E+02  0.10000000163E+02 0.  0.
        -12    1    1    2    0    0  0.38276133437E+02  0.20139788353E+01 -0.23664213174E+02  0.45045682221E+02  0.00000000000E+00 0.  1.
         11    1    3    3    0    0 -0.17580154565E+02 -0.24821007739E+01  0.13967857640E+02  0.22590345418E+02  0.51100000000E-03 0. -1.
        -11    1    3    3    0    0 -0.13689994391E+00 -0.11948843971E+00  0.13391693936E+01  0.13514414555E+01  0.51100000000E-03 0.  1.
         12    1    3    3    0    0 -0.20559078927E+02  0.58761037829E+00  0.83571861405E+01  0.22200530906E+02  0.00000000000E+00 0. -1.
</event>
<event>
 7    1  0.1543346E-008  0.4614232E+02  0.7816164E-02  0.1320468E+00
        -11   -1    0    0    0    0  0.00000000000E+00  0.00000000000E+00  0.45593999997E+02  0.45594000000E+02  0.51100000000E-03 0. -1.
         11   -1    0    0    0    0 -0.00000000000E+00 -0.00000000000E+00 -0.45593999997E+02  0.45594000000E+02  0.51100000000E-03 0.  1.
    9900012    2    1    2    0    0 -0.15476220661E+02  0.39983069700E+02 -0.13818618437E+02  0.46142317808E+02  0.10000000430E+02 0.  0.
        -12    1    1    2    0    0  0.15476220661E+02 -0.39983069700E+02  0.13818618437E+02  0.45045682192E+02  0.00000000000E+00 0.  1.
         11    1    3    3    0    0 -0.75212664595E+01  0.24254811675E+02 -0.86715222402E+01  0.26833945606E+02  0.51100000000E-03 0. -1.
        -11    1    3    3    0    0 -0.93221626564E+00  0.11280457334E+01 -0.24933614983E+01  0.28910839083E+01  0.51100000000E-03 0.  1.
        -12    1    3    3    0    0 -0.70227379357E+01  0.14600212292E+02 -0.26537346987E+01  0.16417288294E+02  0.00000000000E+00 0.  1.
</event>
<event>
 7    1  0.1543346E-008  0.4614232E+02  0.7816164E-02  0.1320468E+00
        -11   -1    0    0    0    0  0.00000000000E+00  0.00000000000E+00  0.45593999997E+02  0.45594000000E+02  0.51100000000E-03 0. -1.
         11   -1    0    0    0    0 -0.00000000000E+00 -0.00000000000E+00 -0.45593999997E+02  0.45594000000E+02  0.51100000000E-03 0.  1.
    9900012    2    1    2    0    0  0.21728833822E+02  0.86266753039E+01  0.38503915954E+02  0.46142319964E+02  0.10000020091E+02 0.  0.
        -12    1    1    2    0    0 -0.21728833822E+02 -0.86266753039E+01 -0.38503915954E+02  0.45045680036E+02  0.00000000000E+00 0.  1.
         11    1    3    3    0    0  0.76913462269E+01  0.52783448156E+01  0.98883488966E+01  0.13594012466E+02  0.51100000000E-03 0. -1.
        -11    1    3    3    0    0  0.18800782570E+01 -0.15047872419E+01  0.40159456982E+01  0.46826166838E+01  0.51100000000E-03 0.  1.
         12    1    3    3    0    0  0.12157409338E+02  0.48531177301E+01  0.24599621359E+02  0.27865690814E+02  0.00000000000E+00 0. -1.
</event>
<event>
 7    1  0.1543346E-008  0.4614232E+02  0.7816164E-02  0.1320468E+00
        -11   -1    0    0    0    0  0.00000000000E+00  0.00000000000E+00  0.45593999997E+02  0.45594000000E+02  0.51100000000E-03 0.  1.
         11   -1    0    0    0    0 -0.00000000000E+00 -0.00000000000E+00 -0.45593999997E+02  0.45594000000E+02  0.51100000000E-03 0. -1.
    9900012    2    1    2    0    0 -0.44225520491E+02 -0.79364204931E+01  0.31984470757E+01  0.46142317670E+02  0.99999991653E+01 0.  0.
        -12    1    1    2    0    0  0.44225520491E+02  0.79364204931E+01 -0.31984470757E+01  0.45045682330E+02  0.00000000000E+00 0.  1.
         11    1    3    3    0    0 -0.26515921187E+02 -0.57917674067E+01  0.13991264683E+01  0.27177126434E+02  0.51100000000E-03 0. -1.
        -11    1    3    3    0    0 -0.12700368213E+02 -0.31241378402E+01  0.35788359427E+01  0.13559780860E+02  0.51100000000E-03 0.  1.
        -12    1    3    3    0    0 -0.50092310903E+01  0.97948475381E+00 -0.17795153353E+01  0.54054103755E+01  0.00000000000E+00 0.  1.
</event>
<event>
 7    1  0.1543346E-008  0.4614232E+02  0.7816164E-02  0.1320468E+00
        -11   -1    0    0    0    0  0.00000000000E+00  0.00000000000E+00  0.45593999997E+02  0.45594000000E+02  0.51100000000E-03 0.  1.
         11   -1    0    0    0    0 -0.00000000000E+00 -0.00000000000E+00 -0.45593999997E+02  0.45594000000E+02  0.51100000000E-03 0. -1.
    9900012    2    1    2    0    0 -0.13175039752E+02 -0.18680393469E+02 -0.38814619874E+02  0.46142317759E+02  0.99999999770E+01 0.  0.
        -12    1    1    2    0    0  0.13175039752E+02  0.18680393469E+02  0.38814619874E+02  0.45045682241E+02  0.00000000000E+00 0.  1.
         11    1    3    3    0    0 -0.82217038881E+01 -0.14027749412E+02 -0.22858699552E+02  0.28051636563E+02  0.51100000000E-03 0. -1.
        -11    1    3    3    0    0 -0.32446174306E+01 -0.43432823716E+01 -0.15303924401E+02  0.16235816775E+02  0.51100000000E-03 0.  1.
         12    1    3    3    0    0 -0.17087184332E+01 -0.30936168552E+00 -0.65199592098E+00  0.18548644202E+01  0.00000000000E+00 0. -1.
</event>
<event>
 7    1  0.1543346E-008  0.4614232E+02  0.7816164E-02  0.1320468E+00
        -11   -1    0    0    0    0  0.00000000000E+00  0.00000000000E+00  0.45593999997E+02  0.45594000000E+02  0.51100000000E-03 0.  1.
         11   -1    0    0    0    0 -0.00000000000E+00 -0.00000000000E+00 -0.45593999997E+02  0.45594000000E+02  0.51100000000E-03 0. -1.
    9900012    2    1    2    0    0 -0.39460562149E+02 -0.12877433955E+02 -0.17497108751E+02  0.46142322239E+02  0.10000040830E+02 0.  0.
        -12    1    1    2    0    0  0.39460562149E+02  0.12877433955E+02  0.17497108751E+02  0.45045677761E+02  0.00000000000E+00 0.  1.
         11    1    3    3    0    0 -0.26662940662E+02 -0.63829098069E+01 -0.73109197561E+01  0.28374345637E+02  0.51100000000E-03 0. -1.
        -11    1    3    3    0    0 -0.37925768385E+00  0.16316855467E+00 -0.62048284972E-01  0.41750523204E+00  0.51100000000E-03 0.  1.
         12    1    3    3    0    0 -0.12418363802E+02 -0.66576927028E+01 -0.10124140710E+02  0.17350471370E+02  0.00000000000E+00 0. -1.
</event>
<event>
 7    1  0.1543346E-008  0.4614232E+02  0.7816164E-02  0.1320468E+00
        -11   -1    0    0    0    0  0.00000000000E+00  0.00000000000E+00  0.45593999997E+02  0.45594000000E+02  0.51100000000E-03 0.  1.
         11   -1    0    0    0    0 -0.00000000000E+00 -0.00000000000E+00 -0.45593999997E+02  0.45594000000E+02  0.51100000000E-03 0. -1.
    9900012    2    1    2    0    0 -0.53772523555E+01 -0.18408681639E+02 -0.40759282503E+02  0.46142317490E+02  0.99999975295E+01 0.  0.
        -12    1    1    2    0    0  0.53772523555E+01  0.18408681639E+02  0.40759282503E+02  0.45045682510E+02  0.00000000000E+00 0.  1.
         11    1    3    3    0    0  0.13639177263E+01 -0.55594536574E+01 -0.10967686975E+02  0.12371659322E+02  0.51100000000E-03 0. -1.
        -11    1    3    3    0    0 -0.58810494689E+01 -0.10123529487E+02 -0.16856213371E+02  0.20523267810E+02  0.51100000000E-03 0.  1.
         12    1    3    3    0    0 -0.86012061292E+00 -0.27256984950E+01 -0.12935382157E+02  0.13247390358E+02  0.00000000000E+00 0. -1.
</event>
<event>
 7    1  0.1543346E-008  0.4614232E+02  0.7816164E-02  0.1320468E+00
        -11   -1    0    0    0    0  0.00000000000E+00  0.00000000000E+00  0.45593999997E+02  0.45594000000E+02  0.51100000000E-03 0.  1.
         11   -1    0    0    0    0 -0.00000000000E+00 -0.00000000000E+00 -0.45593999997E+02  0.45594000000E+02  0.51100000000E-03 0. -1.
    9900012    2    1    2    0    0 -0.30042518508E+02  0.14120292299E+02 -0.30449594411E+02  0.46142319045E+02  0.10000011709E+02 0.  0.
        -12    1    1    2    0    0  0.30042518508E+02 -0.14120292299E+02  0.30449594411E+02  0.45045680955E+02  0.00000000000E+00 0.  1.
         11    1    3    3    0    0 -0.73572054486E+00  0.60196115696E+00 -0.72502544732E+00  0.11955350748E+01  0.51100000000E-03 0. -1.
        -11    1    3    3    0    0 -0.74129197191E+01  0.40083712703E+00 -0.30416735664E+01  0.80227069939E+01  0.51100000000E-03 0.  1.
        -12    1    3    3    0    0 -0.21893878244E+02  0.13117494015E+02 -0.26682895397E+02  0.36924076977E+02  0.00000000000E+00 0.  1.
</event>
<event>
 7    1  0.1543346E-008  0.4614232E+02  0.7816164E-02  0.1320468E+00
        -11   -1    0    0    0    0  0.00000000000E+00  0.00000000000E+00  0.45593999997E+02  0.45594000000E+02  0.51100000000E-03 0. -1.
         11   -1    0    0    0    0 -0.00000000000E+00 -0.00000000000E+00 -0.45593999997E+02  0.45594000000E+02  0.51100000000E-03 0.  1.
    9900012    2    1    2    0    0  0.26845769992E+02 -0.22827720832E+02  0.28059102800E+02  0.46142318134E+02  0.10000003398E+02 0.  0.
        -12    1    1    2    0    0 -0.26845769992E+02  0.22827720832E+02 -0.28059102800E+02  0.45045681866E+02  0.00000000000E+00 0.  1.
         11    1    3    3    0    0  0.68132144897E+01 -0.82184107862E+01  0.77903653460E+01  0.13215595334E+02  0.51100000000E-03 0. -1.
        -11    1    3    3    0    0 -0.35357250988E+00 -0.16166917825E+01  0.59540678290E+00  0.17587539162E+01  0.51100000000E-03 0.  1.
        -12    1    3    3    0    0  0.20386128012E+02 -0.12992618264E+02  0.19673330671E+02  0.31167968884E+02  0.00000000000E+00 0.  1.
</event>
<event>
 7    1  0.1543346E-008  0.4614232E+02  0.7816164E-02  0.1320468E+00
        -11   -1    0    0    0    0  0.00000000000E+00  0.00000000000E+00  0.45593999997E+02  0.45594000000E+02  0.51100000000E-03 0. -1.
         11   -1    0    0    0    0 -0.00000000000E+00 -0.00000000000E+00 -0.45593999997E+02  0.45594000000E+02  0.51100000000E-03 0.  1.
    9900012    2    1    2    0    0  0.23962491203E+02  0.10808902682E+02  0.36579775814E+02  0.46142319181E+02  0.10000012951E+02 0.  0.
        -12    1    1    2    0    0 -0.23962491203E+02 -0.10808902682E+02 -0.36579775814E+02  0.45045680819E+02  0.00000000000E+00 0.  1.
         11    1    3    3    0    0  0.83030065100E+01  0.87035816190E+00  0.10458465984E+02  0.13381963662E+02  0.51100000000E-03 0. -1.
        -11    1    3    3    0    0  0.14653132841E+02  0.83569667124E+01  0.19051672907E+02  0.25446403194E+02  0.51100000000E-03 0.  1.
        -12    1    3    3    0    0  0.10063518521E+01  0.15815778076E+01  0.70696369224E+01  0.73139523260E+01  0.00000000000E+00 0.  1.
</event>
<event>
 7    1  0.1543346E-008  0.4614232E+02  0.7816164E-02  0.1320468E+00
        -11   -1    0    0    0    0  0.00000000000E+00  0.00000000000E+00  0.45593999997E+02  0.45594000000E+02  0.51100000000E-03 0.  1.
         11   -1    0    0    0    0 -0.00000000000E+00 -0.00000000000E+00 -0.45593999997E+02  0.45594000000E+02  0.51100000000E-03 0. -1.
    9900012    2    1    2    0    0  0.15356876803E+02 -0.15334734247E+02 -0.39473101859E+02  0.46142317521E+02  0.99999978133E+01 0.  0.
        -12    1    1    2    0    0 -0.15356876803E+02  0.15334734247E+02  0.39473101859E+02  0.45045682479E+02  0.00000000000E+00 0.  1.
         11    1    3    3    0    0  0.12929667567E+02 -0.15408500472E+02 -0.31692282800E+02  0.37536635166E+02  0.51100000000E-03 0. -1.
        -11    1    3    3    0    0 -0.57845538414E+00 -0.20301862886E-01 -0.67148885250E+00  0.88652148154E+00  0.51100000000E-03 0.  1.
         12    1    3    3    0    0  0.30056646203E+01  0.94068088458E-01 -0.71093302065E+01  0.77191608741E+01  0.00000000000E+00 0. -1.
</event>
<event>
 7    1  0.1543346E-008  0.4614231E+02  0.7816164E-02  0.1320468E+00
        -11   -1    0    0    0    0  0.00000000000E+00  0.00000000000E+00  0.45593999997E+02  0.45594000000E+02  0.51100000000E-03 0. -1.
         11   -1    0    0    0    0 -0.00000000000E+00 -0.00000000000E+00 -0.45593999997E+02  0.45594000000E+02  0.51100000000E-03 0.  1.
    9900012    2    1    2    0    0  0.21144377408E+02 -0.39555552866E+02  0.41698338770E+01  0.46142312381E+02  0.99999509411E+01 0.  0.
        -12    1    1    2    0    0 -0.21144377408E+02  0.39555552866E+02 -0.41698338770E+01  0.45045687619E+02  0.00000000000E+00 0.  1.
         11    1    3    3    0    0  0.16436970682E+02 -0.28145100918E+02  0.37815529911E+01  0.32811901106E+02  0.51100000000E-03 0. -1.
        -11    1    3    3    0    0  0.16818122909E+01 -0.66463940164E+01 -0.20889205641E+01  0.71670520709E+01  0.51100000000E-03 0.  1.
        -12    1    3    3    0    0  0.30255944355E+01 -0.47640579313E+01  0.24772014500E+01  0.61633592046E+01  0.00000000000E+00 0.  1.
</event>
<event>
 7    1  0.1543346E-008  0.4614232E+02  0.7816164E-02  0.1320468E+00
        -11   -1    0    0    0    0  0.00000000000E+00  0.00000000000E+00  0.45593999997E+02  0.45594000000E+02  0.51100000000E-03 0.  1.
         11   -1    0    0    0    0 -0.00000000000E+00 -0.00000000000E+00 -0.45593999997E+02  0.45594000000E+02  0.51100000000E-03 0. -1.
    9900012    2    1    2    0    0 -0.34860949776E+02  0.23272353564E+02 -0.16499250701E+02  0.46142317262E+02  0.99999954450E+01 0.  0.
        -12    1    1    2    0    0  0.34860949776E+02 -0.23272353564E+02  0.16499250701E+02  0.45045682738E+02  0.00000000000E+00 0.  1.
         11    1    3    3    0    0 -0.17519303407E+02  0.12417698678E+02 -0.48105001895E+01  0.22006047911E+02  0.51100000000E-03 0. -1.
        -11    1    3    3    0    0 -0.10585409923E+01  0.25853509190E+01 -0.21990115128E+01  0.35553059364E+01  0.51100000000E-03 0.  1.
         12    1    3    3    0    0 -0.16283105376E+02  0.82693039675E+01 -0.94897389984E+01  0.20580963414E+02  0.00000000000E+00 0. -1.
</event>
<event>
 7    1  0.1543346E-008  0.4614232E+02  0.7816164E-02  0.1320468E+00
        -11   -1    0    0    0    0  0.00000000000E+00  0.00000000000E+00  0.45593999997E+02  0.45594000000E+02  0.51100000000E-03 0.  1.
         11   -1    0    0    0    0 -0.00000000000E+00 -0.00000000000E+00 -0.45593999997E+02  0.45594000000E+02  0.51100000000E-03 0. -1.
    9900012    2    1    2    0    0 -0.16453233766E+02 -0.39600903802E+02  0.13790320050E+02  0.46142318627E+02  0.10000007892E+02 0.  0.
        -12    1    1    2    0    0  0.16453233766E+02  0.39600903802E+02 -0.13790320050E+02  0.45045681373E+02  0.00000000000E+00 0.  1.
         11    1    3    3    0    0 -0.80106418786E+01 -0.11210907462E+02  0.40693503302E+01  0.14367130604E+02  0.51100000000E-03 0. -1.
        -11    1    3    3    0    0 -0.35295258864E+01 -0.20997685298E+02  0.79247689418E+01  0.22719205617E+02  0.51100000000E-03 0.  1.
        -12    1    3    3    0    0 -0.49130660014E+01 -0.73923110426E+01  0.17962007780E+01  0.90559824050E+01  0.00000000000E+00 0.  1.
</event>
<event>
 7    1  0.1543346E-008  0.4614232E+02  0.7816164E-02  0.1320468E+00
        -11   -1    0    0    0    0  0.00000000000E+00  0.00000000000E+00  0.45593999997E+02  0.45594000000E+02  0.51100000000E-03 0.  1.
         11   -1    0    0    0    0 -0.00000000000E+00 -0.00000000000E+00 -0.45593999997E+02  0.45594000000E+02  0.51100000000E-03 0. -1.
    9900012    2    1    2    0    0 -0.31260606336E+02  0.58070830578E+00 -0.32427623250E+02  0.46142317851E+02  0.10000000818E+02 0.  0.
        -12    1    1    2    0    0  0.31260606336E+02 -0.58070830578E+00  0.32427623250E+02  0.45045682149E+02  0.00000000000E+00 0.  1.
         11    1    3    3    0    0 -0.82128697340E+01  0.38854849244E+01 -0.10865355035E+02  0.14163479893E+02  0.51100000000E-03 0. -1.
        -11    1    3    3    0    0 -0.94461158038E+01 -0.62079215669E+00 -0.63621579739E+01  0.11405767884E+02  0.51100000000E-03 0.  1.
        -12    1    3    3    0    0 -0.13601620798E+02 -0.26839844620E+01 -0.15200110241E+02  0.20573070074E+02  0.00000000000E+00 0.  1.
</event>
<event>
 7    1  0.1543346E-008  0.4614232E+02  0.7816164E-02  0.1320468E+00
        -11   -1    0    0    0    0  0.00000000000E+00  0.00000000000E+00  0.45593999997E+02  0.45594000000E+02  0.51100000000E-03 0.  1.
         11   -1    0    0    0    0 -0.00000000000E+00 -0.00000000000E+00 -0.45593999997E+02  0.45594000000E+02  0.51100000000E-03 0. -1.
    9900012    2    1    2    0    0  0.35739360425E+02 -0.16828928262E+02 -0.21647141370E+02  0.46142318304E+02  0.10000004946E+02 0.  0.
        -12    1    1    2    0    0 -0.35739360425E+02  0.16828928262E+02  0.21647141370E+02  0.45045681696E+02  0.00000000000E+00 0.  1.
         11    1    3    3    0    0  0.10222313321E+02 -0.31214771991E+01 -0.80036988352E+01  0.13352846320E+02  0.51100000000E-03 0. -1.
        -11    1    3    3    0    0  0.24865809025E+02 -0.14283395177E+02 -0.12330583863E+02  0.31214854396E+02  0.51100000000E-03 0.  1.
        -12    1    3    3    0    0  0.65123807840E+00  0.57594411439E+00 -0.13128586712E+01  0.15746175879E+01  0.00000000000E+00 0.  1.
</event>
<event>
 7    1  0.1543346E-008  0.4614231E+02  0.7816164E-02  0.1320468E+00
        -11   -1    0    0    0    0  0.00000000000E+00  0.00000000000E+00  0.45593999997E+02  0.45594000000E+02  0.51100000000E-03 0. -1.
         11   -1    0    0    0    0 -0.00000000000E+00 -0.00000000000E+00 -0.45593999997E+02  0.45594000000E+02  0.51100000000E-03 0.  1.
    9900012    2    1    2    0    0 -0.43124221360E+02  0.38085989640E+01  0.12446285579E+02  0.46142312985E+02  0.99999564435E+01 0.  0.
        -12    1    1    2    0    0  0.43124221360E+02 -0.38085989640E+01 -0.12446285579E+02  0.45045687015E+02  0.00000000000E+00 0.  1.
         11    1    3    3    0    0 -0.21127000088E+02  0.27502764514E+01  0.66810633459E+01  0.22328250289E+02  0.51100000000E-03 0. -1.
        -11    1    3    3    0    0 -0.19910119788E+02  0.31402469042E+01  0.49395033994E+01  0.20752655606E+02  0.51100000000E-03 0.  1.
        -12    1    3    3    0    0 -0.20871014839E+01 -0.20819243917E+01  0.82571883392E+00  0.30614070898E+01  0.00000000000E+00 0.  1.
</event>
<event>
 7    1  0.1827169E-008  0.4614232E+02  0.7816164E-02  0.1320468E+00
        -11   -1    0    0    0    0  0.00000000000E+00  0.00000000000E+00  0.45593999997E+02  0.45594000000E+02  0.51100000000E-03 0.  1.
         11   -1    0    0    0    0 -0.00000000000E+00 -0.00000000000E+00 -0.45593999997E+02  0.45594000000E+02  0.51100000000E-03 0. -1.
    9900012    2    1    2    0    0 -0.28787638657E+02 -0.27473855486E+02  0.21108588810E+02  0.46142318783E+02  0.10000009318E+02 0.  0.
        -12    1    1    2    0    0  0.28787638657E+02  0.27473855486E+02 -0.21108588810E+02  0.45045681217E+02  0.00000000000E+00 0.  1.
         11    1    3    3    0    0 -0.18355317252E+02 -0.12914772297E+02  0.15744237855E+02  0.27415142545E+02  0.51100000000E-03 0. -1.
        -11    1    3    3    0    0 -0.30805852716E+01 -0.51541440444E+01  0.17321112549E+01  0.62494332628E+01  0.51100000000E-03 0.  1.
         12    1    3    3    0    0 -0.73517361341E+01 -0.94049391447E+01  0.36322397004E+01  0.12477742975E+02  0.00000000000E+00 0. -1.
</event>
<event>
 7    1  0.1543346E-008  0.4614232E+02  0.7816164E-02  0.1320468E+00
        -11   -1    0    0    0    0  0.00000000000E+00  0.00000000000E+00  0.45593999997E+02  0.45594000000E+02  0.51100000000E-03 0.  1.
         11   -1    0    0    0    0 -0.00000000000E+00 -0.00000000000E+00 -0.45593999997E+02  0.45594000000E+02  0.51100000000E-03 0. -1.
    9900012    2    1    2    0    0  0.86551147115E+01  0.39846876919E+02 -0.19142336385E+02  0.46142315932E+02  0.99999833227E+01 0.  0.
        -12    1    1    2    0    0 -0.86551147115E+01 -0.39846876919E+02  0.19142336385E+02  0.45045684068E+02  0.00000000000E+00 0.  1.
         11    1    3    3    0    0  0.13100241276E+01  0.56678884776E+01 -0.57258862639E+01  0.81625300476E+01  0.51100000000E-03 0. -1.
        -11    1    3    3    0    0  0.17805927817E+01  0.25899850872E+01  0.16547448690E+00  0.31473664345E+01  0.51100000000E-03 0.  1.
         12    1    3    3    0    0  0.55644978023E+01  0.31589003354E+02 -0.13581924609E+02  0.34832419450E+02  0.00000000000E+00 0. -1.
</event>
<event>
 7    1  0.1543346E-008  0.4614232E+02  0.7816164E-02  0.1320468E+00
        -11   -1    0    0    0    0  0.00000000000E+00  0.00000000000E+00  0.45593999997E+02  0.45594000000E+02  0.51100000000E-03 0.  1.
         11   -1    0    0    0    0 -0.00000000000E+00 -0.00000000000E+00 -0.45593999997E+02  0.45594000000E+02  0.51100000000E-03 0. -1.
    9900012    2    1    2    0    0 -0.34233367454E+02  0.24389750453E+02 -0.16196609870E+02  0.46142317125E+02  0.99999942024E+01 0.  0.
        -12    1    1    2    0    0  0.34233367454E+02 -0.24389750453E+02  0.16196609870E+02  0.45045682875E+02  0.00000000000E+00 0.  1.
         11    1    3    3    0    0 -0.18172550413E+02  0.74116501938E+01 -0.89266034399E+01  0.21560575047E+02  0.51100000000E-03 0.  1.
        -11    1    3    3    0    0 -0.12571931389E+02  0.11903354333E+02 -0.56866135493E+01  0.18223086378E+02  0.51100000000E-03 0. -1.
        -12    1    3    3    0    0 -0.34888856520E+01  0.50747459257E+01 -0.15833928804E+01  0.63586557005E+01  0.00000000000E+00 0.  1.
</event>
<event>
 7    1  0.1543346E-008  0.4614232E+02  0.7816164E-02  0.1320468E+00
        -11   -1    0    0    0    0  0.00000000000E+00  0.00000000000E+00  0.45593999997E+02  0.45594000000E+02  0.51100000000E-03 0.  1.
         11   -1    0    0    0    0 -0.00000000000E+00 -0.00000000000E+00 -0.45593999997E+02  0.45594000000E+02  0.51100000000E-03 0. -1.
    9900012    2    1    2    0    0  0.38911325722E+02 -0.22660122654E+02 -0.12414327904E+01  0.46142316705E+02  0.99999903691E+01 0.  0.
        -12    1    1    2    0    0 -0.38911325722E+02  0.22660122654E+02  0.12414327904E+01  0.45045683295E+02  0.00000000000E+00 0.  1.
         11    1    3    3    0    0  0.11190948242E+02 -0.54927153207E+01 -0.32405982231E+01  0.12880555937E+02  0.51100000000E-03 0.  1.
        -11    1    3    3    0    0  0.22005391495E+02 -0.16378918364E+02  0.15724306977E+01  0.27476876827E+02  0.51100000000E-03 0. -1.
        -12    1    3    3    0    0  0.57149859857E+01 -0.78848896852E+00  0.42673473506E+00  0.57848839404E+01  0.00000000000E+00 0.  1.
</event>
<event>
 7    1  0.1543346E-008  0.4614232E+02  0.7816164E-02  0.1320468E+00
        -11   -1    0    0    0    0  0.00000000000E+00  0.00000000000E+00  0.45593999997E+02  0.45594000000E+02  0.51100000000E-03 0.  1.
         11   -1    0    0    0    0 -0.00000000000E+00 -0.00000000000E+00 -0.45593999997E+02  0.45594000000E+02  0.51100000000E-03 0. -1.
    9900012    2    1    2    0    0  0.38126415831E+02 -0.50639412842E+01 -0.23448803595E+02  0.46142317904E+02  0.10000001307E+02 0.  0.
        -12    1    1    2    0    0 -0.38126415831E+02  0.50639412842E+01  0.23448803595E+02  0.45045682096E+02  0.00000000000E+00 0.  1.
         11    1    3    3    0    0  0.21895790736E+02 -0.65300106833E+01 -0.13786540610E+02  0.26685865055E+02  0.51100000000E-03 0. -1.
        -11    1    3    3    0    0  0.56516944076E+01  0.21984521176E+01 -0.20443471885E+01  0.63995466307E+01  0.51100000000E-03 0.  1.
         12    1    3    3    0    0  0.10578930687E+02 -0.73238271849E+00 -0.76179157961E+01  0.13056906219E+02  0.00000000000E+00 0. -1.
</event>
<event>
 7    1  0.1543346E-008  0.4614232E+02  0.7816164E-02  0.1320468E+00
        -11   -1    0    0    0    0  0.00000000000E+00  0.00000000000E+00  0.45593999997E+02  0.45594000000E+02  0.51100000000E-03 0. -1.
         11   -1    0    0    0    0 -0.00000000000E+00 -0.00000000000E+00 -0.45593999997E+02  0.45594000000E+02  0.51100000000E-03 0.  1.
    9900012    2    1    2    0    0  0.38153363507E+02  0.40181073680E+01  0.23606971659E+02  0.46142318246E+02  0.10000004425E+02 0.  0.
        -12    1    1    2    0    0 -0.38153363507E+02 -0.40181073680E+01 -0.23606971659E+02  0.45045681754E+02  0.00000000000E+00 0.  1.
         11    1    3    3    0    0  0.88936991217E+01  0.74745662547E+00  0.73152019735E+01  0.11539876761E+02  0.51100000000E-03 0. -1.
        -11    1    3    3    0    0  0.29284053846E+02  0.42090924833E+01  0.15878194519E+02  0.33576618808E+02  0.51100000000E-03 0.  1.
        -12    1    3    3    0    0 -0.24389460268E-01 -0.93844174083E+00  0.41357516698E+00  0.10258226774E+01  0.00000000000E+00 0.  1.
</event>
<event>
 7    1  0.1543346E-008  0.4614232E+02  0.7816164E-02  0.1320468E+00
        -11   -1    0    0    0    0  0.00000000000E+00  0.00000000000E+00  0.45593999997E+02  0.45594000000E+02  0.51100000000E-03 0.  1.
         11   -1    0    0    0    0 -0.00000000000E+00 -0.00000000000E+00 -0.45593999997E+02  0.45594000000E+02  0.51100000000E-03 0. -1.
    9900012    2    1    2    0    0  0.27955580760E+02  0.18181437878E+02 -0.30282570493E+02  0.46142320356E+02  0.10000023664E+02 0.  0.
        -12    1    1    2    0    0 -0.27955580760E+02 -0.18181437878E+02  0.30282570493E+02  0.45045679644E+02  0.00000000000E+00 0.  1.
         11    1    3    3    0    0  0.96511200861E+01  0.29723944655E+01 -0.11362665918E+02  0.15201625729E+02  0.51100000000E-03 0. -1.
        -11    1    3    3    0    0  0.38383625316E+01  0.45937810105E+01 -0.20920480819E+01  0.63413339554E+01  0.51100000000E-03 0.  1.
         12    1    3    3    0    0  0.14466098142E+02  0.10615262402E+02 -0.16827856493E+02  0.24599360672E+02  0.00000000000E+00 0. -1.
</event>
<event>
 7    1  0.1543346E-008  0.4614233E+02  0.7816164E-02  0.1320468E+00
        -11   -1    0    0    0    0  0.00000000000E+00  0.00000000000E+00  0.45593999997E+02  0.45594000000E+02  0.51100000000E-03 0.  1.
         11   -1    0    0    0    0 -0.00000000000E+00 -0.00000000000E+00 -0.45593999997E+02  0.45594000000E+02  0.51100000000E-03 0. -1.
    9900012    2    1    2    0    0 -0.16408972066E+02 -0.35124827241E+02  0.22936976728E+02  0.46142325908E+02  0.10000074287E+02 0.  0.
        -12    1    1    2    0    0  0.16408972066E+02  0.35124827241E+02 -0.22936976728E+02  0.45045674092E+02  0.00000000000E+00 0.  1.
         11    1    3    3    0    0 -0.30513852994E+01 -0.10934663936E+02  0.77262344252E+01  0.13732171215E+02  0.51100000000E-03 0. -1.
        -11    1    3    3    0    0 -0.18693982196E+01 -0.10185232738E+02  0.39609101834E+01  0.11087038620E+02  0.51100000000E-03 0.  1.
         12    1    3    3    0    0 -0.11488188548E+02 -0.14004930568E+02  0.11249832119E+02  0.21323116072E+02  0.00000000000E+00 0. -1.
</event>
<event>
 7    1  0.1543346E-008  0.4614232E+02  0.7816164E-02  0.1320468E+00
        -11   -1    0    0    0    0  0.00000000000E+00  0.00000000000E+00  0.45593999997E+02  0.45594000000E+02  0.51100000000E-03 0.  1.
         11   -1    0    0    0    0 -0.00000000000E+00 -0.00000000000E+00 -0.45593999997E+02  0.45594000000E+02  0.51100000000E-03 0. -1.
    9900012    2    1    2    0    0  0.24661284938E+02 -0.19832008381E+02 -0.32056606611E+02  0.46142316981E+02  0.99999928872E+01 0.  0.
        -12    1    1    2    0    0 -0.24661284938E+02  0.19832008381E+02  0.32056606611E+02  0.45045683019E+02  0.00000000000E+00 0.  1.
         11    1    3    3    0    0  0.13307296310E+02 -0.92219460494E+01 -0.12415658271E+02  0.20402867313E+02  0.51100000000E-03 0.  1.
        -11    1    3    3    0    0  0.81262683385E+01 -0.10561551889E+02 -0.16765043740E+02  0.21416099255E+02  0.51100000000E-03 0. -1.
        -12    1    3    3    0    0  0.32277202897E+01 -0.48510442599E-01 -0.28759046000E+01  0.43233504137E+01  0.00000000000E+00 0.  1.
</event>
<event>
 7    1  0.1543346E-008  0.4614231E+02  0.7816164E-02  0.1320468E+00
        -11   -1    0    0    0    0  0.00000000000E+00  0.00000000000E+00  0.45593999997E+02  0.45594000000E+02  0.51100000000E-03 0.  1.
         11   -1    0    0    0    0 -0.00000000000E+00 -0.00000000000E+00 -0.45593999997E+02  0.45594000000E+02  0.51100000000E-03 0. -1.
    9900012    2    1    2    0    0  0.20137565641E+02 -0.37049915198E+02 -0.15839701532E+02  0.46142313072E+02  0.99999572437E+01 0.  0.
        -12    1    1    2    0    0 -0.20137565641E+02  0.37049915198E+02  0.15839701532E+02  0.45045686928E+02  0.00000000000E+00 0.  1.
         11    1    3    3    0    0  0.12927812314E+02 -0.15088863136E+02 -0.48051011037E+01  0.20442385351E+02  0.51100000000E-03 0.  1.
        -11    1    3    3    0    0  0.97463294022E+00 -0.16151925517E+01 -0.48091430051E+00  0.19468012669E+01  0.51100000000E-03 0. -1.
         12    1    3    3    0    0  0.62351203869E+01 -0.20345859511E+02 -0.10553686128E+02  0.23753126454E+02  0.00000000000E+00 0. -1.
</event>
<event>
 7    1  0.1543346E-008  0.4614232E+02  0.7816164E-02  0.1320468E+00
        -11   -1    0    0    0    0  0.00000000000E+00  0.00000000000E+00  0.45593999997E+02  0.45594000000E+02  0.51100000000E-03 0.  1.
         11   -1    0    0    0    0 -0.00000000000E+00 -0.00000000000E+00 -0.45593999997E+02  0.45594000000E+02  0.51100000000E-03 0. -1.
    9900012    2    1    2    0    0  0.64562004596E+01 -0.41379879366E+02  0.16587239981E+02  0.46142317955E+02  0.10000001764E+02 0.  0.
        -12    1    1    2    0    0 -0.64562004596E+01  0.41379879366E+02 -0.16587239981E+02  0.45045682045E+02  0.00000000000E+00 0.  1.
         11    1    3    3    0    0 -0.21365150121E+00 -0.17353327011E+02  0.28089975222E+01  0.17580502628E+02  0.51100000000E-03 0. -1.
        -11    1    3    3    0    0  0.12599615447E+01 -0.22583913073E+01  0.13068164761E+01  0.28975168601E+01  0.51100000000E-03 0.  1.
         12    1    3    3    0    0  0.54098904161E+01 -0.21768161049E+02  0.12471425983E+02  0.25664298467E+02  0.00000000000E+00 0. -1.
</event>
<event>
 7    1  0.1543346E-008  0.4614232E+02  0.7816164E-02  0.1320468E+00
        -11   -1    0    0    0    0  0.00000000000E+00  0.00000000000E+00  0.45593999997E+02  0.45594000000E+02  0.51100000000E-03 0.  1.
         11   -1    0    0    0    0 -0.00000000000E+00 -0.00000000000E+00 -0.45593999997E+02  0.45594000000E+02  0.51100000000E-03 0. -1.
    9900012    2    1    2    0    0 -0.22585426785E+02  0.15714869326E+02 -0.35665879903E+02  0.46142316408E+02  0.99999876631E+01 0.  0.
        -12    1    1    2    0    0  0.22585426785E+02 -0.15714869326E+02  0.35665879903E+02  0.45045683592E+02  0.00000000000E+00 0.  1.
         11    1    3    3    0    0 -0.96808845174E+01  0.86616518898E+01 -0.11312860203E+02  0.17225694318E+02  0.51100000000E-03 0. -1.
        -11    1    3    3    0    0 -0.62678070870E+01  0.63423898733E+01 -0.13874716863E+02  0.16493001039E+02  0.51100000000E-03 0.  1.
        -12    1    3    3    0    0 -0.66367351810E+01  0.71082756290E+00 -0.10478302837E+02  0.12423621051E+02  0.00000000000E+00 0.  1.
</event>
<event>
 7    1  0.1543346E-008  0.4614232E+02  0.7816164E-02  0.1320468E+00
        -11   -1    0    0    0    0  0.00000000000E+00  0.00000000000E+00  0.45593999997E+02  0.45594000000E+02  0.51100000000E-03 0. -1.
         11   -1    0    0    0    0 -0.00000000000E+00 -0.00000000000E+00 -0.45593999997E+02  0.45594000000E+02  0.51100000000E-03 0.  1.
    9900012    2    1    2    0    0  0.36728619462E+02  0.25995483295E+02  0.20873185033E+01  0.46142317212E+02  0.99999949931E+01 0.  0.
        -12    1    1    2    0    0 -0.36728619462E+02 -0.25995483295E+02 -0.20873185033E+01  0.45045682788E+02  0.00000000000E+00 0.  1.
         11    1    3    3    0    0  0.25225719227E+02  0.19728600312E+02  0.27485519249E+01  0.32142014852E+02  0.51100000000E-03 0. -1.
        -11    1    3    3    0    0  0.10373048557E+02  0.45181581046E+01 -0.20487857443E+01  0.11498322152E+02  0.51100000000E-03 0.  1.
         12    1    3    3    0    0  0.11298516773E+01  0.17487248777E+01  0.13875523227E+01  0.25019802075E+01  0.00000000000E+00 0. -1.
</event>
<event>
 7    1  0.1543346E-008  0.4614232E+02  0.7816164E-02  0.1320468E+00
        -11   -1    0    0    0    0  0.00000000000E+00  0.00000000000E+00  0.45593999997E+02  0.45594000000E+02  0.51100000000E-03 0.  1.
         11   -1    0    0    0    0 -0.00000000000E+00 -0.00000000000E+00 -0.45593999997E+02  0.45594000000E+02  0.51100000000E-03 0. -1.
    9900012    2    1    2    0    0 -0.13711579127E+02 -0.12762402867E+01 -0.42889127939E+02  0.46142317779E+02  0.10000000161E+02 0.  0.
        -12    1    1    2    0    0  0.13711579127E+02  0.12762402867E+01  0.42889127939E+02  0.45045682221E+02  0.00000000000E+00 0.  1.
         11    1    3    3    0    0 -0.12495704414E+02 -0.33265878220E+01 -0.33113229255E+02  0.35548484740E+02  0.51100000000E-03 0. -1.
        -11    1    3    3    0    0 -0.85485795432E+00  0.28866728628E+01 -0.85640012475E+01  0.90777629385E+01  0.51100000000E-03 0.  1.
        -12    1    3    3    0    0 -0.36101675898E+00 -0.83632532750E+00 -0.12118974365E+01  0.15160701007E+01  0.00000000000E+00 0.  1.
</event>
<event>
 7    1  0.1543346E-008  0.4614232E+02  0.7816164E-02  0.1320468E+00
        -11   -1    0    0    0    0  0.00000000000E+00  0.00000000000E+00  0.45593999997E+02  0.45594000000E+02  0.51100000000E-03 0.  1.
         11   -1    0    0    0    0 -0.00000000000E+00 -0.00000000000E+00 -0.45593999997E+02  0.45594000000E+02  0.51100000000E-03 0. -1.
    9900012    2    1    2    0    0 -0.34812290404E+01 -0.33465398117E+02 -0.29950988459E+02  0.46142317228E+02  0.99999951385E+01 0.  0.
        -12    1    1    2    0    0  0.34812290404E+01  0.33465398117E+02  0.29950988459E+02  0.45045682772E+02  0.00000000000E+00 0.  1.
         11    1    3    3    0    0 -0.29427045697E+01 -0.13034422487E+02 -0.12904864156E+02  0.18576630451E+02  0.51100000000E-03 0. -1.
        -11    1    3    3    0    0 -0.27600726323E+00 -0.17891743367E+02 -0.11004519965E+02  0.21006906499E+02  0.51100000000E-03 0.  1.
        -12    1    3    3    0    0 -0.26251720748E+00 -0.25392322625E+01 -0.60416043380E+01  0.65587802787E+01  0.00000000000E+00 0.  1.
</event>
<event>
 7    1  0.1543346E-008  0.4614232E+02  0.7816164E-02  0.1320468E+00
        -11   -1    0    0    0    0  0.00000000000E+00  0.00000000000E+00  0.45593999997E+02  0.45594000000E+02  0.51100000000E-03 0.  1.
         11   -1    0    0    0    0 -0.00000000000E+00 -0.00000000000E+00 -0.45593999997E+02  0.45594000000E+02  0.51100000000E-03 0. -1.
    9900012    2    1    2    0    0 -0.34921010433E+02  0.42776058923E+01 -0.28130741290E+02  0.46142317773E+02  0.10000000105E+02 0.  0.
        -12    1    1    2    0    0  0.34921010433E+02 -0.42776058923E+01  0.28130741290E+02  0.45045682227E+02  0.00000000000E+00 0.  1.
         11    1    3    3    0    0 -0.18618532957E+02  0.40173175209E+01 -0.15779717198E+02  0.24734350297E+02  0.51100000000E-03 0. -1.
        -11    1    3    3    0    0 -0.25477915817E+01  0.20423328181E+01 -0.42018171891E+01  0.53214315025E+01  0.51100000000E-03 0.  1.
        -12    1    3    3    0    0 -0.13754685895E+02 -0.17820444468E+01 -0.81492069030E+01  0.16086535973E+02  0.00000000000E+00 0.  1.
</event>
<event>
 7    1  0.1543346E-008  0.4614232E+02  0.7816164E-02  0.1320468E+00
        -11   -1    0    0    0    0  0.00000000000E+00  0.00000000000E+00  0.45593999997E+02  0.45594000000E+02  0.51100000000E-03 0.  1.
         11   -1    0    0    0    0 -0.00000000000E+00 -0.00000000000E+00 -0.45593999997E+02  0.45594000000E+02  0.51100000000E-03 0. -1.
    9900012    2    1    2    0    0  0.20577796668E+02  0.37362545154E+02 -0.14481296074E+02  0.46142318386E+02  0.10000005699E+02 0.  0.
        -12    1    1    2    0    0 -0.20577796668E+02 -0.37362545154E+02  0.14481296074E+02  0.45045681614E+02  0.00000000000E+00 0.  1.
         11    1    3    3    0    0  0.11211928739E+02  0.20496245830E+02 -0.68300476245E+01  0.24340357228E+02  0.51100000000E-03 0. -1.
        -11    1    3    3    0    0 -0.71628987793E+00  0.38033822546E+01 -0.90284984931E+00  0.39741572534E+01  0.51100000000E-03 0.  1.
        -12    1    3    3    0    0  0.10082157807E+02  0.13062917070E+02 -0.67483985997E+01  0.17827803905E+02  0.00000000000E+00 0.  1.
</event>
<event>
 7    1  0.1543346E-008  0.4614232E+02  0.7816164E-02  0.1320468E+00
        -11   -1    0    0    0    0  0.00000000000E+00  0.00000000000E+00  0.45593999997E+02  0.45594000000E+02  0.51100000000E-03 0. -1.
         11   -1    0    0    0    0 -0.00000000000E+00 -0.00000000000E+00 -0.45593999997E+02  0.45594000000E+02  0.51100000000E-03 0.  1.
    9900012    2    1    2    0    0  0.27007855945E+02  0.32466610097E+02  0.15671903023E+02  0.46142316541E+02  0.99999888754E+01 0.  0.
        -12    1    1    2    0    0 -0.27007855945E+02 -0.32466610097E+02 -0.15671903023E+02  0.45045683459E+02  0.00000000000E+00 0.  1.
         11    1    3    3    0    0  0.18857499429E+02  0.21332358157E+02  0.85891352397E+01  0.29739671042E+02  0.51100000000E-03 0. -1.
        -11    1    3    3    0    0  0.46021839281E+01  0.29258663035E+01  0.45665240127E+01  0.71129411887E+01  0.51100000000E-03 0.  1.
         12    1    3    3    0    0  0.35481725878E+01  0.82083856359E+01  0.25162437705E+01  0.92897043104E+01  0.00000000000E+00 0. -1.
</event>
<event>
 7    1  0.1543346E-008  0.4614232E+02  0.7816164E-02  0.1320468E+00
        -11   -1    0    0    0    0  0.00000000000E+00  0.00000000000E+00  0.45593999997E+02  0.45594000000E+02  0.51100000000E-03 0.  1.
         11   -1    0    0    0    0 -0.00000000000E+00 -0.00000000000E+00 -0.45593999997E+02  0.45594000000E+02  0.51100000000E-03 0. -1.
    9900012    2    1    2    0    0  0.45003083215E+02  0.17312944511E+01  0.91573652935E+00  0.46142318157E+02  0.10000003609E+02 0.  0.
        -12    1    1    2    0    0 -0.45003083215E+02 -0.17312944511E+01 -0.91573652935E+00  0.45045681843E+02  0.00000000000E+00 0.  1.
         11    1    3    3    0    0  0.20899579902E+02  0.45855944612E+01 -0.21245725959E+01  0.21501951670E+02  0.51100000000E-03 0. -1.
        -11    1    3    3    0    0  0.11620540255E+02  0.72311825295E-01  0.10959430549E+01  0.11672329513E+02  0.51100000000E-03 0.  1.
         12    1    3    3    0    0  0.12482963058E+02 -0.29266118354E+01  0.19443660704E+01  0.12968036974E+02  0.00000000000E+00 0. -1.
</event>
<event>
 7    1  0.1543346E-008  0.4614232E+02  0.7816164E-02  0.1320468E+00
        -11   -1    0    0    0    0  0.00000000000E+00  0.00000000000E+00  0.45593999997E+02  0.45594000000E+02  0.51100000000E-03 0.  1.
         11   -1    0    0    0    0 -0.00000000000E+00 -0.00000000000E+00 -0.45593999997E+02  0.45594000000E+02  0.51100000000E-03 0. -1.
    9900012    2    1    2    0    0 -0.31676230556E+02  0.12968605342E+02 -0.29283872713E+02  0.46142317545E+02  0.99999980335E+01 0.  0.
        -12    1    1    2    0    0  0.31676230556E+02 -0.12968605342E+02  0.29283872713E+02  0.45045682455E+02  0.00000000000E+00 0.  1.
         11    1    3    3    0    0 -0.31340952226E+01  0.13084650652E+01 -0.52870936502E+01  0.62839472641E+01  0.51100000000E-03 0. -1.
        -11    1    3    3    0    0 -0.27492993344E+01  0.43094333026E+00  0.14734111307E+00  0.27867667016E+01  0.51100000000E-03 0.  1.
        -12    1    3    3    0    0 -0.25792835999E+02  0.11229196946E+02 -0.24144120176E+02  0.37071603580E+02  0.00000000000E+00 0.  1.
</event>
<event>
 7    1  0.1543346E-008  0.4614232E+02  0.7816164E-02  0.1320468E+00
        -11   -1    0    0    0    0  0.00000000000E+00  0.00000000000E+00  0.45593999997E+02  0.45594000000E+02  0.51100000000E-03 0.  1.
         11   -1    0    0    0    0 -0.00000000000E+00 -0.00000000000E+00 -0.45593999997E+02  0.45594000000E+02  0.51100000000E-03 0. -1.
    9900012    2    1    2    0    0 -0.77564604559E+01  0.69703505883E+01 -0.43821970785E+02  0.46142316637E+02  0.99999897488E+01 0.  0.
        -12    1    1    2    0    0  0.77564604559E+01 -0.69703505883E+01  0.43821970785E+02  0.45045683363E+02  0.00000000000E+00 0.  1.
         11    1    3    3    0    0  0.10843963645E+01  0.62539601928E+00 -0.80963302477E+00  0.14908190877E+01  0.51100000000E-03 0. -1.
        -11    1    3    3    0    0 -0.28700760419E+00 -0.63533855799E+00 -0.56266429342E+01  0.56696683694E+01  0.51100000000E-03 0.  1.
         12    1    3    3    0    0 -0.85538492162E+01  0.69802931270E+01 -0.37385694826E+02  0.38981829180E+02  0.00000000000E+00 0. -1.
</event>
<event>
 7    1  0.1543346E-008  0.4614232E+02  0.7816164E-02  0.1320468E+00
        -11   -1    0    0    0    0  0.00000000000E+00  0.00000000000E+00  0.45593999997E+02  0.45594000000E+02  0.51100000000E-03 0. -1.
         11   -1    0    0    0    0 -0.00000000000E+00 -0.00000000000E+00 -0.45593999997E+02  0.45594000000E+02  0.51100000000E-03 0.  1.
    9900012    2    1    2    0    0  0.16261970873E+02 -0.26711356286E+02  0.32421676310E+02  0.46142319341E+02  0.10000014405E+02 0.  0.
        -12    1    1    2    0    0 -0.16261970873E+02  0.26711356286E+02 -0.32421676310E+02  0.45045680659E+02  0.00000000000E+00 0.  1.
         11    1    3    3    0    0  0.24619274707E+01 -0.71455011105E+01  0.11228632523E+02  0.13535193445E+02  0.51100000000E-03 0. -1.
        -11    1    3    3    0    0 -0.65838432442E+00 -0.80594424597E+00  0.49430856924E+00  0.11521099205E+01  0.51100000000E-03 0.  1.
         12    1    3    3    0    0  0.14458427727E+02 -0.18759910930E+02  0.20698735218E+02  0.31455015976E+02  0.00000000000E+00 0. -1.
</event>
<event>
 7    1  0.1543346E-008  0.4614232E+02  0.7816164E-02  0.1320468E+00
        -11   -1    0    0    0    0  0.00000000000E+00  0.00000000000E+00  0.45593999997E+02  0.45594000000E+02  0.51100000000E-03 0. -1.
         11   -1    0    0    0    0 -0.00000000000E+00 -0.00000000000E+00 -0.45593999997E+02  0.45594000000E+02  0.51100000000E-03 0.  1.
    9900012    2    1    2    0    0  0.61811381118E+01 -0.90329455914E+01  0.43695685352E+02  0.46142317712E+02  0.99999995562E+01 0.  0.
        -12    1    1    2    0    0 -0.61811381118E+01  0.90329455914E+01 -0.43695685352E+02  0.45045682288E+02  0.00000000000E+00 0.  1.
         11    1    3    3    0    0  0.44781314709E+01 -0.23359554291E+01  0.14394255815E+02  0.15254669776E+02  0.51100000000E-03 0. -1.
        -11    1    3    3    0    0 -0.89310135330E+00 -0.66537021596E+01  0.16280058834E+02  0.17609931810E+02  0.51100000000E-03 0.  1.
        -12    1    3    3    0    0  0.25961079942E+01 -0.43288002683E-01  0.13021370702E+02  0.13277716126E+02  0.00000000000E+00 0.  1.
</event>
<event>
 7    1  0.1543346E-008  0.4614232E+02  0.7816164E-02  0.1320468E+00
        -11   -1    0    0    0    0  0.00000000000E+00  0.00000000000E+00  0.45593999997E+02  0.45594000000E+02  0.51100000000E-03 0.  1.
         11   -1    0    0    0    0 -0.00000000000E+00 -0.00000000000E+00 -0.45593999997E+02  0.45594000000E+02  0.51100000000E-03 0. -1.
    9900012    2    1    2    0    0 -0.15142897852E+02  0.16077264633E+02 -0.39259747142E+02  0.46142317198E+02  0.99999948676E+01 0.  0.
        -12    1    1    2    0    0  0.15142897852E+02 -0.16077264633E+02  0.39259747142E+02  0.45045682802E+02  0.00000000000E+00 0.  1.
         11    1    3    3    0    0 -0.21521037110E+00  0.17061031997E+01 -0.22489204651E+01  0.28310328771E+01  0.51100000000E-03 0. -1.
        -11    1    3    3    0    0 -0.75073332428E+00  0.57162576325E+01 -0.76708365805E+01  0.95958811972E+01  0.51100000000E-03 0.  1.
        -12    1    3    3    0    0 -0.14176954157E+02  0.86549038005E+01 -0.29339990096E+02  0.33715403124E+02  0.00000000000E+00 0.  1.
</event>
<event>
 7    1  0.1543346E-008  0.4614231E+02  0.7816164E-02  0.1320468E+00
        -11   -1    0    0    0    0  0.00000000000E+00  0.00000000000E+00  0.45593999997E+02  0.45594000000E+02  0.51100000000E-03 0.  1.
         11   -1    0    0    0    0 -0.00000000000E+00 -0.00000000000E+00 -0.45593999997E+02  0.45594000000E+02  0.51100000000E-03 0. -1.
    9900012    2    1    2    0    0 -0.17573315467E+02  0.79696103601E+01 -0.40703534875E+02  0.46142313668E+02  0.99999626792E+01 0.  0.
        -12    1    1    2    0    0  0.17573315467E+02 -0.79696103601E+01  0.40703534875E+02  0.45045686332E+02  0.00000000000E+00 0.  1.
         11    1    3    3    0    0 -0.82521158467E+01  0.10281879853E+01 -0.90525950794E+01  0.12292439319E+02  0.51100000000E-03 0. -1.
        -11    1    3    3    0    0 -0.36351347240E+01  0.44990773502E+01 -0.16465160478E+02  0.17451573318E+02  0.51100000000E-03 0.  1.
         12    1    3    3    0    0 -0.56860648962E+01  0.24423450246E+01 -0.15185779317E+02  0.16398301031E+02  0.00000000000E+00 0. -1.
</event>
<event>
 7    1  0.1543346E-008  0.4614232E+02  0.7816164E-02  0.1320468E+00
        -11   -1    0    0    0    0  0.00000000000E+00  0.00000000000E+00  0.45593999997E+02  0.45594000000E+02  0.51100000000E-03 0. -1.
         11   -1    0    0    0    0 -0.00000000000E+00 -0.00000000000E+00 -0.45593999997E+02  0.45594000000E+02  0.51100000000E-03 0.  1.
    9900012    2    1    2    0    0  0.31021233057E+02 -0.27560267254E+02  0.17527927939E+02  0.46142317750E+02  0.99999998991E+01 0.  0.
        -12    1    1    2    0    0 -0.31021233057E+02  0.27560267254E+02 -0.17527927939E+02  0.45045682250E+02  0.00000000000E+00 0.  1.
         11    1    3    3    0    0  0.51457877391E+01 -0.13909723793E+01  0.24509565005E+01  0.58669518189E+01  0.51100000000E-03 0. -1.
        -11    1    3    3    0    0  0.12304340508E+02 -0.15509176684E+02  0.10556207175E+02  0.22435794324E+02  0.51100000000E-03 0.  1.
         12    1    3    3    0    0  0.13571104810E+02 -0.10660118191E+02  0.45207642641E+01  0.17839571608E+02  0.00000000000E+00 0. -1.
</event>
<event>
 7    1  0.1543346E-008  0.4614232E+02  0.7816164E-02  0.1320468E+00
        -11   -1    0    0    0    0  0.00000000000E+00  0.00000000000E+00  0.45593999997E+02  0.45594000000E+02  0.51100000000E-03 0.  1.
         11   -1    0    0    0    0 -0.00000000000E+00 -0.00000000000E+00 -0.45593999997E+02  0.45594000000E+02  0.51100000000E-03 0. -1.
    9900012    2    1    2    0    0  0.25788111099E+02  0.28024869520E+01 -0.36827066425E+02  0.46142318424E+02  0.10000006043E+02 0.  0.
        -12    1    1    2    0    0 -0.25788111099E+02 -0.28024869520E+01  0.36827066425E+02  0.45045681576E+02  0.00000000000E+00 0.  1.
         11    1    3    3    0    0  0.48072259680E+01  0.45761848809E+01 -0.93795137881E+01  0.11490264085E+02  0.51100000000E-03 0. -1.
        -11    1    3    3    0    0  0.20478610990E+02 -0.17697204512E+01 -0.26155706912E+02  0.33265994993E+02  0.51100000000E-03 0.  1.
        -12    1    3    3    0    0  0.50227414103E+00 -0.39774776342E-02 -0.12918457252E+01  0.13860593461E+01  0.00000000000E+00 0.  1.
</event>
<event>
 7    1  0.1543346E-008  0.4614232E+02  0.7816164E-02  0.1320468E+00
        -11   -1    0    0    0    0  0.00000000000E+00  0.00000000000E+00  0.45593999997E+02  0.45594000000E+02  0.51100000000E-03 0. -1.
         11   -1    0    0    0    0 -0.00000000000E+00 -0.00000000000E+00 -0.45593999997E+02  0.45594000000E+02  0.51100000000E-03 0.  1.
    9900012    2    1    2    0    0 -0.17820978159E+02  0.40917378996E+02  0.61068998983E+01  0.46142318822E+02  0.10000009670E+02 0.  0.
        -12    1    1    2    0    0  0.17820978159E+02 -0.40917378996E+02 -0.61068998983E+01  0.45045681178E+02  0.00000000000E+00 0.  1.
         11    1    3    3    0    0 -0.13909355026E+02  0.22465820417E+02  0.29068057857E+01  0.26582565045E+02  0.51100000000E-03 0. -1.
        -11    1    3    3    0    0 -0.47984357720E-01  0.32718376629E+01  0.20336993378E+01  0.38526818515E+01  0.51100000000E-03 0.  1.
         12    1    3    3    0    0 -0.38636387750E+01  0.15179720917E+02  0.11663947748E+01  0.15707071925E+02  0.00000000000E+00 0. -1.
</event>
<event>
 7    1  0.1543346E-008  0.4614232E+02  0.7816164E-02  0.1320468E+00
        -11   -1    0    0    0    0  0.00000000000E+00  0.00000000000E+00  0.45593999997E+02  0.45594000000E+02  0.51100000000E-03 0. -1.
         11   -1    0    0    0    0 -0.00000000000E+00 -0.00000000000E+00 -0.45593999997E+02  0.45594000000E+02  0.51100000000E-03 0.  1.
    9900012    2    1    2    0    0  0.47253073164E+01 -0.34358650692E+02  0.28744878884E+02  0.46142317980E+02  0.10000001994E+02 0.  0.
        -12    1    1    2    0    0 -0.47253073164E+01  0.34358650692E+02 -0.28744878884E+02  0.45045682020E+02  0.00000000000E+00 0.  1.
         11    1    3    3    0    0  0.61167473424E+01 -0.19508292508E+02  0.19437751710E+02  0.28210180191E+02  0.51100000000E-03 0. -1.
        -11    1    3    3    0    0 -0.20906294816E+01 -0.12299150752E+02  0.87242012262E+01  0.15223387539E+02  0.51100000000E-03 0.  1.
         12    1    3    3    0    0  0.69918945560E+00 -0.25512074318E+01  0.58292594783E+00  0.27087502497E+01  0.00000000000E+00 0. -1.
</event>
<event>
 7    1  0.1543346E-008  0.4614232E+02  0.7816164E-02  0.1320468E+00
        -11   -1    0    0    0    0  0.00000000000E+00  0.00000000000E+00  0.45593999997E+02  0.45594000000E+02  0.51100000000E-03 0.  1.
         11   -1    0    0    0    0 -0.00000000000E+00 -0.00000000000E+00 -0.45593999997E+02  0.45594000000E+02  0.51100000000E-03 0. -1.
    9900012    2    1    2    0    0 -0.35827351882E+02  0.16102480975E+02 -0.22050494268E+02  0.46142319475E+02  0.10000015631E+02 0.  0.
        -12    1    1    2    0    0  0.35827351882E+02 -0.16102480975E+02  0.22050494268E+02  0.45045680525E+02  0.00000000000E+00 0.  1.
         11    1    3    3    0    0 -0.24749483258E+02  0.10416555220E+02 -0.18292452591E+02  0.32490850500E+02  0.51100000000E-03 0. -1.
        -11    1    3    3    0    0 -0.54813332672E+00  0.18251558207E+01 -0.44156900090E+00  0.19561767194E+01  0.51100000000E-03 0.  1.
         12    1    3    3    0    0 -0.10529735298E+02  0.38607699345E+01 -0.33164726767E+01  0.11695292256E+02  0.00000000000E+00 0. -1.
</event>
<event>
 7    1  0.1543346E-008  0.4614232E+02  0.7816164E-02  0.1320468E+00
        -11   -1    0    0    0    0  0.00000000000E+00  0.00000000000E+00  0.45593999997E+02  0.45594000000E+02  0.51100000000E-03 0.  1.
         11   -1    0    0    0    0 -0.00000000000E+00 -0.00000000000E+00 -0.45593999997E+02  0.45594000000E+02  0.51100000000E-03 0. -1.
    9900012    2    1    2    0    0 -0.37968807219E+02  0.17500448036E+02 -0.16769539905E+02  0.46142317946E+02  0.10000001686E+02 0.  0.
        -12    1    1    2    0    0  0.37968807219E+02 -0.17500448036E+02  0.16769539905E+02  0.45045682054E+02  0.00000000000E+00 0.  1.
         11    1    3    3    0    0 -0.11204445321E+02  0.90045412727E+01 -0.82935087422E+01  0.16595289874E+02  0.51100000000E-03 0. -1.
        -11    1    3    3    0    0 -0.17405191190E+02  0.39770088705E+01 -0.62678511294E+01  0.18922030493E+02  0.51100000000E-03 0.  1.
         12    1    3    3    0    0 -0.93591707075E+01  0.45188978927E+01 -0.22081800333E+01  0.10624997579E+02  0.00000000000E+00 0. -1.
</event>
<event>
 7    1  0.1543346E-008  0.4614232E+02  0.7816164E-02  0.1320468E+00
        -11   -1    0    0    0    0  0.00000000000E+00  0.00000000000E+00  0.45593999997E+02  0.45594000000E+02  0.51100000000E-03 0.  1.
         11   -1    0    0    0    0 -0.00000000000E+00 -0.00000000000E+00 -0.45593999997E+02  0.45594000000E+02  0.51100000000E-03 0. -1.
    9900012    2    1    2    0    0  0.41976478666E+02  0.15763620843E+02 -0.43124168864E+01  0.46142318268E+02  0.10000004626E+02 0.  0.
        -12    1    1    2    0    0 -0.41976478666E+02 -0.15763620843E+02  0.43124168864E+01  0.45045681732E+02  0.00000000000E+00 0.  1.
         11    1    3    3    0    0  0.15829016769E+02  0.58455816866E+01 -0.53389824954E+01  0.17698399121E+02  0.51100000000E-03 0.  1.
        -11    1    3    3    0    0  0.82737096598E+01  0.13771700751E+01  0.19560070366E+01  0.86125973283E+01  0.51100000000E-03 0. -1.
         12    1    3    3    0    0  0.17873752237E+02  0.85408690815E+01 -0.92944142752E+00  0.19831321819E+02  0.00000000000E+00 0. -1.
</event>
<event>
 7    1  0.1543346E-008  0.4614232E+02  0.7816164E-02  0.1320468E+00
        -11   -1    0    0    0    0  0.00000000000E+00  0.00000000000E+00  0.45593999997E+02  0.45594000000E+02  0.51100000000E-03 0.  1.
         11   -1    0    0    0    0 -0.00000000000E+00 -0.00000000000E+00 -0.45593999997E+02  0.45594000000E+02  0.51100000000E-03 0. -1.
    9900012    2    1    2    0    0 -0.21489228897E+02  0.24365494453E+02 -0.31203352938E+02  0.46142317486E+02  0.99999974946E+01 0.  0.
        -12    1    1    2    0    0  0.21489228897E+02 -0.24365494453E+02  0.31203352938E+02  0.45045682514E+02  0.00000000000E+00 0.  1.
         11    1    3    3    0    0 -0.11368402143E+02  0.96483016355E+01 -0.14965025734E+02  0.21125394368E+02  0.51100000000E-03 0. -1.
        -11    1    3    3    0    0 -0.77254365096E+01  0.14732315140E+02 -0.14226035748E+02  0.21888434663E+02  0.51100000000E-03 0.  1.
        -12    1    3    3    0    0 -0.23953902446E+01 -0.15122322090E-01 -0.20122914562E+01  0.31284884550E+01  0.00000000000E+00 0.  1.
</event>
<event>
 7    1  0.1543346E-008  0.4614232E+02  0.7816164E-02  0.1320468E+00
        -11   -1    0    0    0    0  0.00000000000E+00  0.00000000000E+00  0.45593999997E+02  0.45594000000E+02  0.51100000000E-03 0.  1.
         11   -1    0    0    0    0 -0.00000000000E+00 -0.00000000000E+00 -0.45593999997E+02  0.45594000000E+02  0.51100000000E-03 0. -1.
    9900012    2    1    2    0    0 -0.62130979748E+00  0.43469825962E+02 -0.11794140749E+02  0.46142317066E+02  0.99999936607E+01 0.  0.
        -12    1    1    2    0    0  0.62130979748E+00 -0.43469825962E+02  0.11794140749E+02  0.45045682934E+02  0.00000000000E+00 0.  1.
         11    1    3    3    0    0  0.32646589709E+01  0.28583980729E+02 -0.66468283481E+01  0.29527652800E+02  0.51100000000E-03 0. -1.
        -11    1    3    3    0    0 -0.50811033122E+00  0.60807171936E+01 -0.35202271108E+01  0.70445224728E+01  0.51100000000E-03 0.  1.
         12    1    3    3    0    0 -0.33778584372E+01  0.88051280385E+01 -0.16270852902E+01  0.95701417930E+01  0.00000000000E+00 0. -1.
</event>
<event>
 7    1  0.1543346E-008  0.4614232E+02  0.7816164E-02  0.1320468E+00
        -11   -1    0    0    0    0  0.00000000000E+00  0.00000000000E+00  0.45593999997E+02  0.45594000000E+02  0.51100000000E-03 0.  1.
         11   -1    0    0    0    0 -0.00000000000E+00 -0.00000000000E+00 -0.45593999997E+02  0.45594000000E+02  0.51100000000E-03 0. -1.
    9900012    2    1    2    0    0  0.30396568352E+02  0.21050075347E+02 -0.25730458420E+02  0.46142317297E+02  0.99999957659E+01 0.  0.
        -12    1    1    2    0    0 -0.30396568352E+02 -0.21050075347E+02  0.25730458420E+02  0.45045682703E+02  0.00000000000E+00 0.  1.
         11    1    3    3    0    0  0.18374206236E+01  0.40105229058E+01 -0.47791688522E+01  0.65039114158E+01  0.51100000000E-03 0. -1.
        -11    1    3    3    0    0  0.11082001219E+02  0.43177331340E+01 -0.57416206932E+01  0.13206808051E+02  0.51100000000E-03 0.  1.
         12    1    3    3    0    0  0.17477146510E+02  0.12721819307E+02 -0.15209668874E+02  0.26431597830E+02  0.00000000000E+00 0. -1.
</event>
<event>
 7    1  0.1543346E-008  0.4614232E+02  0.7816164E-02  0.1320468E+00
        -11   -1    0    0    0    0  0.00000000000E+00  0.00000000000E+00  0.45593999997E+02  0.45594000000E+02  0.51100000000E-03 0.  1.
         11   -1    0    0    0    0 -0.00000000000E+00 -0.00000000000E+00 -0.45593999997E+02  0.45594000000E+02  0.51100000000E-03 0. -1.
    9900012    2    1    2    0    0 -0.38723818458E+01  0.43720491525E+02 -0.10130976016E+02  0.46142318793E+02  0.10000009407E+02 0.  0.
        -12    1    1    2    0    0  0.38723818458E+01 -0.43720491525E+02  0.10130976016E+02  0.45045681207E+02  0.00000000000E+00 0.  1.
         11    1    3    3    0    0  0.12776658746E+01  0.25517906929E+02 -0.69862764137E+01  0.26487809696E+02  0.51100000000E-03 0. -1.
        -11    1    3    3    0    0 -0.41494466520E+01  0.12762642584E+02 -0.41190520631E+01  0.14038146010E+02  0.51100000000E-03 0.  1.
         12    1    3    3    0    0 -0.10006010684E+01  0.54399420133E+01  0.97435246028E+00  0.56163630868E+01  0.00000000000E+00 0. -1.
</event>
<event>
 7    1  0.1543346E-008  0.4614232E+02  0.7816164E-02  0.1320468E+00
        -11   -1    0    0    0    0  0.00000000000E+00  0.00000000000E+00  0.45593999997E+02  0.45594000000E+02  0.51100000000E-03 0.  1.
         11   -1    0    0    0    0 -0.00000000000E+00 -0.00000000000E+00 -0.45593999997E+02  0.45594000000E+02  0.51100000000E-03 0. -1.
    9900012    2    1    2    0    0 -0.18983236896E+02 -0.96514072186E+01 -0.39693834358E+02  0.46142318405E+02  0.10000005867E+02 0.  0.
        -12    1    1    2    0    0  0.18983236896E+02  0.96514072186E+01  0.39693834358E+02  0.45045681595E+02  0.00000000000E+00 0.  1.
         11    1    3    3    0    0 -0.60488044084E+01 -0.66202965228E+01 -0.19489454168E+02  0.21453558792E+02  0.51100000000E-03 0. -1.
        -11    1    3    3    0    0 -0.91744087508E+01 -0.16170221705E+01 -0.97306896422E+01  0.13471111973E+02  0.51100000000E-03 0.  1.
         12    1    3    3    0    0 -0.37600237369E+01 -0.14140885252E+01 -0.10473690548E+02  0.11217647639E+02  0.00000000000E+00 0. -1.
</event>
<event>
 7    1  0.1543346E-008  0.4614232E+02  0.7816164E-02  0.1320468E+00
        -11   -1    0    0    0    0  0.00000000000E+00  0.00000000000E+00  0.45593999997E+02  0.45594000000E+02  0.51100000000E-03 0.  1.
         11   -1    0    0    0    0 -0.00000000000E+00 -0.00000000000E+00 -0.45593999997E+02  0.45594000000E+02  0.51100000000E-03 0. -1.
    9900012    2    1    2    0    0 -0.43466921723E+02 -0.37431044240E+01 -0.11212914898E+02  0.46142316796E+02  0.99999912037E+01 0.  0.
        -12    1    1    2    0    0  0.43466921723E+02  0.37431044240E+01  0.11212914898E+02  0.45045683204E+02  0.00000000000E+00 0.  1.
         11    1    3    3    0    0 -0.21288650696E+02  0.12395791361E+01 -0.82080964997E+01  0.22849858933E+02  0.51100000000E-03 0. -1.
        -11    1    3    3    0    0 -0.23431227984E+01 -0.17352689858E+01 -0.10474463297E+01  0.30981489596E+01  0.51100000000E-03 0.  1.
         12    1    3    3    0    0 -0.19835148229E+02 -0.32474145744E+01 -0.19573720686E+01  0.20194308903E+02  0.00000000000E+00 0. -1.
</event>
<event>
 7    1  0.1543346E-008  0.4614232E+02  0.7816164E-02  0.1320468E+00
        -11   -1    0    0    0    0  0.00000000000E+00  0.00000000000E+00  0.45593999997E+02  0.45594000000E+02  0.51100000000E-03 0.  1.
         11   -1    0    0    0    0 -0.00000000000E+00 -0.00000000000E+00 -0.45593999997E+02  0.45594000000E+02  0.51100000000E-03 0. -1.
    9900012    2    1    2    0    0 -0.21359798758E+02  0.27485146990E+01 -0.39564100812E+02  0.46142318641E+02  0.10000008026E+02 0.  0.
        -12    1    1    2    0    0  0.21359798758E+02 -0.27485146990E+01  0.39564100812E+02  0.45045681359E+02  0.00000000000E+00 0.  1.
         11    1    3    3    0    0 -0.61791645239E+01 -0.24630182603E+01 -0.10965777909E+02  0.12825631313E+02  0.51100000000E-03 0. -1.
        -11    1    3    3    0    0 -0.14573014170E+02  0.42020594670E+01 -0.28289440286E+02  0.32098636695E+02  0.51100000000E-03 0.  1.
        -12    1    3    3    0    0 -0.60762006452E+00  0.10094734923E+01 -0.30888261719E+00  0.12180506334E+01  0.00000000000E+00 0.  1.
</event>
<event>
 7    1  0.1543346E-008  0.4614232E+02  0.7816164E-02  0.1320468E+00
        -11   -1    0    0    0    0  0.00000000000E+00  0.00000000000E+00  0.45593999997E+02  0.45594000000E+02  0.51100000000E-03 0.  1.
         11   -1    0    0    0    0 -0.00000000000E+00 -0.00000000000E+00 -0.45593999997E+02  0.45594000000E+02  0.51100000000E-03 0. -1.
    9900012    2    1    2    0    0  0.23095358762E+01 -0.34964481946E+02 -0.28306611838E+02  0.46142320657E+02  0.10000026409E+02 0.  0.
        -12    1    1    2    0    0 -0.23095358762E+01  0.34964481946E+02  0.28306611838E+02  0.45045679343E+02  0.00000000000E+00 0.  1.
         11    1    3    3    0    0  0.53460189005E+01 -0.11803166969E+02 -0.10174835868E+02  0.16474888582E+02  0.51100000000E-03 0. -1.
        -11    1    3    3    0    0 -0.30717743328E+01 -0.15151676918E+02 -0.12393644544E+02  0.19814427479E+02  0.51100000000E-03 0.  1.
         12    1    3    3    0    0  0.35291308516E-01 -0.80096380595E+01 -0.57381314255E+01  0.98530045964E+01  0.00000000000E+00 0. -1.
</event>
<event>
 7    1  0.1543346E-008  0.4614232E+02  0.7816164E-02  0.1320468E+00
        -11   -1    0    0    0    0  0.00000000000E+00  0.00000000000E+00  0.45593999997E+02  0.45594000000E+02  0.51100000000E-03 0.  1.
         11   -1    0    0    0    0 -0.00000000000E+00 -0.00000000000E+00 -0.45593999997E+02  0.45594000000E+02  0.51100000000E-03 0. -1.
    9900012    2    1    2    0    0 -0.27737164979E+02  0.10674502229E+02 -0.33849936608E+02  0.46142317329E+02  0.99999960617E+01 0.  0.
        -12    1    1    2    0    0  0.27737164979E+02 -0.10674502229E+02  0.33849936608E+02  0.45045682671E+02  0.00000000000E+00 0.  1.
         11    1    3    3    0    0  0.54670323508E+00 -0.41192881893E+00 -0.89361689619E+00  0.11256647802E+01  0.51100000000E-03 0.  1.
        -11    1    3    3    0    0 -0.12339067579E+02  0.45135058050E+01 -0.17301113365E+02  0.21724475766E+02  0.51100000000E-03 0. -1.
         12    1    3    3    0    0 -0.15944800634E+02  0.65729252430E+01 -0.15655206347E+02  0.23292176783E+02  0.00000000000E+00 0. -1.
</event>
<event>
 7    1  0.1543346E-008  0.4614232E+02  0.7816164E-02  0.1320468E+00
        -11   -1    0    0    0    0  0.00000000000E+00  0.00000000000E+00  0.45593999997E+02  0.45594000000E+02  0.51100000000E-03 0.  1.
         11   -1    0    0    0    0 -0.00000000000E+00 -0.00000000000E+00 -0.45593999997E+02  0.45594000000E+02  0.51100000000E-03 0. -1.
    9900012    2    1    2    0    0 -0.94085941418E+01  0.43940685026E+02 -0.31317758981E+01  0.46142318025E+02  0.10000002409E+02 0.  0.
        -12    1    1    2    0    0  0.94085941418E+01 -0.43940685026E+02  0.31317758981E+01  0.45045681975E+02  0.00000000000E+00 0.  1.
         11    1    3    3    0    0 -0.13259147795E+01  0.12426262585E+01 -0.12582815882E+01  0.22103037884E+01  0.51100000000E-03 0. -1.
        -11    1    3    3    0    0 -0.23253286045E+00  0.16372034850E+02  0.28145382706E+00  0.16376104945E+02  0.51100000000E-03 0.  1.
         12    1    3    3    0    0 -0.78501465018E+01  0.26326023918E+02 -0.21549481370E+01  0.27555909292E+02  0.00000000000E+00 0. -1.
</event>
<event>
 7    1  0.1543346E-008  0.4614232E+02  0.7816164E-02  0.1320468E+00
        -11   -1    0    0    0    0  0.00000000000E+00  0.00000000000E+00  0.45593999997E+02  0.45594000000E+02  0.51100000000E-03 0. -1.
         11   -1    0    0    0    0 -0.00000000000E+00 -0.00000000000E+00 -0.45593999997E+02  0.45594000000E+02  0.51100000000E-03 0.  1.
    9900012    2    1    2    0    0 -0.16725502404E+02  0.22949686524E+02  0.34966882253E+02  0.46142318779E+02  0.10000009278E+02 0.  0.
        -12    1    1    2    0    0  0.16725502404E+02 -0.22949686524E+02 -0.34966882253E+02  0.45045681221E+02  0.00000000000E+00 0.  1.
         11    1    3    3    0    0 -0.13682207613E+02  0.17387446829E+02  0.25993538983E+02  0.34134882181E+02  0.51100000000E-03 0. -1.
        -11    1    3    3    0    0 -0.68335377011E+00  0.48773090938E+01  0.36048868695E+01  0.61033045127E+01  0.51100000000E-03 0.  1.
         12    1    3    3    0    0 -0.23599410208E+01  0.68493060132E+00  0.53684564009E+01  0.59041320851E+01  0.00000000000E+00 0. -1.
</event>
<event>
 7    1  0.1543346E-008  0.4614232E+02  0.7816164E-02  0.1320468E+00
        -11   -1    0    0    0    0  0.00000000000E+00  0.00000000000E+00  0.45593999997E+02  0.45594000000E+02  0.51100000000E-03 0.  1.
         11   -1    0    0    0    0 -0.00000000000E+00 -0.00000000000E+00 -0.45593999997E+02  0.45594000000E+02  0.51100000000E-03 0. -1.
    9900012    2    1    2    0    0  0.36482014555E+02  0.58020289439E+01 -0.25778141226E+02  0.46142317733E+02  0.99999997422E+01 0.  0.
        -12    1    1    2    0    0 -0.36482014555E+02 -0.58020289439E+01  0.25778141226E+02  0.45045682267E+02  0.00000000000E+00 0.  1.
         11    1    3    3    0    0  0.92304186067E+01  0.50665716989E+01 -0.62652760581E+01  0.12252528750E+02  0.51100000000E-03 0. -1.
        -11    1    3    3    0    0  0.84013114813E+00 -0.91521606375E+00 -0.98436329896E+00  0.15850590383E+01  0.51100000000E-03 0.  1.
         12    1    3    3    0    0  0.26411464800E+02  0.16506733088E+01 -0.18528501869E+02  0.32304729944E+02  0.00000000000E+00 0. -1.
</event>
<event>
 7    1  0.1543346E-008  0.4614232E+02  0.7816164E-02  0.1320468E+00
        -11   -1    0    0    0    0  0.00000000000E+00  0.00000000000E+00  0.45593999997E+02  0.45594000000E+02  0.51100000000E-03 0.  1.
         11   -1    0    0    0    0 -0.00000000000E+00 -0.00000000000E+00 -0.45593999997E+02  0.45594000000E+02  0.51100000000E-03 0. -1.
    9900012    2    1    2    0    0  0.12061521003E+02 -0.20514666970E+02 -0.38246329119E+02  0.46142317179E+02  0.99999946890E+01 0.  0.
        -12    1    1    2    0    0 -0.12061521003E+02  0.20514666970E+02  0.38246329119E+02  0.45045682821E+02  0.00000000000E+00 0.  1.
         11    1    3    3    0    0  0.12869528370E+01 -0.49528563171E+01 -0.76710640838E+01  0.92212937130E+01  0.51100000000E-03 0. -1.
        -11    1    3    3    0    0  0.11408144945E+02 -0.12488896071E+02 -0.21740954223E+02  0.27546095675E+02  0.51100000000E-03 0.  1.
        -12    1    3    3    0    0 -0.63357677882E+00 -0.30729145821E+01 -0.88343108114E+01  0.93749277904E+01  0.00000000000E+00 0.  1.
</event>
<event>
 7    1  0.1543346E-008  0.4614232E+02  0.7816164E-02  0.1320468E+00
        -11   -1    0    0    0    0  0.00000000000E+00  0.00000000000E+00  0.45593999997E+02  0.45594000000E+02  0.51100000000E-03 0.  1.
         11   -1    0    0    0    0 -0.00000000000E+00 -0.00000000000E+00 -0.45593999997E+02  0.45594000000E+02  0.51100000000E-03 0. -1.
    9900012    2    1    2    0    0  0.15152253042E+02  0.37060898548E+02 -0.20640071690E+02  0.46142317268E+02  0.99999955045E+01 0.  0.
        -12    1    1    2    0    0 -0.15152253042E+02 -0.37060898548E+02  0.20640071690E+02  0.45045682732E+02  0.00000000000E+00 0.  1.
         11    1    3    3    0    0  0.64450084663E+01  0.16421561543E+02 -0.76619566580E+01  0.19233080817E+02  0.51100000000E-03 0. -1.
        -11    1    3    3    0    0  0.44918932413E+01  0.15702454228E+02 -0.12168948472E+02  0.20367314031E+02  0.51100000000E-03 0.  1.
         12    1    3    3    0    0  0.42153513340E+01  0.49368827769E+01 -0.80916656037E+00  0.65419224196E+01  0.00000000000E+00 0. -1.
</event>
<event>
 7    1  0.1543346E-008  0.4614232E+02  0.7816164E-02  0.1320468E+00
        -11   -1    0    0    0    0  0.00000000000E+00  0.00000000000E+00  0.45593999997E+02  0.45594000000E+02  0.51100000000E-03 0.  1.
         11   -1    0    0    0    0 -0.00000000000E+00 -0.00000000000E+00 -0.45593999997E+02  0.45594000000E+02  0.51100000000E-03 0. -1.
    9900012    2    1    2    0    0 -0.26424833721E+02 -0.28265044442E+02 -0.23063576551E+02  0.46142321652E+02  0.10000035479E+02 0.  0.
        -12    1    1    2    0    0  0.26424833721E+02  0.28265044442E+02  0.23063576551E+02  0.45045678348E+02  0.00000000000E+00 0.  1.
         11    1    3    3    0    0 -0.28207066104E+01 -0.41532780781E+01 -0.49822447035E+01  0.70731087312E+01  0.51100000000E-03 0. -1.
        -11    1    3    3    0    0 -0.64628474877E+01 -0.82920493394E+01 -0.96379184650E+01  0.14262396450E+02  0.51100000000E-03 0.  1.
        -12    1    3    3    0    0 -0.17141279623E+02 -0.15819717025E+02 -0.84434133826E+01  0.24806816471E+02  0.00000000000E+00 0.  1.
</event>
<event>
 7    1  0.1543346E-008  0.4614232E+02  0.7816164E-02  0.1320468E+00
        -11   -1    0    0    0    0  0.00000000000E+00  0.00000000000E+00  0.45593999997E+02  0.45594000000E+02  0.51100000000E-03 0.  1.
         11   -1    0    0    0    0 -0.00000000000E+00 -0.00000000000E+00 -0.45593999997E+02  0.45594000000E+02  0.51100000000E-03 0. -1.
    9900012    2    1    2    0    0  0.19077629755E+02  0.66341869558E+01 -0.40263445202E+02  0.46142318596E+02  0.10000007615E+02 0.  0.
        -12    1    1    2    0    0 -0.19077629755E+02 -0.66341869558E+01  0.40263445202E+02  0.45045681404E+02  0.00000000000E+00 0.  1.
         11    1    3    3    0    0  0.38035277505E+01  0.28782809202E+01 -0.11595023328E+02  0.12537778537E+02  0.51100000000E-03 0. -1.
        -11    1    3    3    0    0  0.38881233466E+01 -0.14143796263E+01 -0.31954347627E+01  0.52276932264E+01  0.51100000000E-03 0.  1.
        -12    1    3    3    0    0  0.11385978657E+02  0.51702856619E+01 -0.25472987111E+02  0.28376846833E+02  0.00000000000E+00 0.  1.
</event>
<event>
 7    1  0.1543346E-008  0.4614232E+02  0.7816164E-02  0.1320468E+00
        -11   -1    0    0    0    0  0.00000000000E+00  0.00000000000E+00  0.45593999997E+02  0.45594000000E+02  0.51100000000E-03 0. -1.
         11   -1    0    0    0    0 -0.00000000000E+00 -0.00000000000E+00 -0.45593999997E+02  0.45594000000E+02  0.51100000000E-03 0.  1.
    9900012    2    1    2    0    0 -0.43570713125E+01 -0.35311239051E+02  0.27626903228E+02  0.46142318124E+02  0.10000003310E+02 0.  0.
        -12    1    1    2    0    0  0.43570713125E+01  0.35311239051E+02 -0.27626903228E+02  0.45045681876E+02  0.00000000000E+00 0.  1.
         11    1    3    3    0    0 -0.18837047041E+01 -0.53388485364E+01  0.17472042807E+01  0.59248941059E+01  0.51100000000E-03 0. -1.
        -11    1    3    3    0    0  0.21305852639E+01 -0.13934425377E+02  0.11602470063E+02  0.18257188063E+02  0.51100000000E-03 0.  1.
        -12    1    3    3    0    0 -0.46039518723E+01 -0.16037965138E+02  0.14277228884E+02  0.21960235955E+02  0.00000000000E+00 0.  1.
</event>
<event>
 7    1  0.1543346E-008  0.4614232E+02  0.7816164E-02  0.1320468E+00
        -11   -1    0    0    0    0  0.00000000000E+00  0.00000000000E+00  0.45593999997E+02  0.45594000000E+02  0.51100000000E-03 0.  1.
         11   -1    0    0    0    0 -0.00000000000E+00 -0.00000000000E+00 -0.45593999997E+02  0.45594000000E+02  0.51100000000E-03 0. -1.
    9900012    2    1    2    0    0  0.19834835538E+02 -0.40360641315E+02 -0.25905667801E+01  0.46142322022E+02  0.10000038857E+02 0.  0.
        -12    1    1    2    0    0 -0.19834835538E+02  0.40360641315E+02  0.25905667801E+01  0.45045677978E+02  0.00000000000E+00 0.  1.
         11    1    3    3    0    0  0.35990903582E+01 -0.99513606547E+01 -0.42393558584E+01  0.11399788096E+02  0.51100000000E-03 0. -1.
        -11    1    3    3    0    0  0.75294514594E+01 -0.18249202926E+02  0.12686343368E+01  0.19782201093E+02  0.51100000000E-03 0.  1.
         12    1    3    3    0    0  0.87062937208E+01 -0.12160077734E+02  0.38015474145E+00  0.14960332833E+02  0.00000000000E+00 0. -1.
</event>
<event>
 7    1  0.1543346E-008  0.4614232E+02  0.7816164E-02  0.1320468E+00
        -11   -1    0    0    0    0  0.00000000000E+00  0.00000000000E+00  0.45593999997E+02  0.45594000000E+02  0.51100000000E-03 0.  1.
         11   -1    0    0    0    0 -0.00000000000E+00 -0.00000000000E+00 -0.45593999997E+02  0.45594000000E+02  0.51100000000E-03 0. -1.
    9900012    2    1    2    0    0  0.36379974584E+02  0.14207111307E+02 -0.22444798457E+02  0.46142317186E+02  0.99999947569E+01 0.  0.
        -12    1    1    2    0    0 -0.36379974584E+02 -0.14207111307E+02  0.22444798457E+02  0.45045682814E+02  0.00000000000E+00 0.  1.
         11    1    3    3    0    0  0.14689488065E+02  0.56631856062E+01 -0.51110129346E+01  0.16552195754E+02  0.51100000000E-03 0. -1.
        -11    1    3    3    0    0  0.65538235999E+01  0.20985201821E+01 -0.21690673318E+01  0.72153478145E+01  0.51100000000E-03 0.  1.
         12    1    3    3    0    0  0.15136662919E+02  0.64454055188E+01 -0.15164718190E+02  0.22374773617E+02  0.00000000000E+00 0. -1.
</event>
<event>
 7    1  0.1543346E-008  0.4614232E+02  0.7816164E-02  0.1320468E+00
        -11   -1    0    0    0    0  0.00000000000E+00  0.00000000000E+00  0.45593999997E+02  0.45594000000E+02  0.51100000000E-03 0.  1.
         11   -1    0    0    0    0 -0.00000000000E+00 -0.00000000000E+00 -0.45593999997E+02  0.45594000000E+02  0.51100000000E-03 0. -1.
    9900012    2    1    2    0    0  0.25707823241E+02 -0.56742322482E+01 -0.36551668293E+02  0.46142317161E+02  0.99999945278E+01 0.  0.
        -12    1    1    2    0    0 -0.25707823241E+02  0.56742322482E+01  0.36551668293E+02  0.45045682839E+02  0.00000000000E+00 0.  1.
         11    1    3    3    0    0  0.21690342003E+01 -0.12820871411E+01 -0.88310583902E+00  0.26698938150E+01  0.51100000000E-03 0. -1.
        -11    1    3    3    0    0  0.23518588512E+01 -0.27238992550E+01 -0.50760132126E+01  0.62222807396E+01  0.51100000000E-03 0.  1.
         12    1    3    3    0    0  0.21186930190E+02 -0.16682458521E+01 -0.30592549242E+02  0.37250142606E+02  0.00000000000E+00 0. -1.
</event>
<event>
 7    1  0.1543346E-008  0.4614231E+02  0.7816164E-02  0.1320468E+00
        -11   -1    0    0    0    0  0.00000000000E+00  0.00000000000E+00  0.45593999997E+02  0.45594000000E+02  0.51100000000E-03 0.  1.
         11   -1    0    0    0    0 -0.00000000000E+00 -0.00000000000E+00 -0.45593999997E+02  0.45594000000E+02  0.51100000000E-03 0. -1.
    9900012    2    1    2    0    0 -0.11512618070E+02 -0.29464075628E+02 -0.32069327047E+02  0.46142313584E+02  0.99999619090E+01 0.  0.
        -12    1    1    2    0    0  0.11512618070E+02  0.29464075628E+02  0.32069327047E+02  0.45045686416E+02  0.00000000000E+00 0.  1.
         11    1    3    3    0    0 -0.13077378959E+02 -0.25846042030E+02 -0.26400248803E+02  0.39191948997E+02  0.51100000000E-03 0. -1.
        -11    1    3    3    0    0  0.15533251214E+01 -0.27924082789E+01 -0.44975457237E+01  0.55170898784E+01  0.51100000000E-03 0.  1.
         12    1    3    3    0    0  0.11435767042E-01 -0.82562531901E+00 -0.11715325205E+01  0.14332747087E+01  0.00000000000E+00 0. -1.
</event>
<event>
 7    1  0.1543346E-008  0.4614232E+02  0.7816164E-02  0.1320468E+00
        -11   -1    0    0    0    0  0.00000000000E+00  0.00000000000E+00  0.45593999997E+02  0.45594000000E+02  0.51100000000E-03 0.  1.
         11   -1    0    0    0    0 -0.00000000000E+00 -0.00000000000E+00 -0.45593999997E+02  0.45594000000E+02  0.51100000000E-03 0. -1.
    9900012    2    1    2    0    0 -0.14572257670E+02 -0.40380991171E+02 -0.13643259249E+02  0.46142315806E+02  0.99999821719E+01 0.  0.
        -12    1    1    2    0    0  0.14572257670E+02  0.40380991171E+02  0.13643259249E+02  0.45045684194E+02  0.00000000000E+00 0.  1.
         11    1    3    3    0    0 -0.48268313250E+01 -0.26950275261E+02 -0.79327273152E+01  0.28505153923E+02  0.51100000000E-03 0. -1.
        -11    1    3    3    0    0 -0.95412496105E+01 -0.13390980594E+02 -0.57621184321E+01  0.17422853224E+02  0.51100000000E-03 0.  1.
         12    1    3    3    0    0 -0.20417673470E+00 -0.39735316886E-01  0.51586498041E-01  0.21430865867E+00  0.00000000000E+00 0. -1.
</event>
<event>
 7    1  0.1543346E-008  0.4614232E+02  0.7816164E-02  0.1320468E+00
        -11   -1    0    0    0    0  0.00000000000E+00  0.00000000000E+00  0.45593999997E+02  0.45594000000E+02  0.51100000000E-03 0. -1.
         11   -1    0    0    0    0 -0.00000000000E+00 -0.00000000000E+00 -0.45593999997E+02  0.45594000000E+02  0.51100000000E-03 0.  1.
    9900012    2    1    2    0    0 -0.25057269885E+02 -0.37169580135E+02  0.44349792509E+01  0.46142317604E+02  0.99999985711E+01 0.  0.
        -12    1    1    2    0    0  0.25057269885E+02  0.37169580135E+02 -0.44349792509E+01  0.45045682396E+02  0.00000000000E+00 0.  1.
         11    1    3    3    0    0 -0.20023355821E+02 -0.32292255418E+02  0.65214880436E+01  0.38551969403E+02  0.51100000000E-03 0. -1.
        -11    1    3    3    0    0 -0.25880200503E+01 -0.23787824390E+01  0.67837777634E-02  0.35151813542E+01  0.51100000000E-03 0.  1.
         12    1    3    3    0    0 -0.24458940141E+01 -0.24985422786E+01 -0.20932925705E+01  0.40751668471E+01  0.00000000000E+00 0. -1.
</event>
<event>
 7    1  0.1543346E-008  0.4614232E+02  0.7816164E-02  0.1320468E+00
        -11   -1    0    0    0    0  0.00000000000E+00  0.00000000000E+00  0.45593999997E+02  0.45594000000E+02  0.51100000000E-03 0.  1.
         11   -1    0    0    0    0 -0.00000000000E+00 -0.00000000000E+00 -0.45593999997E+02  0.45594000000E+02  0.51100000000E-03 0. -1.
    9900012    2    1    2    0    0 -0.31437543906E+02 -0.20977149876E+02 -0.24510273396E+02  0.46142317790E+02  0.10000000264E+02 0.  0.
        -12    1    1    2    0    0  0.31437543906E+02  0.20977149876E+02  0.24510273396E+02  0.45045682210E+02  0.00000000000E+00 0.  1.
         11    1    3    3    0    0 -0.11471235544E+02 -0.28071054388E+01 -0.75562793022E+01  0.14020215512E+02  0.51100000000E-03 0. -1.
        -11    1    3    3    0    0 -0.17196806886E+02 -0.15849515677E+02 -0.16148422501E+02  0.28420219278E+02  0.51100000000E-03 0.  1.
        -12    1    3    3    0    0 -0.27695014758E+01 -0.23205287608E+01 -0.80557159327E+00  0.37018830000E+01  0.00000000000E+00 0.  1.
</event>
<event>
 7    1  0.1543346E-008  0.4614232E+02  0.7816164E-02  0.1320468E+00
        -11   -1    0    0    0    0  0.00000000000E+00  0.00000000000E+00  0.45593999997E+02  0.45594000000E+02  0.51100000000E-03 0. -1.
         11   -1    0    0    0    0 -0.00000000000E+00 -0.00000000000E+00 -0.45593999997E+02  0.45594000000E+02  0.51100000000E-03 0.  1.
    9900012    2    1    2    0    0 -0.38245982731E+02 -0.17559808293E+02  0.16062728321E+02  0.46142319813E+02  0.10000018714E+02 0.  0.
        -12    1    1    2    0    0  0.38245982731E+02  0.17559808293E+02 -0.16062728321E+02  0.45045680187E+02  0.00000000000E+00 0.  1.
         11    1    3    3    0    0 -0.26097335413E+02 -0.10004664040E+02  0.12597661884E+02  0.30657222696E+02  0.51100000000E-03 0. -1.
        -11    1    3    3    0    0 -0.26452830802E+01 -0.34439212137E+01 -0.55430625174E+00  0.43778272673E+01  0.51100000000E-03 0.  1.
        -12    1    3    3    0    0 -0.95033642380E+01 -0.41112230394E+01  0.40193726882E+01  0.11107269850E+02  0.00000000000E+00 0.  1.
</event>
<event>
 7    1  0.1543346E-008  0.4614232E+02  0.7816164E-02  0.1320468E+00
        -11   -1    0    0    0    0  0.00000000000E+00  0.00000000000E+00  0.45593999997E+02  0.45594000000E+02  0.51100000000E-03 0.  1.
         11   -1    0    0    0    0 -0.00000000000E+00 -0.00000000000E+00 -0.45593999997E+02  0.45594000000E+02  0.51100000000E-03 0. -1.
    9900012    2    1    2    0    0  0.41117817843E+02 -0.86828513231E+01 -0.16218713585E+02  0.46142317392E+02  0.99999966345E+01 0.  0.
        -12    1    1    2    0    0 -0.41117817843E+02  0.86828513231E+01  0.16218713585E+02  0.45045682608E+02  0.00000000000E+00 0.  1.
         11    1    3    3    0    0  0.20683067093E+02 -0.30341237195E+01 -0.10457046744E+02  0.23374024001E+02  0.51100000000E-03 0. -1.
        -11    1    3    3    0    0  0.82466821965E+01 -0.36925747687E+01  0.24804289451E+00  0.90390486895E+01  0.51100000000E-03 0.  1.
        -12    1    3    3    0    0  0.12188068553E+02 -0.19561528349E+01 -0.60097097357E+01  0.13729244702E+02  0.00000000000E+00 0.  1.
</event>
<event>
 7    1  0.1543346E-008  0.4614232E+02  0.7816164E-02  0.1320468E+00
        -11   -1    0    0    0    0  0.00000000000E+00  0.00000000000E+00  0.45593999997E+02  0.45594000000E+02  0.51100000000E-03 0.  1.
         11   -1    0    0    0    0 -0.00000000000E+00 -0.00000000000E+00 -0.45593999997E+02  0.45594000000E+02  0.51100000000E-03 0. -1.
    9900012    2    1    2    0    0  0.28609637088E+02  0.35578129889E+01 -0.34611329892E+02  0.46142317360E+02  0.99999963442E+01 0.  0.
        -12    1    1    2    0    0 -0.28609637088E+02 -0.35578129889E+01  0.34611329892E+02  0.45045682640E+02  0.00000000000E+00 0.  1.
         11    1    3    3    0    0  0.12530515137E+02  0.11200124499E+01 -0.14535991737E+02  0.19224029066E+02  0.51100000000E-03 0. -1.
        -11    1    3    3    0    0  0.77473730107E+01  0.42735766328E+01 -0.68930496191E+01  0.11216032236E+02  0.51100000000E-03 0.  1.
         12    1    3    3    0    0  0.83317489397E+01 -0.18357760938E+01 -0.13182288536E+02  0.15702256058E+02  0.00000000000E+00 0. -1.
</event>
<event>
 7    1  0.1543346E-008  0.4614232E+02  0.7816164E-02  0.1320468E+00
        -11   -1    0    0    0    0  0.00000000000E+00  0.00000000000E+00  0.45593999997E+02  0.45594000000E+02  0.51100000000E-03 0.  1.
         11   -1    0    0    0    0 -0.00000000000E+00 -0.00000000000E+00 -0.45593999997E+02  0.45594000000E+02  0.51100000000E-03 0. -1.
    9900012    2    1    2    0    0 -0.85766163095E+01 -0.35610794969E+02 -0.26218817427E+02  0.46142318154E+02  0.10000003586E+02 0.  0.
        -12    1    1    2    0    0  0.85766163095E+01  0.35610794969E+02  0.26218817427E+02  0.45045681846E+02  0.00000000000E+00 0.  1.
         11    1    3    3    0    0 -0.40405129479E+01 -0.27610111163E+02 -0.17989074398E+02  0.33200162368E+02  0.51100000000E-03 0. -1.
        -11    1    3    3    0    0 -0.51578725891E+01 -0.63681250332E+01 -0.72359007293E+01  0.10932288219E+02  0.51100000000E-03 0.  1.
        -12    1    3    3    0    0  0.62176922751E+00 -0.16325587731E+01 -0.99384229920E+00  0.20098675666E+01  0.00000000000E+00 0.  1.
</event>
<event>
 7    1  0.1646542E-008  0.4614232E+02  0.7816164E-02  0.1320468E+00
        -11   -1    0    0    0    0  0.00000000000E+00  0.00000000000E+00  0.45593999997E+02  0.45594000000E+02  0.51100000000E-03 0. -1.
         11   -1    0    0    0    0 -0.00000000000E+00 -0.00000000000E+00 -0.45593999997E+02  0.45594000000E+02  0.51100000000E-03 0.  1.
    9900012    2    1    2    0    0 -0.38302713597E+02  0.23567242273E+02  0.25691454774E+01  0.46142320010E+02  0.10000020509E+02 0.  0.
        -12    1    1    2    0    0  0.38302713597E+02 -0.23567242273E+02 -0.25691454774E+01  0.45045679990E+02  0.00000000000E+00 0.  1.
         11    1    3    3    0    0 -0.36994826864E+02  0.22945868796E+02  0.22898365492E+01  0.43593273119E+02  0.51100000000E-03 0. -1.
        -11    1    3    3    0    0 -0.22997470434E+00  0.12077046463E+01 -0.17250205284E+00  0.12414491922E+01  0.51100000000E-03 0.  1.
         12    1    3    3    0    0 -0.10779120285E+01 -0.58633116905E+00  0.45181098101E+00  0.13075976995E+01  0.00000000000E+00 0. -1.
</event>
<event>
 7    1  0.1543346E-008  0.4614233E+02  0.7816164E-02  0.1320468E+00
        -11   -1    0    0    0    0  0.00000000000E+00  0.00000000000E+00  0.45593999997E+02  0.45594000000E+02  0.51100000000E-03 0.  1.
         11   -1    0    0    0    0 -0.00000000000E+00 -0.00000000000E+00 -0.45593999997E+02  0.45594000000E+02  0.51100000000E-03 0. -1.
    9900012    2    1    2    0    0  0.94115192856E+01  0.40579334757E+02 -0.17142161685E+02  0.46142325271E+02  0.10000068479E+02 0.  0.
        -12    1    1    2    0    0 -0.94115192856E+01 -0.40579334757E+02  0.17142161685E+02  0.45045674729E+02  0.00000000000E+00 0.  1.
         11    1    3    3    0    0  0.43709549912E+01  0.10484153600E+02 -0.55804747160E+01  0.12655608344E+02  0.51100000000E-03 0. -1.
        -11    1    3    3    0    0 -0.98093223875E+00  0.11220678552E+02 -0.18204225097E+01  0.11409635998E+02  0.51100000000E-03 0.  1.
         12    1    3    3    0    0  0.60214965331E+01  0.18874502606E+02 -0.97412644588E+01  0.22077080929E+02  0.00000000000E+00 0. -1.
</event>
<event>
 7    1  0.1543346E-008  0.4614232E+02  0.7816164E-02  0.1320468E+00
        -11   -1    0    0    0    0  0.00000000000E+00  0.00000000000E+00  0.45593999997E+02  0.45594000000E+02  0.51100000000E-03 0.  1.
         11   -1    0    0    0    0 -0.00000000000E+00 -0.00000000000E+00 -0.45593999997E+02  0.45594000000E+02  0.51100000000E-03 0. -1.
    9900012    2    1    2    0    0  0.18165523008E+02  0.35379788098E+02  0.21151781794E+02  0.46142317575E+02  0.99999983062E+01 0.  0.
        -12    1    1    2    0    0 -0.18165523008E+02 -0.35379788098E+02 -0.21151781794E+02  0.45045682425E+02  0.00000000000E+00 0.  1.
         11    1    3    3    0    0  0.34895572950E+01  0.78806532076E+01  0.13503006508E+01  0.87238189575E+01  0.51100000000E-03 0. -1.
        -11    1    3    3    0    0  0.57218150894E+01  0.93402814381E+01  0.10367570125E+02  0.15081993761E+02  0.51100000000E-03 0.  1.
        -12    1    3    3    0    0  0.89541506239E+01  0.18158853452E+02  0.94339110181E+01  0.22336504856E+02  0.00000000000E+00 0.  1.
</event>
<event>
 7    1  0.1543346E-008  0.4614232E+02  0.7816164E-02  0.1320468E+00
        -11   -1    0    0    0    0  0.00000000000E+00  0.00000000000E+00  0.45593999997E+02  0.45594000000E+02  0.51100000000E-03 0.  1.
         11   -1    0    0    0    0 -0.00000000000E+00 -0.00000000000E+00 -0.45593999997E+02  0.45594000000E+02  0.51100000000E-03 0. -1.
    9900012    2    1    2    0    0  0.60913047582E+01 -0.43720977174E+02 -0.89713843963E+01  0.46142316781E+02  0.99999910590E+01 0.  0.
        -12    1    1    2    0    0 -0.60913047582E+01  0.43720977174E+02  0.89713843963E+01  0.45045683219E+02  0.00000000000E+00 0.  1.
         11    1    3    3    0    0  0.76801540964E+01 -0.28582502160E+02 -0.63093780992E+01  0.30261401966E+02  0.51100000000E-03 0. -1.
        -11    1    3    3    0    0 -0.17528843090E+01 -0.67043631421E+01 -0.27215624253E+01  0.74449977057E+01  0.51100000000E-03 0.  1.
         12    1    3    3    0    0  0.16403497076E+00 -0.84341118716E+01  0.59556128208E-01  0.84359171088E+01  0.00000000000E+00 0. -1.
</event>
<event>
 7    1  0.1543346E-008  0.4614232E+02  0.7816164E-02  0.1320468E+00
        -11   -1    0    0    0    0  0.00000000000E+00  0.00000000000E+00  0.45593999997E+02  0.45594000000E+02  0.51100000000E-03 0.  1.
         11   -1    0    0    0    0 -0.00000000000E+00 -0.00000000000E+00 -0.45593999997E+02  0.45594000000E+02  0.51100000000E-03 0. -1.
    9900012    2    1    2    0    0 -0.22899980353E+02 -0.23150279651E+02 -0.31125053303E+02  0.46142317730E+02  0.99999997127E+01 0.  0.
        -12    1    1    2    0    0  0.22899980353E+02  0.23150279651E+02  0.31125053303E+02  0.45045682270E+02  0.00000000000E+00 0.  1.
         11    1    3    3    0    0 -0.14300103805E+02 -0.13651480558E+02 -0.14570568992E+02  0.24559262433E+02  0.51100000000E-03 0. -1.
        -11    1    3    3    0    0 -0.60062512552E+01 -0.92922227395E+01 -0.14649737309E+02  0.18358520122E+02  0.51100000000E-03 0.  1.
         12    1    3    3    0    0 -0.25936252928E+01 -0.20657635355E+00 -0.19047470020E+01  0.32245351744E+01  0.00000000000E+00 0. -1.
</event>
<event>
 7    1  0.1543346E-008  0.4614232E+02  0.7816164E-02  0.1320468E+00
        -11   -1    0    0    0    0  0.00000000000E+00  0.00000000000E+00  0.45593999997E+02  0.45594000000E+02  0.51100000000E-03 0.  1.
         11   -1    0    0    0    0 -0.00000000000E+00 -0.00000000000E+00 -0.45593999997E+02  0.45594000000E+02  0.51100000000E-03 0. -1.
    9900012    2    1    2    0    0  0.29886092192E+02  0.24341639340E+02 -0.23311360338E+02  0.46142318375E+02  0.10000005600E+02 0.  0.
        -12    1    1    2    0    0 -0.29886092192E+02 -0.24341639340E+02  0.23311360338E+02  0.45045681625E+02  0.00000000000E+00 0.  1.
         11    1    3    3    0    0  0.82866749128E+01  0.79701625618E+01 -0.43444235270E+01  0.12290910805E+02  0.51100000000E-03 0. -1.
        -11    1    3    3    0    0  0.15215522573E+02  0.79727806628E+01 -0.92559930956E+01  0.19512835958E+02  0.51100000000E-03 0.  1.
        -12    1    3    3    0    0  0.63838947063E+01  0.83986961150E+01 -0.97109437150E+01  0.14338571613E+02  0.00000000000E+00 0.  1.
</event>
<event>
 7    1  0.1543346E-008  0.4614232E+02  0.7816164E-02  0.1320468E+00
        -11   -1    0    0    0    0  0.00000000000E+00  0.00000000000E+00  0.45593999997E+02  0.45594000000E+02  0.51100000000E-03 0.  1.
         11   -1    0    0    0    0 -0.00000000000E+00 -0.00000000000E+00 -0.45593999997E+02  0.45594000000E+02  0.51100000000E-03 0. -1.
    9900012    2    1    2    0    0  0.24365594195E+01  0.28573878488E+02 -0.34737736634E+02  0.46142315411E+02  0.99999785699E+01 0.  0.
        -12    1    1    2    0    0 -0.24365594195E+01 -0.28573878488E+02  0.34737736634E+02  0.45045684589E+02  0.00000000000E+00 0.  1.
         11    1    3    3    0    0  0.22394346553E+01  0.18934961994E+02 -0.26823700662E+02  0.32909858261E+02  0.51100000000E-03 0. -1.
        -11    1    3    3    0    0  0.13349144862E+01  0.23160011899E+01 -0.44353837780E+00  0.27097204193E+01  0.51100000000E-03 0.  1.
        -12    1    3    3    0    0 -0.11377897220E+01  0.73229153042E+01 -0.74704975940E+01  0.10522736731E+02  0.00000000000E+00 0.  1.
</event>
<event>
 7    1  0.1543346E-008  0.4614232E+02  0.7816164E-02  0.1320468E+00
        -11   -1    0    0    0    0  0.00000000000E+00  0.00000000000E+00  0.45593999997E+02  0.45594000000E+02  0.51100000000E-03 0.  1.
         11   -1    0    0    0    0 -0.00000000000E+00 -0.00000000000E+00 -0.45593999997E+02  0.45594000000E+02  0.51100000000E-03 0. -1.
    9900012    2    1    2    0    0  0.22456171454E+02  0.34671776807E+02  0.17963899532E+02  0.46142318412E+02  0.10000005939E+02 0.  0.
        -12    1    1    2    0    0 -0.22456171454E+02 -0.34671776807E+02 -0.17963899532E+02  0.45045681588E+02  0.00000000000E+00 0.  1.
         11    1    3    3    0    0  0.64434010658E+01  0.13516047240E+02  0.10099617343E+02  0.18061096894E+02  0.51100000000E-03 0. -1.
        -11    1    3    3    0    0  0.43782938541E+01  0.68075988345E+01  0.24091066682E+00  0.80975858856E+01  0.51100000000E-03 0.  1.
         12    1    3    3    0    0  0.11634476534E+02  0.14348130733E+02  0.76233715214E+01  0.19983635633E+02  0.00000000000E+00 0. -1.
</event>
<event>
 7    1  0.1568072E-008  0.4614232E+02  0.7816164E-02  0.1320468E+00
        -11   -1    0    0    0    0  0.00000000000E+00  0.00000000000E+00  0.45593999997E+02  0.45594000000E+02  0.51100000000E-03 0.  1.
         11   -1    0    0    0    0 -0.00000000000E+00 -0.00000000000E+00 -0.45593999997E+02  0.45594000000E+02  0.51100000000E-03 0. -1.
    9900012    2    1    2    0    0 -0.36345223077E+02  0.11813829334E+02 -0.23844742250E+02  0.46142317221E+02  0.99999950767E+01 0.  0.
        -12    1    1    2    0    0  0.36345223077E+02 -0.11813829334E+02  0.23844742250E+02  0.45045682779E+02  0.00000000000E+00 0.  1.
         11    1    3    3    0    0 -0.21102212229E+02  0.76118193524E+01 -0.18882365992E+02  0.29322123056E+02  0.51100000000E-03 0. -1.
        -11    1    3    3    0    0 -0.28780213168E+01  0.29865657379E+00  0.11330901628E+00  0.28956936377E+01  0.51100000000E-03 0.  1.
         12    1    3    3    0    0 -0.12364989531E+02  0.39033534078E+01 -0.50756852741E+01  0.13924500527E+02  0.00000000000E+00 0. -1.
</event>
<event>
 7    1  0.1543346E-008  0.4614232E+02  0.7816164E-02  0.1320468E+00
        -11   -1    0    0    0    0  0.00000000000E+00  0.00000000000E+00  0.45593999997E+02  0.45594000000E+02  0.51100000000E-03 0.  1.
         11   -1    0    0    0    0 -0.00000000000E+00 -0.00000000000E+00 -0.45593999997E+02  0.45594000000E+02  0.51100000000E-03 0. -1.
    9900012    2    1    2    0    0  0.23233278090E+02  0.12353976438E+02 -0.36561011734E+02  0.46142317370E+02  0.99999964323E+01 0.  0.
        -12    1    1    2    0    0 -0.23233278090E+02 -0.12353976438E+02  0.36561011734E+02  0.45045682630E+02  0.00000000000E+00 0.  1.
         11    1    3    3    0    0  0.19422784201E+02  0.10161020288E+02 -0.22522605731E+02  0.31428627851E+02  0.51100000000E-03 0.  1.
        -11    1    3    3    0    0  0.30854177749E+01  0.16496472415E+01 -0.11306007578E+02  0.11834988233E+02  0.51100000000E-03 0. -1.
        -12    1    3    3    0    0  0.72507611393E+00  0.54330890823E+00 -0.27323984255E+01  0.28787012864E+01  0.00000000000E+00 0.  1.
</event>
<event>
 7    1  0.1543346E-008  0.4614232E+02  0.7816164E-02  0.1320468E+00
        -11   -1    0    0    0    0  0.00000000000E+00  0.00000000000E+00  0.45593999997E+02  0.45594000000E+02  0.51100000000E-03 0.  1.
         11   -1    0    0    0    0 -0.00000000000E+00 -0.00000000000E+00 -0.45593999997E+02  0.45594000000E+02  0.51100000000E-03 0. -1.
    9900012    2    1    2    0    0  0.34959619398E+02 -0.22936814844E+02 -0.16758311781E+02  0.46142317883E+02  0.10000001109E+02 0.  0.
        -12    1    1    2    0    0 -0.34959619398E+02  0.22936814844E+02  0.16758311781E+02  0.45045682117E+02  0.00000000000E+00 0.  1.
         11    1    3    3    0    0  0.12126607475E+02 -0.64445577037E+01 -0.23296270175E+01  0.13928894254E+02  0.51100000000E-03 0. -1.
        -11    1    3    3    0    0  0.91756374969E+01 -0.55231531143E+01 -0.24325058560E+01  0.10982469158E+02  0.51100000000E-03 0.  1.
         12    1    3    3    0    0  0.13657374427E+02 -0.10969104026E+02 -0.11996178907E+02  0.21230954471E+02  0.00000000000E+00 0. -1.
</event>
<event>
 7    1  0.1543346E-008  0.4614232E+02  0.7816164E-02  0.1320468E+00
        -11   -1    0    0    0    0  0.00000000000E+00  0.00000000000E+00  0.45593999997E+02  0.45594000000E+02  0.51100000000E-03 0.  1.
         11   -1    0    0    0    0 -0.00000000000E+00 -0.00000000000E+00 -0.45593999997E+02  0.45594000000E+02  0.51100000000E-03 0. -1.
    9900012    2    1    2    0    0 -0.17418460083E+02  0.25507897355E+02 -0.32788076228E+02  0.46142317389E+02  0.99999966094E+01 0.  0.
        -12    1    1    2    0    0  0.17418460083E+02 -0.25507897355E+02  0.32788076228E+02  0.45045682611E+02  0.00000000000E+00 0.  1.
         11    1    3    3    0    0 -0.41462997885E+01  0.72858505130E+01 -0.70833737670E+01  0.10974953477E+02  0.51100000000E-03 0. -1.
        -11    1    3    3    0    0 -0.23108267610E+01  0.96742816400E+01 -0.12707809751E+02  0.16137536196E+02  0.51100000000E-03 0.  1.
        -12    1    3    3    0    0 -0.10961333533E+02  0.85477652016E+01 -0.12996892711E+02  0.19029827716E+02  0.00000000000E+00 0.  1.
</event>
<event>
 7    1  0.1543346E-008  0.4614232E+02  0.7816164E-02  0.1320468E+00
        -11   -1    0    0    0    0  0.00000000000E+00  0.00000000000E+00  0.45593999997E+02  0.45594000000E+02  0.51100000000E-03 0.  1.
         11   -1    0    0    0    0 -0.00000000000E+00 -0.00000000000E+00 -0.45593999997E+02  0.45594000000E+02  0.51100000000E-03 0. -1.
    9900012    2    1    2    0    0  0.37285357014E+02  0.23338358716E+02  0.97075530548E+01  0.46142318503E+02  0.10000006767E+02 0.  0.
        -12    1    1    2    0    0 -0.37285357014E+02 -0.23338358716E+02 -0.97075530548E+01  0.45045681497E+02  0.00000000000E+00 0.  1.
         11    1    3    3    0    0  0.15613135862E+02  0.15159326354E+02  0.30281824028E+01  0.21971460486E+02  0.51100000000E-03 0. -1.
        -11    1    3    3    0    0  0.18651304037E+02  0.76605154462E+01  0.57094892407E+01  0.20955975444E+02  0.51100000000E-03 0.  1.
        -12    1    3    3    0    0  0.30209171148E+01  0.51851691581E+00  0.96988141132E+00  0.32148825730E+01  0.00000000000E+00 0.  1.
</event>
<event>
 7    1  0.1543346E-008  0.4614232E+02  0.7816164E-02  0.1320468E+00
        -11   -1    0    0    0    0  0.00000000000E+00  0.00000000000E+00  0.45593999997E+02  0.45594000000E+02  0.51100000000E-03 0.  1.
         11   -1    0    0    0    0 -0.00000000000E+00 -0.00000000000E+00 -0.45593999997E+02  0.45594000000E+02  0.51100000000E-03 0. -1.
    9900012    2    1    2    0    0  0.31558120632E+02 -0.29873386872E+02 -0.11865043825E+02  0.46142317788E+02  0.10000000243E+02 0.  0.
        -12    1    1    2    0    0 -0.31558120632E+02  0.29873386872E+02  0.11865043825E+02  0.45045682212E+02  0.00000000000E+00 0.  1.
         11    1    3    3    0    0  0.28122853528E+02 -0.27830842174E+02 -0.95689649857E+01  0.40706458429E+02  0.51100000000E-03 0. -1.
        -11    1    3    3    0    0  0.36012347602E+00  0.60224693946E+00 -0.91085530424E+00  0.11498034356E+01  0.51100000000E-03 0.  1.
        -12    1    3    3    0    0  0.30751436279E+01 -0.26447916375E+01 -0.13852235355E+01  0.42860559237E+01  0.00000000000E+00 0.  1.
</event>
<event>
 7    1  0.1884072E-008  0.4614231E+02  0.7816164E-02  0.1320468E+00
        -11   -1    0    0    0    0  0.00000000000E+00  0.00000000000E+00  0.45593999997E+02  0.45594000000E+02  0.51100000000E-03 0. -1.
         11   -1    0    0    0    0 -0.00000000000E+00 -0.00000000000E+00 -0.45593999997E+02  0.45594000000E+02  0.51100000000E-03 0.  1.
    9900012    2    1    2    0    0  0.17879842631E+02 -0.35904997158E+02  0.20500151158E+02  0.46142314403E+02  0.99999693758E+01 0.  0.
        -12    1    1    2    0    0 -0.17879842631E+02  0.35904997158E+02 -0.20500151158E+02  0.45045685597E+02  0.00000000000E+00 0.  1.
         11    1    3    3    0    0  0.82931267770E+01 -0.11059505150E+02  0.10471987862E+02  0.17342177947E+02  0.51100000000E-03 0. -1.
        -11    1    3    3    0    0  0.14913472328E+01 -0.40114998623E+01 -0.53637954686E-01  0.42800846960E+01  0.51100000000E-03 0.  1.
         12    1    3    3    0    0  0.80953686210E+01 -0.20833992146E+02  0.10081801251E+02  0.24520051760E+02  0.00000000000E+00 0. -1.
</event>
<event>
 7    1  0.1543346E-008  0.4614231E+02  0.7816164E-02  0.1320468E+00
        -11   -1    0    0    0    0  0.00000000000E+00  0.00000000000E+00  0.45593999997E+02  0.45594000000E+02  0.51100000000E-03 0.  1.
         11   -1    0    0    0    0 -0.00000000000E+00 -0.00000000000E+00 -0.45593999997E+02  0.45594000000E+02  0.51100000000E-03 0. -1.
    9900012    2    1    2    0    0 -0.33629532089E+02 -0.46656717454E+01 -0.29604052564E+02  0.46142313752E+02  0.99999634423E+01 0.  0.
        -12    1    1    2    0    0  0.33629532089E+02  0.46656717454E+01  0.29604052564E+02  0.45045686248E+02  0.00000000000E+00 0.  1.
         11    1    3    3    0    0 -0.17514465446E-01 -0.43645037349E+00 -0.23179993687E+00  0.49449687246E+00  0.51100000000E-03 0. -1.
        -11    1    3    3    0    0 -0.27246691133E+02 -0.96474133061E-01 -0.21450059849E+02  0.34677032063E+02  0.51100000000E-03 0.  1.
        -12    1    3    3    0    0 -0.63653264906E+01 -0.41327472388E+01 -0.79221927779E+01  0.10970784816E+02  0.00000000000E+00 0.  1.
</event>
<event>
 7    1  0.1543346E-008  0.4614232E+02  0.7816164E-02  0.1320468E+00
        -11   -1    0    0    0    0  0.00000000000E+00  0.00000000000E+00  0.45593999997E+02  0.45594000000E+02  0.51100000000E-03 0.  1.
         11   -1    0    0    0    0 -0.00000000000E+00 -0.00000000000E+00 -0.45593999997E+02  0.45594000000E+02  0.51100000000E-03 0. -1.
    9900012    2    1    2    0    0 -0.40158743675E+02 -0.95003000375E+01 -0.18059147929E+02  0.46142320758E+02  0.10000027332E+02 0.  0.
        -12    1    1    2    0    0  0.40158743675E+02  0.95003000375E+01  0.18059147929E+02  0.45045679242E+02  0.00000000000E+00 0.  1.
         11    1    3    3    0    0 -0.32147666740E+02 -0.52232859389E+01 -0.13817037473E+02  0.35378888022E+02  0.51100000000E-03 0. -1.
        -11    1    3    3    0    0 -0.28916564283E+01 -0.34566615127E+01 -0.30549313874E+01  0.54445194237E+01  0.51100000000E-03 0.  1.
        -12    1    3    3    0    0 -0.51194205068E+01 -0.82035258595E+00 -0.11871790687E+01  0.53189133130E+01  0.00000000000E+00 0.  1.
</event>
<event>
 7    1  0.1543346E-008  0.4614232E+02  0.7816164E-02  0.1320468E+00
        -11   -1    0    0    0    0  0.00000000000E+00  0.00000000000E+00  0.45593999997E+02  0.45594000000E+02  0.51100000000E-03 0.  1.
         11   -1    0    0    0    0 -0.00000000000E+00 -0.00000000000E+00 -0.45593999997E+02  0.45594000000E+02  0.51100000000E-03 0. -1.
    9900012    2    1    2    0    0 -0.44498304830E+02 -0.99401319750E+00 -0.69301000606E+01  0.46142317834E+02  0.10000000666E+02 0.  0.
        -12    1    1    2    0    0  0.44498304830E+02  0.99401319750E+00  0.69301000606E+01  0.45045682166E+02  0.00000000000E+00 0.  1.
         11    1    3    3    0    0 -0.10552129247E+02 -0.33030339571E+01 -0.33223303400E+01  0.11545360285E+02  0.51100000000E-03 0. -1.
        -11    1    3    3    0    0 -0.28981194716E+02  0.16947540440E+01 -0.48724274707E+01  0.29436752337E+02  0.51100000000E-03 0.  1.
        -12    1    3    3    0    0 -0.49649808667E+01  0.61426671556E+00  0.12646577501E+01  0.51602052120E+01  0.00000000000E+00 0.  1.
</event>
<event>
 7    1  0.1543346E-008  0.4614232E+02  0.7816164E-02  0.1320468E+00
        -11   -1    0    0    0    0  0.00000000000E+00  0.00000000000E+00  0.45593999997E+02  0.45594000000E+02  0.51100000000E-03 0.  1.
         11   -1    0    0    0    0 -0.00000000000E+00 -0.00000000000E+00 -0.45593999997E+02  0.45594000000E+02  0.51100000000E-03 0. -1.
    9900012    2    1    2    0    0 -0.19511486607E+02 -0.11963655401E+02 -0.38798019821E+02  0.46142317607E+02  0.99999985992E+01 0.  0.
        -12    1    1    2    0    0  0.19511486607E+02  0.11963655401E+02  0.38798019821E+02  0.45045682393E+02  0.00000000000E+00 0.  1.
         11    1    3    3    0    0 -0.96610110241E+01 -0.81146203980E+01 -0.14511952638E+02  0.19229637746E+02  0.51100000000E-03 0.  1.
        -11    1    3    3    0    0 -0.61738822635E+01 -0.48350160111E+00 -0.16929021279E+02  0.18026157598E+02  0.51100000000E-03 0. -1.
        -12    1    3    3    0    0 -0.36765933193E+01 -0.33655334020E+01 -0.73570459037E+01  0.88865222638E+01  0.00000000000E+00 0.  1.
</event>
<event>
 7    1  0.1543346E-008  0.4614232E+02  0.7816164E-02  0.1320468E+00
        -11   -1    0    0    0    0  0.00000000000E+00  0.00000000000E+00  0.45593999997E+02  0.45594000000E+02  0.51100000000E-03 0.  1.
         11   -1    0    0    0    0 -0.00000000000E+00 -0.00000000000E+00 -0.45593999997E+02  0.45594000000E+02  0.51100000000E-03 0. -1.
    9900012    2    1    2    0    0 -0.30486270443E+02  0.11716859946E+02 -0.31022830491E+02  0.46142317586E+02  0.99999983993E+01 0.  0.
        -12    1    1    2    0    0  0.30486270443E+02 -0.11716859946E+02  0.31022830491E+02  0.45045682414E+02  0.00000000000E+00 0.  1.
         11    1    3    3    0    0 -0.21565212793E+02  0.83091658046E+01 -0.25837707190E+02  0.34665368197E+02  0.51100000000E-03 0. -1.
        -11    1    3    3    0    0 -0.16142100578E+01  0.53723815594E+00  0.51254651305E+00  0.17767957496E+01  0.51100000000E-03 0.  1.
         12    1    3    3    0    0 -0.73068475923E+01  0.28704559856E+01 -0.56976698144E+01  0.97001536388E+01  0.00000000000E+00 0. -1.
</event>
<event>
 7    1  0.1543346E-008  0.4614232E+02  0.7816164E-02  0.1320468E+00
        -11   -1    0    0    0    0  0.00000000000E+00  0.00000000000E+00  0.45593999997E+02  0.45594000000E+02  0.51100000000E-03 0.  1.
         11   -1    0    0    0    0 -0.00000000000E+00 -0.00000000000E+00 -0.45593999997E+02  0.45594000000E+02  0.51100000000E-03 0. -1.
    9900012    2    1    2    0    0 -0.12862049801E+02 -0.40065935832E+02 -0.16074888414E+02  0.46142316781E+02  0.99999910638E+01 0.  0.
        -12    1    1    2    0    0  0.12862049801E+02  0.40065935832E+02  0.16074888414E+02  0.45045683219E+02  0.00000000000E+00 0.  1.
         11    1    3    3    0    0 -0.68343166262E+01 -0.18805525760E+02 -0.11263070512E+02  0.22961107126E+02  0.51100000000E-03 0. -1.
        -11    1    3    3    0    0 -0.36197302969E+01 -0.14878799596E+02 -0.94811464374E+00  0.15342100459E+02  0.51100000000E-03 0.  1.
        -12    1    3    3    0    0 -0.24080028774E+01 -0.63816104755E+01 -0.38637032587E+01  0.78391091962E+01  0.00000000000E+00 0.  1.
</event>
<event>
 7    1  0.1543346E-008  0.4614232E+02  0.7816164E-02  0.1320468E+00
        -11   -1    0    0    0    0  0.00000000000E+00  0.00000000000E+00  0.45593999997E+02  0.45594000000E+02  0.51100000000E-03 0.  1.
         11   -1    0    0    0    0 -0.00000000000E+00 -0.00000000000E+00 -0.45593999997E+02  0.45594000000E+02  0.51100000000E-03 0. -1.
    9900012    2    1    2    0    0 -0.11113421539E+02  0.14458553646E+02 -0.41189265301E+02  0.46142317767E+02  0.10000000054E+02 0.  0.
        -12    1    1    2    0    0  0.11113421539E+02 -0.14458553646E+02  0.41189265301E+02  0.45045682233E+02  0.00000000000E+00 0.  1.
         11    1    3    3    0    0 -0.52477695130E+01  0.18811957276E+01 -0.16570639494E+02  0.17483251292E+02  0.51100000000E-03 0. -1.
        -11    1    3    3    0    0 -0.40974868771E+01  0.78788799085E+01 -0.10955156516E+02  0.14102538845E+02  0.51100000000E-03 0.  1.
         12    1    3    3    0    0 -0.17681651491E+01  0.46984780095E+01 -0.13663469290E+02  0.14556527630E+02  0.00000000000E+00 0. -1.
</event>
<event>
 7    1  0.1543346E-008  0.4614232E+02  0.7816164E-02  0.1320468E+00
        -11   -1    0    0    0    0  0.00000000000E+00  0.00000000000E+00  0.45593999997E+02  0.45594000000E+02  0.51100000000E-03 0.  1.
         11   -1    0    0    0    0 -0.00000000000E+00 -0.00000000000E+00 -0.45593999997E+02  0.45594000000E+02  0.51100000000E-03 0. -1.
    9900012    2    1    2    0    0  0.40003226789E+01 -0.26716276693E+02 -0.36046519043E+02  0.46142316999E+02  0.99999930494E+01 0.  0.
        -12    1    1    2    0    0 -0.40003226789E+01  0.26716276693E+02  0.36046519043E+02  0.45045683001E+02  0.00000000000E+00 0.  1.
         11    1    3    3    0    0  0.35514852756E+01 -0.21205432616E+02 -0.27033923493E+02  0.34541517624E+02  0.51100000000E-03 0. -1.
        -11    1    3    3    0    0 -0.20063904752E+01 -0.38386018100E+01 -0.52033116348E+01  0.67701490991E+01  0.51100000000E-03 0.  1.
         12    1    3    3    0    0  0.24552278784E+01 -0.16722422674E+01 -0.38092839157E+01  0.48306502757E+01  0.00000000000E+00 0. -1.
</event>
<event>
 7    1  0.1543346E-008  0.4614232E+02  0.7816164E-02  0.1320468E+00
        -11   -1    0    0    0    0  0.00000000000E+00  0.00000000000E+00  0.45593999997E+02  0.45594000000E+02  0.51100000000E-03 0.  1.
         11   -1    0    0    0    0 -0.00000000000E+00 -0.00000000000E+00 -0.45593999997E+02  0.45594000000E+02  0.51100000000E-03 0. -1.
    9900012    2    1    2    0    0  0.10227404403E+02 -0.23040070655E+02 -0.37331874825E+02  0.46142317248E+02  0.99999953231E+01 0.  0.
        -12    1    1    2    0    0 -0.10227404403E+02  0.23040070655E+02  0.37331874825E+02  0.45045682752E+02  0.00000000000E+00 0.  1.
         11    1    3    3    0    0  0.95955322996E+00 -0.93950743293E+01 -0.19652759991E+02  0.21804108319E+02  0.51100000000E-03 0. -1.
        -11    1    3    3    0    0  0.26986453489E+01 -0.20082212340E+01 -0.36139064872E+01  0.49372015964E+01  0.51100000000E-03 0.  1.
         12    1    3    3    0    0  0.65692058241E+01 -0.11636775091E+02 -0.14065208347E+02  0.19401007333E+02  0.00000000000E+00 0. -1.
</event>
<event>
 7    1  0.1543346E-008  0.4614232E+02  0.7816164E-02  0.1320468E+00
        -11   -1    0    0    0    0  0.00000000000E+00  0.00000000000E+00  0.45593999997E+02  0.45594000000E+02  0.51100000000E-03 0.  1.
         11   -1    0    0    0    0 -0.00000000000E+00 -0.00000000000E+00 -0.45593999997E+02  0.45594000000E+02  0.51100000000E-03 0. -1.
    9900012    2    1    2    0    0  0.13955602043E+02  0.33351295105E+02 -0.26870909500E+02  0.46142317733E+02  0.99999997429E+01 0.  0.
        -12    1    1    2    0    0 -0.13955602043E+02 -0.33351295105E+02  0.26870909500E+02  0.45045682267E+02  0.00000000000E+00 0.  1.
         11    1    3    3    0    0  0.10034288588E+02  0.15366977902E+02 -0.11584906871E+02  0.21703479555E+02  0.51100000000E-03 0. -1.
        -11    1    3    3    0    0  0.32839093455E+01  0.17065626869E+02 -0.15515923727E+02  0.23297286760E+02  0.51100000000E-03 0.  1.
        -12    1    3    3    0    0  0.63740410892E+00  0.91869033445E+00  0.22992109838E+00  0.11415514181E+01  0.00000000000E+00 0.  1.
</event>
<event>
 7    1  0.1543346E-008  0.4614232E+02  0.7816164E-02  0.1320468E+00
        -11   -1    0    0    0    0  0.00000000000E+00  0.00000000000E+00  0.45593999997E+02  0.45594000000E+02  0.51100000000E-03 0.  1.
         11   -1    0    0    0    0 -0.00000000000E+00 -0.00000000000E+00 -0.45593999997E+02  0.45594000000E+02  0.51100000000E-03 0. -1.
    9900012    2    1    2    0    0  0.31131668004E+02  0.15123741770E+02 -0.28830629813E+02  0.46142317263E+02  0.99999954592E+01 0.  0.
        -12    1    1    2    0    0 -0.31131668004E+02 -0.15123741770E+02  0.28830629813E+02  0.45045682737E+02  0.00000000000E+00 0.  1.
         11    1    3    3    0    0  0.19483816578E+02  0.97521249352E+01 -0.13917116201E+02  0.25853610441E+02  0.51100000000E-03 0. -1.
        -11    1    3    3    0    0  0.16198432320E+01  0.26045328325E+01 -0.18227906914E+01  0.35679194970E+01  0.51100000000E-03 0.  1.
         12    1    3    3    0    0  0.10028008194E+02  0.27670840023E+01 -0.13090722920E+02  0.16720787325E+02  0.00000000000E+00 0. -1.
</event>
<event>
 7    1  0.1543346E-008  0.4614232E+02  0.7816164E-02  0.1320468E+00
        -11   -1    0    0    0    0  0.00000000000E+00  0.00000000000E+00  0.45593999997E+02  0.45594000000E+02  0.51100000000E-03 0.  1.
         11   -1    0    0    0    0 -0.00000000000E+00 -0.00000000000E+00 -0.45593999997E+02  0.45594000000E+02  0.51100000000E-03 0. -1.
    9900012    2    1    2    0    0 -0.23307940012E+02  0.38261038882E+02 -0.46847029762E+01  0.46142316457E+02  0.99999881076E+01 0.  0.
        -12    1    1    2    0    0  0.23307940012E+02 -0.38261038882E+02  0.46847029762E+01  0.45045683543E+02  0.00000000000E+00 0.  1.
         11    1    3    3    0    0 -0.69747739359E+00  0.65228024286E+01 -0.19135746096E+01  0.68333881995E+01  0.51100000000E-03 0. -1.
        -11    1    3    3    0    0 -0.89636610297E+01  0.90748396107E+01 -0.10179591893E+01  0.12795943661E+02  0.51100000000E-03 0.  1.
         12    1    3    3    0    0 -0.13646801588E+02  0.22663396842E+02 -0.17531691773E+01  0.26512984596E+02  0.00000000000E+00 0. -1.
</event>
<event>
 7    1  0.1543346E-008  0.4614232E+02  0.7816164E-02  0.1320468E+00
        -11   -1    0    0    0    0  0.00000000000E+00  0.00000000000E+00  0.45593999997E+02  0.45594000000E+02  0.51100000000E-03 0.  1.
         11   -1    0    0    0    0 -0.00000000000E+00 -0.00000000000E+00 -0.45593999997E+02  0.45594000000E+02  0.51100000000E-03 0. -1.
    9900012    2    1    2    0    0  0.14046121380E+02  0.19638543856E+02 -0.38028245635E+02  0.46142318779E+02  0.10000009282E+02 0.  0.
        -12    1    1    2    0    0 -0.14046121380E+02 -0.19638543856E+02  0.38028245635E+02  0.45045681221E+02  0.00000000000E+00 0.  1.
         11    1    3    3    0    0  0.29185783200E+01  0.24922044443E+01 -0.88981591192E+01  0.96905324092E+01  0.51100000000E-03 0. -1.
        -11    1    3    3    0    0  0.25264381363E+01  0.75252542231E+01 -0.59463958504E+01  0.99182641954E+01  0.51100000000E-03 0.  1.
        -12    1    3    3    0    0  0.86011049239E+01  0.96210851882E+01 -0.23183690665E+02  0.26533522174E+02  0.00000000000E+00 0.  1.
</event>
<event>
 7    1  0.1543346E-008  0.4614232E+02  0.7816164E-02  0.1320468E+00
        -11   -1    0    0    0    0  0.00000000000E+00  0.00000000000E+00  0.45593999997E+02  0.45594000000E+02  0.51100000000E-03 0.  1.
         11   -1    0    0    0    0 -0.00000000000E+00 -0.00000000000E+00 -0.45593999997E+02  0.45594000000E+02  0.51100000000E-03 0. -1.
    9900012    2    1    2    0    0  0.35978687799E+02  0.73310406708E+01 -0.26094124305E+02  0.46142318117E+02  0.10000003247E+02 0.  0.
        -12    1    1    2    0    0 -0.35978687799E+02 -0.73310406708E+01  0.26094124305E+02  0.45045681883E+02  0.00000000000E+00 0.  1.
         11    1    3    3    0    0  0.14475897918E+02  0.29042210756E+01 -0.16536760236E+02  0.22168684218E+02  0.51100000000E-03 0. -1.
        -11    1    3    3    0    0  0.17054829989E+02  0.38500929359E+01 -0.79816187095E+01  0.19219695082E+02  0.51100000000E-03 0.  1.
         12    1    3    3    0    0  0.44479598919E+01  0.57672665929E+00 -0.15757453596E+01  0.47539388172E+01  0.00000000000E+00 0. -1.
</event>
<event>
 7    1  0.1543346E-008  0.4614232E+02  0.7816164E-02  0.1320468E+00
        -11   -1    0    0    0    0  0.00000000000E+00  0.00000000000E+00  0.45593999997E+02  0.45594000000E+02  0.51100000000E-03 0.  1.
         11   -1    0    0    0    0 -0.00000000000E+00 -0.00000000000E+00 -0.45593999997E+02  0.45594000000E+02  0.51100000000E-03 0. -1.
    9900012    2    1    2    0    0  0.37814524811E+02 -0.94313112331E+00 -0.24459878974E+02  0.46142318049E+02  0.10000002629E+02 0.  0.
        -12    1    1    2    0    0 -0.37814524811E+02  0.94313112331E+00  0.24459878974E+02  0.45045681951E+02  0.00000000000E+00 0.  1.
         11    1    3    3    0    0  0.13031142865E+02 -0.26997732114E+01 -0.78370922812E+01  0.15444075739E+02  0.51100000000E-03 0.  1.
        -11    1    3    3    0    0  0.16366532181E+02 -0.39246177674E+00 -0.14221243413E+02  0.21685505905E+02  0.51100000000E-03 0. -1.
         12    1    3    3    0    0  0.84168497644E+01  0.21491038649E+01 -0.24015432795E+01  0.90127364048E+01  0.00000000000E+00 0. -1.
</event>
<event>
 7    1  0.1543346E-008  0.4614232E+02  0.7816164E-02  0.1320468E+00
        -11   -1    0    0    0    0  0.00000000000E+00  0.00000000000E+00  0.45593999997E+02  0.45594000000E+02  0.51100000000E-03 0. -1.
         11   -1    0    0    0    0 -0.00000000000E+00 -0.00000000000E+00 -0.45593999997E+02  0.45594000000E+02  0.51100000000E-03 0.  1.
    9900012    2    1    2    0    0  0.22864889561E+01 -0.44964906274E+02 -0.14291671066E+01  0.46142319335E+02  0.10000014354E+02 0.  0.
        -12    1    1    2    0    0 -0.22864889561E+01  0.44964906274E+02  0.14291671066E+01  0.45045680665E+02  0.00000000000E+00 0.  1.
         11    1    3    3    0    0  0.16961582416E+01 -0.82108250263E+01 -0.13062447744E+00  0.83852050308E+01  0.51100000000E-03 0. -1.
        -11    1    3    3    0    0 -0.61584457274E+00 -0.47031807746E+01 -0.30440204866E+01  0.56360655532E+01  0.51100000000E-03 0.  1.
        -12    1    3    3    0    0  0.12061752872E+01 -0.32050900473E+02  0.17454778574E+01  0.32121048751E+02  0.00000000000E+00 0.  1.
</event>
<event>
 7    1  0.1543346E-008  0.4614232E+02  0.7816164E-02  0.1320468E+00
        -11   -1    0    0    0    0  0.00000000000E+00  0.00000000000E+00  0.45593999997E+02  0.45594000000E+02  0.51100000000E-03 0. -1.
         11   -1    0    0    0    0 -0.00000000000E+00 -0.00000000000E+00 -0.45593999997E+02  0.45594000000E+02  0.51100000000E-03 0.  1.
    9900012    2    1    2    0    0 -0.21241923942E+02  0.58340905265E+01  0.39291952160E+02  0.46142318192E+02  0.10000003928E+02 0.  0.
        -12    1    1    2    0    0  0.21241923942E+02 -0.58340905265E+01 -0.39291952160E+02  0.45045681808E+02  0.00000000000E+00 0.  1.
         11    1    3    3    0    0 -0.11894949190E+02  0.28493471831E+01  0.19600673727E+02  0.23104004121E+02  0.51100000000E-03 0. -1.
        -11    1    3    3    0    0 -0.50367769861E+01  0.50833342542E+01  0.12226244340E+02  0.14166526055E+02  0.51100000000E-03 0.  1.
        -12    1    3    3    0    0 -0.43101977655E+01 -0.20985909107E+01  0.74650340926E+01  0.88717880155E+01  0.00000000000E+00 0.  1.
</event>
<event>
 7    1  0.1543346E-008  0.4614232E+02  0.7816164E-02  0.1320468E+00
        -11   -1    0    0    0    0  0.00000000000E+00  0.00000000000E+00  0.45593999997E+02  0.45594000000E+02  0.51100000000E-03 0.  1.
         11   -1    0    0    0    0 -0.00000000000E+00 -0.00000000000E+00 -0.45593999997E+02  0.45594000000E+02  0.51100000000E-03 0. -1.
    9900012    2    1    2    0    0  0.26294136937E+02 -0.31647952901E+02 -0.18334092474E+02  0.46142317555E+02  0.99999981244E+01 0.  0.
        -12    1    1    2    0    0 -0.26294136937E+02  0.31647952901E+02  0.18334092474E+02  0.45045682445E+02  0.00000000000E+00 0.  1.
         11    1    3    3    0    0  0.11652732371E+02 -0.14410178143E+02 -0.94910738419E+01  0.20821140429E+02  0.51100000000E-03 0. -1.
        -11    1    3    3    0    0  0.46318160127E+01 -0.10612447665E+02 -0.57355587333E+01  0.12921857423E+02  0.51100000000E-03 0.  1.
        -12    1    3    3    0    0  0.10009588553E+02 -0.66253270929E+01 -0.31074598987E+01  0.12399319704E+02  0.00000000000E+00 0.  1.
</event>
<event>
 7    1  0.1543346E-008  0.4614232E+02  0.7816164E-02  0.1320468E+00
        -11   -1    0    0    0    0  0.00000000000E+00  0.00000000000E+00  0.45593999997E+02  0.45594000000E+02  0.51100000000E-03 0.  1.
         11   -1    0    0    0    0 -0.00000000000E+00 -0.00000000000E+00 -0.45593999997E+02  0.45594000000E+02  0.51100000000E-03 0. -1.
    9900012    2    1    2    0    0 -0.25700691424E+02  0.16509172877E+02 -0.33106420982E+02  0.46142318309E+02  0.10000004998E+02 0.  0.
        -12    1    1    2    0    0  0.25700691424E+02 -0.16509172877E+02  0.33106420982E+02  0.45045681691E+02  0.00000000000E+00 0.  1.
         11    1    3    3    0    0 -0.12172334778E+02  0.70885736358E+01 -0.11224125449E+02  0.18010957845E+02  0.51100000000E-03 0. -1.
        -11    1    3    3    0    0 -0.41679354409E+00  0.24107123493E+01 -0.54341238205E+01  0.59594423269E+01  0.51100000000E-03 0.  1.
         12    1    3    3    0    0 -0.13111563102E+02  0.70098868917E+01 -0.16448171712E+02  0.22171918138E+02  0.00000000000E+00 0. -1.
</event>
<event>
 7    1  0.1543346E-008  0.4614232E+02  0.7816164E-02  0.1320468E+00
        -11   -1    0    0    0    0  0.00000000000E+00  0.00000000000E+00  0.45593999997E+02  0.45594000000E+02  0.51100000000E-03 0. -1.
         11   -1    0    0    0    0 -0.00000000000E+00 -0.00000000000E+00 -0.45593999997E+02  0.45594000000E+02  0.51100000000E-03 0.  1.
    9900012    2    1    2    0    0 -0.21245441624E+02  0.37734451072E+02  0.12403866269E+02  0.46142317788E+02  0.10000000244E+02 0.  0.
        -12    1    1    2    0    0  0.21245441624E+02 -0.37734451072E+02 -0.12403866269E+02  0.45045682212E+02  0.00000000000E+00 0.  1.
         11    1    3    3    0    0 -0.19631918174E+01  0.78795043776E+01  0.79374194546E+00  0.81590892804E+01  0.51100000000E-03 0. -1.
        -11    1    3    3    0    0 -0.11782617579E+02  0.12475979103E+02  0.42863753783E+01  0.17687655180E+02  0.51100000000E-03 0.  1.
         12    1    3    3    0    0 -0.74996322270E+01  0.17378967592E+02  0.73237489453E+01  0.20295573328E+02  0.00000000000E+00 0. -1.
</event>
<event>
 7    1  0.1543346E-008  0.4614233E+02  0.7816164E-02  0.1320468E+00
        -11   -1    0    0    0    0  0.00000000000E+00  0.00000000000E+00  0.45593999997E+02  0.45594000000E+02  0.51100000000E-03 0.  1.
         11   -1    0    0    0    0 -0.00000000000E+00 -0.00000000000E+00 -0.45593999997E+02  0.45594000000E+02  0.51100000000E-03 0. -1.
    9900012    2    1    2    0    0  0.35902186183E+02 -0.13038175015E+02 -0.23877850711E+02  0.46142326123E+02  0.10000076252E+02 0.  0.
        -12    1    1    2    0    0 -0.35902186183E+02  0.13038175015E+02  0.23877850711E+02  0.45045673877E+02  0.00000000000E+00 0.  1.
         11    1    3    3    0    0  0.10039674452E+02 -0.17947348794E+01 -0.22078360293E+01  0.10435069553E+02  0.51100000000E-03 0. -1.
        -11    1    3    3    0    0  0.22285043336E+01 -0.19638019074E+01 -0.26823611991E+01  0.40022258007E+01  0.51100000000E-03 0.  1.
         12    1    3    3    0    0  0.23634007397E+02 -0.92796382282E+01 -0.18987653483E+02  0.31705030770E+02  0.00000000000E+00 0. -1.
</event>
<event>
 7    1  0.1543346E-008  0.4614232E+02  0.7816164E-02  0.1320468E+00
        -11   -1    0    0    0    0  0.00000000000E+00  0.00000000000E+00  0.45593999997E+02  0.45594000000E+02  0.51100000000E-03 0.  1.
         11   -1    0    0    0    0 -0.00000000000E+00 -0.00000000000E+00 -0.45593999997E+02  0.45594000000E+02  0.51100000000E-03 0. -1.
    9900012    2    1    2    0    0 -0.37994504911E+02  0.53278848112E+01 -0.23603912675E+02  0.46142318147E+02  0.10000003521E+02 0.  0.
        -12    1    1    2    0    0  0.37994504911E+02 -0.53278848112E+01  0.23603912675E+02  0.45045681853E+02  0.00000000000E+00 0.  1.
         11    1    3    3    0    0 -0.15417054258E+02  0.21229462431E+01 -0.14949234400E+02  0.21579436326E+02  0.51100000000E-03 0. -1.
        -11    1    3    3    0    0 -0.20623576044E+02  0.32259708329E+01 -0.86840835719E+01  0.22608672770E+02  0.51100000000E-03 0.  1.
         12    1    3    3    0    0 -0.19538746090E+01 -0.21032264855E-01  0.29405297373E-01  0.19542090511E+01  0.00000000000E+00 0. -1.
</event>
<event>
 7    1  0.1543346E-008  0.4614232E+02  0.7816164E-02  0.1320468E+00
        -11   -1    0    0    0    0  0.00000000000E+00  0.00000000000E+00  0.45593999997E+02  0.45594000000E+02  0.51100000000E-03 0. -1.
         11   -1    0    0    0    0 -0.00000000000E+00 -0.00000000000E+00 -0.45593999997E+02  0.45594000000E+02  0.51100000000E-03 0.  1.
    9900012    2    1    2    0    0  0.34805170943E+02 -0.12786242863E+02  0.25577834689E+02  0.46142316984E+02  0.99999929170E+01 0.  0.
        -12    1    1    2    0    0 -0.34805170943E+02  0.12786242863E+02 -0.25577834689E+02  0.45045683016E+02  0.00000000000E+00 0.  1.
         11    1    3    3    0    0  0.27868542000E+02 -0.71748396788E+01  0.21458889398E+02  0.35897324303E+02  0.51100000000E-03 0. -1.
        -11    1    3    3    0    0  0.57959000085E+01 -0.47478755621E+01  0.21194027196E+01  0.77863115409E+01  0.51100000000E-03 0.  1.
         12    1    3    3    0    0  0.11407289347E+01 -0.86352762237E+00  0.19995425714E+01  0.24586811408E+01  0.00000000000E+00 0. -1.
</event>
<event>
 7    1  0.1543346E-008  0.4614232E+02  0.7816164E-02  0.1320468E+00
        -11   -1    0    0    0    0  0.00000000000E+00  0.00000000000E+00  0.45593999997E+02  0.45594000000E+02  0.51100000000E-03 0.  1.
         11   -1    0    0    0    0 -0.00000000000E+00 -0.00000000000E+00 -0.45593999997E+02  0.45594000000E+02  0.51100000000E-03 0. -1.
    9900012    2    1    2    0    0 -0.33485146148E+02  0.10701260296E+02 -0.28166317268E+02  0.46142318599E+02  0.10000007636E+02 0.  0.
        -12    1    1    2    0    0  0.33485146148E+02 -0.10701260296E+02  0.28166317268E+02  0.45045681401E+02  0.00000000000E+00 0.  1.
         11    1    3    3    0    0 -0.14598637919E+02  0.86489204002E+01 -0.13761170058E+02  0.21847055976E+02  0.51100000000E-03 0. -1.
        -11    1    3    3    0    0 -0.96470020424E+01  0.35087774568E-02 -0.46693098811E+01  0.10717607744E+02  0.51100000000E-03 0.  1.
         12    1    3    3    0    0 -0.92395061868E+01  0.20488311179E+01 -0.97358373289E+01  0.13577654879E+02  0.00000000000E+00 0. -1.
</event>
<event>
 7    1  0.1543346E-008  0.4614232E+02  0.7816164E-02  0.1320468E+00
        -11   -1    0    0    0    0  0.00000000000E+00  0.00000000000E+00  0.45593999997E+02  0.45594000000E+02  0.51100000000E-03 0. -1.
         11   -1    0    0    0    0 -0.00000000000E+00 -0.00000000000E+00 -0.45593999997E+02  0.45594000000E+02  0.51100000000E-03 0.  1.
    9900012    2    1    2    0    0 -0.41261618138E+02  0.12860617158E+02  0.12696340444E+02  0.46142315793E+02  0.99999820497E+01 0.  0.
        -12    1    1    2    0    0  0.41261618138E+02 -0.12860617158E+02 -0.12696340444E+02  0.45045684207E+02  0.00000000000E+00 0.  1.
         11    1    3    3    0    0 -0.20073133138E+02  0.57882989565E+01  0.93066969499E+01  0.22870279560E+02  0.51100000000E-03 0. -1.
        -11    1    3    3    0    0 -0.16239593900E+02  0.29734840826E+01  0.33500403442E+01  0.16846031823E+02  0.51100000000E-03 0.  1.
        -12    1    3    3    0    0 -0.49488911000E+01  0.40988341193E+01  0.39603149899E-01  0.64260044092E+01  0.00000000000E+00 0.  1.
</event>
<event>
 7    1  0.1543346E-008  0.4614232E+02  0.7816164E-02  0.1320468E+00
        -11   -1    0    0    0    0  0.00000000000E+00  0.00000000000E+00  0.45593999997E+02  0.45594000000E+02  0.51100000000E-03 0.  1.
         11   -1    0    0    0    0 -0.00000000000E+00 -0.00000000000E+00 -0.45593999997E+02  0.45594000000E+02  0.51100000000E-03 0. -1.
    9900012    2    1    2    0    0  0.15907185623E+02  0.10532439981E+02 -0.40806158733E+02  0.46142318332E+02  0.10000005203E+02 0.  0.
        -12    1    1    2    0    0 -0.15907185623E+02 -0.10532439981E+02  0.40806158733E+02  0.45045681668E+02  0.00000000000E+00 0.  1.
         11    1    3    3    0    0  0.80717790531E+00  0.15314041091E+01 -0.55431714143E+01  0.58071924633E+01  0.51100000000E-03 0. -1.
        -11    1    3    3    0    0  0.10626243317E+02  0.70046101278E+01 -0.15923494099E+02  0.20384780466E+02  0.51100000000E-03 0.  1.
        -12    1    3    3    0    0  0.44737644014E+01  0.19964257442E+01 -0.19339493220E+02  0.19950345403E+02  0.00000000000E+00 0.  1.
</event>
<event>
 7    1  0.1543346E-008  0.4614232E+02  0.7816164E-02  0.1320468E+00
        -11   -1    0    0    0    0  0.00000000000E+00  0.00000000000E+00  0.45593999997E+02  0.45594000000E+02  0.51100000000E-03 0. -1.
         11   -1    0    0    0    0 -0.00000000000E+00 -0.00000000000E+00 -0.45593999997E+02  0.45594000000E+02  0.51100000000E-03 0.  1.
    9900012    2    1    2    0    0 -0.18968871141E+02  0.10959212607E+02  0.39359765988E+02  0.46142316611E+02  0.99999895099E+01 0.  0.
        -12    1    1    2    0    0  0.18968871141E+02 -0.10959212607E+02 -0.39359765988E+02  0.45045683389E+02  0.00000000000E+00 0.  1.
         11    1    3    3    0    0 -0.11443323435E+02  0.54287448888E+01  0.13444738094E+02  0.18471110010E+02  0.51100000000E-03 0. -1.
        -11    1    3    3    0    0 -0.75788060522E+01  0.56846951074E+01  0.25756951027E+02  0.27444026420E+02  0.51100000000E-03 0.  1.
         12    1    3    3    0    0  0.53258345828E-01 -0.15422738920E+00  0.15807686689E+00  0.22718018141E+00  0.00000000000E+00 0. -1.
</event>
<event>
 7    1  0.1543346E-008  0.4614232E+02  0.7816164E-02  0.1320468E+00
        -11   -1    0    0    0    0  0.00000000000E+00  0.00000000000E+00  0.45593999997E+02  0.45594000000E+02  0.51100000000E-03 0. -1.
         11   -1    0    0    0    0 -0.00000000000E+00 -0.00000000000E+00 -0.45593999997E+02  0.45594000000E+02  0.51100000000E-03 0.  1.
    9900012    2    1    2    0    0  0.17827762282E+02 -0.24542747751E+02  0.33300715616E+02  0.46142320566E+02  0.10000025578E+02 0.  0.
        -12    1    1    2    0    0 -0.17827762282E+02  0.24542747751E+02 -0.33300715616E+02  0.45045679434E+02  0.00000000000E+00 0.  1.
         11    1    3    3    0    0  0.16507993751E+02 -0.16432948960E+02  0.25085116244E+02  0.34231837907E+02  0.51100000000E-03 0. -1.
        -11    1    3    3    0    0  0.78898752089E-01 -0.14616655099E+01  0.31082105742E+01  0.34356461271E+01  0.51100000000E-03 0.  1.
         12    1    3    3    0    0  0.12408697788E+01 -0.66481332806E+01  0.51073887974E+01  0.84748365324E+01  0.00000000000E+00 0. -1.
</event>
<event>
 7    1  0.1543346E-008  0.4614232E+02  0.7816164E-02  0.1320468E+00
        -11   -1    0    0    0    0  0.00000000000E+00  0.00000000000E+00  0.45593999997E+02  0.45594000000E+02  0.51100000000E-03 0.  1.
         11   -1    0    0    0    0 -0.00000000000E+00 -0.00000000000E+00 -0.45593999997E+02  0.45594000000E+02  0.51100000000E-03 0. -1.
    9900012    2    1    2    0    0 -0.29151647658E+02  0.23933151971E+02 -0.24627204809E+02  0.46142317175E+02  0.99999946566E+01 0.  0.
        -12    1    1    2    0    0  0.29151647658E+02 -0.23933151971E+02  0.24627204809E+02  0.45045682825E+02  0.00000000000E+00 0.  1.
         11    1    3    3    0    0 -0.66761674646E+01  0.29025888611E+01 -0.71839946274E+01  0.10227708110E+02  0.51100000000E-03 0. -1.
        -11    1    3    3    0    0 -0.11841219837E+02  0.11148244619E+02 -0.12724824347E+02  0.20649915260E+02  0.51100000000E-03 0.  1.
        -12    1    3    3    0    0 -0.10634260356E+02  0.98823184914E+01 -0.47183858341E+01  0.15264693805E+02  0.00000000000E+00 0.  1.
</event>
<event>
 7    1  0.1543346E-008  0.4614232E+02  0.7816164E-02  0.1320468E+00
        -11   -1    0    0    0    0  0.00000000000E+00  0.00000000000E+00  0.45593999997E+02  0.45594000000E+02  0.51100000000E-03 0.  1.
         11   -1    0    0    0    0 -0.00000000000E+00 -0.00000000000E+00 -0.45593999997E+02  0.45594000000E+02  0.51100000000E-03 0. -1.
    9900012    2    1    2    0    0 -0.11939657095E+02 -0.35544282828E+01 -0.43288844459E+02  0.46142318447E+02  0.10000006255E+02 0.  0.
        -12    1    1    2    0    0  0.11939657095E+02  0.35544282828E+01  0.43288844459E+02  0.45045681553E+02  0.00000000000E+00 0.  1.
         11    1    3    3    0    0  0.42412107933E+00 -0.20645662984E+01 -0.19088110203E+01  0.28435668557E+01  0.51100000000E-03 0. -1.
        -11    1    3    3    0    0 -0.84414730442E+01 -0.60817517661E-01 -0.30455516833E+02  0.31603807868E+02  0.51100000000E-03 0.  1.
        -12    1    3    3    0    0 -0.39223051305E+01 -0.14290444667E+01 -0.10924516606E+02  0.11694943724E+02  0.00000000000E+00 0.  1.
</event>
<event>
 7    1  0.1543346E-008  0.4614231E+02  0.7816164E-02  0.1320468E+00
        -11   -1    0    0    0    0  0.00000000000E+00  0.00000000000E+00  0.45593999997E+02  0.45594000000E+02  0.51100000000E-03 0. -1.
         11   -1    0    0    0    0 -0.00000000000E+00 -0.00000000000E+00 -0.45593999997E+02  0.45594000000E+02  0.51100000000E-03 0.  1.
    9900012    2    1    2    0    0 -0.39547862523E+02  0.21322474145E+02  0.32299480858E+01  0.46142313210E+02  0.99999584951E+01 0.  0.
        -12    1    1    2    0    0  0.39547862523E+02 -0.21322474145E+02 -0.32299480858E+01  0.45045686790E+02  0.00000000000E+00 0.  1.
         11    1    3    3    0    0 -0.25455978309E+02  0.10678394160E+02  0.43545976346E+01  0.27946331679E+02  0.51100000000E-03 0. -1.
        -11    1    3    3    0    0 -0.40404718851E+01  0.55434615286E+01  0.80933257630E-01  0.68601697665E+01  0.51100000000E-03 0.  1.
         12    1    3    3    0    0 -0.10051412329E+02  0.51006184570E+01 -0.12055828064E+01  0.11335811764E+02  0.00000000000E+00 0. -1.
</event>
<event>
 7    1  0.1543346E-008  0.4614232E+02  0.7816164E-02  0.1320468E+00
        -11   -1    0    0    0    0  0.00000000000E+00  0.00000000000E+00  0.45593999997E+02  0.45594000000E+02  0.51100000000E-03 0.  1.
         11   -1    0    0    0    0 -0.00000000000E+00 -0.00000000000E+00 -0.45593999997E+02  0.45594000000E+02  0.51100000000E-03 0. -1.
    9900012    2    1    2    0    0 -0.22153826023E+01 -0.37145513178E+02 -0.25385358182E+02  0.46142317861E+02  0.10000000911E+02 0.  0.
        -12    1    1    2    0    0  0.22153826023E+01  0.37145513178E+02  0.25385358182E+02  0.45045682139E+02  0.00000000000E+00 0.  1.
         11    1    3    3    0    0 -0.23300147288E+01 -0.88600323918E+01 -0.25351066319E+01  0.95055724981E+01  0.51100000000E-03 0. -1.
        -11    1    3    3    0    0 -0.75252351644E+00 -0.21378736916E+01 -0.74329415849E+00  0.23852215895E+01  0.51100000000E-03 0.  1.
         12    1    3    3    0    0  0.86715564292E+00 -0.26147607095E+02 -0.22106957392E+02  0.34251523773E+02  0.00000000000E+00 0. -1.
</event>
<event>
 7    1  0.1543346E-008  0.4614232E+02  0.7816164E-02  0.1320468E+00
        -11   -1    0    0    0    0  0.00000000000E+00  0.00000000000E+00  0.45593999997E+02  0.45594000000E+02  0.51100000000E-03 0.  1.
         11   -1    0    0    0    0 -0.00000000000E+00 -0.00000000000E+00 -0.45593999997E+02  0.45594000000E+02  0.51100000000E-03 0. -1.
    9900012    2    1    2    0    0  0.30824544827E+01  0.16522091109E+01 -0.44909711375E+02  0.46142317673E+02  0.99999991932E+01 0.  0.
        -12    1    1    2    0    0 -0.30824544827E+01 -0.16522091109E+01  0.44909711375E+02  0.45045682327E+02  0.00000000000E+00 0.  1.
         11    1    3    3    0    0  0.24751796017E+01 -0.28847092543E+00 -0.20921122694E+02  0.21069008154E+02  0.51100000000E-03 0.  1.
        -11    1    3    3    0    0  0.21006594487E+01 -0.61054795167E+00 -0.19943664681E+02  0.20063282386E+02  0.51100000000E-03 0. -1.
        -12    1    3    3    0    0 -0.14933845676E+01  0.25512279880E+01 -0.40449239993E+01  0.50100271331E+01  0.00000000000E+00 0.  1.
</event>
<event>
 7    1  0.1543346E-008  0.4614232E+02  0.7816164E-02  0.1320468E+00
        -11   -1    0    0    0    0  0.00000000000E+00  0.00000000000E+00  0.45593999997E+02  0.45594000000E+02  0.51100000000E-03 0.  1.
         11   -1    0    0    0    0 -0.00000000000E+00 -0.00000000000E+00 -0.45593999997E+02  0.45594000000E+02  0.51100000000E-03 0. -1.
    9900012    2    1    2    0    0  0.35738529635E+02 -0.11006168224E+02 -0.25114445245E+02  0.46142316528E+02  0.99999887599E+01 0.  0.
        -12    1    1    2    0    0 -0.35738529635E+02  0.11006168224E+02  0.25114445245E+02  0.45045683472E+02  0.00000000000E+00 0.  1.
         11    1    3    3    0    0  0.45687534114E+01 -0.10518680754E+01 -0.41569262332E+00  0.47066691832E+01  0.51100000000E-03 0. -1.
        -11    1    3    3    0    0 -0.42659786288E-01 -0.36162727326E-01  0.25554604860E+00  0.26159442710E+00  0.51100000000E-03 0.  1.
         12    1    3    3    0    0  0.31212436010E+02 -0.99181374211E+01 -0.24954298670E+02  0.41174052918E+02  0.00000000000E+00 0. -1.
</event>
<event>
 7    1  0.1543346E-008  0.4614232E+02  0.7816164E-02  0.1320468E+00
        -11   -1    0    0    0    0  0.00000000000E+00  0.00000000000E+00  0.45593999997E+02  0.45594000000E+02  0.51100000000E-03 0.  1.
         11   -1    0    0    0    0 -0.00000000000E+00 -0.00000000000E+00 -0.45593999997E+02  0.45594000000E+02  0.51100000000E-03 0. -1.
    9900012    2    1    2    0    0  0.15808635961E+02 -0.59245594301E+01 -0.41762425798E+02  0.46142316700E+02  0.99999903229E+01 0.  0.
        -12    1    1    2    0    0 -0.15808635961E+02  0.59245594301E+01  0.41762425798E+02  0.45045683300E+02  0.00000000000E+00 0.  1.
         11    1    3    3    0    0  0.75059237042E+01  0.10704960675E+01 -0.19023684460E+02  0.20478901903E+02  0.51100000000E-03 0. -1.
        -11    1    3    3    0    0  0.31341227815E+01 -0.33623024871E+01 -0.48051517702E+01  0.66496080651E+01  0.51100000000E-03 0.  1.
         12    1    3    3    0    0  0.51685894758E+01 -0.36327530105E+01 -0.17933589569E+02  0.19013806732E+02  0.00000000000E+00 0. -1.
</event>
<event>
 7    1  0.1543346E-008  0.4614232E+02  0.7816164E-02  0.1320468E+00
        -11   -1    0    0    0    0  0.00000000000E+00  0.00000000000E+00  0.45593999997E+02  0.45594000000E+02  0.51100000000E-03 0.  1.
         11   -1    0    0    0    0 -0.00000000000E+00 -0.00000000000E+00 -0.45593999997E+02  0.45594000000E+02  0.51100000000E-03 0. -1.
    9900012    2    1    2    0    0 -0.43575370679E+02 -0.36552244818E+01 -0.10813872441E+02  0.46142318376E+02  0.10000005604E+02 0.  0.
        -12    1    1    2    0    0  0.43575370679E+02  0.36552244818E+01  0.10813872441E+02  0.45045681624E+02  0.00000000000E+00 0.  1.
         11    1    3    3    0    0 -0.57253055725E+01 -0.16192092947E+01 -0.34428435485E+01  0.68741642837E+01  0.51100000000E-03 0.  1.
        -11    1    3    3    0    0 -0.19555888055E+02 -0.35369733183E+01 -0.64334913644E+01  0.20888579398E+02  0.51100000000E-03 0. -1.
         12    1    3    3    0    0 -0.18294177052E+02  0.15009581312E+01 -0.93753752765E+00  0.18379574694E+02  0.00000000000E+00 0. -1.
</event>
<event>
 7    1  0.1543346E-008  0.4614232E+02  0.7816164E-02  0.1320468E+00
        -11   -1    0    0    0    0  0.00000000000E+00  0.00000000000E+00  0.45593999997E+02  0.45594000000E+02  0.51100000000E-03 0.  1.
         11   -1    0    0    0    0 -0.00000000000E+00 -0.00000000000E+00 -0.45593999997E+02  0.45594000000E+02  0.51100000000E-03 0. -1.
    9900012    2    1    2    0    0 -0.22964389722E+02 -0.32749305505E+02 -0.20717945236E+02  0.46142318063E+02  0.10000002755E+02 0.  0.
        -12    1    1    2    0    0  0.22964389722E+02  0.32749305505E+02  0.20717945236E+02  0.45045681937E+02  0.00000000000E+00 0.  1.
         11    1    3    3    0    0 -0.13677765196E+02 -0.18502661713E+02 -0.76681638748E+01  0.24253463437E+02  0.51100000000E-03 0. -1.
        -11    1    3    3    0    0 -0.12013797086E+01 -0.56186488705E+01 -0.44731509722E+01  0.72815937963E+01  0.51100000000E-03 0.  1.
         12    1    3    3    0    0 -0.80852448171E+01 -0.86279949215E+01 -0.85766303894E+01  0.14607260830E+02  0.00000000000E+00 0. -1.
</event>
<event>
 7    1  0.1543346E-008  0.4614232E+02  0.7816164E-02  0.1320468E+00
        -11   -1    0    0    0    0  0.00000000000E+00  0.00000000000E+00  0.45593999997E+02  0.45594000000E+02  0.51100000000E-03 0. -1.
         11   -1    0    0    0    0 -0.00000000000E+00 -0.00000000000E+00 -0.45593999997E+02  0.45594000000E+02  0.51100000000E-03 0.  1.
    9900012    2    1    2    0    0 -0.27245763844E+01 -0.42761290077E+02 -0.13898277636E+02  0.46142319111E+02  0.10000012309E+02 0.  0.
        -12    1    1    2    0    0  0.27245763844E+01  0.42761290077E+02  0.13898277636E+02  0.45045680889E+02  0.00000000000E+00 0.  1.
         11    1    3    3    0    0 -0.29094069952E+01 -0.13216628442E+02 -0.55354547129E+01  0.14621394448E+02  0.51100000000E-03 0. -1.
        -11    1    3    3    0    0 -0.63872483814E+00 -0.75635900196E+01 -0.54233096651E+01  0.93288880038E+01  0.51100000000E-03 0.  1.
         12    1    3    3    0    0  0.82355544899E+00 -0.21981071615E+02 -0.29395132581E+01  0.22192036660E+02  0.00000000000E+00 0. -1.
</event>
<event>
 7    1  0.1543346E-008  0.4614232E+02  0.7816164E-02  0.1320468E+00
        -11   -1    0    0    0    0  0.00000000000E+00  0.00000000000E+00  0.45593999997E+02  0.45594000000E+02  0.51100000000E-03 0.  1.
         11   -1    0    0    0    0 -0.00000000000E+00 -0.00000000000E+00 -0.45593999997E+02  0.45594000000E+02  0.51100000000E-03 0. -1.
    9900012    2    1    2    0    0 -0.73633930400E+01 -0.41816316856E+02 -0.15042924582E+02  0.46142317716E+02  0.99999995875E+01 0.  0.
        -12    1    1    2    0    0  0.73633930400E+01  0.41816316856E+02  0.15042924582E+02  0.45045682284E+02  0.00000000000E+00 0.  1.
         11    1    3    3    0    0 -0.38352783873E+01 -0.56584640988E+01 -0.50726418259E+00  0.68545527555E+01  0.51100000000E-03 0. -1.
        -11    1    3    3    0    0 -0.48570202831E+00 -0.22573187767E+02 -0.90699157830E+01  0.24332038242E+02  0.51100000000E-03 0.  1.
         12    1    3    3    0    0 -0.30424126244E+01 -0.13584664991E+02 -0.54657446160E+01  0.14955726719E+02  0.00000000000E+00 0. -1.
</event>
<event>
 7    1  0.1543346E-008  0.4614232E+02  0.7816164E-02  0.1320468E+00
        -11   -1    0    0    0    0  0.00000000000E+00  0.00000000000E+00  0.45593999997E+02  0.45594000000E+02  0.51100000000E-03 0. -1.
         11   -1    0    0    0    0 -0.00000000000E+00 -0.00000000000E+00 -0.45593999997E+02  0.45594000000E+02  0.51100000000E-03 0.  1.
    9900012    2    1    2    0    0  0.37406587590E+02 -0.25066288857E+02  0.12417312224E+01  0.46142317314E+02  0.99999959228E+01 0.  0.
        -12    1    1    2    0    0 -0.37406587590E+02  0.25066288857E+02 -0.12417312224E+01  0.45045682686E+02  0.00000000000E+00 0.  1.
         11    1    3    3    0    0  0.16489100551E+02 -0.15292579287E+02  0.37049537976E+01  0.22792106114E+02  0.51100000000E-03 0. -1.
        -11    1    3    3    0    0  0.14322196333E+02 -0.75474408993E+01 -0.25500206217E+01  0.16388769855E+02  0.51100000000E-03 0.  1.
         12    1    3    3    0    0  0.65952907054E+01 -0.22262686714E+01  0.86798046479E-01  0.69614413440E+01  0.00000000000E+00 0. -1.
</event>
<event>
 7    1  0.1543346E-008  0.4614232E+02  0.7816164E-02  0.1320468E+00
        -11   -1    0    0    0    0  0.00000000000E+00  0.00000000000E+00  0.45593999997E+02  0.45594000000E+02  0.51100000000E-03 0.  1.
         11   -1    0    0    0    0 -0.00000000000E+00 -0.00000000000E+00 -0.45593999997E+02  0.45594000000E+02  0.51100000000E-03 0. -1.
    9900012    2    1    2    0    0  0.41824258568E+02  0.15907904462E+02 -0.51752464560E+01  0.46142320906E+02  0.10000028676E+02 0.  0.
        -12    1    1    2    0    0 -0.41824258568E+02 -0.15907904462E+02  0.51752464560E+01  0.45045679094E+02  0.00000000000E+00 0.  1.
         11    1    3    3    0    0  0.22115439720E+02  0.79186051130E+01  0.40132157340E+00  0.23493787269E+02  0.51100000000E-03 0. -1.
        -11    1    3    3    0    0  0.95145433395E+01  0.32074882483E+01 -0.53702660494E+01  0.11386583049E+02  0.51100000000E-03 0.  1.
         12    1    3    3    0    0  0.10194275509E+02  0.47818111010E+01 -0.20630197994E+00  0.11261950589E+02  0.00000000000E+00 0. -1.
</event>
<event>
 7    1  0.1543346E-008  0.4614232E+02  0.7816164E-02  0.1320468E+00
        -11   -1    0    0    0    0  0.00000000000E+00  0.00000000000E+00  0.45593999997E+02  0.45594000000E+02  0.51100000000E-03 0.  1.
         11   -1    0    0    0    0 -0.00000000000E+00 -0.00000000000E+00 -0.45593999997E+02  0.45594000000E+02  0.51100000000E-03 0. -1.
    9900012    2    1    2    0    0 -0.15809792557E+02  0.15212950453E+02 -0.39341199745E+02  0.46142318747E+02  0.10000008992E+02 0.  0.
        -12    1    1    2    0    0  0.15809792557E+02 -0.15212950453E+02  0.39341199745E+02  0.45045681253E+02  0.00000000000E+00 0.  1.
         11    1    3    3    0    0 -0.15365698207E+02  0.97032656877E+01 -0.32762428295E+02  0.37465113831E+02  0.51100000000E-03 0. -1.
        -11    1    3    3    0    0 -0.27815938815E+00  0.41343226504E+01 -0.40519451942E+01  0.57955376404E+01  0.51100000000E-03 0.  1.
        -12    1    3    3    0    0 -0.16593496197E+00  0.13753621145E+01 -0.25268262561E+01  0.28816672754E+01  0.00000000000E+00 0.  1.
</event>
<event>
 7    1  0.1543346E-008  0.4614232E+02  0.7816164E-02  0.1320468E+00
        -11   -1    0    0    0    0  0.00000000000E+00  0.00000000000E+00  0.45593999997E+02  0.45594000000E+02  0.51100000000E-03 0.  1.
         11   -1    0    0    0    0 -0.00000000000E+00 -0.00000000000E+00 -0.45593999997E+02  0.45594000000E+02  0.51100000000E-03 0. -1.
    9900012    2    1    2    0    0 -0.33302560013E+00  0.17306891179E+02 -0.41586945773E+02  0.46142318219E+02  0.10000004177E+02 0.  0.
        -12    1    1    2    0    0  0.33302560013E+00 -0.17306891179E+02  0.41586945773E+02  0.45045681781E+02  0.00000000000E+00 0.  1.
         11    1    3    3    0    0 -0.40760915110E+01  0.67039025314E+01 -0.18616262669E+02  0.20202031263E+02  0.51100000000E-03 0. -1.
        -11    1    3    3    0    0  0.19130481635E+01  0.25117285715E+01 -0.31794662093E+01  0.44807967293E+01  0.51100000000E-03 0.  1.
        -12    1    3    3    0    0  0.18300177473E+01  0.80912600763E+01 -0.19791216895E+02  0.21459490226E+02  0.00000000000E+00 0.  1.
</event>
<event>
 7    1  0.1543346E-008  0.4614232E+02  0.7816164E-02  0.1320468E+00
        -11   -1    0    0    0    0  0.00000000000E+00  0.00000000000E+00  0.45593999997E+02  0.45594000000E+02  0.51100000000E-03 0. -1.
         11   -1    0    0    0    0 -0.00000000000E+00 -0.00000000000E+00 -0.45593999997E+02  0.45594000000E+02  0.51100000000E-03 0.  1.
    9900012    2    1    2    0    0 -0.37411826458E+02 -0.39506775879E+01  0.24776214310E+02  0.46142318655E+02  0.10000008147E+02 0.  0.
        -12    1    1    2    0    0  0.37411826458E+02  0.39506775879E+01 -0.24776214310E+02  0.45045681345E+02  0.00000000000E+00 0.  1.
         11    1    3    3    0    0 -0.35211316129E+01 -0.28235343063E+01  0.11695464844E+01  0.46624621237E+01  0.51100000000E-03 0. -1.
        -11    1    3    3    0    0 -0.26322220693E+02 -0.78505898874E+00  0.20116786279E+02  0.33138507968E+02  0.51100000000E-03 0.  1.
        -12    1    3    3    0    0 -0.75684741516E+01 -0.34208429283E+00  0.34898815467E+01  0.83413485634E+01  0.00000000000E+00 0.  1.
</event>
<event>
 7    1  0.1543346E-008  0.4614232E+02  0.7816164E-02  0.1320468E+00
        -11   -1    0    0    0    0  0.00000000000E+00  0.00000000000E+00  0.45593999997E+02  0.45594000000E+02  0.51100000000E-03 0.  1.
         11   -1    0    0    0    0 -0.00000000000E+00 -0.00000000000E+00 -0.45593999997E+02  0.45594000000E+02  0.51100000000E-03 0. -1.
    9900012    2    1    2    0    0  0.23964371836E+02  0.28758306765E+02  0.25055579376E+02  0.46142318927E+02  0.10000010629E+02 0.  0.
        -12    1    1    2    0    0 -0.23964371836E+02 -0.28758306765E+02 -0.25055579376E+02  0.45045681073E+02  0.00000000000E+00 0.  1.
         11    1    3    3    0    0  0.10184204688E+02  0.18387737571E+02  0.15091485643E+02  0.25876241174E+02  0.51100000000E-03 0. -1.
        -11    1    3    3    0    0  0.46243128494E+01  0.41613279220E+01  0.56112839048E+01  0.83777936669E+01  0.51100000000E-03 0.  1.
         12    1    3    3    0    0  0.91558542987E+01  0.62092412720E+01  0.43528098286E+01  0.11888284086E+02  0.00000000000E+00 0. -1.
</event>
<event>
 7    1  0.1543346E-008  0.4614232E+02  0.7816164E-02  0.1320468E+00
        -11   -1    0    0    0    0  0.00000000000E+00  0.00000000000E+00  0.45593999997E+02  0.45594000000E+02  0.51100000000E-03 0.  1.
         11   -1    0    0    0    0 -0.00000000000E+00 -0.00000000000E+00 -0.45593999997E+02  0.45594000000E+02  0.51100000000E-03 0. -1.
    9900012    2    1    2    0    0  0.34232727132E+02  0.24909687194E+02 -0.15386386146E+02  0.46142323164E+02  0.10000049269E+02 0.  0.
        -12    1    1    2    0    0 -0.34232727132E+02 -0.24909687194E+02  0.15386386146E+02  0.45045676836E+02  0.00000000000E+00 0.  1.
         11    1    3    3    0    0  0.24003516292E+02  0.12363653683E+02 -0.99093369770E+01  0.28761496595E+02  0.51100000000E-03 0.  1.
        -11    1    3    3    0    0  0.95743514037E+01  0.10221009333E+02 -0.40651281377E+01  0.14582952500E+02  0.51100000000E-03 0. -1.
        -12    1    3    3    0    0  0.65485943578E+00  0.23250241777E+01 -0.14119210313E+01  0.27978740691E+01  0.00000000000E+00 0.  1.
</event>
<event>
 7    1  0.1543346E-008  0.4614232E+02  0.7816164E-02  0.1320468E+00
        -11   -1    0    0    0    0  0.00000000000E+00  0.00000000000E+00  0.45593999997E+02  0.45594000000E+02  0.51100000000E-03 0.  1.
         11   -1    0    0    0    0 -0.00000000000E+00 -0.00000000000E+00 -0.45593999997E+02  0.45594000000E+02  0.51100000000E-03 0. -1.
    9900012    2    1    2    0    0  0.23940944488E+02 -0.78046596601E+01 -0.37350129543E+02  0.46142315276E+02  0.99999773397E+01 0.  0.
        -12    1    1    2    0    0 -0.23940944488E+02  0.78046596601E+01  0.37350129543E+02  0.45045684724E+02  0.00000000000E+00 0.  1.
         11    1    3    3    0    0  0.98488202511E+01 -0.25667445358E+01 -0.91429634386E+01  0.13681418733E+02  0.51100000000E-03 0. -1.
        -11    1    3    3    0    0  0.33567102142E+01 -0.41849733847E+00 -0.25575697991E+01  0.42407318971E+01  0.51100000000E-03 0.  1.
         12    1    3    3    0    0  0.10735414023E+02 -0.48194177858E+01 -0.25649596305E+02  0.28220164646E+02  0.00000000000E+00 0. -1.
</event>
<event>
 7    1  0.1543346E-008  0.4614232E+02  0.7816164E-02  0.1320468E+00
        -11   -1    0    0    0    0  0.00000000000E+00  0.00000000000E+00  0.45593999997E+02  0.45594000000E+02  0.51100000000E-03 0.  1.
         11   -1    0    0    0    0 -0.00000000000E+00 -0.00000000000E+00 -0.45593999997E+02  0.45594000000E+02  0.51100000000E-03 0. -1.
    9900012    2    1    2    0    0 -0.34282444437E+02 -0.20796783075E+02 -0.20526112807E+02  0.46142317745E+02  0.99999998564E+01 0.  0.
        -12    1    1    2    0    0  0.34282444437E+02  0.20796783075E+02  0.20526112807E+02  0.45045682255E+02  0.00000000000E+00 0.  1.
         11    1    3    3    0    0 -0.46647865609E+01 -0.65341727930E+01 -0.48646657137E+01  0.93872584131E+01  0.51100000000E-03 0. -1.
        -11    1    3    3    0    0 -0.28940892186E+02 -0.14680266776E+02 -0.15188872272E+02  0.35829977872E+02  0.51100000000E-03 0.  1.
        -12    1    3    3    0    0 -0.67676568940E+00  0.41765649454E+00 -0.47257482152E+00  0.92508146004E+00  0.00000000000E+00 0.  1.
</event>
<event>
 7    1  0.1543346E-008  0.4614232E+02  0.7816164E-02  0.1320468E+00
        -11   -1    0    0    0    0  0.00000000000E+00  0.00000000000E+00  0.45593999997E+02  0.45594000000E+02  0.51100000000E-03 0.  1.
         11   -1    0    0    0    0 -0.00000000000E+00 -0.00000000000E+00 -0.45593999997E+02  0.45594000000E+02  0.51100000000E-03 0. -1.
    9900012    2    1    2    0    0 -0.30249057758E+02 -0.29559308324E+02 -0.15503395756E+02  0.46142317811E+02  0.10000000457E+02 0.  0.
        -12    1    1    2    0    0  0.30249057758E+02  0.29559308324E+02  0.15503395756E+02  0.45045682189E+02  0.00000000000E+00 0.  1.
         11    1    3    3    0    0 -0.11970959316E+02 -0.15821823688E+02 -0.63577299113E+01  0.20833979496E+02  0.51100000000E-03 0.  1.
        -11    1    3    3    0    0 -0.10131915124E+02 -0.56488006086E+01 -0.19588402751E+01  0.11764425522E+02  0.51100000000E-03 0. -1.
        -12    1    3    3    0    0 -0.81461833189E+01 -0.80886840273E+01 -0.71868255696E+01  0.13543912792E+02  0.00000000000E+00 0.  1.
</event>
<event>
 7    1  0.1543346E-008  0.4614232E+02  0.7816164E-02  0.1320468E+00
        -11   -1    0    0    0    0  0.00000000000E+00  0.00000000000E+00  0.45593999997E+02  0.45594000000E+02  0.51100000000E-03 0. -1.
         11   -1    0    0    0    0 -0.00000000000E+00 -0.00000000000E+00 -0.45593999997E+02  0.45594000000E+02  0.51100000000E-03 0.  1.
    9900012    2    1    2    0    0 -0.38160256441E+02 -0.18291228900E+02  0.15438241037E+02  0.46142317492E+02  0.99999975461E+01 0.  0.
        -12    1    1    2    0    0  0.38160256441E+02  0.18291228900E+02 -0.15438241037E+02  0.45045682508E+02  0.00000000000E+00 0.  1.
         11    1    3    3    0    0 -0.30511645973E+02 -0.15132084877E+02  0.10204275642E+02  0.35553730808E+02  0.51100000000E-03 0. -1.
        -11    1    3    3    0    0 -0.79227803974E+01 -0.30465104300E+01  0.55606030800E+01  0.10147511119E+02  0.51100000000E-03 0.  1.
         12    1    3    3    0    0  0.27416993016E+00 -0.11263359374E+00 -0.32663768537E+00  0.44107556558E+00  0.00000000000E+00 0. -1.
</event>
<event>
 7    1  0.1543346E-008  0.4614233E+02  0.7816164E-02  0.1320468E+00
        -11   -1    0    0    0    0  0.00000000000E+00  0.00000000000E+00  0.45593999997E+02  0.45594000000E+02  0.51100000000E-03 0.  1.
         11   -1    0    0    0    0 -0.00000000000E+00 -0.00000000000E+00 -0.45593999997E+02  0.45594000000E+02  0.51100000000E-03 0. -1.
    9900012    2    1    2    0    0 -0.20619917208E+02 -0.16789217615E+02 -0.36360060518E+02  0.46142325240E+02  0.10000068194E+02 0.  0.
        -12    1    1    2    0    0  0.20619917208E+02  0.16789217615E+02  0.36360060518E+02  0.45045674760E+02  0.00000000000E+00 0.  1.
         11    1    3    3    0    0 -0.19298376268E+02 -0.12586192011E+02 -0.28975958426E+02  0.37019531641E+02  0.51100000000E-03 0. -1.
        -11    1    3    3    0    0  0.96562383815E-01 -0.50981541335E+00  0.21019716887E+00  0.55983851294E+00  0.51100000000E-03 0.  1.
         12    1    3    3    0    0 -0.14181033236E+01 -0.36932101908E+01 -0.75942992599E+01  0.85629550857E+01  0.00000000000E+00 0. -1.
</event>
<event>
 7    1  0.1543346E-008  0.4614232E+02  0.7816164E-02  0.1320468E+00
        -11   -1    0    0    0    0  0.00000000000E+00  0.00000000000E+00  0.45593999997E+02  0.45594000000E+02  0.51100000000E-03 0.  1.
         11   -1    0    0    0    0 -0.00000000000E+00 -0.00000000000E+00 -0.45593999997E+02  0.45594000000E+02  0.51100000000E-03 0. -1.
    9900012    2    1    2    0    0 -0.64472629470E+01  0.41428433073E+01 -0.44388997642E+02  0.46142318055E+02  0.10000002681E+02 0.  0.
        -12    1    1    2    0    0  0.64472629470E+01 -0.41428433073E+01  0.44388997642E+02  0.45045681945E+02  0.00000000000E+00 0.  1.
         11    1    3    3    0    0  0.98648667797E+00  0.31978764597E+01 -0.10042041218E+02  0.10584997020E+02  0.51100000000E-03 0. -1.
        -11    1    3    3    0    0 -0.68665920066E+01 -0.11101643683E+01 -0.23730449742E+02  0.24728865642E+02  0.51100000000E-03 0.  1.
        -12    1    3    3    0    0 -0.56715761835E+00  0.20551312160E+01 -0.10616506682E+02  0.10828455393E+02  0.00000000000E+00 0.  1.
</event>
<event>
 7    1  0.1543346E-008  0.4614230E+02  0.7816164E-02  0.1320468E+00
        -11   -1    0    0    0    0  0.00000000000E+00  0.00000000000E+00  0.45593999997E+02  0.45594000000E+02  0.51100000000E-03 0.  1.
         11   -1    0    0    0    0 -0.00000000000E+00 -0.00000000000E+00 -0.45593999997E+02  0.45594000000E+02  0.51100000000E-03 0. -1.
    9900012    2    1    2    0    0  0.77429813596E+01  0.43778462531E+02 -0.72530929587E+01  0.46142302099E+02  0.99998571836E+01 0.  0.
        -12    1    1    2    0    0 -0.77429813596E+01 -0.43778462531E+02  0.72530929587E+01  0.45045697901E+02  0.00000000000E+00 0.  1.
         11    1    3    3    0    0  0.24250726407E+01  0.18578059894E+02  0.14020298634E+01  0.18788054043E+02  0.51100000000E-03 0. -1.
        -11    1    3    3    0    0  0.23081023640E+01  0.52759383246E+01 -0.25598394374E+01  0.63020345868E+01  0.51100000000E-03 0.  1.
         12    1    3    3    0    0  0.30098063549E+01  0.19924464312E+02 -0.60952833848E+01  0.21052213470E+02  0.00000000000E+00 0. -1.
</event>
<event>
 7    1  0.1543346E-008  0.4614232E+02  0.7816164E-02  0.1320468E+00
        -11   -1    0    0    0    0  0.00000000000E+00  0.00000000000E+00  0.45593999997E+02  0.45594000000E+02  0.51100000000E-03 0. -1.
         11   -1    0    0    0    0 -0.00000000000E+00 -0.00000000000E+00 -0.45593999997E+02  0.45594000000E+02  0.51100000000E-03 0.  1.
    9900012    2    1    2    0    0 -0.23476464572E+02 -0.37507763071E+02  0.84342670758E+01  0.46142317183E+02  0.99999947254E+01 0.  0.
        -12    1    1    2    0    0  0.23476464572E+02  0.37507763071E+02 -0.84342670758E+01  0.45045682817E+02  0.00000000000E+00 0.  1.
         11    1    3    3    0    0 -0.11124873380E+02 -0.11452837256E+02  0.64777597743E+01  0.17230544416E+02  0.51100000000E-03 0. -1.
        -11    1    3    3    0    0 -0.41102323080E+01 -0.81065417121E+01  0.90061384634E+00  0.91335170508E+01  0.51100000000E-03 0.  1.
         12    1    3    3    0    0 -0.82413588840E+01 -0.17948384103E+02  0.10558934551E+01  0.19778255716E+02  0.00000000000E+00 0. -1.
</event>
<event>
 7    1  0.1543346E-008  0.4614232E+02  0.7816164E-02  0.1320468E+00
        -11   -1    0    0    0    0  0.00000000000E+00  0.00000000000E+00  0.45593999997E+02  0.45594000000E+02  0.51100000000E-03 0.  1.
         11   -1    0    0    0    0 -0.00000000000E+00 -0.00000000000E+00 -0.45593999997E+02  0.45594000000E+02  0.51100000000E-03 0. -1.
    9900012    2    1    2    0    0 -0.28047320723E+02  0.27931091319E+02 -0.21501517894E+02  0.46142319478E+02  0.10000015654E+02 0.  0.
        -12    1    1    2    0    0  0.28047320723E+02 -0.27931091319E+02  0.21501517894E+02  0.45045680522E+02  0.00000000000E+00 0.  1.
         11    1    3    3    0    0 -0.20416138315E+02  0.20557533517E+02 -0.16297704856E+02  0.33242233256E+02  0.51100000000E-03 0. -1.
        -11    1    3    3    0    0 -0.79103567780E+00 -0.20646436734E+00  0.72569867712E+00  0.10931622979E+01  0.51100000000E-03 0.  1.
        -12    1    3    3    0    0 -0.68401467297E+01  0.75800221697E+01 -0.59295117148E+01  0.11806923924E+02  0.00000000000E+00 0.  1.
</event>
<event>
 7    1  0.1543346E-008  0.4614231E+02  0.7816164E-02  0.1320468E+00
        -11   -1    0    0    0    0  0.00000000000E+00  0.00000000000E+00  0.45593999997E+02  0.45594000000E+02  0.51100000000E-03 0.  1.
         11   -1    0    0    0    0 -0.00000000000E+00 -0.00000000000E+00 -0.45593999997E+02  0.45594000000E+02  0.51100000000E-03 0. -1.
    9900012    2    1    2    0    0 -0.11957780500E+02 -0.95068463395E+01 -0.42376235480E+02  0.46142312357E+02  0.99999507194E+01 0.  0.
        -12    1    1    2    0    0  0.11957780500E+02  0.95068463395E+01  0.42376235480E+02  0.45045687643E+02  0.00000000000E+00 0.  1.
         11    1    3    3    0    0 -0.26568630589E+01 -0.17472390896E+01 -0.28488081974E+01  0.42693646081E+01  0.51100000000E-03 0. -1.
        -11    1    3    3    0    0 -0.51550235291E+01 -0.71392566820E+01 -0.32667562562E+02  0.33833606038E+02  0.51100000000E-03 0.  1.
        -12    1    3    3    0    0 -0.41458939118E+01 -0.62035056793E+00 -0.68598647209E+01  0.80393417108E+01  0.00000000000E+00 0.  1.
</event>
<event>
 7    1  0.1543346E-008  0.4614232E+02  0.7816164E-02  0.1320468E+00
        -11   -1    0    0    0    0  0.00000000000E+00  0.00000000000E+00  0.45593999997E+02  0.45594000000E+02  0.51100000000E-03 0. -1.
         11   -1    0    0    0    0 -0.00000000000E+00 -0.00000000000E+00 -0.45593999997E+02  0.45594000000E+02  0.51100000000E-03 0.  1.
    9900012    2    1    2    0    0  0.31265463245E+01 -0.32445097820E+02  0.31091059921E+02  0.46142315729E+02  0.99999814667E+01 0.  0.
        -12    1    1    2    0    0 -0.31265463245E+01  0.32445097820E+02 -0.31091059921E+02  0.45045684271E+02  0.00000000000E+00 0.  1.
         11    1    3    3    0    0  0.16330582269E+01 -0.27187372789E+02  0.28815268874E+02  0.39650218649E+02  0.51100000000E-03 0. -1.
        -11    1    3    3    0    0 -0.12115886215E+00 -0.12025113055E+01 -0.51239623019E+00  0.13127311482E+01  0.51100000000E-03 0.  1.
         12    1    3    3    0    0  0.16146469598E+01 -0.40552137253E+01  0.27881872771E+01  0.51793659318E+01  0.00000000000E+00 0. -1.
</event>
<event>
 7    1  0.1543346E-008  0.4614232E+02  0.7816164E-02  0.1320468E+00
        -11   -1    0    0    0    0  0.00000000000E+00  0.00000000000E+00  0.45593999997E+02  0.45594000000E+02  0.51100000000E-03 0. -1.
         11   -1    0    0    0    0 -0.00000000000E+00 -0.00000000000E+00 -0.45593999997E+02  0.45594000000E+02  0.51100000000E-03 0.  1.
    9900012    2    1    2    0    0 -0.39663756988E+02 -0.77029982380E+01  0.19913905243E+02  0.46142318495E+02  0.10000006688E+02 0.  0.
        -12    1    1    2    0    0  0.39663756988E+02  0.77029982380E+01 -0.19913905243E+02  0.45045681505E+02  0.00000000000E+00 0.  1.
         11    1    3    3    0    0 -0.13617682734E+02 -0.20048332087E+01  0.64564888299E+01  0.15203515630E+02  0.51100000000E-03 0. -1.
        -11    1    3    3    0    0 -0.23122336771E+02 -0.21213071038E+01  0.11648860011E+02  0.25977650806E+02  0.51100000000E-03 0.  1.
        -12    1    3    3    0    0 -0.29237374832E+01 -0.35768579255E+01  0.18085564021E+01  0.49611520587E+01  0.00000000000E+00 0.  1.
</event>
<event>
 7    1  0.1543346E-008  0.4614232E+02  0.7816164E-02  0.1320468E+00
        -11   -1    0    0    0    0  0.00000000000E+00  0.00000000000E+00  0.45593999997E+02  0.45594000000E+02  0.51100000000E-03 0.  1.
         11   -1    0    0    0    0 -0.00000000000E+00 -0.00000000000E+00 -0.45593999997E+02  0.45594000000E+02  0.51100000000E-03 0. -1.
    9900012    2    1    2    0    0 -0.43840951501E+02 -0.78480192020E+01 -0.67448470965E+01  0.46142318784E+02  0.10000009326E+02 0.  0.
        -12    1    1    2    0    0  0.43840951501E+02  0.78480192020E+01  0.67448470965E+01  0.45045681216E+02  0.00000000000E+00 0.  1.
         11    1    3    3    0    0 -0.17352585048E+02 -0.44657673974E+01 -0.17874779763E+01  0.18006953215E+02  0.51100000000E-03 0.  1.
        -11    1    3    3    0    0 -0.64835670658E+01 -0.35858278631E+01  0.41506948760E+00  0.74207200663E+01  0.51100000000E-03 0. -1.
         12    1    3    3    0    0 -0.20004799387E+02  0.20357605851E+00 -0.53724386079E+01  0.20714645503E+02  0.00000000000E+00 0. -1.
</event>
<event>
 7    1  0.1543346E-008  0.4614232E+02  0.7816164E-02  0.1320468E+00
        -11   -1    0    0    0    0  0.00000000000E+00  0.00000000000E+00  0.45593999997E+02  0.45594000000E+02  0.51100000000E-03 0.  1.
         11   -1    0    0    0    0 -0.00000000000E+00 -0.00000000000E+00 -0.45593999997E+02  0.45594000000E+02  0.51100000000E-03 0. -1.
    9900012    2    1    2    0    0 -0.41646823891E+02  0.12209299170E+02 -0.12066012130E+02  0.46142316797E+02  0.99999912124E+01 0.  0.
        -12    1    1    2    0    0  0.41646823891E+02 -0.12209299170E+02  0.12066012130E+02  0.45045683203E+02  0.00000000000E+00 0.  1.
         11    1    3    3    0    0 -0.37408968773E+02  0.83355482302E+01 -0.11792980385E+02  0.40099709420E+02  0.51100000000E-03 0. -1.
        -11    1    3    3    0    0 -0.78022784731E+00  0.17891251077E+01  0.26397034209E+00  0.19696204577E+01  0.51100000000E-03 0.  1.
         12    1    3    3    0    0 -0.34576272712E+01  0.20846258321E+01 -0.53700208711E+00  0.40729869197E+01  0.00000000000E+00 0. -1.
</event>
<event>
 7    1  0.1543346E-008  0.4614232E+02  0.7816164E-02  0.1320468E+00
        -11   -1    0    0    0    0  0.00000000000E+00  0.00000000000E+00  0.45593999997E+02  0.45594000000E+02  0.51100000000E-03 0.  1.
         11   -1    0    0    0    0 -0.00000000000E+00 -0.00000000000E+00 -0.45593999997E+02  0.45594000000E+02  0.51100000000E-03 0. -1.
    9900012    2    1    2    0    0  0.41547243411E+01  0.22216943210E+02 -0.38964845388E+02  0.46142317897E+02  0.10000001244E+02 0.  0.
        -12    1    1    2    0    0 -0.41547243411E+01 -0.22216943210E+02  0.38964845388E+02  0.45045682103E+02  0.00000000000E+00 0.  1.
         11    1    3    3    0    0  0.39293297640E+01  0.14721262219E+02 -0.26163070820E+02  0.30276417699E+02  0.51100000000E-03 0. -1.
        -11    1    3    3    0    0 -0.26399249037E+01  0.26722294521E+01 -0.54070512071E+01  0.65837843797E+01  0.51100000000E-03 0.  1.
        -12    1    3    3    0    0  0.28653194809E+01  0.48234515394E+01 -0.73947233609E+01  0.92821158183E+01  0.00000000000E+00 0.  1.
</event>
<event>
 7    1  0.1543346E-008  0.4614232E+02  0.7816164E-02  0.1320468E+00
        -11   -1    0    0    0    0  0.00000000000E+00  0.00000000000E+00  0.45593999997E+02  0.45594000000E+02  0.51100000000E-03 0. -1.
         11   -1    0    0    0    0 -0.00000000000E+00 -0.00000000000E+00 -0.45593999997E+02  0.45594000000E+02  0.51100000000E-03 0.  1.
    9900012    2    1    2    0    0  0.24783254966E+01  0.83968400689E+01  0.44186699566E+02  0.46142318310E+02  0.10000005005E+02 0.  0.
        -12    1    1    2    0    0 -0.24783254966E+01 -0.83968400689E+01 -0.44186699566E+02  0.45045681690E+02  0.00000000000E+00 0.  1.
         11    1    3    3    0    0  0.17951360836E+01  0.26768133948E+00  0.18182091644E+02  0.18272455327E+02  0.51100000000E-03 0. -1.
        -11    1    3    3    0    0  0.19636102662E+01  0.46231221516E+01  0.21193900956E+02  0.21780965583E+02  0.51100000000E-03 0.  1.
        -12    1    3    3    0    0 -0.12804208532E+01  0.35060365778E+01  0.48107069652E+01  0.60888974003E+01  0.00000000000E+00 0.  1.
</event>
<event>
 7    1  0.1543346E-008  0.4614232E+02  0.7816164E-02  0.1320468E+00
        -11   -1    0    0    0    0  0.00000000000E+00  0.00000000000E+00  0.45593999997E+02  0.45594000000E+02  0.51100000000E-03 0. -1.
         11   -1    0    0    0    0 -0.00000000000E+00 -0.00000000000E+00 -0.45593999997E+02  0.45594000000E+02  0.51100000000E-03 0.  1.
    9900012    2    1    2    0    0  0.32259876412E+02  0.29687598279E+02  0.10346997063E+02  0.46142318010E+02  0.10000002272E+02 0.  0.
        -12    1    1    2    0    0 -0.32259876412E+02 -0.29687598279E+02 -0.10346997063E+02  0.45045681990E+02  0.00000000000E+00 0.  1.
         11    1    3    3    0    0  0.53098016378E+01  0.65829297648E+01  0.33847354564E+01  0.91096318308E+01  0.51100000000E-03 0. -1.
        -11    1    3    3    0    0  0.22093298770E+02  0.16368464539E+02  0.80667312331E+01  0.28655062989E+02  0.51100000000E-03 0.  1.
        -12    1    3    3    0    0  0.48567760046E+01  0.67362039755E+01 -0.11044696265E+01  0.83776231900E+01  0.00000000000E+00 0.  1.
</event>
<event>
 7    1  0.1543346E-008  0.4614232E+02  0.7816164E-02  0.1320468E+00
        -11   -1    0    0    0    0  0.00000000000E+00  0.00000000000E+00  0.45593999997E+02  0.45594000000E+02  0.51100000000E-03 0.  1.
         11   -1    0    0    0    0 -0.00000000000E+00 -0.00000000000E+00 -0.45593999997E+02  0.45594000000E+02  0.51100000000E-03 0. -1.
    9900012    2    1    2    0    0  0.11700493783E+02  0.26178431062E+02 -0.34740490403E+02  0.46142317842E+02  0.10000000736E+02 0.  0.
        -12    1    1    2    0    0 -0.11700493783E+02 -0.26178431062E+02  0.34740490403E+02  0.45045682158E+02  0.00000000000E+00 0.  1.
         11    1    3    3    0    0  0.59914380808E+01  0.58239941764E+01 -0.12981458094E+02  0.15438085793E+02  0.51100000000E-03 0. -1.
        -11    1    3    3    0    0  0.25811011071E+01  0.16340544872E+02 -0.15923426164E+02  0.22961511072E+02  0.51100000000E-03 0.  1.
        -12    1    3    3    0    0  0.31279545951E+01  0.40138920135E+01 -0.58356061457E+01  0.77427209773E+01  0.00000000000E+00 0.  1.
</event>
<event>
 7    1  0.1543346E-008  0.4614232E+02  0.7816164E-02  0.1320468E+00
        -11   -1    0    0    0    0  0.00000000000E+00  0.00000000000E+00  0.45593999997E+02  0.45594000000E+02  0.51100000000E-03 0.  1.
         11   -1    0    0    0    0 -0.00000000000E+00 -0.00000000000E+00 -0.45593999997E+02  0.45594000000E+02  0.51100000000E-03 0. -1.
    9900012    2    1    2    0    0  0.27606518263E+02  0.35346922461E+02 -0.41938889136E+01  0.46142317828E+02  0.10000000614E+02 0.  0.
        -12    1    1    2    0    0 -0.27606518263E+02 -0.35346922461E+02  0.41938889136E+01  0.45045682172E+02  0.00000000000E+00 0.  1.
         11    1    3    3    0    0  0.41247128407E+01  0.58481303097E+01  0.17723179961E+01  0.73725840435E+01  0.51100000000E-03 0. -1.
        -11    1    3    3    0    0  0.15513617109E+02  0.23477174340E+02 -0.27348198856E+01  0.28272411833E+02  0.51100000000E-03 0.  1.
        -12    1    3    3    0    0  0.79681883128E+01  0.60216178119E+01 -0.32313870242E+01  0.10497321952E+02  0.00000000000E+00 0.  1.
</event>
<event>
 7    1  0.1543346E-008  0.4614232E+02  0.7816164E-02  0.1320468E+00
        -11   -1    0    0    0    0  0.00000000000E+00  0.00000000000E+00  0.45593999997E+02  0.45594000000E+02  0.51100000000E-03 0. -1.
         11   -1    0    0    0    0 -0.00000000000E+00 -0.00000000000E+00 -0.45593999997E+02  0.45594000000E+02  0.51100000000E-03 0.  1.
    9900012    2    1    2    0    0  0.28806827662E+02  0.18008894966E+02  0.29579721123E+02  0.46142317415E+02  0.99999968471E+01 0.  0.
        -12    1    1    2    0    0 -0.28806827662E+02 -0.18008894966E+02 -0.29579721123E+02  0.45045682585E+02  0.00000000000E+00 0.  1.
         11    1    3    3    0    0  0.22705788021E+02  0.11178326644E+02  0.20164342155E+02  0.32359055780E+02  0.51100000000E-03 0. -1.
        -11    1    3    3    0    0  0.96016947467E+00  0.39700515892E+01  0.48214900997E+01  0.63190190761E+01  0.51100000000E-03 0.  1.
         12    1    3    3    0    0  0.51408701662E+01  0.28605167331E+01  0.45938888680E+01  0.74642425589E+01  0.00000000000E+00 0. -1.
</event>
<event>
 7    1  0.1543346E-008  0.4614232E+02  0.7816164E-02  0.1320468E+00
        -11   -1    0    0    0    0  0.00000000000E+00  0.00000000000E+00  0.45593999997E+02  0.45594000000E+02  0.51100000000E-03 0. -1.
         11   -1    0    0    0    0 -0.00000000000E+00 -0.00000000000E+00 -0.45593999997E+02  0.45594000000E+02  0.51100000000E-03 0.  1.
    9900012    2    1    2    0    0 -0.26788864394E+02  0.18162831442E+02  0.31330197906E+02  0.46142323156E+02  0.10000049194E+02 0.  0.
        -12    1    1    2    0    0  0.26788864394E+02 -0.18162831442E+02 -0.31330197906E+02  0.45045676844E+02  0.00000000000E+00 0.  1.
         11    1    3    3    0    0 -0.94574965232E+01  0.97608031705E+01  0.12053405781E+02  0.18165960206E+02  0.51100000000E-03 0. -1.
        -11    1    3    3    0    0 -0.57026981122E+01  0.58742518220E+01  0.97573560776E+01  0.12737095356E+02  0.51100000000E-03 0.  1.
         12    1    3    3    0    0 -0.11628669759E+02  0.25277764495E+01  0.95194360469E+01  0.15239267594E+02  0.00000000000E+00 0. -1.
</event>
<event>
 7    1  0.1543346E-008  0.4614232E+02  0.7816164E-02  0.1320468E+00
        -11   -1    0    0    0    0  0.00000000000E+00  0.00000000000E+00  0.45593999997E+02  0.45594000000E+02  0.51100000000E-03 0.  1.
         11   -1    0    0    0    0 -0.00000000000E+00 -0.00000000000E+00 -0.45593999997E+02  0.45594000000E+02  0.51100000000E-03 0. -1.
    9900012    2    1    2    0    0  0.77851883540E+01 -0.16017485377E+02 -0.41375649117E+02  0.46142319459E+02  0.10000015484E+02 0.  0.
        -12    1    1    2    0    0 -0.77851883540E+01  0.16017485377E+02  0.41375649117E+02  0.45045680541E+02  0.00000000000E+00 0.  1.
         11    1    3    3    0    0  0.41730799130E+01 -0.12568445394E+02 -0.29505085462E+02  0.32340848535E+02  0.51100000000E-03 0. -1.
        -11    1    3    3    0    0 -0.11003327431E+01 -0.16174118833E+01 -0.38900119017E+01  0.43541872034E+01  0.51100000000E-03 0.  1.
         12    1    3    3    0    0  0.47124411842E+01 -0.18316280999E+01 -0.79805517537E+01  0.94472837210E+01  0.00000000000E+00 0. -1.
</event>
<event>
 7    1  0.1543346E-008  0.4614232E+02  0.7816164E-02  0.1320468E+00
        -11   -1    0    0    0    0  0.00000000000E+00  0.00000000000E+00  0.45593999997E+02  0.45594000000E+02  0.51100000000E-03 0. -1.
         11   -1    0    0    0    0 -0.00000000000E+00 -0.00000000000E+00 -0.45593999997E+02  0.45594000000E+02  0.51100000000E-03 0.  1.
    9900012    2    1    2    0    0 -0.31127986238E+01  0.40748782148E+02  0.18946259088E+02  0.46142317685E+02  0.99999993032E+01 0.  0.
        -12    1    1    2    0    0  0.31127986238E+01 -0.40748782148E+02 -0.18946259088E+02  0.45045682315E+02  0.00000000000E+00 0.  1.
         11    1    3    3    0    0 -0.13473295981E+01  0.16513688104E+01  0.26660829586E+00  0.21478818027E+01  0.51100000000E-03 0. -1.
        -11    1    3    3    0    0 -0.29852994302E+01  0.27126291636E+02  0.96344091403E+01  0.28940793879E+02  0.51100000000E-03 0.  1.
        -12    1    3    3    0    0  0.12198304044E+01  0.11971121701E+02  0.90452416516E+01  0.15053642003E+02  0.00000000000E+00 0.  1.
</event>
<event>
 7    1  0.1543346E-008  0.4614232E+02  0.7816164E-02  0.1320468E+00
        -11   -1    0    0    0    0  0.00000000000E+00  0.00000000000E+00  0.45593999997E+02  0.45594000000E+02  0.51100000000E-03 0.  1.
         11   -1    0    0    0    0 -0.00000000000E+00 -0.00000000000E+00 -0.45593999997E+02  0.45594000000E+02  0.51100000000E-03 0. -1.
    9900012    2    1    2    0    0 -0.34089260427E+02  0.11903178742E+02 -0.26932323404E+02  0.46142318913E+02  0.10000010508E+02 0.  0.
        -12    1    1    2    0    0  0.34089260427E+02 -0.11903178742E+02  0.26932323404E+02  0.45045681087E+02  0.00000000000E+00 0.  1.
         11    1    3    3    0    0 -0.20510273241E+02  0.63889748626E+01 -0.14084243404E+02  0.25687666705E+02  0.51100000000E-03 0. -1.
        -11    1    3    3    0    0 -0.84660949911E+01  0.57690481418E+01 -0.58933543490E+01  0.11818980777E+02  0.51100000000E-03 0.  1.
        -12    1    3    3    0    0 -0.51128921948E+01 -0.25484426277E+00 -0.69547256515E+01  0.86356714320E+01  0.00000000000E+00 0.  1.
</event>
<event>
 7    1  0.1543346E-008  0.4614232E+02  0.7816164E-02  0.1320468E+00
        -11   -1    0    0    0    0  0.00000000000E+00  0.00000000000E+00  0.45593999997E+02  0.45594000000E+02  0.51100000000E-03 0.  1.
         11   -1    0    0    0    0 -0.00000000000E+00 -0.00000000000E+00 -0.45593999997E+02  0.45594000000E+02  0.51100000000E-03 0. -1.
    9900012    2    1    2    0    0  0.20016968688E+02  0.33776339955E+01 -0.40212261742E+02  0.46142318284E+02  0.10000004769E+02 0.  0.
        -12    1    1    2    0    0 -0.20016968688E+02 -0.33776339955E+01  0.40212261742E+02  0.45045681716E+02  0.00000000000E+00 0.  1.
         11    1    3    3    0    0  0.19894678910E+02  0.18145795584E+01 -0.32005763253E+02  0.37728766606E+02  0.51100000000E-03 0. -1.
        -11    1    3    3    0    0 -0.41420036770E+00  0.97056518888E+00 -0.45712855837E+01  0.46915041170E+01  0.51100000000E-03 0.  1.
         12    1    3    3    0    0  0.53649014596E+00  0.59248924825E+00 -0.36352129048E+01  0.37220475614E+01  0.00000000000E+00 0. -1.
</event>
<event>
 7    1  0.1543346E-008  0.4614232E+02  0.7816164E-02  0.1320468E+00
        -11   -1    0    0    0    0  0.00000000000E+00  0.00000000000E+00  0.45593999997E+02  0.45594000000E+02  0.51100000000E-03 0.  1.
         11   -1    0    0    0    0 -0.00000000000E+00 -0.00000000000E+00 -0.45593999997E+02  0.45594000000E+02  0.51100000000E-03 0. -1.
    9900012    2    1    2    0    0 -0.18423728971E+02 -0.40488551739E+02 -0.70962570000E+01  0.46142317914E+02  0.10000001397E+02 0.  0.
        -12    1    1    2    0    0  0.18423728971E+02  0.40488551739E+02  0.70962570000E+01  0.45045682086E+02  0.00000000000E+00 0.  1.
         11    1    3    3    0    0 -0.81286041361E+01 -0.24424955990E+02 -0.36821888309E+01  0.26004061128E+02  0.51100000000E-03 0. -1.
        -11    1    3    3    0    0 -0.10688555733E+02 -0.13340637249E+02 -0.28661474308E+01  0.17332992449E+02  0.51100000000E-03 0.  1.
        -12    1    3    3    0    0  0.39343089814E+00 -0.27229585009E+01 -0.54792073834E+00  0.28052643378E+01  0.00000000000E+00 0.  1.
</event>
<event>
 7    1  0.1543346E-008  0.4614232E+02  0.7816164E-02  0.1320468E+00
        -11   -1    0    0    0    0  0.00000000000E+00  0.00000000000E+00  0.45593999997E+02  0.45594000000E+02  0.51100000000E-03 0. -1.
         11   -1    0    0    0    0 -0.00000000000E+00 -0.00000000000E+00 -0.45593999997E+02  0.45594000000E+02  0.51100000000E-03 0.  1.
    9900012    2    1    2    0    0  0.16906117013E+02 -0.16432025697E+02  0.38383398016E+02  0.46142317585E+02  0.99999983959E+01 0.  0.
        -12    1    1    2    0    0 -0.16906117013E+02  0.16432025697E+02 -0.38383398016E+02  0.45045682415E+02  0.00000000000E+00 0.  1.
         11    1    3    3    0    0  0.65642018236E+01 -0.73649216551E+01  0.12877401381E+02  0.16222154085E+02  0.51100000000E-03 0. -1.
        -11    1    3    3    0    0  0.32040577458E+01 -0.56615533195E+01  0.59123775265E+01  0.87906416322E+01  0.51100000000E-03 0.  1.
        -12    1    3    3    0    0  0.71378574438E+01 -0.34055507227E+01  0.19593619109E+02  0.21129521868E+02  0.00000000000E+00 0.  1.
</event>
<event>
 7    1  0.1543346E-008  0.4614232E+02  0.7816164E-02  0.1320468E+00
        -11   -1    0    0    0    0  0.00000000000E+00  0.00000000000E+00  0.45593999997E+02  0.45594000000E+02  0.51100000000E-03 0.  1.
         11   -1    0    0    0    0 -0.00000000000E+00 -0.00000000000E+00 -0.45593999997E+02  0.45594000000E+02  0.51100000000E-03 0. -1.
    9900012    2    1    2    0    0  0.31777303693E+02 -0.25615647491E+02 -0.19056628366E+02  0.46142317509E+02  0.99999977003E+01 0.  0.
        -12    1    1    2    0    0 -0.31777303693E+02  0.25615647491E+02  0.19056628366E+02  0.45045682491E+02  0.00000000000E+00 0.  1.
         11    1    3    3    0    0  0.55398852011E+00 -0.14441925025E+01 -0.27246207386E+01  0.31330741604E+01  0.51100000000E-03 0.  1.
        -11    1    3    3    0    0  0.79988642217E+01 -0.84292493799E+01 -0.62593700247E+01  0.13199007058E+02  0.51100000000E-03 0. -1.
         12    1    3    3    0    0  0.23224450952E+02 -0.15742205609E+02 -0.10072637603E+02  0.29810236291E+02  0.00000000000E+00 0. -1.
</event>
<event>
 7    1  0.1543346E-008  0.4614231E+02  0.7816164E-02  0.1320468E+00
        -11   -1    0    0    0    0  0.00000000000E+00  0.00000000000E+00  0.45593999997E+02  0.45594000000E+02  0.51100000000E-03 0. -1.
         11   -1    0    0    0    0 -0.00000000000E+00 -0.00000000000E+00 -0.45593999997E+02  0.45594000000E+02  0.51100000000E-03 0.  1.
    9900012    2    1    2    0    0 -0.23444130523E+02 -0.27444491624E+02  0.26949702368E+02  0.46142313923E+02  0.99999649970E+01 0.  0.
        -12    1    1    2    0    0  0.23444130523E+02  0.27444491624E+02 -0.26949702368E+02  0.45045686077E+02  0.00000000000E+00 0.  1.
         11    1    3    3    0    0 -0.76629805118E+01 -0.13396917717E+02  0.94123131595E+01  0.18077342556E+02  0.51100000000E-03 0.  1.
        -11    1    3    3    0    0 -0.13394165469E+01 -0.42524057893E+01  0.37314494724E+01  0.58138375544E+01  0.51100000000E-03 0. -1.
        -12    1    3    3    0    0 -0.14441733464E+02 -0.97951681180E+01  0.13805939736E+02  0.22251133812E+02  0.00000000000E+00 0.  1.
</event>
<event>
 7    1  0.1543346E-008  0.4614232E+02  0.7816164E-02  0.1320468E+00
        -11   -1    0    0    0    0  0.00000000000E+00  0.00000000000E+00  0.45593999997E+02  0.45594000000E+02  0.51100000000E-03 0.  1.
         11   -1    0    0    0    0 -0.00000000000E+00 -0.00000000000E+00 -0.45593999997E+02  0.45594000000E+02  0.51100000000E-03 0. -1.
    9900012    2    1    2    0    0 -0.13352897550E+02  0.29668602549E+02 -0.31154258953E+02  0.46142315400E+02  0.99999784670E+01 0.  0.
        -12    1    1    2    0    0  0.13352897550E+02 -0.29668602549E+02  0.31154258953E+02  0.45045684600E+02  0.00000000000E+00 0.  1.
         11    1    3    3    0    0 -0.31642850166E+01  0.38625706909E+01 -0.43803787131E+01  0.66422789718E+01  0.51100000000E-03 0. -1.
        -11    1    3    3    0    0 -0.63651751499E+01  0.23948700997E+02 -0.22467071060E+02  0.33448841780E+02  0.51100000000E-03 0.  1.
        -12    1    3    3    0    0 -0.38234373839E+01  0.18573308607E+01 -0.43068091798E+01  0.60511946478E+01  0.00000000000E+00 0.  1.
</event>
<event>
 7    1  0.1543346E-008  0.4614232E+02  0.7816164E-02  0.1320468E+00
        -11   -1    0    0    0    0  0.00000000000E+00  0.00000000000E+00  0.45593999997E+02  0.45594000000E+02  0.51100000000E-03 0.  1.
         11   -1    0    0    0    0 -0.00000000000E+00 -0.00000000000E+00 -0.45593999997E+02  0.45594000000E+02  0.51100000000E-03 0. -1.
    9900012    2    1    2    0    0  0.36952395756E+01  0.25678893278E+02 -0.36824626302E+02  0.46142318101E+02  0.10000003096E+02 0.  0.
        -12    1    1    2    0    0 -0.36952395756E+01 -0.25678893278E+02  0.36824626302E+02  0.45045681899E+02  0.00000000000E+00 0.  1.
         11    1    3    3    0    0  0.13780144206E+00  0.48956766278E+01 -0.59329449278E+01  0.76932746382E+01  0.51100000000E-03 0.  1.
        -11    1    3    3    0    0 -0.24801680612E+01  0.11738026948E+02 -0.15410671836E+02  0.19530010675E+02  0.51100000000E-03 0. -1.
        -12    1    3    3    0    0  0.60376061947E+01  0.90451897020E+01 -0.15481009538E+02  0.18919032787E+02  0.00000000000E+00 0.  1.
</event>
<event>
 7    1  0.1543346E-008  0.4614232E+02  0.7816164E-02  0.1320468E+00
        -11   -1    0    0    0    0  0.00000000000E+00  0.00000000000E+00  0.45593999997E+02  0.45594000000E+02  0.51100000000E-03 0.  1.
         11   -1    0    0    0    0 -0.00000000000E+00 -0.00000000000E+00 -0.45593999997E+02  0.45594000000E+02  0.51100000000E-03 0. -1.
    9900012    2    1    2    0    0 -0.13656217816E+02  0.28995150045E+02 -0.31652844076E+02  0.46142317085E+02  0.99999938355E+01 0.  0.
        -12    1    1    2    0    0  0.13656217816E+02 -0.28995150045E+02  0.31652844076E+02  0.45045682915E+02  0.00000000000E+00 0.  1.
         11    1    3    3    0    0 -0.34884019148E+01  0.63177153176E+01 -0.46152855708E+01  0.85664074100E+01  0.51100000000E-03 0. -1.
        -11    1    3    3    0    0 -0.51750160709E+01  0.11141380433E+02 -0.19099656182E+02  0.22709205530E+02  0.51100000000E-03 0.  1.
        -12    1    3    3    0    0 -0.49927998307E+01  0.11536054295E+02 -0.79379023228E+01  0.14866704145E+02  0.00000000000E+00 0.  1.
</event>
<event>
 7    1  0.1543346E-008  0.4614232E+02  0.7816164E-02  0.1320468E+00
        -11   -1    0    0    0    0  0.00000000000E+00  0.00000000000E+00  0.45593999997E+02  0.45594000000E+02  0.51100000000E-03 0.  1.
         11   -1    0    0    0    0 -0.00000000000E+00 -0.00000000000E+00 -0.45593999997E+02  0.45594000000E+02  0.51100000000E-03 0. -1.
    9900012    2    1    2    0    0  0.30088726408E+00 -0.30542196964E+02 -0.33108868589E+02  0.46142317546E+02  0.99999980375E+01 0.  0.
        -12    1    1    2    0    0 -0.30088726408E+00  0.30542196964E+02  0.33108868589E+02  0.45045682454E+02  0.00000000000E+00 0.  1.
         11    1    3    3    0    0  0.21157885426E+00 -0.22450889896E+02 -0.27079990021E+02  0.35176882786E+02  0.51100000000E-03 0. -1.
        -11    1    3    3    0    0  0.92010528053E+00 -0.67738326471E+01 -0.28129219313E+01  0.73921534421E+01  0.51100000000E-03 0.  1.
        -12    1    3    3    0    0 -0.83079687071E+00 -0.13174744210E+01 -0.32159566365E+01  0.35732813181E+01  0.00000000000E+00 0.  1.
</event>
<event>
 7    1  0.1543346E-008  0.4614232E+02  0.7816164E-02  0.1320468E+00
        -11   -1    0    0    0    0  0.00000000000E+00  0.00000000000E+00  0.45593999997E+02  0.45594000000E+02  0.51100000000E-03 0. -1.
         11   -1    0    0    0    0 -0.00000000000E+00 -0.00000000000E+00 -0.45593999997E+02  0.45594000000E+02  0.51100000000E-03 0.  1.
    9900012    2    1    2    0    0 -0.20101648188E+02 -0.35024356479E+02  0.19958245562E+02  0.46142319047E+02  0.10000011721E+02 0.  0.
        -12    1    1    2    0    0  0.20101648188E+02  0.35024356479E+02 -0.19958245562E+02  0.45045680953E+02  0.00000000000E+00 0.  1.
         11    1    3    3    0    0 -0.92679538028E+01 -0.10395102340E+02  0.67741280356E+01  0.15486830898E+02  0.51100000000E-03 0.  1.
        -11    1    3    3    0    0 -0.10957862866E+02 -0.20246949925E+02  0.94108048193E+01  0.24871208002E+02  0.51100000000E-03 0. -1.
        -12    1    3    3    0    0  0.12416848029E+00 -0.43823042137E+01  0.37733127073E+01  0.57842801471E+01  0.00000000000E+00 0.  1.
</event>
<event>
 7    1  0.1543346E-008  0.4614232E+02  0.7816164E-02  0.1320468E+00
        -11   -1    0    0    0    0  0.00000000000E+00  0.00000000000E+00  0.45593999997E+02  0.45594000000E+02  0.51100000000E-03 0.  1.
         11   -1    0    0    0    0 -0.00000000000E+00 -0.00000000000E+00 -0.45593999997E+02  0.45594000000E+02  0.51100000000E-03 0. -1.
    9900012    2    1    2    0    0 -0.78720905396E+01  0.17796971893E+02 -0.40625256691E+02  0.46142317640E+02  0.99999988949E+01 0.  0.
        -12    1    1    2    0    0  0.78720905396E+01 -0.17796971893E+02  0.40625256691E+02  0.45045682360E+02  0.00000000000E+00 0.  1.
         11    1    3    3    0    0 -0.55618286156E+01  0.90646230572E+01 -0.22059438385E+02  0.24489184364E+02  0.51100000000E-03 0.  1.
        -11    1    3    3    0    0 -0.29627690021E+01  0.69381704098E+01 -0.83207498399E+01  0.11231700092E+02  0.51100000000E-03 0. -1.
        -12    1    3    3    0    0  0.65250707810E+00  0.17941784265E+01 -0.10245068467E+02  0.10421433184E+02  0.00000000000E+00 0.  1.
</event>
<event>
 7    1  0.1543346E-008  0.4614232E+02  0.7816164E-02  0.1320468E+00
        -11   -1    0    0    0    0  0.00000000000E+00  0.00000000000E+00  0.45593999997E+02  0.45594000000E+02  0.51100000000E-03 0.  1.
         11   -1    0    0    0    0 -0.00000000000E+00 -0.00000000000E+00 -0.45593999997E+02  0.45594000000E+02  0.51100000000E-03 0. -1.
    9900012    2    1    2    0    0 -0.23557987936E+01 -0.31176835764E+02 -0.32427898940E+02  0.46142317567E+02  0.99999982320E+01 0.  0.
        -12    1    1    2    0    0  0.23557987936E+01  0.31176835764E+02  0.32427898940E+02  0.45045682433E+02  0.00000000000E+00 0.  1.
         11    1    3    3    0    0 -0.10277068160E-01 -0.42973514529E+01 -0.35069152560E+01  0.55466918071E+01  0.51100000000E-03 0. -1.
        -11    1    3    3    0    0 -0.13215750058E+01 -0.27281318367E+02 -0.28307533161E+02  0.39336158001E+02  0.51100000000E-03 0.  1.
        -12    1    3    3    0    0 -0.10239467196E+01  0.40183405616E+00 -0.61345052248E+00  0.12594677594E+01  0.00000000000E+00 0.  1.
</event>
<event>
 7    1  0.1543346E-008  0.4614232E+02  0.7816164E-02  0.1320468E+00
        -11   -1    0    0    0    0  0.00000000000E+00  0.00000000000E+00  0.45593999997E+02  0.45594000000E+02  0.51100000000E-03 0. -1.
         11   -1    0    0    0    0 -0.00000000000E+00 -0.00000000000E+00 -0.45593999997E+02  0.45594000000E+02  0.51100000000E-03 0.  1.
    9900012    2    1    2    0    0  0.18428852819E+02  0.15081431530E+01  0.41075739581E+02  0.46142317697E+02  0.99999994180E+01 0.  0.
        -12    1    1    2    0    0 -0.18428852819E+02 -0.15081431530E+01 -0.41075739581E+02  0.45045682303E+02  0.00000000000E+00 0.  1.
         11    1    3    3    0    0  0.20745650423E+01 -0.22439168605E+01  0.10979267696E+02  0.11396635574E+02  0.51100000000E-03 0. -1.
        -11    1    3    3    0    0  0.99538007058E+01  0.44732718310E+01  0.19462042246E+02  0.22312763119E+02  0.51100000000E-03 0.  1.
         12    1    3    3    0    0  0.64004870712E+01 -0.72121181750E+00  0.10634429638E+02  0.12432919004E+02  0.00000000000E+00 0. -1.
</event>
<event>
 7    1  0.1543346E-008  0.4614232E+02  0.7816164E-02  0.1320468E+00
        -11   -1    0    0    0    0  0.00000000000E+00  0.00000000000E+00  0.45593999997E+02  0.45594000000E+02  0.51100000000E-03 0. -1.
         11   -1    0    0    0    0 -0.00000000000E+00 -0.00000000000E+00 -0.45593999997E+02  0.45594000000E+02  0.51100000000E-03 0.  1.
    9900012    2    1    2    0    0 -0.48893145827E+00 -0.49422253676E+00  0.45040316026E+02  0.46142318990E+02  0.10000011209E+02 0.  0.
        -12    1    1    2    0    0  0.48893145827E+00  0.49422253676E+00 -0.45040316026E+02  0.45045681010E+02  0.00000000000E+00 0.  1.
         11    1    3    3    0    0 -0.10343931021E+00 -0.14976445752E+01  0.15303592912E+02  0.15377047676E+02  0.51100000000E-03 0. -1.
        -11    1    3    3    0    0  0.32148210931E+00  0.91000210742E+00  0.29992234171E+02  0.30007758420E+02  0.51100000000E-03 0.  1.
        -12    1    3    3    0    0 -0.70697425738E+00  0.93419930999E-01 -0.25551105676E+00  0.75751289377E+00  0.00000000000E+00 0.  1.
</event>
<event>
 7    1  0.1543346E-008  0.4614232E+02  0.7816164E-02  0.1320468E+00
        -11   -1    0    0    0    0  0.00000000000E+00  0.00000000000E+00  0.45593999997E+02  0.45594000000E+02  0.51100000000E-03 0.  1.
         11   -1    0    0    0    0 -0.00000000000E+00 -0.00000000000E+00 -0.45593999997E+02  0.45594000000E+02  0.51100000000E-03 0. -1.
    9900012    2    1    2    0    0  0.37358796986E+01 -0.43002341665E+02 -0.12882361801E+02  0.46142318394E+02  0.10000005767E+02 0.  0.
        -12    1    1    2    0    0 -0.37358796986E+01  0.43002341665E+02  0.12882361801E+02  0.45045681606E+02  0.00000000000E+00 0.  1.
         11    1    3    3    0    0  0.47033185110E+01 -0.28568811005E+02 -0.10618169899E+02  0.30838996409E+02  0.51100000000E-03 0. -1.
        -11    1    3    3    0    0 -0.17942780216E+01 -0.13905611103E+02 -0.26127181617E+01  0.14262249129E+02  0.51100000000E-03 0.  1.
        -12    1    3    3    0    0  0.82683920915E+00 -0.52791955688E+00  0.34852625916E+00  0.10410728551E+01  0.00000000000E+00 0.  1.
</event>
<event>
 7    1  0.1543346E-008  0.4614232E+02  0.7816164E-02  0.1320468E+00
        -11   -1    0    0    0    0  0.00000000000E+00  0.00000000000E+00  0.45593999997E+02  0.45594000000E+02  0.51100000000E-03 0. -1.
         11   -1    0    0    0    0 -0.00000000000E+00 -0.00000000000E+00 -0.45593999997E+02  0.45594000000E+02  0.51100000000E-03 0.  1.
    9900012    2    1    2    0    0  0.34403122209E+02 -0.11283031146E+02  0.26799848392E+02  0.46142317817E+02  0.10000000506E+02 0.  0.
        -12    1    1    2    0    0 -0.34403122209E+02  0.11283031146E+02 -0.26799848392E+02  0.45045682183E+02  0.00000000000E+00 0.  1.
         11    1    3    3    0    0  0.89931210860E+01 -0.32315557881E+01  0.29837950327E+01  0.10011104471E+02  0.51100000000E-03 0. -1.
        -11    1    3    3    0    0  0.59680797836E+01  0.16797978757E+00  0.65332205127E+01  0.88503764915E+01  0.51100000000E-03 0.  1.
         12    1    3    3    0    0  0.19441921339E+02 -0.82194551451E+01  0.17282832846E+02  0.27280836854E+02  0.00000000000E+00 0. -1.
</event>
<event>
 7    1  0.1543346E-008  0.4614232E+02  0.7816164E-02  0.1320468E+00
        -11   -1    0    0    0    0  0.00000000000E+00  0.00000000000E+00  0.45593999997E+02  0.45594000000E+02  0.51100000000E-03 0. -1.
         11   -1    0    0    0    0 -0.00000000000E+00 -0.00000000000E+00 -0.45593999997E+02  0.45594000000E+02  0.51100000000E-03 0.  1.
    9900012    2    1    2    0    0 -0.32982184147E+02  0.30126054573E+02 -0.58060351821E+01  0.46142315636E+02  0.99999806230E+01 0.  0.
        -12    1    1    2    0    0  0.32982184147E+02 -0.30126054573E+02  0.58060351821E+01  0.45045684364E+02  0.00000000000E+00 0.  1.
         11    1    3    3    0    0 -0.12830656211E+02  0.75987851395E+01  0.78529397343E+00  0.14932647498E+02  0.51100000000E-03 0. -1.
        -11    1    3    3    0    0 -0.10487351226E+02  0.13510661842E+02 -0.54157018493E+01  0.17940243753E+02  0.51100000000E-03 0.  1.
        -12    1    3    3    0    0 -0.96641767106E+01  0.90166075913E+01 -0.11756273062E+01  0.13269424385E+02  0.00000000000E+00 0.  1.
</event>
<event>
 7    1  0.1543346E-008  0.4614232E+02  0.7816164E-02  0.1320468E+00
        -11   -1    0    0    0    0  0.00000000000E+00  0.00000000000E+00  0.45593999997E+02  0.45594000000E+02  0.51100000000E-03 0.  1.
         11   -1    0    0    0    0 -0.00000000000E+00 -0.00000000000E+00 -0.45593999997E+02  0.45594000000E+02  0.51100000000E-03 0. -1.
    9900012    2    1    2    0    0  0.22995395507E+02 -0.41767476476E+01 -0.38508179760E+02  0.46142319365E+02  0.10000014627E+02 0.  0.
        -12    1    1    2    0    0 -0.22995395507E+02  0.41767476476E+01  0.38508179760E+02  0.45045680635E+02  0.00000000000E+00 0.  1.
         11    1    3    3    0    0  0.10880733221E+02 -0.17493424223E+01 -0.22905059622E+02  0.25418345951E+02  0.51100000000E-03 0. -1.
        -11    1    3    3    0    0  0.21800040412E+01 -0.28632096463E+01 -0.31097915713E+01  0.47561739851E+01  0.51100000000E-03 0.  1.
        -12    1    3    3    0    0  0.99346582444E+01  0.43580442099E+00 -0.12493328567E+02  0.15967799429E+02  0.00000000000E+00 0.  1.
</event>
<event>
 7    1  0.1543346E-008  0.4614232E+02  0.7816164E-02  0.1320468E+00
        -11   -1    0    0    0    0  0.00000000000E+00  0.00000000000E+00  0.45593999997E+02  0.45594000000E+02  0.51100000000E-03 0. -1.
         11   -1    0    0    0    0 -0.00000000000E+00 -0.00000000000E+00 -0.45593999997E+02  0.45594000000E+02  0.51100000000E-03 0.  1.
    9900012    2    1    2    0    0 -0.18158397272E+01 -0.16773658142E+02  0.41766740380E+02  0.46142317817E+02  0.10000000510E+02 0.  0.
        -12    1    1    2    0    0  0.18158397272E+01  0.16773658142E+02 -0.41766740380E+02  0.45045682183E+02  0.00000000000E+00 0.  1.
         11    1    3    3    0    0 -0.46480741927E+01 -0.13441197037E+02  0.34041931450E+02  0.36893406845E+02  0.51100000000E-03 0. -1.
        -11    1    3    3    0    0  0.32199169365E+01 -0.22641518159E+01  0.62637212851E+01  0.73978681471E+01  0.51100000000E-03 0.  1.
        -12    1    3    3    0    0 -0.38768247105E+00 -0.10683092898E+01  0.14610876441E+01  0.18510428252E+01  0.00000000000E+00 0.  1.
</event>
<event>
 7    1  0.1543346E-008  0.4614232E+02  0.7816164E-02  0.1320468E+00
        -11   -1    0    0    0    0  0.00000000000E+00  0.00000000000E+00  0.45593999997E+02  0.45594000000E+02  0.51100000000E-03 0.  1.
         11   -1    0    0    0    0 -0.00000000000E+00 -0.00000000000E+00 -0.45593999997E+02  0.45594000000E+02  0.51100000000E-03 0. -1.
    9900012    2    1    2    0    0 -0.27233807877E+02 -0.11941598530E+02 -0.33835358456E+02  0.46142317091E+02  0.99999938849E+01 0.  0.
        -12    1    1    2    0    0  0.27233807877E+02  0.11941598530E+02  0.33835358456E+02  0.45045682909E+02  0.00000000000E+00 0.  1.
         11    1    3    3    0    0 -0.13049278352E+02 -0.43428757903E+01 -0.21599108263E+02  0.25605970273E+02  0.51100000000E-03 0. -1.
        -11    1    3    3    0    0 -0.69704687277E+01 -0.31781108879E+01 -0.36639642008E+01  0.84919053825E+01  0.51100000000E-03 0.  1.
        -12    1    3    3    0    0 -0.72140607978E+01 -0.44206118523E+01 -0.85722859924E+01  0.12044441435E+02  0.00000000000E+00 0.  1.
</event>
<event>
 7    1  0.1543346E-008  0.4614232E+02  0.7816164E-02  0.1320468E+00
        -11   -1    0    0    0    0  0.00000000000E+00  0.00000000000E+00  0.45593999997E+02  0.45594000000E+02  0.51100000000E-03 0.  1.
         11   -1    0    0    0    0 -0.00000000000E+00 -0.00000000000E+00 -0.45593999997E+02  0.45594000000E+02  0.51100000000E-03 0. -1.
    9900012    2    1    2    0    0 -0.10270062903E+02 -0.30408743187E+02 -0.31606133112E+02  0.46142317581E+02  0.99999983607E+01 0.  0.
        -12    1    1    2    0    0  0.10270062903E+02  0.30408743187E+02  0.31606133112E+02  0.45045682419E+02  0.00000000000E+00 0.  1.
         11    1    3    3    0    0 -0.55101592173E+01 -0.21188238816E+02 -0.20227116849E+02  0.29806703524E+02  0.51100000000E-03 0. -1.
        -11    1    3    3    0    0 -0.36684922453E+00 -0.54594620278E+01 -0.32658514204E+01  0.63722907771E+01  0.51100000000E-03 0.  1.
         12    1    3    3    0    0 -0.43930544617E+01 -0.37610423437E+01 -0.81131648425E+01  0.99633232797E+01  0.00000000000E+00 0. -1.
</event>
<event>
 7    1  0.1543346E-008  0.4614232E+02  0.7816164E-02  0.1320468E+00
        -11   -1    0    0    0    0  0.00000000000E+00  0.00000000000E+00  0.45593999997E+02  0.45594000000E+02  0.51100000000E-03 0.  1.
         11   -1    0    0    0    0 -0.00000000000E+00 -0.00000000000E+00 -0.45593999997E+02  0.45594000000E+02  0.51100000000E-03 0. -1.
    9900012    2    1    2    0    0 -0.65241317529E+01  0.22844872519E+02 -0.38270889917E+02  0.46142317515E+02  0.99999977542E+01 0.  0.
        -12    1    1    2    0    0  0.65241317529E+01 -0.22844872519E+02  0.38270889917E+02  0.45045682485E+02  0.00000000000E+00 0.  1.
         11    1    3    3    0    0 -0.53372436411E+01  0.69632484212E+01 -0.83906936093E+01  0.12139882115E+02  0.51100000000E-03 0. -1.
        -11    1    3    3    0    0 -0.10463177243E+00  0.10276864490E+02 -0.21890994932E+02  0.24183476817E+02  0.51100000000E-03 0.  1.
         12    1    3    3    0    0 -0.10822563394E+01  0.56047596081E+01 -0.79892013750E+01  0.98189585833E+01  0.00000000000E+00 0. -1.
</event>
<event>
 7    1  0.1543346E-008  0.4614232E+02  0.7816164E-02  0.1320468E+00
        -11   -1    0    0    0    0  0.00000000000E+00  0.00000000000E+00  0.45593999997E+02  0.45594000000E+02  0.51100000000E-03 0.  1.
         11   -1    0    0    0    0 -0.00000000000E+00 -0.00000000000E+00 -0.45593999997E+02  0.45594000000E+02  0.51100000000E-03 0. -1.
    9900012    2    1    2    0    0 -0.18813956668E+02 -0.29464661322E+01 -0.40822384716E+02  0.46142315167E+02  0.99999763419E+01 0.  0.
        -12    1    1    2    0    0  0.18813956668E+02  0.29464661322E+01  0.40822384716E+02  0.45045684833E+02  0.00000000000E+00 0.  1.
         11    1    3    3    0    0 -0.18807021656E+01 -0.17566979306E+01 -0.67927784551E+01  0.72639429827E+01  0.51100000000E-03 0. -1.
        -11    1    3    3    0    0 -0.50774518512E+00 -0.25726369505E+00 -0.84224464139E+01  0.84416582280E+01  0.51100000000E-03 0.  1.
        -12    1    3    3    0    0 -0.16425509318E+02 -0.93250450647E+00 -0.25607159847E+02  0.30436713956E+02  0.00000000000E+00 0.  1.
</event>
<event>
 7    1  0.1543346E-008  0.4614232E+02  0.7816164E-02  0.1320468E+00
        -11   -1    0    0    0    0  0.00000000000E+00  0.00000000000E+00  0.45593999997E+02  0.45594000000E+02  0.51100000000E-03 0. -1.
         11   -1    0    0    0    0 -0.00000000000E+00 -0.00000000000E+00 -0.45593999997E+02  0.45594000000E+02  0.51100000000E-03 0.  1.
    9900012    2    1    2    0    0 -0.12418905438E+02  0.19273445459E+02  0.38773943112E+02  0.46142316782E+02  0.99999910719E+01 0.  0.
        -12    1    1    2    0    0  0.12418905438E+02 -0.19273445459E+02 -0.38773943112E+02  0.45045683218E+02  0.00000000000E+00 0.  1.
         11    1    3    3    0    0 -0.18728384246E+01  0.36220813672E+01  0.80031412291E+01  0.89820524931E+01  0.51100000000E-03 0. -1.
        -11    1    3    3    0    0 -0.83099445528E+01  0.95762935473E+01  0.26578293150E+02  0.29447686558E+02  0.51100000000E-03 0.  1.
        -12    1    3    3    0    0 -0.22361224607E+01  0.60750705449E+01  0.41925087320E+01  0.77125777308E+01  0.00000000000E+00 0.  1.
</event>
<event>
 7    1  0.1543346E-008  0.4614232E+02  0.7816164E-02  0.1320468E+00
        -11   -1    0    0    0    0  0.00000000000E+00  0.00000000000E+00  0.45593999997E+02  0.45594000000E+02  0.51100000000E-03 0.  1.
         11   -1    0    0    0    0 -0.00000000000E+00 -0.00000000000E+00 -0.45593999997E+02  0.45594000000E+02  0.51100000000E-03 0. -1.
    9900012    2    1    2    0    0  0.46013983657E+01  0.20124498027E+01 -0.44764836712E+02  0.46142318442E+02  0.10000006212E+02 0.  0.
        -12    1    1    2    0    0 -0.46013983657E+01 -0.20124498027E+01  0.44764836712E+02  0.45045681558E+02  0.00000000000E+00 0.  1.
         11    1    3    3    0    0 -0.12765869490E+01  0.25226130893E+01 -0.55216133769E+01  0.62033430973E+01  0.51100000000E-03 0. -1.
        -11    1    3    3    0    0  0.44305301354E+01 -0.21237254135E+01 -0.32108484832E+02  0.32482219834E+02  0.51100000000E-03 0.  1.
        -12    1    3    3    0    0  0.14474551793E+01  0.16135621268E+01 -0.71347385037E+01  0.74567555109E+01  0.00000000000E+00 0.  1.
</event>
<event>
 7    1  0.1543346E-008  0.4614232E+02  0.7816164E-02  0.1320468E+00
        -11   -1    0    0    0    0  0.00000000000E+00  0.00000000000E+00  0.45593999997E+02  0.45594000000E+02  0.51100000000E-03 0.  1.
         11   -1    0    0    0    0 -0.00000000000E+00 -0.00000000000E+00 -0.45593999997E+02  0.45594000000E+02  0.51100000000E-03 0. -1.
    9900012    2    1    2    0    0 -0.28533347563E+02 -0.28227185612E+02  0.20449634763E+02  0.46142317713E+02  0.99999995638E+01 0.  0.
        -12    1    1    2    0    0  0.28533347563E+02  0.28227185612E+02 -0.20449634763E+02  0.45045682287E+02  0.00000000000E+00 0.  1.
         11    1    3    3    0    0 -0.59088658430E+01 -0.62658865834E+01  0.71965512023E+00  0.86425652430E+01  0.51100000000E-03 0. -1.
        -11    1    3    3    0    0 -0.17555866554E+02 -0.14679843010E+02  0.15719919170E+02  0.27763683117E+02  0.51100000000E-03 0.  1.
        -12    1    3    3    0    0 -0.50686151661E+01 -0.72814560185E+01  0.40100604732E+01  0.97360693532E+01  0.00000000000E+00 0.  1.
</event>
<event>
 7    1  0.1543346E-008  0.4614232E+02  0.7816164E-02  0.1320468E+00
        -11   -1    0    0    0    0  0.00000000000E+00  0.00000000000E+00  0.45593999997E+02  0.45594000000E+02  0.51100000000E-03 0. -1.
         11   -1    0    0    0    0 -0.00000000000E+00 -0.00000000000E+00 -0.45593999997E+02  0.45594000000E+02  0.51100000000E-03 0.  1.
    9900012    2    1    2    0    0 -0.47383262078E+01  0.14035988637E+02  0.42540013003E+02  0.46142318535E+02  0.10000007061E+02 0.  0.
        -12    1    1    2    0    0  0.47383262078E+01 -0.14035988637E+02 -0.42540013003E+02  0.45045681465E+02  0.00000000000E+00 0.  1.
         11    1    3    3    0    0 -0.27604287381E+01  0.21788153552E+01  0.84735067422E+01  0.91742858000E+01  0.51100000000E-03 0. -1.
        -11    1    3    3    0    0  0.76448971357E+00  0.16534893859E+01  0.15491763485E+02  0.15598500178E+02  0.51100000000E-03 0.  1.
        -12    1    3    3    0    0 -0.27423871833E+01  0.10203683896E+02  0.18574742777E+02  0.21369532558E+02  0.00000000000E+00 0.  1.
</event>
<event>
 7    1  0.1543346E-008  0.4614232E+02  0.7816164E-02  0.1320468E+00
        -11   -1    0    0    0    0  0.00000000000E+00  0.00000000000E+00  0.45593999997E+02  0.45594000000E+02  0.51100000000E-03 0.  1.
         11   -1    0    0    0    0 -0.00000000000E+00 -0.00000000000E+00 -0.45593999997E+02  0.45594000000E+02  0.51100000000E-03 0. -1.
    9900012    2    1    2    0    0 -0.12138786350E+02 -0.29007600750E+02 -0.32254029384E+02  0.46142318223E+02  0.10000004209E+02 0.  0.
        -12    1    1    2    0    0  0.12138786350E+02  0.29007600750E+02  0.32254029384E+02  0.45045681777E+02  0.00000000000E+00 0.  1.
         11    1    3    3    0    0 -0.49306432799E+01 -0.13002974813E+02 -0.20036371873E+02  0.24389440240E+02  0.51100000000E-03 0. -1.
        -11    1    3    3    0    0 -0.62614945143E+01 -0.15083054780E+02 -0.12275919186E+02  0.20430444126E+02  0.51100000000E-03 0.  1.
         12    1    3    3    0    0 -0.94664855531E+00 -0.92157115630E+00  0.58261674460E-01  0.13224338570E+01  0.00000000000E+00 0. -1.
</event>
<event>
 7    1  0.1543346E-008  0.4614232E+02  0.7816164E-02  0.1320468E+00
        -11   -1    0    0    0    0  0.00000000000E+00  0.00000000000E+00  0.45593999997E+02  0.45594000000E+02  0.51100000000E-03 0.  1.
         11   -1    0    0    0    0 -0.00000000000E+00 -0.00000000000E+00 -0.45593999997E+02  0.45594000000E+02  0.51100000000E-03 0. -1.
    9900012    2    1    2    0    0 -0.95356269662E+01 -0.41220874478E+02 -0.15460425074E+02  0.46142318544E+02  0.10000007138E+02 0.  0.
        -12    1    1    2    0    0  0.95356269662E+01  0.41220874478E+02  0.15460425074E+02  0.45045681456E+02  0.00000000000E+00 0.  1.
         11    1    3    3    0    0 -0.50212065294E+01 -0.19748956344E+02 -0.75267561829E+01  0.21722933748E+02  0.51100000000E-03 0. -1.
        -11    1    3    3    0    0 -0.32693637138E+00  0.21512986635E+00 -0.12992148000E+01  0.13568815747E+01  0.51100000000E-03 0.  1.
        -12    1    3    3    0    0 -0.41874840655E+01 -0.21687048000E+02 -0.66344540910E+01  0.23062503222E+02  0.00000000000E+00 0.  1.
</event>
<event>
 7    1  0.1543346E-008  0.4614232E+02  0.7816164E-02  0.1320468E+00
        -11   -1    0    0    0    0  0.00000000000E+00  0.00000000000E+00  0.45593999997E+02  0.45594000000E+02  0.51100000000E-03 0.  1.
         11   -1    0    0    0    0 -0.00000000000E+00 -0.00000000000E+00 -0.45593999997E+02  0.45594000000E+02  0.51100000000E-03 0. -1.
    9900012    2    1    2    0    0 -0.39744672704E+02  0.81770657072E+00 -0.21185036308E+02  0.46142318567E+02  0.10000007351E+02 0.  0.
        -12    1    1    2    0    0  0.39744672704E+02 -0.81770657072E+00  0.21185036308E+02  0.45045681433E+02  0.00000000000E+00 0.  1.
         11    1    3    3    0    0 -0.21669543891E+02 -0.15201981879E+01 -0.11750748273E+02  0.24697372739E+02  0.51100000000E-03 0. -1.
        -11    1    3    3    0    0 -0.11912287444E+02  0.25565712274E+01 -0.30307274619E+01  0.12554838024E+02  0.51100000000E-03 0.  1.
        -12    1    3    3    0    0 -0.61628413684E+01 -0.21866646883E+00 -0.64035605733E+01  0.88901078043E+01  0.00000000000E+00 0.  1.
</event>
<event>
 7    1  0.1543346E-008  0.4614232E+02  0.7816164E-02  0.1320468E+00
        -11   -1    0    0    0    0  0.00000000000E+00  0.00000000000E+00  0.45593999997E+02  0.45594000000E+02  0.51100000000E-03 0.  1.
         11   -1    0    0    0    0 -0.00000000000E+00 -0.00000000000E+00 -0.45593999997E+02  0.45594000000E+02  0.51100000000E-03 0. -1.
    9900012    2    1    2    0    0  0.25801646308E+02 -0.29954059557E+02 -0.21590335476E+02  0.46142320717E+02  0.10000026951E+02 0.  0.
        -12    1    1    2    0    0 -0.25801646308E+02  0.29954059557E+02  0.21590335476E+02  0.45045679283E+02  0.00000000000E+00 0.  1.
         11    1    3    3    0    0  0.18037009485E+02 -0.22283919300E+02 -0.15507896020E+02  0.32594502754E+02  0.51100000000E-03 0. -1.
        -11    1    3    3    0    0  0.55857907500E+01 -0.25553687426E+01 -0.14502798308E+01  0.63114403715E+01  0.51100000000E-03 0.  1.
        -12    1    3    3    0    0  0.21788460723E+01 -0.51147715140E+01 -0.46321596256E+01  0.72363775913E+01  0.00000000000E+00 0.  1.
</event>
<event>
 7    1  0.1543346E-008  0.4614232E+02  0.7816164E-02  0.1320468E+00
        -11   -1    0    0    0    0  0.00000000000E+00  0.00000000000E+00  0.45593999997E+02  0.45594000000E+02  0.51100000000E-03 0. -1.
         11   -1    0    0    0    0 -0.00000000000E+00 -0.00000000000E+00 -0.45593999997E+02  0.45594000000E+02  0.51100000000E-03 0.  1.
    9900012    2    1    2    0    0 -0.29761153397E+02  0.22751858036E+02  0.25014799848E+02  0.46142317554E+02  0.99999981073E+01 0.  0.
        -12    1    1    2    0    0  0.29761153397E+02 -0.22751858036E+02 -0.25014799848E+02  0.45045682446E+02  0.00000000000E+00 0.  1.
         11    1    3    3    0    0 -0.34929977611E+01  0.63315070705E+01  0.31592012973E+01  0.78911069085E+01  0.51100000000E-03 0. -1.
        -11    1    3    3    0    0 -0.20125433222E+02  0.11877550237E+02  0.18915379538E+02  0.30064943794E+02  0.51100000000E-03 0.  1.
        -12    1    3    3    0    0 -0.61427224142E+01  0.45428007281E+01  0.29402190130E+01  0.81862668511E+01  0.00000000000E+00 0.  1.
</event>
<event>
 7    1  0.1543346E-008  0.4614232E+02  0.7816164E-02  0.1320468E+00
        -11   -1    0    0    0    0  0.00000000000E+00  0.00000000000E+00  0.45593999997E+02  0.45594000000E+02  0.51100000000E-03 0.  1.
         11   -1    0    0    0    0 -0.00000000000E+00 -0.00000000000E+00 -0.45593999997E+02  0.45594000000E+02  0.51100000000E-03 0. -1.
    9900012    2    1    2    0    0 -0.14842365955E+02  0.34191631998E+02 -0.25293278505E+02  0.46142318039E+02  0.10000002531E+02 0.  0.
        -12    1    1    2    0    0  0.14842365955E+02 -0.34191631998E+02  0.25293278505E+02  0.45045681961E+02  0.00000000000E+00 0.  1.
         11    1    3    3    0    0  0.11688786643E+00  0.64667906618E+01 -0.70976677356E+01  0.96026002615E+01  0.51100000000E-03 0. -1.
        -11    1    3    3    0    0 -0.49101188679E+01  0.12598380195E+02 -0.81001288221E+01  0.15761996639E+02  0.51100000000E-03 0.  1.
        -12    1    3    3    0    0 -0.10049134954E+02  0.15126461141E+02 -0.10095481947E+02  0.20777721138E+02  0.00000000000E+00 0.  1.
</event>
<event>
 7    1  0.1543346E-008  0.4614232E+02  0.7816164E-02  0.1320468E+00
        -11   -1    0    0    0    0  0.00000000000E+00  0.00000000000E+00  0.45593999997E+02  0.45594000000E+02  0.51100000000E-03 0. -1.
         11   -1    0    0    0    0 -0.00000000000E+00 -0.00000000000E+00 -0.45593999997E+02  0.45594000000E+02  0.51100000000E-03 0.  1.
    9900012    2    1    2    0    0  0.10820467010E+02 -0.22016550406E+02  0.37779658473E+02  0.46142316606E+02  0.99999894685E+01 0.  0.
        -12    1    1    2    0    0 -0.10820467010E+02  0.22016550406E+02 -0.37779658473E+02  0.45045683394E+02  0.00000000000E+00 0.  1.
         11    1    3    3    0    0  0.44675910183E+01 -0.40109561626E+01  0.15887906886E+02  0.16984484812E+02  0.51100000000E-03 0. -1.
        -11    1    3    3    0    0  0.42377334526E+01 -0.10710127818E+02  0.14909982077E+02  0.18840721549E+02  0.51100000000E-03 0.  1.
         12    1    3    3    0    0  0.21151425389E+01 -0.72954664253E+01  0.69817695100E+01  0.10317110245E+02  0.00000000000E+00 0. -1.
</event>
<event>
 7    1  0.1543346E-008  0.4614232E+02  0.7816164E-02  0.1320468E+00
        -11   -1    0    0    0    0  0.00000000000E+00  0.00000000000E+00  0.45593999997E+02  0.45594000000E+02  0.51100000000E-03 0.  1.
         11   -1    0    0    0    0 -0.00000000000E+00 -0.00000000000E+00 -0.45593999997E+02  0.45594000000E+02  0.51100000000E-03 0. -1.
    9900012    2    1    2    0    0 -0.33569467482E+02 -0.72220526710E+01  0.29155552630E+02  0.46142318287E+02  0.10000004797E+02 0.  0.
        -12    1    1    2    0    0  0.33569467482E+02  0.72220526710E+01 -0.29155552630E+02  0.45045681713E+02  0.00000000000E+00 0.  1.
         11    1    3    3    0    0 -0.13140222359E+02 -0.52102506446E+01  0.13679734513E+02  0.19670975879E+02  0.51100000000E-03 0. -1.
        -11    1    3    3    0    0 -0.17932694178E+01 -0.16166019822E+01  0.37165313231E+01  0.44319095783E+01  0.51100000000E-03 0.  1.
         12    1    3    3    0    0 -0.18635975705E+02 -0.39520004427E+00  0.11759286794E+02  0.22039432830E+02  0.00000000000E+00 0. -1.
</event>
<event>
 7    1  0.1543346E-008  0.4614232E+02  0.7816164E-02  0.1320468E+00
        -11   -1    0    0    0    0  0.00000000000E+00  0.00000000000E+00  0.45593999997E+02  0.45594000000E+02  0.51100000000E-03 0.  1.
         11   -1    0    0    0    0 -0.00000000000E+00 -0.00000000000E+00 -0.45593999997E+02  0.45594000000E+02  0.51100000000E-03 0. -1.
    9900012    2    1    2    0    0  0.34368608792E+02  0.26563764325E+02 -0.11928063463E+02  0.46142317150E+02  0.99999944287E+01 0.  0.
        -12    1    1    2    0    0 -0.34368608792E+02 -0.26563764325E+02  0.11928063463E+02  0.45045682850E+02  0.00000000000E+00 0.  1.
         11    1    3    3    0    0  0.28159552578E+02  0.23808995499E+02 -0.10375254514E+02  0.38307630762E+02  0.51100000000E-03 0. -1.
        -11    1    3    3    0    0  0.54121733453E+01  0.17155442609E+01  0.15851643489E+00  0.56797746568E+01  0.51100000000E-03 0.  1.
         12    1    3    3    0    0  0.79688286840E+00  0.10392245658E+01 -0.17113253832E+01  0.21549117317E+01  0.00000000000E+00 0. -1.
</event>
<event>
 7    1  0.1543346E-008  0.4614232E+02  0.7816164E-02  0.1320468E+00
        -11   -1    0    0    0    0  0.00000000000E+00  0.00000000000E+00  0.45593999997E+02  0.45594000000E+02  0.51100000000E-03 0. -1.
         11   -1    0    0    0    0 -0.00000000000E+00 -0.00000000000E+00 -0.45593999997E+02  0.45594000000E+02  0.51100000000E-03 0.  1.
    9900012    2    1    2    0    0 -0.22265122224E+02  0.26664857136E+02 -0.28676875203E+02  0.46142318241E+02  0.10000004374E+02 0.  0.
        -12    1    1    2    0    0  0.22265122224E+02 -0.26664857136E+02  0.28676875203E+02  0.45045681759E+02  0.00000000000E+00 0.  1.
         11    1    3    3    0    0 -0.18422413806E+02  0.19987556843E+02 -0.19258123185E+02  0.33313106548E+02  0.51100000000E-03 0. -1.
        -11    1    3    3    0    0 -0.45850889462E+00  0.47645850837E+01 -0.46080374400E+01  0.66442088118E+01  0.51100000000E-03 0.  1.
         12    1    3    3    0    0 -0.33841995234E+01  0.19127152092E+01 -0.48107145786E+01  0.61850028814E+01  0.00000000000E+00 0. -1.
</event>
<event>
 7    1  0.1543346E-008  0.4614232E+02  0.7816164E-02  0.1320468E+00
        -11   -1    0    0    0    0  0.00000000000E+00  0.00000000000E+00  0.45593999997E+02  0.45594000000E+02  0.51100000000E-03 0. -1.
         11   -1    0    0    0    0 -0.00000000000E+00 -0.00000000000E+00 -0.45593999997E+02  0.45594000000E+02  0.51100000000E-03 0.  1.
    9900012    2    1    2    0    0 -0.12475209169E+02  0.28582624424E+02  0.32504095604E+02  0.46142317701E+02  0.99999994491E+01 0.  0.
        -12    1    1    2    0    0  0.12475209169E+02 -0.28582624424E+02 -0.32504095604E+02  0.45045682299E+02  0.00000000000E+00 0.  1.
         11    1    3    3    0    0 -0.30716220670E+01  0.17533008675E+02  0.19151720087E+02  0.26146312128E+02  0.51100000000E-03 0.  1.
        -11    1    3    3    0    0 -0.22380483322E+01  0.46240996988E+01  0.59026349127E+01  0.78251043147E+01  0.51100000000E-03 0. -1.
         12    1    3    3    0    0 -0.71655387695E+01  0.64255160496E+01  0.74497406047E+01  0.12170901258E+02  0.00000000000E+00 0. -1.
</event>
<event>
 7    1  0.1543346E-008  0.4614232E+02  0.7816164E-02  0.1320468E+00
        -11   -1    0    0    0    0  0.00000000000E+00  0.00000000000E+00  0.45593999997E+02  0.45594000000E+02  0.51100000000E-03 0.  1.
         11   -1    0    0    0    0 -0.00000000000E+00 -0.00000000000E+00 -0.45593999997E+02  0.45594000000E+02  0.51100000000E-03 0. -1.
    9900012    2    1    2    0    0  0.57266350945E+01 -0.15239628315E+02 -0.42000868382E+02  0.46142316904E+02  0.99999921846E+01 0.  0.
        -12    1    1    2    0    0 -0.57266350945E+01  0.15239628315E+02  0.42000868382E+02  0.45045683096E+02  0.00000000000E+00 0.  1.
         11    1    3    3    0    0 -0.13159860405E+01 -0.65155828846E+01 -0.13572890642E+02  0.15113173069E+02  0.51100000000E-03 0.  1.
        -11    1    3    3    0    0  0.35018204942E+01 -0.31505904713E+01 -0.58796535645E+01  0.75338763855E+01  0.51100000000E-03 0. -1.
         12    1    3    3    0    0  0.35408006409E+01 -0.55734549595E+01 -0.22548324176E+02  0.23495267449E+02  0.00000000000E+00 0. -1.
</event>
<event>
 7    1  0.1543346E-008  0.4614232E+02  0.7816164E-02  0.1320468E+00
        -11   -1    0    0    0    0  0.00000000000E+00  0.00000000000E+00  0.45593999997E+02  0.45594000000E+02  0.51100000000E-03 0.  1.
         11   -1    0    0    0    0 -0.00000000000E+00 -0.00000000000E+00 -0.45593999997E+02  0.45594000000E+02  0.51100000000E-03 0. -1.
    9900012    2    1    2    0    0  0.49124134569E+00  0.84356132028E+01 -0.44246046659E+02  0.46142317265E+02  0.99999954730E+01 0.  0.
        -12    1    1    2    0    0 -0.49124134569E+00 -0.84356132028E+01  0.44246046659E+02  0.45045682735E+02  0.00000000000E+00 0.  1.
         11    1    3    3    0    0  0.24584309522E+01  0.80246839862E+01 -0.23847424033E+02  0.25281199914E+02  0.51100000000E-03 0.  1.
        -11    1    3    3    0    0 -0.18127702472E+01  0.15316221772E+01 -0.18495599714E+02  0.18647230665E+02  0.51100000000E-03 0. -1.
        -12    1    3    3    0    0 -0.15441935928E+00 -0.11206929607E+01 -0.19030229126E+01  0.22138866856E+01  0.00000000000E+00 0.  1.
</event>
<event>
 7    1  0.1543346E-008  0.4614232E+02  0.7816164E-02  0.1320468E+00
        -11   -1    0    0    0    0  0.00000000000E+00  0.00000000000E+00  0.45593999997E+02  0.45594000000E+02  0.51100000000E-03 0.  1.
         11   -1    0    0    0    0 -0.00000000000E+00 -0.00000000000E+00 -0.45593999997E+02  0.45594000000E+02  0.51100000000E-03 0. -1.
    9900012    2    1    2    0    0  0.52658929270E+01 -0.28434421853E+01 -0.44646373393E+02  0.46142318199E+02  0.10000003995E+02 0.  0.
        -12    1    1    2    0    0 -0.52658929270E+01  0.28434421853E+01  0.44646373393E+02  0.45045681801E+02  0.00000000000E+00 0.  1.
         11    1    3    3    0    0  0.23572381511E+01 -0.30344228401E+01 -0.21166586955E+02  0.21512524196E+02  0.51100000000E-03 0. -1.
        -11    1    3    3    0    0 -0.21814356500E+01  0.45013901225E+00 -0.52983049149E+01  0.57474622102E+01  0.51100000000E-03 0.  1.
        -12    1    3    3    0    0  0.50900904258E+01 -0.25915835741E+00 -0.18181481523E+02  0.18882331793E+02  0.00000000000E+00 0.  1.
</event>
<event>
 7    1  0.1543346E-008  0.4614232E+02  0.7816164E-02  0.1320468E+00
        -11   -1    0    0    0    0  0.00000000000E+00  0.00000000000E+00  0.45593999997E+02  0.45594000000E+02  0.51100000000E-03 0.  1.
         11   -1    0    0    0    0 -0.00000000000E+00 -0.00000000000E+00 -0.45593999997E+02  0.45594000000E+02  0.51100000000E-03 0. -1.
    9900012    2    1    2    0    0 -0.22383209855E+02  0.19548087114E+02 -0.33852292758E+02  0.46142317430E+02  0.99999969761E+01 0.  0.
        -12    1    1    2    0    0  0.22383209855E+02 -0.19548087114E+02  0.33852292758E+02  0.45045682570E+02  0.00000000000E+00 0.  1.
         11    1    3    3    0    0 -0.58945339867E+01  0.86957066009E+00 -0.70187757069E+01  0.92067853639E+01  0.51100000000E-03 0. -1.
        -11    1    3    3    0    0 -0.30646899158E+01  0.58105442518E+01 -0.92329725077E+01  0.11331484032E+02  0.51100000000E-03 0.  1.
         12    1    3    3    0    0 -0.13423985953E+02  0.12867972202E+02 -0.17600544543E+02  0.25604048033E+02  0.00000000000E+00 0. -1.
</event>
<event>
 7    1  0.1543346E-008  0.4614233E+02  0.7816164E-02  0.1320468E+00
        -11   -1    0    0    0    0  0.00000000000E+00  0.00000000000E+00  0.45593999997E+02  0.45594000000E+02  0.51100000000E-03 0.  1.
         11   -1    0    0    0    0 -0.00000000000E+00 -0.00000000000E+00 -0.45593999997E+02  0.45594000000E+02  0.51100000000E-03 0. -1.
    9900012    2    1    2    0    0 -0.43314467718E+02  0.70416569248E+01 -0.10167828766E+02  0.46142325537E+02  0.10000070911E+02 0.  0.
        -12    1    1    2    0    0  0.43314467718E+02 -0.70416569248E+01  0.10167828766E+02  0.45045674463E+02  0.00000000000E+00 0.  1.
         11    1    3    3    0    0 -0.59742525665E+01  0.16214683262E+01 -0.32541502279E+01  0.69935932987E+01  0.51100000000E-03 0. -1.
        -11    1    3    3    0    0 -0.10319740516E+02 -0.94393735706E+00 -0.44562381412E+01  0.11280342224E+02  0.51100000000E-03 0.  1.
        -12    1    3    3    0    0 -0.27020474636E+02  0.63641259557E+01 -0.24574403968E+01  0.27868390015E+02  0.00000000000E+00 0.  1.
</event>
<event>
 7    1  0.1543346E-008  0.4614232E+02  0.7816164E-02  0.1320468E+00
        -11   -1    0    0    0    0  0.00000000000E+00  0.00000000000E+00  0.45593999997E+02  0.45594000000E+02  0.51100000000E-03 0. -1.
         11   -1    0    0    0    0 -0.00000000000E+00 -0.00000000000E+00 -0.45593999997E+02  0.45594000000E+02  0.51100000000E-03 0.  1.
    9900012    2    1    2    0    0 -0.28750577315E+02 -0.28161724893E+02  0.20234500032E+02  0.46142318337E+02  0.10000005252E+02 0.  0.
        -12    1    1    2    0    0  0.28750577315E+02  0.28161724893E+02 -0.20234500032E+02  0.45045681663E+02  0.00000000000E+00 0.  1.
         11    1    3    3    0    0 -0.16657617183E+02 -0.18424865870E+02  0.93736978071E+01  0.26548410563E+02  0.51100000000E-03 0. -1.
        -11    1    3    3    0    0 -0.12114383131E+02 -0.80139687070E+01  0.10198417971E+02  0.17747949247E+02  0.51100000000E-03 0.  1.
         12    1    3    3    0    0  0.21422999458E-01 -0.17228903161E+01  0.66238425433E+00  0.18459585279E+01  0.00000000000E+00 0. -1.
</event>
<event>
 7    1  0.1543346E-008  0.4614232E+02  0.7816164E-02  0.1320468E+00
        -11   -1    0    0    0    0  0.00000000000E+00  0.00000000000E+00  0.45593999997E+02  0.45594000000E+02  0.51100000000E-03 0. -1.
         11   -1    0    0    0    0 -0.00000000000E+00 -0.00000000000E+00 -0.45593999997E+02  0.45594000000E+02  0.51100000000E-03 0.  1.
    9900012    2    1    2    0    0  0.16163737124E+02 -0.38374678145E+01 -0.41870284400E+02  0.46142320154E+02  0.10000021821E+02 0.  0.
        -12    1    1    2    0    0 -0.16163737124E+02  0.38374678145E+01  0.41870284400E+02  0.45045679846E+02  0.00000000000E+00 0.  1.
         11    1    3    3    0    0  0.18493488442E+01 -0.11986112317E+01 -0.87912108869E+00  0.23726808007E+01  0.51100000000E-03 0. -1.
        -11    1    3    3    0    0  0.10304856437E+02 -0.39912041307E+01 -0.27776974786E+02  0.29894482854E+02  0.51100000000E-03 0.  1.
         12    1    3    3    0    0  0.40095318425E+01  0.13523475479E+01 -0.13214188526E+02  0.13875156499E+02  0.00000000000E+00 0. -1.
</event>
<event>
 7    1  0.1543346E-008  0.4614232E+02  0.7816164E-02  0.1320468E+00
        -11   -1    0    0    0    0  0.00000000000E+00  0.00000000000E+00  0.45593999997E+02  0.45594000000E+02  0.51100000000E-03 0.  1.
         11   -1    0    0    0    0 -0.00000000000E+00 -0.00000000000E+00 -0.45593999997E+02  0.45594000000E+02  0.51100000000E-03 0. -1.
    9900012    2    1    2    0    0 -0.92859160904E+01  0.13835870047E+00 -0.44077955363E+02  0.46142317302E+02  0.99999958155E+01 0.  0.
        -12    1    1    2    0    0  0.92859160904E+01 -0.13835870047E+00  0.44077955363E+02  0.45045682698E+02  0.00000000000E+00 0.  1.
         11    1    3    3    0    0 -0.58600587139E+01 -0.22831679091E+01 -0.11758543220E+02  0.13334784691E+02  0.51100000000E-03 0. -1.
        -11    1    3    3    0    0 -0.37541740714E+01  0.26679544044E+01 -0.21852198517E+02  0.22332272253E+02  0.51100000000E-03 0.  1.
        -12    1    3    3    0    0  0.32831669491E+00 -0.24642779489E+00 -0.10467213625E+02  0.10475260359E+02  0.00000000000E+00 0.  1.
</event>
<event>
 7    1  0.1543346E-008  0.4614232E+02  0.7816164E-02  0.1320468E+00
        -11   -1    0    0    0    0  0.00000000000E+00  0.00000000000E+00  0.45593999997E+02  0.45594000000E+02  0.51100000000E-03 0.  1.
         11   -1    0    0    0    0 -0.00000000000E+00 -0.00000000000E+00 -0.45593999997E+02  0.45594000000E+02  0.51100000000E-03 0. -1.
    9900012    2    1    2    0    0 -0.26907266871E+02  0.32826245887E+02 -0.15084765540E+02  0.46142316734E+02  0.99999906321E+01 0.  0.
        -12    1    1    2    0    0  0.26907266871E+02 -0.32826245887E+02  0.15084765540E+02  0.45045683266E+02  0.00000000000E+00 0.  1.
         11    1    3    3    0    0 -0.24391214108E+02  0.28681511642E+02 -0.11134222736E+02  0.39262340123E+02  0.51100000000E-03 0. -1.
        -11    1    3    3    0    0 -0.14393781532E+01  0.38308818056E+01 -0.40455524082E+01  0.57544729929E+01  0.51100000000E-03 0.  1.
         12    1    3    3    0    0 -0.10766746100E+01  0.31385243941E+00  0.95009603674E-01  0.11255036181E+01  0.00000000000E+00 0. -1.
</event>
<event>
 7    1  0.1543346E-008  0.4614232E+02  0.7816164E-02  0.1320468E+00
        -11   -1    0    0    0    0  0.00000000000E+00  0.00000000000E+00  0.45593999997E+02  0.45594000000E+02  0.51100000000E-03 0.  1.
         11   -1    0    0    0    0 -0.00000000000E+00 -0.00000000000E+00 -0.45593999997E+02  0.45594000000E+02  0.51100000000E-03 0. -1.
    9900012    2    1    2    0    0  0.19774473064E+02 -0.12018469898E+02 -0.38647640051E+02  0.46142317796E+02  0.10000000322E+02 0.  0.
        -12    1    1    2    0    0 -0.19774473064E+02  0.12018469898E+02  0.38647640051E+02  0.45045682204E+02  0.00000000000E+00 0.  1.
         11    1    3    3    0    0  0.78419968780E+01 -0.92840721264E+01 -0.15109361262E+02  0.19390299334E+02  0.51100000000E-03 0. -1.
        -11    1    3    3    0    0  0.71926239081E+01 -0.51484063761E+00 -0.10861394716E+02  0.13037208099E+02  0.51100000000E-03 0.  1.
        -12    1    3    3    0    0  0.47398522776E+01 -0.22195571344E+01 -0.12676884074E+02  0.13714810363E+02  0.00000000000E+00 0.  1.
</event>
<event>
 7    1  0.1543346E-008  0.4614231E+02  0.7816164E-02  0.1320468E+00
        -11   -1    0    0    0    0  0.00000000000E+00  0.00000000000E+00  0.45593999997E+02  0.45594000000E+02  0.51100000000E-03 0. -1.
         11   -1    0    0    0    0 -0.00000000000E+00 -0.00000000000E+00 -0.45593999997E+02  0.45594000000E+02  0.51100000000E-03 0.  1.
    9900012    2    1    2    0    0  0.18071098274E+02  0.14423983011E+02  0.38658737088E+02  0.46142313947E+02  0.99999652209E+01 0.  0.
        -12    1    1    2    0    0 -0.18071098274E+02 -0.14423983011E+02 -0.38658737088E+02  0.45045686053E+02  0.00000000000E+00 0.  1.
         11    1    3    3    0    0  0.18395321046E+01  0.35374372908E+01  0.68430045468E+01  0.79198517940E+01  0.51100000000E-03 0. -1.
        -11    1    3    3    0    0  0.94250362939E+01  0.15695207728E+01  0.16173084099E+02  0.18784657413E+02  0.51100000000E-03 0.  1.
        -12    1    3    3    0    0  0.68065298758E+01  0.93170249478E+01  0.15642648442E+02  0.19437804740E+02  0.00000000000E+00 0.  1.
</event>
<event>
 7    1  0.1543346E-008  0.4614232E+02  0.7816164E-02  0.1320468E+00
        -11   -1    0    0    0    0  0.00000000000E+00  0.00000000000E+00  0.45593999997E+02  0.45594000000E+02  0.51100000000E-03 0. -1.
         11   -1    0    0    0    0 -0.00000000000E+00 -0.00000000000E+00 -0.45593999997E+02  0.45594000000E+02  0.51100000000E-03 0.  1.
    9900012    2    1    2    0    0 -0.40295650867E+00  0.16190280654E+02  0.42033628198E+02  0.46142318064E+02  0.10000002759E+02 0.  0.
        -12    1    1    2    0    0  0.40295650867E+00 -0.16190280654E+02 -0.42033628198E+02  0.45045681936E+02  0.00000000000E+00 0.  1.
         11    1    3    3    0    0 -0.72337506302E+00  0.11525859908E+02  0.20030868738E+02  0.23121514240E+02  0.51100000000E-03 0. -1.
        -11    1    3    3    0    0 -0.11054317833E+01  0.21881345253E+00  0.10038495152E+01  0.15091629683E+01  0.51100000000E-03 0.  1.
         12    1    3    3    0    0  0.14258503376E+01  0.44456072928E+01  0.20998909946E+02  0.21511640855E+02  0.00000000000E+00 0. -1.
</event>
<event>
 7    1  0.1543346E-008  0.4614232E+02  0.7816164E-02  0.1320468E+00
        -11   -1    0    0    0    0  0.00000000000E+00  0.00000000000E+00  0.45593999997E+02  0.45594000000E+02  0.51100000000E-03 0.  1.
         11   -1    0    0    0    0 -0.00000000000E+00 -0.00000000000E+00 -0.45593999997E+02  0.45594000000E+02  0.51100000000E-03 0. -1.
    9900012    2    1    2    0    0  0.19816571897E+02 -0.39837763855E+02 -0.70263454928E+01  0.46142317835E+02  0.10000000673E+02 0.  0.
        -12    1    1    2    0    0 -0.19816571897E+02  0.39837763855E+02  0.70263454928E+01  0.45045682165E+02  0.00000000000E+00 0.  1.
         11    1    3    3    0    0  0.86112956913E+01 -0.12611048104E+02 -0.62027472540E+01  0.16482324518E+02  0.51100000000E-03 0. -1.
        -11    1    3    3    0    0  0.66519705370E+01 -0.20267021129E+02 -0.48530183442E+00  0.21336269018E+02  0.51100000000E-03 0.  1.
         12    1    3    3    0    0  0.45533056687E+01 -0.69596946218E+01 -0.33829640437E+00  0.83237242985E+01  0.00000000000E+00 0. -1.
</event>
<event>
 7    1  0.1543346E-008  0.4614232E+02  0.7816164E-02  0.1320468E+00
        -11   -1    0    0    0    0  0.00000000000E+00  0.00000000000E+00  0.45593999997E+02  0.45594000000E+02  0.51100000000E-03 0.  1.
         11   -1    0    0    0    0 -0.00000000000E+00 -0.00000000000E+00 -0.45593999997E+02  0.45594000000E+02  0.51100000000E-03 0. -1.
    9900012    2    1    2    0    0 -0.26068219448E+01 -0.13912838252E+02 -0.42763894256E+02  0.46142320509E+02  0.10000025055E+02 0.  0.
        -12    1    1    2    0    0  0.26068219448E+01  0.13912838252E+02  0.42763894256E+02  0.45045679491E+02  0.00000000000E+00 0.  1.
         11    1    3    3    0    0 -0.46141199927E+01 -0.84837043822E+01 -0.31743275484E+02  0.33179796293E+02  0.51100000000E-03 0. -1.
        -11    1    3    3    0    0  0.16717062226E+01 -0.27765067781E+01 -0.91291436255E+01  0.96873554276E+01  0.51100000000E-03 0.  1.
         12    1    3    3    0    0  0.33559182530E+00 -0.26526270913E+01 -0.18914751471E+01  0.32751687881E+01  0.00000000000E+00 0. -1.
</event>
<event>
 7    1  0.1543346E-008  0.4614232E+02  0.7816164E-02  0.1320468E+00
        -11   -1    0    0    0    0  0.00000000000E+00  0.00000000000E+00  0.45593999997E+02  0.45594000000E+02  0.51100000000E-03 0.  1.
         11   -1    0    0    0    0 -0.00000000000E+00 -0.00000000000E+00 -0.45593999997E+02  0.45594000000E+02  0.51100000000E-03 0. -1.
    9900012    2    1    2    0    0 -0.48078330524E+01 -0.66183629991E+01 -0.44296676786E+02  0.46142316947E+02  0.99999925747E+01 0.  0.
        -12    1    1    2    0    0  0.48078330524E+01  0.66183629991E+01  0.44296676786E+02  0.45045683053E+02  0.00000000000E+00 0.  1.
         11    1    3    3    0    0 -0.24845006417E+01 -0.26853061659E+01 -0.17153326812E+02  0.17539105839E+02  0.51100000000E-03 0. -1.
        -11    1    3    3    0    0 -0.34962119094E+01 -0.57821599103E+01 -0.21967920125E+02  0.22983611245E+02  0.51100000000E-03 0.  1.
        -12    1    3    3    0    0  0.11728794988E+01  0.18491030771E+01 -0.51754298483E+01  0.56195998633E+01  0.00000000000E+00 0.  1.
</event>
<event>
 7    1  0.1543346E-008  0.4614232E+02  0.7816164E-02  0.1320468E+00
        -11   -1    0    0    0    0  0.00000000000E+00  0.00000000000E+00  0.45593999997E+02  0.45594000000E+02  0.51100000000E-03 0. -1.
         11   -1    0    0    0    0 -0.00000000000E+00 -0.00000000000E+00 -0.45593999997E+02  0.45594000000E+02  0.51100000000E-03 0.  1.
    9900012    2    1    2    0    0  0.19021799125E+02 -0.36481453947E+02  0.18340892465E+02  0.46142315851E+02  0.99999825812E+01 0.  0.
        -12    1    1    2    0    0 -0.19021799125E+02  0.36481453947E+02 -0.18340892465E+02  0.45045684149E+02  0.00000000000E+00 0.  1.
         11    1    3    3    0    0  0.13262226424E+02 -0.27767506015E+02  0.11357510568E+02  0.32801129349E+02  0.51100000000E-03 0. -1.
        -11    1    3    3    0    0  0.27260053424E+01 -0.26700098235E+01  0.29074792415E+00  0.38268253424E+01  0.51100000000E-03 0.  1.
         12    1    3    3    0    0  0.30335673588E+01 -0.60439381086E+01  0.66926339725E+01  0.95143611594E+01  0.00000000000E+00 0. -1.
</event>
<event>
 7    1  0.1543346E-008  0.4614232E+02  0.7816164E-02  0.1320468E+00
        -11   -1    0    0    0    0  0.00000000000E+00  0.00000000000E+00  0.45593999997E+02  0.45594000000E+02  0.51100000000E-03 0.  1.
         11   -1    0    0    0    0 -0.00000000000E+00 -0.00000000000E+00 -0.45593999997E+02  0.45594000000E+02  0.51100000000E-03 0. -1.
    9900012    2    1    2    0    0 -0.37177330212E+01  0.42330863948E+02 -0.14946231828E+02  0.46142318440E+02  0.10000006188E+02 0.  0.
        -12    1    1    2    0    0  0.37177330212E+01 -0.42330863948E+02  0.14946231828E+02  0.45045681560E+02  0.00000000000E+00 0.  1.
         11    1    3    3    0    0 -0.22650837571E+01  0.20667214316E+02 -0.87665754502E+01  0.22563625537E+02  0.51100000000E-03 0. -1.
        -11    1    3    3    0    0 -0.79080821531E+00  0.15752611903E+02 -0.11940314024E+01  0.15817581062E+02  0.51100000000E-03 0.  1.
        -12    1    3    3    0    0 -0.66184104879E+00  0.59110377284E+01 -0.49856249750E+01  0.77611118399E+01  0.00000000000E+00 0.  1.
</event>
<event>
 7    1  0.1543346E-008  0.4614232E+02  0.7816164E-02  0.1320468E+00
        -11   -1    0    0    0    0  0.00000000000E+00  0.00000000000E+00  0.45593999997E+02  0.45594000000E+02  0.51100000000E-03 0.  1.
         11   -1    0    0    0    0 -0.00000000000E+00 -0.00000000000E+00 -0.45593999997E+02  0.45594000000E+02  0.51100000000E-03 0. -1.
    9900012    2    1    2    0    0  0.27141290460E+02 -0.63657203143E+01 -0.35382784730E+02  0.46142317652E+02  0.99999990022E+01 0.  0.
        -12    1    1    2    0    0 -0.27141290460E+02  0.63657203143E+01  0.35382784730E+02  0.45045682348E+02  0.00000000000E+00 0.  1.
         11    1    3    3    0    0  0.14612366011E+02 -0.15958664577E+01 -0.21213107929E+02  0.25808215329E+02  0.51100000000E-03 0. -1.
        -11    1    3    3    0    0  0.99686826328E+00  0.11104117544E+01 -0.68549567019E+00  0.16421526036E+01  0.51100000000E-03 0.  1.
        -12    1    3    3    0    0  0.11532056186E+02 -0.58802656111E+01 -0.13484181130E+02  0.18691949719E+02  0.00000000000E+00 0.  1.
</event>
<event>
 7    1  0.1543346E-008  0.4614232E+02  0.7816164E-02  0.1320468E+00
        -11   -1    0    0    0    0  0.00000000000E+00  0.00000000000E+00  0.45593999997E+02  0.45594000000E+02  0.51100000000E-03 0.  1.
         11   -1    0    0    0    0 -0.00000000000E+00 -0.00000000000E+00 -0.45593999997E+02  0.45594000000E+02  0.51100000000E-03 0. -1.
    9900012    2    1    2    0    0  0.27851805615E+02  0.21248745296E+02 -0.28317507259E+02  0.46142317965E+02  0.10000001856E+02 0.  0.
        -12    1    1    2    0    0 -0.27851805615E+02 -0.21248745296E+02  0.28317507259E+02  0.45045682035E+02  0.00000000000E+00 0.  1.
         11    1    3    3    0    0  0.14403624677E+02  0.79753421760E+01 -0.92411717067E+01  0.18880406284E+02  0.51100000000E-03 0. -1.
        -11    1    3    3    0    0 -0.80290910237E-01  0.12246324305E+01 -0.53292951051E+00  0.13379780807E+01  0.51100000000E-03 0.  1.
         12    1    3    3    0    0  0.13528471848E+02  0.12048770689E+02 -0.18543406042E+02  0.25923933600E+02  0.00000000000E+00 0. -1.
</event>
<event>
 7    1  0.1543346E-008  0.4614232E+02  0.7816164E-02  0.1320468E+00
        -11   -1    0    0    0    0  0.00000000000E+00  0.00000000000E+00  0.45593999997E+02  0.45594000000E+02  0.51100000000E-03 0.  1.
         11   -1    0    0    0    0 -0.00000000000E+00 -0.00000000000E+00 -0.45593999997E+02  0.45594000000E+02  0.51100000000E-03 0. -1.
    9900012    2    1    2    0    0 -0.80017788755E+01 -0.96553954529E+01 -0.43264979199E+02  0.46142317059E+02  0.99999935983E+01 0.  0.
        -12    1    1    2    0    0  0.80017788755E+01  0.96553954529E+01  0.43264979199E+02  0.45045682941E+02  0.00000000000E+00 0.  1.
         11    1    3    3    0    0 -0.66797031538E+01 -0.44720182682E+01 -0.25565334843E+02  0.26799323266E+02  0.51100000000E-03 0. -1.
        -11    1    3    3    0    0 -0.32171258375E+01 -0.47534381156E+01 -0.11619167892E+02  0.12959557683E+02  0.51100000000E-03 0.  1.
        -12    1    3    3    0    0  0.18950501159E+01 -0.42993906912E+00 -0.60804764634E+01  0.63834361097E+01  0.00000000000E+00 0.  1.
</event>
<event>
 7    1  0.1543346E-008  0.4614232E+02  0.7816164E-02  0.1320468E+00
        -11   -1    0    0    0    0  0.00000000000E+00  0.00000000000E+00  0.45593999997E+02  0.45594000000E+02  0.51100000000E-03 0.  1.
         11   -1    0    0    0    0 -0.00000000000E+00 -0.00000000000E+00 -0.45593999997E+02  0.45594000000E+02  0.51100000000E-03 0. -1.
    9900012    2    1    2    0    0 -0.30041885905E+02  0.28148056068E+02 -0.18283478118E+02  0.46142317175E+02  0.99999946514E+01 0.  0.
        -12    1    1    2    0    0  0.30041885905E+02 -0.28148056068E+02  0.18283478118E+02  0.45045682825E+02  0.00000000000E+00 0.  1.
         11    1    3    3    0    0 -0.35621352944E+01  0.56206383845E+00 -0.57153312986E+00  0.36512154132E+01  0.51100000000E-03 0. -1.
        -11    1    3    3    0    0 -0.14495411031E+02  0.11384008707E+02 -0.75002324490E+01  0.19898896508E+02  0.51100000000E-03 0.  1.
         12    1    3    3    0    0 -0.11984339580E+02  0.16201983523E+02 -0.10211712539E+02  0.22592205253E+02  0.00000000000E+00 0. -1.
</event>
<event>
 7    1  0.1543346E-008  0.4614231E+02  0.7816164E-02  0.1320468E+00
        -11   -1    0    0    0    0  0.00000000000E+00  0.00000000000E+00  0.45593999997E+02  0.45594000000E+02  0.51100000000E-03 0.  1.
         11   -1    0    0    0    0 -0.00000000000E+00 -0.00000000000E+00 -0.45593999997E+02  0.45594000000E+02  0.51100000000E-03 0. -1.
    9900012    2    1    2    0    0  0.27805195053E+02 -0.33289532168E+02 -0.12156981618E+02  0.46142311794E+02  0.99999455831E+01 0.  0.
        -12    1    1    2    0    0 -0.27805195053E+02  0.33289532168E+02  0.12156981618E+02  0.45045688206E+02  0.00000000000E+00 0.  1.
         11    1    3    3    0    0  0.46085283965E+00  0.58324931667E+00 -0.33940201473E+00  0.81716527945E+00  0.51100000000E-03 0.  1.
        -11    1    3    3    0    0  0.79658278185E+01 -0.73597459268E+01 -0.40679792269E+01  0.11583122558E+02  0.51100000000E-03 0. -1.
         12    1    3    3    0    0  0.19378514395E+02 -0.26513035558E+02 -0.77496003765E+01  0.33742023956E+02  0.00000000000E+00 0. -1.
</event>
<event>
 7    1  0.1543346E-008  0.4614232E+02  0.7816164E-02  0.1320468E+00
        -11   -1    0    0    0    0  0.00000000000E+00  0.00000000000E+00  0.45593999997E+02  0.45594000000E+02  0.51100000000E-03 0.  1.
         11   -1    0    0    0    0 -0.00000000000E+00 -0.00000000000E+00 -0.45593999997E+02  0.45594000000E+02  0.51100000000E-03 0. -1.
    9900012    2    1    2    0    0 -0.32481972236E+02  0.10825150504E+02 -0.29272018109E+02  0.46142318210E+02  0.10000004094E+02 0.  0.
        -12    1    1    2    0    0  0.32481972236E+02 -0.10825150504E+02  0.29272018109E+02  0.45045681790E+02  0.00000000000E+00 0.  1.
         11    1    3    3    0    0 -0.30758580880E+02  0.11227206766E+02 -0.26585752090E+02  0.42177513962E+02  0.51100000000E-03 0. -1.
        -11    1    3    3    0    0 -0.13901161525E+01 -0.13225935490E+01 -0.19832940059E+01  0.27595528602E+01  0.51100000000E-03 0.  1.
        -12    1    3    3    0    0 -0.33327520318E+00  0.92053728711E+00 -0.70297201233E+00  0.12052513879E+01  0.00000000000E+00 0.  1.
</event>
<event>
 7    1  0.1543346E-008  0.4614232E+02  0.7816164E-02  0.1320468E+00
        -11   -1    0    0    0    0  0.00000000000E+00  0.00000000000E+00  0.45593999997E+02  0.45594000000E+02  0.51100000000E-03 0. -1.
         11   -1    0    0    0    0 -0.00000000000E+00 -0.00000000000E+00 -0.45593999997E+02  0.45594000000E+02  0.51100000000E-03 0.  1.
    9900012    2    1    2    0    0 -0.41523314082E+02 -0.16399834095E+02 -0.59977907551E+01  0.46142315804E+02  0.99999821566E+01 0.  0.
        -12    1    1    2    0    0  0.41523314082E+02  0.16399834095E+02  0.59977907551E+01  0.45045684196E+02  0.00000000000E+00 0.  1.
         11    1    3    3    0    0 -0.18296092396E+02 -0.75980863785E+01 -0.37688327359E+01  0.20166358472E+02  0.51100000000E-03 0. -1.
        -11    1    3    3    0    0 -0.53551418527E+01 -0.54410937645E+01  0.14935116169E+00  0.76357941071E+01  0.51100000000E-03 0.  1.
        -12    1    3    3    0    0 -0.17872079834E+02 -0.33606539525E+01 -0.23783091809E+01  0.18340163225E+02  0.00000000000E+00 0.  1.
</event>
<event>
 7    1  0.1543346E-008  0.4614232E+02  0.7816164E-02  0.1320468E+00
        -11   -1    0    0    0    0  0.00000000000E+00  0.00000000000E+00  0.45593999997E+02  0.45594000000E+02  0.51100000000E-03 0. -1.
         11   -1    0    0    0    0 -0.00000000000E+00 -0.00000000000E+00 -0.45593999997E+02  0.45594000000E+02  0.51100000000E-03 0.  1.
    9900012    2    1    2    0    0  0.26674617792E+02 -0.32310424374E+02  0.16541304017E+02  0.46142317675E+02  0.99999992124E+01 0.  0.
        -12    1    1    2    0    0 -0.26674617792E+02  0.32310424374E+02 -0.16541304017E+02  0.45045682325E+02  0.00000000000E+00 0.  1.
         11    1    3    3    0    0  0.41679695262E+01 -0.60618399961E+01  0.99266750175E+00  0.74231572218E+01  0.51100000000E-03 0. -1.
        -11    1    3    3    0    0  0.81363109772E+01 -0.13754182223E+02  0.40925971843E+01  0.16496255239E+02  0.51100000000E-03 0.  1.
         12    1    3    3    0    0  0.14370337288E+02 -0.12494402155E+02  0.11456039331E+02  0.22222905214E+02  0.00000000000E+00 0. -1.
</event>
<event>
 7    1  0.1543346E-008  0.4614232E+02  0.7816164E-02  0.1320468E+00
        -11   -1    0    0    0    0  0.00000000000E+00  0.00000000000E+00  0.45593999997E+02  0.45594000000E+02  0.51100000000E-03 0.  1.
         11   -1    0    0    0    0 -0.00000000000E+00 -0.00000000000E+00 -0.45593999997E+02  0.45594000000E+02  0.51100000000E-03 0. -1.
    9900012    2    1    2    0    0  0.14165125139E+02  0.13541251959E+02 -0.40559798987E+02  0.46142316870E+02  0.99999918715E+01 0.  0.
        -12    1    1    2    0    0 -0.14165125139E+02 -0.13541251959E+02  0.40559798987E+02  0.45045683130E+02  0.00000000000E+00 0.  1.
         11    1    3    3    0    0  0.59159379092E+01  0.24005617909E+01 -0.13262757841E+02  0.14719434910E+02  0.51100000000E-03 0. -1.
        -11    1    3    3    0    0  0.99578861038E+00  0.87068518419E+00 -0.97326522554E+01  0.98221284777E+01  0.51100000000E-03 0.  1.
         12    1    3    3    0    0  0.72533986193E+01  0.10270004984E+02 -0.17564388891E+02  0.21600753482E+02  0.00000000000E+00 0. -1.
</event>
<event>
 7    1  0.1543346E-008  0.4614231E+02  0.7816164E-02  0.1320468E+00
        -11   -1    0    0    0    0  0.00000000000E+00  0.00000000000E+00  0.45593999997E+02  0.45594000000E+02  0.51100000000E-03 0.  1.
         11   -1    0    0    0    0 -0.00000000000E+00 -0.00000000000E+00 -0.45593999997E+02  0.45594000000E+02  0.51100000000E-03 0. -1.
    9900012    2    1    2    0    0 -0.39849496787E+02  0.65735584555E+01 -0.19947924108E+02  0.46142314955E+02  0.99999744089E+01 0.  0.
        -12    1    1    2    0    0  0.39849496787E+02 -0.65735584555E+01  0.19947924108E+02  0.45045685045E+02  0.00000000000E+00 0.  1.
         11    1    3    3    0    0 -0.12475671034E+02  0.40943975573E+01 -0.65235688666E+01  0.14661630541E+02  0.51100000000E-03 0. -1.
        -11    1    3    3    0    0 -0.13170232420E+01 -0.10222000746E+01  0.48596600477E+00  0.17365501522E+01  0.51100000000E-03 0.  1.
         12    1    3    3    0    0 -0.26056802511E+02  0.35013609728E+01 -0.13910321246E+02  0.29744134261E+02  0.00000000000E+00 0. -1.
</event>
<event>
 7    1  0.1543346E-008  0.4614232E+02  0.7816164E-02  0.1320468E+00
        -11   -1    0    0    0    0  0.00000000000E+00  0.00000000000E+00  0.45593999997E+02  0.45594000000E+02  0.51100000000E-03 0. -1.
         11   -1    0    0    0    0 -0.00000000000E+00 -0.00000000000E+00 -0.45593999997E+02  0.45594000000E+02  0.51100000000E-03 0.  1.
    9900012    2    1    2    0    0  0.48520942628E+01  0.31394722208E+02  0.31936532635E+02  0.46142317432E+02  0.99999969995E+01 0.  0.
        -12    1    1    2    0    0 -0.48520942628E+01 -0.31394722208E+02 -0.31936532635E+02  0.45045682568E+02  0.00000000000E+00 0.  1.
         11    1    3    3    0    0  0.59552671813E+01  0.15454857265E+02  0.12051700913E+02  0.20483195928E+02  0.51100000000E-03 0. -1.
        -11    1    3    3    0    0 -0.88887253905E+00  0.28789926320E+01  0.25094796782E+01  0.39212474396E+01  0.51100000000E-03 0.  1.
         12    1    3    3    0    0 -0.21430037941E+00  0.13060872311E+02  0.17375352044E+02  0.21737874064E+02  0.00000000000E+00 0. -1.
</event>
<event>
 7    1  0.1543346E-008  0.4614232E+02  0.7816164E-02  0.1320468E+00
        -11   -1    0    0    0    0  0.00000000000E+00  0.00000000000E+00  0.45593999997E+02  0.45594000000E+02  0.51100000000E-03 0. -1.
         11   -1    0    0    0    0 -0.00000000000E+00 -0.00000000000E+00 -0.45593999997E+02  0.45594000000E+02  0.51100000000E-03 0.  1.
    9900012    2    1    2    0    0  0.11123413885E+02  0.17959782850E+02 -0.39784788407E+02  0.46142317353E+02  0.99999962824E+01 0.  0.
        -12    1    1    2    0    0 -0.11123413885E+02 -0.17959782850E+02  0.39784788407E+02  0.45045682647E+02  0.00000000000E+00 0.  1.
         11    1    3    3    0    0  0.85971649106E+01  0.16142106938E+02 -0.30815550987E+02  0.35834020760E+02  0.51100000000E-03 0. -1.
        -11    1    3    3    0    0  0.33025982905E+01  0.35361268932E+00 -0.49528623398E+01  0.59634757500E+01  0.51100000000E-03 0.  1.
         12    1    3    3    0    0 -0.77634931570E+00  0.14640632236E+01 -0.40163750800E+01  0.43448208439E+01  0.00000000000E+00 0. -1.
</event>
<event>
 7    1  0.1543346E-008  0.4614232E+02  0.7816164E-02  0.1320468E+00
        -11   -1    0    0    0    0  0.00000000000E+00  0.00000000000E+00  0.45593999997E+02  0.45594000000E+02  0.51100000000E-03 0.  1.
         11   -1    0    0    0    0 -0.00000000000E+00 -0.00000000000E+00 -0.45593999997E+02  0.45594000000E+02  0.51100000000E-03 0. -1.
    9900012    2    1    2    0    0  0.16874532051E+02 -0.23753576069E+02 -0.34353035984E+02  0.46142319971E+02  0.10000020149E+02 0.  0.
        -12    1    1    2    0    0 -0.16874532051E+02  0.23753576069E+02  0.34353035984E+02  0.45045680029E+02  0.00000000000E+00 0.  1.
         11    1    3    3    0    0  0.10383958531E+02 -0.10317380865E+02 -0.15018920264E+02  0.20972432116E+02  0.51100000000E-03 0. -1.
        -11    1    3    3    0    0  0.26257242744E+00 -0.71090075519E+01 -0.70699825301E+01  0.10029535677E+02  0.51100000000E-03 0.  1.
        -12    1    3    3    0    0  0.62280010926E+01 -0.63271876521E+01 -0.12264133189E+02  0.15140352178E+02  0.00000000000E+00 0.  1.
</event>
<event>
 7    1  0.1543346E-008  0.4614232E+02  0.7816164E-02  0.1320468E+00
        -11   -1    0    0    0    0  0.00000000000E+00  0.00000000000E+00  0.45593999997E+02  0.45594000000E+02  0.51100000000E-03 0. -1.
         11   -1    0    0    0    0 -0.00000000000E+00 -0.00000000000E+00 -0.45593999997E+02  0.45594000000E+02  0.51100000000E-03 0.  1.
    9900012    2    1    2    0    0  0.14825937222E+02 -0.32300258994E+02 -0.27676673609E+02  0.46142318657E+02  0.10000008174E+02 0.  0.
        -12    1    1    2    0    0 -0.14825937222E+02  0.32300258994E+02  0.27676673609E+02  0.45045681343E+02  0.00000000000E+00 0.  1.
         11    1    3    3    0    0  0.11454385513E+02 -0.24575247528E+02 -0.20050843457E+02  0.33722130154E+02  0.51100000000E-03 0. -1.
        -11    1    3    3    0    0 -0.60204035438E+00 -0.47959015865E+01 -0.32607861624E+01  0.58305961336E+01  0.51100000000E-03 0.  1.
         12    1    3    3    0    0  0.39735920630E+01 -0.29291098795E+01 -0.43650439895E+01  0.65895923698E+01  0.00000000000E+00 0. -1.
</event>
<event>
 7    1  0.1543346E-008  0.4614232E+02  0.7816164E-02  0.1320468E+00
        -11   -1    0    0    0    0  0.00000000000E+00  0.00000000000E+00  0.45593999997E+02  0.45594000000E+02  0.51100000000E-03 0.  1.
         11   -1    0    0    0    0 -0.00000000000E+00 -0.00000000000E+00 -0.45593999997E+02  0.45594000000E+02  0.51100000000E-03 0. -1.
    9900012    2    1    2    0    0 -0.54546749760E+00  0.65692074629E+01 -0.44560759853E+02  0.46142319407E+02  0.10000015005E+02 0.  0.
        -12    1    1    2    0    0  0.54546749760E+00 -0.65692074629E+01  0.44560759853E+02  0.45045680593E+02  0.00000000000E+00 0.  1.
         11    1    3    3    0    0  0.27235089998E+01 -0.62923768761E+00 -0.55114088118E+01  0.61797304708E+01  0.51100000000E-03 0. -1.
        -11    1    3    3    0    0 -0.20112085607E+01  0.13279716158E+01 -0.88530094561E+01  0.91751972828E+01  0.51100000000E-03 0.  1.
         12    1    3    3    0    0 -0.12577679367E+01  0.58704735347E+01 -0.30196341585E+02  0.30787391653E+02  0.00000000000E+00 0. -1.
</event>
<event>
 7    1  0.1543346E-008  0.4614232E+02  0.7816164E-02  0.1320468E+00
        -11   -1    0    0    0    0  0.00000000000E+00  0.00000000000E+00  0.45593999997E+02  0.45594000000E+02  0.51100000000E-03 0. -1.
         11   -1    0    0    0    0 -0.00000000000E+00 -0.00000000000E+00 -0.45593999997E+02  0.45594000000E+02  0.51100000000E-03 0.  1.
    9900012    2    1    2    0    0 -0.41258762270E+02  0.17249553551E+02  0.54111831587E+01  0.46142318022E+02  0.10000002375E+02 0.  0.
        -12    1    1    2    0    0  0.41258762270E+02 -0.17249553551E+02 -0.54111831587E+01  0.45045681978E+02  0.00000000000E+00 0.  1.
         11    1    3    3    0    0 -0.33737998641E+01  0.36684048209E+01 -0.15041269056E+00  0.49862153676E+01  0.51100000000E-03 0. -1.
        -11    1    3    3    0    0 -0.10172740130E+02  0.81168401433E+00  0.23720677095E+01  0.10477126428E+02  0.51100000000E-03 0.  1.
         12    1    3    3    0    0 -0.27712222275E+02  0.12769464715E+02  0.31895281398E+01  0.30678976226E+02  0.00000000000E+00 0. -1.
</event>
<event>
 7    1  0.1543346E-008  0.4614232E+02  0.7816164E-02  0.1320468E+00
        -11   -1    0    0    0    0  0.00000000000E+00  0.00000000000E+00  0.45593999997E+02  0.45594000000E+02  0.51100000000E-03 0. -1.
         11   -1    0    0    0    0 -0.00000000000E+00 -0.00000000000E+00 -0.45593999997E+02  0.45594000000E+02  0.51100000000E-03 0.  1.
    9900012    2    1    2    0    0 -0.36047143474E+02  0.17785733586E+02 -0.20331864314E+02  0.46142316763E+02  0.99999908963E+01 0.  0.
        -12    1    1    2    0    0  0.36047143474E+02 -0.17785733586E+02  0.20331864314E+02  0.45045683237E+02  0.00000000000E+00 0.  1.
         11    1    3    3    0    0 -0.20519593747E+02  0.78586295282E+01 -0.60166165079E+01  0.22781823019E+02  0.51100000000E-03 0. -1.
        -11    1    3    3    0    0 -0.69073663171E+01  0.37911925691E+01 -0.61320731360E+01  0.99843463352E+01  0.51100000000E-03 0.  1.
         12    1    3    3    0    0 -0.86201834099E+01  0.61359114885E+01 -0.81831746697E+01  0.13376147408E+02  0.00000000000E+00 0. -1.
</event>
<event>
 7    1  0.1578750E-008  0.4614231E+02  0.7816164E-02  0.1320468E+00
        -11   -1    0    0    0    0  0.00000000000E+00  0.00000000000E+00  0.45593999997E+02  0.45594000000E+02  0.51100000000E-03 0. -1.
         11   -1    0    0    0    0 -0.00000000000E+00 -0.00000000000E+00 -0.45593999997E+02  0.45594000000E+02  0.51100000000E-03 0.  1.
    9900012    2    1    2    0    0 -0.32038030384E+02 -0.24238787375E+02  0.20375467341E+02  0.46142313485E+02  0.99999610041E+01 0.  0.
        -12    1    1    2    0    0  0.32038030384E+02  0.24238787375E+02 -0.20375467341E+02  0.45045686515E+02  0.00000000000E+00 0.  1.
         11    1    3    3    0    0 -0.26197849693E+02 -0.17715677336E+02  0.18062898654E+02  0.36420335804E+02  0.51100000000E-03 0. -1.
        -11    1    3    3    0    0 -0.68826109653E+00 -0.32199530490E+01  0.43969570801E+00  0.33219171500E+01  0.51100000000E-03 0.  1.
         12    1    3    3    0    0 -0.51519195937E+01 -0.33031569902E+01  0.18728729788E+01  0.64000605307E+01  0.00000000000E+00 0. -1.
</event>
<event>
 7    1  0.1543346E-008  0.4614232E+02  0.7816164E-02  0.1320468E+00
        -11   -1    0    0    0    0  0.00000000000E+00  0.00000000000E+00  0.45593999997E+02  0.45594000000E+02  0.51100000000E-03 0.  1.
         11   -1    0    0    0    0 -0.00000000000E+00 -0.00000000000E+00 -0.45593999997E+02  0.45594000000E+02  0.51100000000E-03 0. -1.
    9900012    2    1    2    0    0  0.32195074626E+02 -0.21789085428E+02 -0.22755801584E+02  0.46142316747E+02  0.99999907569E+01 0.  0.
        -12    1    1    2    0    0 -0.32195074626E+02  0.21789085428E+02  0.22755801584E+02  0.45045683253E+02  0.00000000000E+00 0.  1.
         11    1    3    3    0    0  0.45144755272E+01 -0.48550193335E+01 -0.76980091969E+01  0.10159283827E+02  0.51100000000E-03 0. -1.
        -11    1    3    3    0    0  0.14111967987E+02 -0.66818408224E+01 -0.61142699987E+01  0.16768390952E+02  0.51100000000E-03 0.  1.
         12    1    3    3    0    0  0.13568631111E+02 -0.10252225272E+02 -0.89435223887E+01  0.19214641969E+02  0.00000000000E+00 0. -1.
</event>
<event>
 7    1  0.1543346E-008  0.4614232E+02  0.7816164E-02  0.1320468E+00
        -11   -1    0    0    0    0  0.00000000000E+00  0.00000000000E+00  0.45593999997E+02  0.45594000000E+02  0.51100000000E-03 0. -1.
         11   -1    0    0    0    0 -0.00000000000E+00 -0.00000000000E+00 -0.45593999997E+02  0.45594000000E+02  0.51100000000E-03 0.  1.
    9900012    2    1    2    0    0  0.27159554943E+02 -0.24723842018E+02  0.26080713553E+02  0.46142318650E+02  0.10000008103E+02 0.  0.
        -12    1    1    2    0    0 -0.27159554943E+02  0.24723842018E+02 -0.26080713553E+02  0.45045681350E+02  0.00000000000E+00 0.  1.
         11    1    3    3    0    0  0.94256939758E+01 -0.80707196424E+01  0.11881375625E+02  0.17179851846E+02  0.51100000000E-03 0. -1.
        -11    1    3    3    0    0  0.15292419645E+02 -0.16691128266E+02  0.11754989309E+02  0.25507481947E+02  0.51100000000E-03 0.  1.
        -12    1    3    3    0    0  0.24414413223E+01  0.38005889895E-01  0.24443486200E+01  0.34549848558E+01  0.00000000000E+00 0.  1.
</event>
<event>
 7    1  0.2494886E-008  0.4614232E+02  0.7816164E-02  0.1320468E+00
        -11   -1    0    0    0    0  0.00000000000E+00  0.00000000000E+00  0.45593999997E+02  0.45594000000E+02  0.51100000000E-03 0. -1.
         11   -1    0    0    0    0 -0.00000000000E+00 -0.00000000000E+00 -0.45593999997E+02  0.45594000000E+02  0.51100000000E-03 0.  1.
    9900012    2    1    2    0    0  0.58948805483E+01  0.11775426889E+02  0.43077873885E+02  0.46142317482E+02  0.99999974536E+01 0.  0.
        -12    1    1    2    0    0 -0.58948805483E+01 -0.11775426889E+02 -0.43077873885E+02  0.45045682518E+02  0.00000000000E+00 0.  1.
         11    1    3    3    0    0  0.48426872177E+01  0.40198411528E+01  0.23145266333E+02  0.23985706082E+02  0.51100000000E-03 0. -1.
        -11    1    3    3    0    0 -0.44141908207E+00 -0.80431504705E+00  0.12343045062E+01  0.15379471305E+01  0.51100000000E-03 0.  1.
         12    1    3    3    0    0  0.14936124127E+01  0.85599007832E+01  0.18698303046E+02  0.20618664269E+02  0.00000000000E+00 0. -1.
</event>
<event>
 7    1  0.1543346E-008  0.4614232E+02  0.7816164E-02  0.1320468E+00
        -11   -1    0    0    0    0  0.00000000000E+00  0.00000000000E+00  0.45593999997E+02  0.45594000000E+02  0.51100000000E-03 0. -1.
         11   -1    0    0    0    0 -0.00000000000E+00 -0.00000000000E+00 -0.45593999997E+02  0.45594000000E+02  0.51100000000E-03 0.  1.
    9900012    2    1    2    0    0 -0.13825257096E+02  0.27436131769E+02  0.32942896580E+02  0.46142317684E+02  0.99999992961E+01 0.  0.
        -12    1    1    2    0    0  0.13825257096E+02 -0.27436131769E+02 -0.32942896580E+02  0.45045682316E+02  0.00000000000E+00 0.  1.
         11    1    3    3    0    0 -0.50265407094E+00 -0.46153480584E+00 -0.22541680508E+00  0.71867133599E+00  0.51100000000E-03 0.  1.
        -11    1    3    3    0    0 -0.89248328980E+01  0.15606643238E+02  0.18926868030E+02  0.26104526219E+02  0.51100000000E-03 0. -1.
        -12    1    3    3    0    0 -0.43977701275E+01  0.12291023337E+02  0.14241445355E+02  0.19319120129E+02  0.00000000000E+00 0.  1.
</event>
<event>
 7    1  0.1543346E-008  0.4614232E+02  0.7816164E-02  0.1320468E+00
        -11   -1    0    0    0    0  0.00000000000E+00  0.00000000000E+00  0.45593999997E+02  0.45594000000E+02  0.51100000000E-03 0.  1.
         11   -1    0    0    0    0 -0.00000000000E+00 -0.00000000000E+00 -0.45593999997E+02  0.45594000000E+02  0.51100000000E-03 0. -1.
    9900012    2    1    2    0    0 -0.68017843457E+01  0.44528178824E+02  0.30095725270E+00  0.46142317022E+02  0.99999932582E+01 0.  0.
        -12    1    1    2    0    0  0.68017843457E+01 -0.44528178824E+02 -0.30095725270E+00  0.45045682978E+02  0.00000000000E+00 0.  1.
         11    1    3    3    0    0  0.14673959671E+01  0.13534748280E+02  0.51898193199E+00  0.13623949663E+02  0.51100000000E-03 0. -1.
        -11    1    3    3    0    0 -0.96214097450E+00  0.91960579075E+01  0.18726240288E+01  0.94339767493E+01  0.51100000000E-03 0.  1.
         12    1    3    3    0    0 -0.73070393383E+01  0.21797372637E+02 -0.20906487081E+01  0.23084390609E+02  0.00000000000E+00 0. -1.
</event>
<event>
 7    1  0.1543346E-008  0.4614232E+02  0.7816164E-02  0.1320468E+00
        -11   -1    0    0    0    0  0.00000000000E+00  0.00000000000E+00  0.45593999997E+02  0.45594000000E+02  0.51100000000E-03 0.  1.
         11   -1    0    0    0    0 -0.00000000000E+00 -0.00000000000E+00 -0.45593999997E+02  0.45594000000E+02  0.51100000000E-03 0. -1.
    9900012    2    1    2    0    0 -0.18287219568E+02 -0.61123473138E+01 -0.40710322524E+02  0.46142317085E+02  0.99999938385E+01 0.  0.
        -12    1    1    2    0    0  0.18287219568E+02  0.61123473138E+01  0.40710322524E+02  0.45045682915E+02  0.00000000000E+00 0.  1.
         11    1    3    3    0    0 -0.18550932416E+01 -0.23361862152E+01 -0.66617399222E+01  0.72991722832E+01  0.51100000000E-03 0. -1.
        -11    1    3    3    0    0  0.91062462678E-01 -0.16618435774E+01 -0.13387944261E+01  0.21359745374E+01  0.51100000000E-03 0.  1.
        -12    1    3    3    0    0 -0.16523188790E+02 -0.21143175212E+01 -0.32709788176E+02  0.36707170265E+02  0.00000000000E+00 0.  1.
</event>
<event>
 7    1  0.1543346E-008  0.4614232E+02  0.7816164E-02  0.1320468E+00
        -11   -1    0    0    0    0  0.00000000000E+00  0.00000000000E+00  0.45593999997E+02  0.45594000000E+02  0.51100000000E-03 0. -1.
         11   -1    0    0    0    0 -0.00000000000E+00 -0.00000000000E+00 -0.45593999997E+02  0.45594000000E+02  0.51100000000E-03 0.  1.
    9900012    2    1    2    0    0 -0.44642467403E+02 -0.52077155806E+01  0.30072203713E+01  0.46142316835E+02  0.99999915552E+01 0.  0.
        -12    1    1    2    0    0  0.44642467403E+02  0.52077155806E+01 -0.30072203713E+01  0.45045683165E+02  0.00000000000E+00 0.  1.
         11    1    3    3    0    0 -0.22244345508E+02 -0.56636444224E+01  0.31725963442E+01  0.23172249417E+02  0.51100000000E-03 0. -1.
        -11    1    3    3    0    0 -0.22400687119E+02  0.44527181825E+00  0.39597346260E+00  0.22408610971E+02  0.51100000000E-03 0.  1.
         12    1    3    3    0    0  0.25652242512E-02  0.10657023589E-01 -0.56134943552E+00  0.56145644647E+00  0.00000000000E+00 0. -1.
</event>
<event>
 7    1  0.1543346E-008  0.4614232E+02  0.7816164E-02  0.1320468E+00
        -11   -1    0    0    0    0  0.00000000000E+00  0.00000000000E+00  0.45593999997E+02  0.45594000000E+02  0.51100000000E-03 0.  1.
         11   -1    0    0    0    0 -0.00000000000E+00 -0.00000000000E+00 -0.45593999997E+02  0.45594000000E+02  0.51100000000E-03 0. -1.
    9900012    2    1    2    0    0  0.27589270574E+02 -0.25245554047E+02 -0.25111902350E+02  0.46142317748E+02  0.99999998802E+01 0.  0.
        -12    1    1    2    0    0 -0.27589270574E+02  0.25245554047E+02  0.25111902350E+02  0.45045682252E+02  0.00000000000E+00 0.  1.
         11    1    3    3    0    0  0.12426985516E+02 -0.10558111873E+02 -0.13927125607E+02  0.21444545303E+02  0.51100000000E-03 0. -1.
        -11    1    3    3    0    0  0.40164726274E+01 -0.75207858239E+01 -0.61920697957E+01  0.10537362117E+02  0.51100000000E-03 0.  1.
        -12    1    3    3    0    0  0.11145812431E+02 -0.71666563495E+01 -0.49927069470E+01  0.14160410327E+02  0.00000000000E+00 0.  1.
</event>
<event>
 7    1  0.1543346E-008  0.4614232E+02  0.7816164E-02  0.1320468E+00
        -11   -1    0    0    0    0  0.00000000000E+00  0.00000000000E+00  0.45593999997E+02  0.45594000000E+02  0.51100000000E-03 0.  1.
         11   -1    0    0    0    0 -0.00000000000E+00 -0.00000000000E+00 -0.45593999997E+02  0.45594000000E+02  0.51100000000E-03 0. -1.
    9900012    2    1    2    0    0  0.88503413772E+01 -0.18951135033E+02 -0.39895356403E+02  0.46142317365E+02  0.99999963862E+01 0.  0.
        -12    1    1    2    0    0 -0.88503413772E+01  0.18951135033E+02  0.39895356403E+02  0.45045682635E+02  0.00000000000E+00 0.  1.
         11    1    3    3    0    0  0.11831592046E+01 -0.45139289203E+01 -0.92105845650E+01  0.10325225823E+02  0.51100000000E-03 0. -1.
        -11    1    3    3    0    0  0.87871548083E+01 -0.12819009716E+02 -0.29900931837E+02  0.33698765923E+02  0.51100000000E-03 0.  1.
        -12    1    3    3    0    0 -0.11199726357E+01 -0.16181963961E+01 -0.78384000109E+00  0.21183256191E+01  0.00000000000E+00 0.  1.
</event>
<event>
 7    1  0.1543346E-008  0.4614232E+02  0.7816164E-02  0.1320468E+00
        -11   -1    0    0    0    0  0.00000000000E+00  0.00000000000E+00  0.45593999997E+02  0.45594000000E+02  0.51100000000E-03 0. -1.
         11   -1    0    0    0    0 -0.00000000000E+00 -0.00000000000E+00 -0.45593999997E+02  0.45594000000E+02  0.51100000000E-03 0.  1.
    9900012    2    1    2    0    0  0.28254918148E+02  0.16272452316E+02 -0.31080225106E+02  0.46142317670E+02  0.99999991704E+01 0.  0.
        -12    1    1    2    0    0 -0.28254918148E+02 -0.16272452316E+02  0.31080225106E+02  0.45045682330E+02  0.00000000000E+00 0.  1.
         11    1    3    3    0    0  0.21209486959E+02  0.13960553620E+02 -0.26318235037E+02  0.36570328003E+02  0.51100000000E-03 0. -1.
        -11    1    3    3    0    0  0.14879803888E+01  0.14580764729E+01  0.17344669937E+00  0.20904919653E+01  0.51100000000E-03 0.  1.
         12    1    3    3    0    0  0.55574507995E+01  0.85382222281E+00 -0.49354367682E+01  0.74814977023E+01  0.00000000000E+00 0. -1.
</event>
<event>
 7    1  0.1543346E-008  0.4614232E+02  0.7816164E-02  0.1320468E+00
        -11   -1    0    0    0    0  0.00000000000E+00  0.00000000000E+00  0.45593999997E+02  0.45594000000E+02  0.51100000000E-03 0.  1.
         11   -1    0    0    0    0 -0.00000000000E+00 -0.00000000000E+00 -0.45593999997E+02  0.45594000000E+02  0.51100000000E-03 0. -1.
    9900012    2    1    2    0    0  0.28561924373E+01  0.19459689660E+02 -0.40525006701E+02  0.46142317354E+02  0.99999962875E+01 0.  0.
        -12    1    1    2    0    0 -0.28561924373E+01 -0.19459689660E+02  0.40525006701E+02  0.45045682646E+02  0.00000000000E+00 0.  1.
         11    1    3    3    0    0  0.20295883508E+01  0.26969727268E+00 -0.60257226012E+01  0.63640630591E+01  0.51100000000E-03 0.  1.
        -11    1    3    3    0    0  0.17608075674E+01  0.26027616478E+01 -0.65327840826E+01  0.72492813172E+01  0.51100000000E-03 0. -1.
         12    1    3    3    0    0 -0.93420348090E+00  0.16587230740E+02 -0.27966500017E+02  0.32528972978E+02  0.00000000000E+00 0. -1.
</event>
<event>
 7    1  0.1543346E-008  0.4614232E+02  0.7816164E-02  0.1320468E+00
        -11   -1    0    0    0    0  0.00000000000E+00  0.00000000000E+00  0.45593999997E+02  0.45594000000E+02  0.51100000000E-03 0.  1.
         11   -1    0    0    0    0 -0.00000000000E+00 -0.00000000000E+00 -0.45593999997E+02  0.45594000000E+02  0.51100000000E-03 0. -1.
    9900012    2    1    2    0    0 -0.16876057698E+02  0.23556404253E+01 -0.41698478804E+02  0.46142317635E+02  0.99999988461E+01 0.  0.
        -12    1    1    2    0    0  0.16876057698E+02 -0.23556404253E+01  0.41698478804E+02  0.45045682365E+02  0.00000000000E+00 0.  1.
         11    1    3    3    0    0 -0.13786251336E+01  0.78393260438E+00 -0.65684189066E+00  0.17165660831E+01  0.51100000000E-03 0. -1.
        -11    1    3    3    0    0 -0.76329941284E+01  0.41547864505E+01 -0.22511428793E+02  0.24130670865E+02  0.51100000000E-03 0.  1.
        -12    1    3    3    0    0 -0.78644384357E+01 -0.25830786295E+01 -0.18530208120E+02  0.20295080687E+02  0.00000000000E+00 0.  1.
</event>
<event>
 7    1  0.1543346E-008  0.4614232E+02  0.7816164E-02  0.1320468E+00
        -11   -1    0    0    0    0  0.00000000000E+00  0.00000000000E+00  0.45593999997E+02  0.45594000000E+02  0.51100000000E-03 0. -1.
         11   -1    0    0    0    0 -0.00000000000E+00 -0.00000000000E+00 -0.45593999997E+02  0.45594000000E+02  0.51100000000E-03 0.  1.
    9900012    2    1    2    0    0  0.14821229815E+02 -0.42455589192E+02 -0.26396062571E+01  0.46142318430E+02  0.10000006100E+02 0.  0.
        -12    1    1    2    0    0 -0.14821229815E+02  0.42455589192E+02  0.26396062571E+01  0.45045681570E+02  0.00000000000E+00 0.  1.
         11    1    3    3    0    0  0.14047701112E+01 -0.13258070064E+02 -0.31876883183E+01  0.13708069082E+02  0.51100000000E-03 0. -1.
        -11    1    3    3    0    0  0.84381046915E+01 -0.22841861804E+02  0.14875391086E+00  0.24351065469E+02  0.51100000000E-03 0.  1.
        -12    1    3    3    0    0  0.49783550127E+01 -0.63556573241E+01  0.39932815039E+00  0.80831838793E+01  0.00000000000E+00 0.  1.
</event>
<event>
 7    1  0.1543346E-008  0.4614232E+02  0.7816164E-02  0.1320468E+00
        -11   -1    0    0    0    0  0.00000000000E+00  0.00000000000E+00  0.45593999997E+02  0.45594000000E+02  0.51100000000E-03 0.  1.
         11   -1    0    0    0    0 -0.00000000000E+00 -0.00000000000E+00 -0.45593999997E+02  0.45594000000E+02  0.51100000000E-03 0. -1.
    9900012    2    1    2    0    0  0.29248954207E+02 -0.31931081542E+01 -0.34108879512E+02  0.46142324032E+02  0.10000057180E+02 0.  0.
        -12    1    1    2    0    0 -0.29248954207E+02  0.31931081542E+01  0.34108879512E+02  0.45045675968E+02  0.00000000000E+00 0.  1.
         11    1    3    3    0    0  0.52078496215E+01 -0.43210616495E+01 -0.90015032754E+01  0.11261453411E+02  0.51100000000E-03 0. -1.
        -11    1    3    3    0    0  0.16034903761E+02  0.20034780675E+01 -0.16738797202E+02  0.23266271619E+02  0.51100000000E-03 0.  1.
         12    1    3    3    0    0  0.80062008244E+01 -0.87552457218E+00 -0.83685790342E+01  0.11614599002E+02  0.00000000000E+00 0. -1.
</event>
<event>
 7    1  0.1543346E-008  0.4614232E+02  0.7816164E-02  0.1320468E+00
        -11   -1    0    0    0    0  0.00000000000E+00  0.00000000000E+00  0.45593999997E+02  0.45594000000E+02  0.51100000000E-03 0. -1.
         11   -1    0    0    0    0 -0.00000000000E+00 -0.00000000000E+00 -0.45593999997E+02  0.45594000000E+02  0.51100000000E-03 0.  1.
    9900012    2    1    2    0    0 -0.71473751026E+01  0.24865127896E+02  0.36874841270E+02  0.46142317911E+02  0.10000001371E+02 0.  0.
        -12    1    1    2    0    0  0.71473751026E+01 -0.24865127896E+02 -0.36874841270E+02  0.45045682089E+02  0.00000000000E+00 0.  1.
         11    1    3    3    0    0 -0.70428192727E+01  0.17603076575E+02  0.24417171332E+02  0.30913878184E+02  0.51100000000E-03 0. -1.
        -11    1    3    3    0    0 -0.23622709074E+01  0.43850869359E+01  0.59128066116E+01  0.77311443889E+01  0.51100000000E-03 0.  1.
         12    1    3    3    0    0  0.22577150775E+01  0.28769643850E+01  0.65448633259E+01  0.74972953389E+01  0.00000000000E+00 0. -1.
</event>
<event>
 7    1  0.1543346E-008  0.4614231E+02  0.7816164E-02  0.1320468E+00
        -11   -1    0    0    0    0  0.00000000000E+00  0.00000000000E+00  0.45593999997E+02  0.45594000000E+02  0.51100000000E-03 0. -1.
         11   -1    0    0    0    0 -0.00000000000E+00 -0.00000000000E+00 -0.45593999997E+02  0.45594000000E+02  0.51100000000E-03 0.  1.
    9900012    2    1    2    0    0 -0.14179007227E+02  0.40003948030E+02  0.15091515764E+02  0.46142312615E+02  0.99999530767E+01 0.  0.
        -12    1    1    2    0    0  0.14179007227E+02 -0.40003948030E+02 -0.15091515764E+02  0.45045687385E+02  0.00000000000E+00 0.  1.
         11    1    3    3    0    0 -0.59874914566E+01  0.24502686812E+02  0.83177613979E+01  0.26559685049E+02  0.51100000000E-03 0. -1.
        -11    1    3    3    0    0 -0.56581610458E+00  0.41043140451E+01 -0.29776934757E+00  0.41538185433E+01  0.51100000000E-03 0.  1.
         12    1    3    3    0    0 -0.76256996658E+01  0.11396947172E+02  0.70715237135E+01  0.15428809023E+02  0.00000000000E+00 0. -1.
</event>
<event>
 7    1  0.1543346E-008  0.4614232E+02  0.7816164E-02  0.1320468E+00
        -11   -1    0    0    0    0  0.00000000000E+00  0.00000000000E+00  0.45593999997E+02  0.45594000000E+02  0.51100000000E-03 0. -1.
         11   -1    0    0    0    0 -0.00000000000E+00 -0.00000000000E+00 -0.45593999997E+02  0.45594000000E+02  0.51100000000E-03 0.  1.
    9900012    2    1    2    0    0 -0.30443164808E+02  0.77568158744E+01  0.32282488524E+02  0.46142317173E+02  0.99999946379E+01 0.  0.
        -12    1    1    2    0    0  0.30443164808E+02 -0.77568158744E+01 -0.32282488524E+02  0.45045682827E+02  0.00000000000E+00 0.  1.
         11    1    3    3    0    0 -0.47107669056E+01  0.26257349628E+01  0.74867033736E+01  0.92269462228E+01  0.51100000000E-03 0. -1.
        -11    1    3    3    0    0 -0.11155844169E+02  0.52295955661E+01  0.80674658352E+01  0.14727034127E+02  0.51100000000E-03 0.  1.
         12    1    3    3    0    0 -0.14576553734E+02 -0.98514654525E-01  0.16728319315E+02  0.22188336824E+02  0.00000000000E+00 0. -1.
</event>
<event>
 7    1  0.1543346E-008  0.4614232E+02  0.7816164E-02  0.1320468E+00
        -11   -1    0    0    0    0  0.00000000000E+00  0.00000000000E+00  0.45593999997E+02  0.45594000000E+02  0.51100000000E-03 0.  1.
         11   -1    0    0    0    0 -0.00000000000E+00 -0.00000000000E+00 -0.45593999997E+02  0.45594000000E+02  0.51100000000E-03 0. -1.
    9900012    2    1    2    0    0 -0.35938615212E+02  0.25052564982E+02  0.10483232951E+02  0.46142320422E+02  0.10000024268E+02 0.  0.
        -12    1    1    2    0    0  0.35938615212E+02 -0.25052564982E+02 -0.10483232951E+02  0.45045679578E+02  0.00000000000E+00 0.  1.
         11    1    3    3    0    0 -0.55179889869E+01  0.94258334540E+00 -0.27673971079E+00  0.56047525326E+01  0.51100000000E-03 0.  1.
        -11    1    3    3    0    0 -0.21399667555E+01  0.30071872404E+01  0.16336407829E+00  0.36944987341E+01  0.51100000000E-03 0. -1.
         12    1    3    3    0    0 -0.28280659469E+02  0.21102794396E+02  0.10596608584E+02  0.36843069156E+02  0.00000000000E+00 0. -1.
</event>
<event>
 7    1  0.1543346E-008  0.4614232E+02  0.7816164E-02  0.1320468E+00
        -11   -1    0    0    0    0  0.00000000000E+00  0.00000000000E+00  0.45593999997E+02  0.45594000000E+02  0.51100000000E-03 0.  1.
         11   -1    0    0    0    0 -0.00000000000E+00 -0.00000000000E+00 -0.45593999997E+02  0.45594000000E+02  0.51100000000E-03 0. -1.
    9900012    2    1    2    0    0 -0.25012819971E+02 -0.30047751037E+02 -0.22374205165E+02  0.46142316943E+02  0.99999925421E+01 0.  0.
        -12    1    1    2    0    0  0.25012819971E+02  0.30047751037E+02  0.22374205165E+02  0.45045683057E+02  0.00000000000E+00 0.  1.
         11    1    3    3    0    0 -0.20312182232E+01 -0.49433627425E+01 -0.59755356179E+01  0.80168390813E+01  0.51100000000E-03 0.  1.
        -11    1    3    3    0    0 -0.13956966515E+02 -0.18305333557E+02 -0.12349858408E+02  0.26122809073E+02  0.51100000000E-03 0. -1.
        -12    1    3    3    0    0 -0.90246352324E+01 -0.67990547381E+01 -0.40488111396E+01  0.12002668789E+02  0.00000000000E+00 0.  1.
</event>
<event>
 7    1  0.1543346E-008  0.4614232E+02  0.7816164E-02  0.1320468E+00
        -11   -1    0    0    0    0  0.00000000000E+00  0.00000000000E+00  0.45593999997E+02  0.45594000000E+02  0.51100000000E-03 0.  1.
         11   -1    0    0    0    0 -0.00000000000E+00 -0.00000000000E+00 -0.45593999997E+02  0.45594000000E+02  0.51100000000E-03 0. -1.
    9900012    2    1    2    0    0  0.73478893072E+01 -0.43563594088E+01 -0.44228318648E+02  0.46142317465E+02  0.99999973032E+01 0.  0.
        -12    1    1    2    0    0 -0.73478893072E+01  0.43563594088E+01  0.44228318648E+02  0.45045682535E+02  0.00000000000E+00 0.  1.
         11    1    3    3    0    0 -0.15745173346E+01 -0.29826048475E+00 -0.15966085099E+02  0.16046306049E+02  0.51100000000E-03 0. -1.
        -11    1    3    3    0    0  0.72695852844E+01 -0.42623366250E+01 -0.20641422859E+02  0.22295352018E+02  0.51100000000E-03 0.  1.
         12    1    3    3    0    0  0.16528213574E+01  0.20423770096E+00 -0.76208106900E+01  0.78006593985E+01  0.00000000000E+00 0. -1.
</event>
<event>
 7    1  0.1543346E-008  0.4614232E+02  0.7816164E-02  0.1320468E+00
        -11   -1    0    0    0    0  0.00000000000E+00  0.00000000000E+00  0.45593999997E+02  0.45594000000E+02  0.51100000000E-03 0.  1.
         11   -1    0    0    0    0 -0.00000000000E+00 -0.00000000000E+00 -0.45593999997E+02  0.45594000000E+02  0.51100000000E-03 0. -1.
    9900012    2    1    2    0    0  0.29501100971E+02 -0.32125011764E+02 -0.11259756916E+02  0.46142318019E+02  0.10000002351E+02 0.  0.
        -12    1    1    2    0    0 -0.29501100971E+02  0.32125011764E+02  0.11259756916E+02  0.45045681981E+02  0.00000000000E+00 0.  1.
         11    1    3    3    0    0  0.15798889623E+02 -0.14827737985E+02 -0.11764419123E+01  0.21699095440E+02  0.51100000000E-03 0. -1.
        -11    1    3    3    0    0  0.11512411742E+02 -0.13092668235E+02 -0.88137562604E+01  0.19535503201E+02  0.51100000000E-03 0.  1.
         12    1    3    3    0    0  0.21897996061E+01 -0.42046055441E+01 -0.12695587434E+01  0.49077193786E+01  0.00000000000E+00 0. -1.
</event>
<event>
 7    1  0.1543346E-008  0.4614232E+02  0.7816164E-02  0.1320468E+00
        -11   -1    0    0    0    0  0.00000000000E+00  0.00000000000E+00  0.45593999997E+02  0.45594000000E+02  0.51100000000E-03 0.  1.
         11   -1    0    0    0    0 -0.00000000000E+00 -0.00000000000E+00 -0.45593999997E+02  0.45594000000E+02  0.51100000000E-03 0. -1.
    9900012    2    1    2    0    0  0.26616794381E+02 -0.12504758403E+02 -0.34121705949E+02  0.46142317158E+02  0.99999944983E+01 0.  0.
        -12    1    1    2    0    0 -0.26616794381E+02  0.12504758403E+02  0.34121705949E+02  0.45045682842E+02  0.00000000000E+00 0.  1.
         11    1    3    3    0    0  0.14438805825E+02 -0.32133766391E+01 -0.17265210974E+02  0.22735268050E+02  0.51100000000E-03 0. -1.
        -11    1    3    3    0    0  0.36932328494E+01 -0.38626932524E+01 -0.25789219940E+01  0.59339031804E+01  0.51100000000E-03 0.  1.
         12    1    3    3    0    0  0.84847557064E+01 -0.54286885113E+01 -0.14277572982E+02  0.17473145927E+02  0.00000000000E+00 0. -1.
</event>
<event>
 7    1  0.1543346E-008  0.4614232E+02  0.7816164E-02  0.1320468E+00
        -11   -1    0    0    0    0  0.00000000000E+00  0.00000000000E+00  0.45593999997E+02  0.45594000000E+02  0.51100000000E-03 0.  1.
         11   -1    0    0    0    0 -0.00000000000E+00 -0.00000000000E+00 -0.45593999997E+02  0.45594000000E+02  0.51100000000E-03 0. -1.
    9900012    2    1    2    0    0 -0.33123704480E+02 -0.27687926697E+02 -0.12857387571E+02  0.46142317650E+02  0.99999989850E+01 0.  0.
        -12    1    1    2    0    0  0.33123704480E+02  0.27687926697E+02  0.12857387571E+02  0.45045682350E+02  0.00000000000E+00 0.  1.
         11    1    3    3    0    0 -0.52984596202E+01 -0.58750565448E+01 -0.36152267182E+01  0.86982658178E+01  0.51100000000E-03 0. -1.
        -11    1    3    3    0    0 -0.57026196745E+01 -0.73500945244E+01 -0.53407665388E+01  0.10726954281E+02  0.51100000000E-03 0.  1.
        -12    1    3    3    0    0 -0.22122625185E+02 -0.14462775627E+02 -0.39013943141E+01  0.26717097551E+02  0.00000000000E+00 0.  1.
</event>
<event>
 7    1  0.1543346E-008  0.4614232E+02  0.7816164E-02  0.1320468E+00
        -11   -1    0    0    0    0  0.00000000000E+00  0.00000000000E+00  0.45593999997E+02  0.45594000000E+02  0.51100000000E-03 0. -1.
         11   -1    0    0    0    0 -0.00000000000E+00 -0.00000000000E+00 -0.45593999997E+02  0.45594000000E+02  0.51100000000E-03 0.  1.
    9900012    2    1    2    0    0 -0.38717413991E+02 -0.22173010269E+02  0.61994337423E+01  0.46142317529E+02  0.99999978867E+01 0.  0.
        -12    1    1    2    0    0  0.38717413991E+02  0.22173010269E+02 -0.61994337423E+01  0.45045682471E+02  0.00000000000E+00 0.  1.
         11    1    3    3    0    0 -0.27928687643E+02 -0.18253023484E+02  0.37403345725E+01  0.33573420481E+02  0.51100000000E-03 0. -1.
        -11    1    3    3    0    0 -0.34055587278E+01 -0.10011632208E+01  0.29486685960E+01  0.46146294318E+01  0.51100000000E-03 0.  1.
        -12    1    3    3    0    0 -0.73831676199E+01 -0.29188235638E+01 -0.48956942620E+00  0.79542676170E+01  0.00000000000E+00 0.  1.
</event>
<event>
 7    1  0.1543346E-008  0.4614232E+02  0.7816164E-02  0.1320468E+00
        -11   -1    0    0    0    0  0.00000000000E+00  0.00000000000E+00  0.45593999997E+02  0.45594000000E+02  0.51100000000E-03 0.  1.
         11   -1    0    0    0    0 -0.00000000000E+00 -0.00000000000E+00 -0.45593999997E+02  0.45594000000E+02  0.51100000000E-03 0. -1.
    9900012    2    1    2    0    0 -0.26197464483E+02  0.29754775009E+02  0.21388303452E+02  0.46142319788E+02  0.10000018487E+02 0.  0.
        -12    1    1    2    0    0  0.26197464483E+02 -0.29754775009E+02 -0.21388303452E+02  0.45045680212E+02  0.00000000000E+00 0.  1.
         11    1    3    3    0    0 -0.32404483500E+01  0.95368213063E+01  0.61546396102E+01  0.11803857638E+02  0.51100000000E-03 0. -1.
        -11    1    3    3    0    0 -0.17528174164E+02  0.14380444643E+02  0.98530238447E+01  0.24720763677E+02  0.51100000000E-03 0.  1.
         12    1    3    3    0    0 -0.54288419683E+01  0.58375090603E+01  0.53806399972E+01  0.96176984734E+01  0.00000000000E+00 0. -1.
</event>
<event>
 7    1  0.1543346E-008  0.4614232E+02  0.7816164E-02  0.1320468E+00
        -11   -1    0    0    0    0  0.00000000000E+00  0.00000000000E+00  0.45593999997E+02  0.45594000000E+02  0.51100000000E-03 0. -1.
         11   -1    0    0    0    0 -0.00000000000E+00 -0.00000000000E+00 -0.45593999997E+02  0.45594000000E+02  0.51100000000E-03 0.  1.
    9900012    2    1    2    0    0  0.21030730544E+02  0.39339735095E+02  0.62615534145E+01  0.46142318346E+02  0.10000005331E+02 0.  0.
        -12    1    1    2    0    0 -0.21030730544E+02 -0.39339735095E+02 -0.62615534145E+01  0.45045681654E+02  0.00000000000E+00 0.  1.
         11    1    3    3    0    0  0.43198664647E+01  0.63731116164E+01  0.78628089787E+00  0.77392529264E+01  0.51100000000E-03 0. -1.
        -11    1    3    3    0    0  0.72719646911E+01  0.16952548452E+02  0.70498982588E+01  0.19747694427E+02  0.51100000000E-03 0.  1.
        -12    1    3    3    0    0  0.94388993883E+01  0.16014075027E+02 -0.15746257422E+01  0.18655370992E+02  0.00000000000E+00 0.  1.
</event>
<event>
 7    1  0.1543346E-008  0.4614232E+02  0.7816164E-02  0.1320468E+00
        -11   -1    0    0    0    0  0.00000000000E+00  0.00000000000E+00  0.45593999997E+02  0.45594000000E+02  0.51100000000E-03 0.  1.
         11   -1    0    0    0    0 -0.00000000000E+00 -0.00000000000E+00 -0.45593999997E+02  0.45594000000E+02  0.51100000000E-03 0. -1.
    9900012    2    1    2    0    0 -0.32342770246E+02  0.10198589900E+01 -0.31337175435E+02  0.46142318033E+02  0.10000002482E+02 0.  0.
        -12    1    1    2    0    0  0.32342770246E+02 -0.10198589900E+01  0.31337175435E+02  0.45045681967E+02  0.00000000000E+00 0.  1.
         11    1    3    3    0    0 -0.13905235504E+02 -0.17989092313E+01 -0.12990961191E+02  0.19114306730E+02  0.51100000000E-03 0. -1.
        -11    1    3    3    0    0 -0.63179784514E+01  0.21012808615E+01 -0.10938999623E+02  0.12806012103E+02  0.51100000000E-03 0.  1.
         12    1    3    3    0    0 -0.12119556291E+02  0.71748735984E+00 -0.74072146215E+01  0.14221999201E+02  0.00000000000E+00 0. -1.
</event>
<event>
 7    1  0.1543346E-008  0.4614232E+02  0.7816164E-02  0.1320468E+00
        -11   -1    0    0    0    0  0.00000000000E+00  0.00000000000E+00  0.45593999997E+02  0.45594000000E+02  0.51100000000E-03 0.  1.
         11   -1    0    0    0    0 -0.00000000000E+00 -0.00000000000E+00 -0.45593999997E+02  0.45594000000E+02  0.51100000000E-03 0. -1.
    9900012    2    1    2    0    0 -0.99235865317E+01 -0.43507072486E+02 -0.61457721365E+01  0.46142318286E+02  0.10000004787E+02 0.  0.
        -12    1    1    2    0    0  0.99235865317E+01  0.43507072486E+02  0.61457721365E+01  0.45045681714E+02  0.00000000000E+00 0.  1.
         11    1    3    3    0    0 -0.54555114851E+01 -0.30820787347E+02 -0.19669782462E+01  0.31361641251E+02  0.51100000000E-03 0. -1.
        -11    1    3    3    0    0 -0.25818720382E-01 -0.46271767062E+01  0.10877845540E+00  0.46285271836E+01  0.51100000000E-03 0.  1.
         12    1    3    3    0    0 -0.44422563262E+01 -0.80591084322E+01 -0.42875723457E+01  0.10152149852E+02  0.00000000000E+00 0. -1.
</event>
<event>
 7    1  0.1543346E-008  0.4614232E+02  0.7816164E-02  0.1320468E+00
        -11   -1    0    0    0    0  0.00000000000E+00  0.00000000000E+00  0.45593999997E+02  0.45594000000E+02  0.51100000000E-03 0. -1.
         11   -1    0    0    0    0 -0.00000000000E+00 -0.00000000000E+00 -0.45593999997E+02  0.45594000000E+02  0.51100000000E-03 0.  1.
    9900012    2    1    2    0    0 -0.88682792167E+01  0.31254746950E+02  0.31202690998E+02  0.46142317535E+02  0.99999979422E+01 0.  0.
        -12    1    1    2    0    0  0.88682792167E+01 -0.31254746950E+02 -0.31202690998E+02  0.45045682465E+02  0.00000000000E+00 0.  1.
         11    1    3    3    0    0 -0.22862981169E+01  0.67791087069E+01  0.29043788335E+01  0.77213269979E+01  0.51100000000E-03 0.  1.
        -11    1    3    3    0    0 -0.53569897235E+01  0.97394308058E+01  0.13698364494E+02  0.17640834487E+02  0.51100000000E-03 0. -1.
        -12    1    3    3    0    0 -0.12249913763E+01  0.14736207438E+02  0.14599947670E+02  0.20780156051E+02  0.00000000000E+00 0.  1.
</event>
<event>
 7    1  0.1543346E-008  0.4614232E+02  0.7816164E-02  0.1320468E+00
        -11   -1    0    0    0    0  0.00000000000E+00  0.00000000000E+00  0.45593999997E+02  0.45594000000E+02  0.51100000000E-03 0. -1.
         11   -1    0    0    0    0 -0.00000000000E+00 -0.00000000000E+00 -0.45593999997E+02  0.45594000000E+02  0.51100000000E-03 0.  1.
    9900012    2    1    2    0    0  0.40256743091E+02  0.17216643763E+02  0.10587502399E+02  0.46142318811E+02  0.10000009570E+02 0.  0.
        -12    1    1    2    0    0 -0.40256743091E+02 -0.17216643763E+02 -0.10587502399E+02  0.45045681189E+02  0.00000000000E+00 0.  1.
         11    1    3    3    0    0  0.29415500177E+02  0.12904989320E+02  0.63959053025E+01  0.32752374035E+02  0.51100000000E-03 0. -1.
        -11    1    3    3    0    0  0.69658386710E+01  0.36446325045E+01  0.50777562118E+01  0.93589456078E+01  0.51100000000E-03 0.  1.
         12    1    3    3    0    0  0.38754042429E+01  0.66702193798E+00 -0.88615911502E+00  0.40309991676E+01  0.00000000000E+00 0. -1.
</event>
<event>
 7    1  0.1543346E-008  0.4614231E+02  0.7816164E-02  0.1320468E+00
        -11   -1    0    0    0    0  0.00000000000E+00  0.00000000000E+00  0.45593999997E+02  0.45594000000E+02  0.51100000000E-03 0.  1.
         11   -1    0    0    0    0 -0.00000000000E+00 -0.00000000000E+00 -0.45593999997E+02  0.45594000000E+02  0.51100000000E-03 0. -1.
    9900012    2    1    2    0    0  0.27126625113E+02  0.24136892926E+02 -0.26658416850E+02  0.46142305654E+02  0.99998895962E+01 0.  0.
        -12    1    1    2    0    0 -0.27126625113E+02 -0.24136892926E+02  0.26658416850E+02  0.45045694346E+02  0.00000000000E+00 0.  1.
         11    1    3    3    0    0  0.43035276018E+01  0.40293201692E+01 -0.87126605450E+01  0.10519801561E+02  0.51100000000E-03 0. -1.
        -11    1    3    3    0    0  0.23043101122E+02  0.19776123152E+02 -0.17614644076E+02  0.35104917638E+02  0.51100000000E-03 0.  1.
        -12    1    3    3    0    0 -0.22000361053E+00  0.33144960530E+00 -0.33111222970E+00  0.51758645476E+00  0.00000000000E+00 0.  1.
</event>
<event>
 7    1  0.1543346E-008  0.4614232E+02  0.7816164E-02  0.1320468E+00
        -11   -1    0    0    0    0  0.00000000000E+00  0.00000000000E+00  0.45593999997E+02  0.45594000000E+02  0.51100000000E-03 0.  1.
         11   -1    0    0    0    0 -0.00000000000E+00 -0.00000000000E+00 -0.45593999997E+02  0.45594000000E+02  0.51100000000E-03 0. -1.
    9900012    2    1    2    0    0  0.15467506166E+02  0.20952488205E+02 -0.36754089429E+02  0.46142316536E+02  0.99999888288E+01 0.  0.
        -12    1    1    2    0    0 -0.15467506166E+02 -0.20952488205E+02  0.36754089429E+02  0.45045683464E+02  0.00000000000E+00 0.  1.
         11    1    3    3    0    0  0.39904377478E+01  0.31738296763E+01 -0.10764442574E+02  0.11910919881E+02  0.51100000000E-03 0.  1.
        -11    1    3    3    0    0  0.93056679557E+01  0.11939979820E+02 -0.22418965467E+02  0.27051221545E+02  0.51100000000E-03 0. -1.
        -12    1    3    3    0    0  0.21714004623E+01  0.58386787090E+01 -0.35706813889E+01  0.71801751104E+01  0.00000000000E+00 0.  1.
</event>
<event>
 7    1  0.1543346E-008  0.4614232E+02  0.7816164E-02  0.1320468E+00
        -11   -1    0    0    0    0  0.00000000000E+00  0.00000000000E+00  0.45593999997E+02  0.45594000000E+02  0.51100000000E-03 0.  1.
         11   -1    0    0    0    0 -0.00000000000E+00 -0.00000000000E+00 -0.45593999997E+02  0.45594000000E+02  0.51100000000E-03 0. -1.
    9900012    2    1    2    0    0  0.23438708155E+02  0.49918606637E+01 -0.38142120900E+02  0.46142322076E+02  0.10000039346E+02 0.  0.
        -12    1    1    2    0    0 -0.23438708155E+02 -0.49918606637E+01  0.38142120900E+02  0.45045677924E+02  0.00000000000E+00 0.  1.
         11    1    3    3    0    0  0.55448097890E+01  0.33296343871E+01 -0.83460893903E+01  0.10558815706E+02  0.51100000000E-03 0. -1.
        -11    1    3    3    0    0  0.15604440061E+02  0.21759916375E+01 -0.19736599268E+02  0.25254046015E+02  0.51100000000E-03 0.  1.
        -12    1    3    3    0    0  0.22894583050E+01 -0.51376536087E+00 -0.10059432242E+02  0.10329460354E+02  0.00000000000E+00 0.  1.
</event>
<event>
 7    1  0.1543346E-008  0.4614232E+02  0.7816164E-02  0.1320468E+00
        -11   -1    0    0    0    0  0.00000000000E+00  0.00000000000E+00  0.45593999997E+02  0.45594000000E+02  0.51100000000E-03 0. -1.
         11   -1    0    0    0    0 -0.00000000000E+00 -0.00000000000E+00 -0.45593999997E+02  0.45594000000E+02  0.51100000000E-03 0.  1.
    9900012    2    1    2    0    0  0.37947989838E+02 -0.21189545436E+01  0.24177959946E+02  0.46142315986E+02  0.99999838128E+01 0.  0.
        -12    1    1    2    0    0 -0.37947989838E+02  0.21189545436E+01 -0.24177959946E+02  0.45045684014E+02  0.00000000000E+00 0.  1.
         11    1    3    3    0    0  0.90750844393E+01  0.34814948124E+00  0.53817837202E+01  0.10556607500E+02  0.51100000000E-03 0. -1.
        -11    1    3    3    0    0  0.79156953925E+01 -0.82244769798E+00  0.95827678884E+00  0.80157936867E+01  0.51100000000E-03 0.  1.
        -12    1    3    3    0    0  0.20957210006E+02 -0.16446563269E+01  0.17837899437E+02  0.27569914799E+02  0.00000000000E+00 0.  1.
</event>
<event>
 7    1  0.1543346E-008  0.4614232E+02  0.7816164E-02  0.1320468E+00
        -11   -1    0    0    0    0  0.00000000000E+00  0.00000000000E+00  0.45593999997E+02  0.45594000000E+02  0.51100000000E-03 0. -1.
         11   -1    0    0    0    0 -0.00000000000E+00 -0.00000000000E+00 -0.45593999997E+02  0.45594000000E+02  0.51100000000E-03 0.  1.
    9900012    2    1    2    0    0  0.41221650362E+02 -0.16732324435E+02  0.70652963209E+01  0.46142317059E+02  0.99999935946E+01 0.  0.
        -12    1    1    2    0    0 -0.41221650362E+02  0.16732324435E+02 -0.70652963209E+01  0.45045682941E+02  0.00000000000E+00 0.  1.
         11    1    3    3    0    0  0.13821618505E+02 -0.67660330717E+01  0.63230893966E+01  0.16637241400E+02  0.51100000000E-03 0. -1.
        -11    1    3    3    0    0  0.13701466883E+02 -0.38924051524E+01 -0.16193181915E+01  0.14335382949E+02  0.51100000000E-03 0.  1.
        -12    1    3    3    0    0  0.13698564973E+02 -0.60738862108E+01  0.23615251158E+01  0.15169692709E+02  0.00000000000E+00 0.  1.
</event>
<event>
 7    1  0.1543346E-008  0.4614232E+02  0.7816164E-02  0.1320468E+00
        -11   -1    0    0    0    0  0.00000000000E+00  0.00000000000E+00  0.45593999997E+02  0.45594000000E+02  0.51100000000E-03 0.  1.
         11   -1    0    0    0    0 -0.00000000000E+00 -0.00000000000E+00 -0.45593999997E+02  0.45594000000E+02  0.51100000000E-03 0. -1.
    9900012    2    1    2    0    0 -0.21274888730E+01  0.27095577969E+02 -0.35922373432E+02  0.46142317995E+02  0.10000002128E+02 0.  0.
        -12    1    1    2    0    0  0.21274888730E+01 -0.27095577969E+02  0.35922373432E+02  0.45045682005E+02  0.00000000000E+00 0.  1.
         11    1    3    3    0    0 -0.31020912788E+00  0.23643202047E+02 -0.28051760611E+02  0.36687852300E+02  0.51100000000E-03 0. -1.
        -11    1    3    3    0    0  0.22545133841E+00  0.16084036598E+01 -0.69005856276E+00  0.17646449274E+01  0.51100000000E-03 0.  1.
         12    1    3    3    0    0 -0.20427310835E+01  0.18439722625E+01 -0.71805542578E+01  0.76898207673E+01  0.00000000000E+00 0. -1.
</event>
<event>
 7    1  0.1543346E-008  0.4614232E+02  0.7816164E-02  0.1320468E+00
        -11   -1    0    0    0    0  0.00000000000E+00  0.00000000000E+00  0.45593999997E+02  0.45594000000E+02  0.51100000000E-03 0. -1.
         11   -1    0    0    0    0 -0.00000000000E+00 -0.00000000000E+00 -0.45593999997E+02  0.45594000000E+02  0.51100000000E-03 0.  1.
    9900012    2    1    2    0    0  0.36405557053E+02  0.21834914593E+02  0.15066038106E+02  0.46142316702E+02  0.99999903384E+01 0.  0.
        -12    1    1    2    0    0 -0.36405557053E+02 -0.21834914593E+02 -0.15066038106E+02  0.45045683298E+02  0.00000000000E+00 0.  1.
         11    1    3    3    0    0  0.45019500300E-01 -0.34249731146E+00  0.96529498675E+00  0.10252442813E+01  0.51100000000E-03 0. -1.
        -11    1    3    3    0    0  0.30700503985E+01  0.35745901031E+01  0.12573783656E+01  0.48768744571E+01  0.51100000000E-03 0.  1.
         12    1    3    3    0    0  0.33290487154E+02  0.18602821802E+02  0.12843364753E+02  0.40240197963E+02  0.00000000000E+00 0. -1.
</event>
<event>
 7    1  0.1543346E-008  0.4614232E+02  0.7816164E-02  0.1320468E+00
        -11   -1    0    0    0    0  0.00000000000E+00  0.00000000000E+00  0.45593999997E+02  0.45594000000E+02  0.51100000000E-03 0.  1.
         11   -1    0    0    0    0 -0.00000000000E+00 -0.00000000000E+00 -0.45593999997E+02  0.45594000000E+02  0.51100000000E-03 0. -1.
    9900012    2    1    2    0    0 -0.16005270835E+02 -0.36238247768E+02 -0.21441413119E+02  0.46142317717E+02  0.99999995935E+01 0.  0.
        -12    1    1    2    0    0  0.16005270835E+02  0.36238247768E+02  0.21441413119E+02  0.45045682283E+02  0.00000000000E+00 0.  1.
         11    1    3    3    0    0 -0.91544707833E+01 -0.18008343970E+02 -0.12095839700E+02  0.23546000216E+02  0.51100000000E-03 0. -1.
        -11    1    3    3    0    0 -0.35394431469E+01 -0.21360157202E+01 -0.16269593083E+01  0.44426588659E+01  0.51100000000E-03 0.  1.
        -12    1    3    3    0    0 -0.33113569051E+01 -0.16093888078E+02 -0.77186141106E+01  0.18153658635E+02  0.00000000000E+00 0.  1.
</event>
<event>
 7    1  0.1543346E-008  0.4614232E+02  0.7816164E-02  0.1320468E+00
        -11   -1    0    0    0    0  0.00000000000E+00  0.00000000000E+00  0.45593999997E+02  0.45594000000E+02  0.51100000000E-03 0.  1.
         11   -1    0    0    0    0 -0.00000000000E+00 -0.00000000000E+00 -0.45593999997E+02  0.45594000000E+02  0.51100000000E-03 0. -1.
    9900012    2    1    2    0    0 -0.37256648264E+01 -0.44838314893E+02  0.21813902041E+01  0.46142317365E+02  0.99999963900E+01 0.  0.
        -12    1    1    2    0    0  0.37256648264E+01  0.44838314893E+02 -0.21813902041E+01  0.45045682635E+02  0.00000000000E+00 0.  1.
         11    1    3    3    0    0 -0.22467835117E+01 -0.50147900397E+01 -0.16484329895E+01  0.57370277037E+01  0.51100000000E-03 0. -1.
        -11    1    3    3    0    0 -0.31423971427E+00 -0.32854149884E+01  0.18762817182E+01  0.37964630370E+01  0.51100000000E-03 0.  1.
         12    1    3    3    0    0 -0.11646416004E+01 -0.36538109865E+02  0.19535414754E+01  0.36608826625E+02  0.00000000000E+00 0. -1.
</event>
<event>
 7    1  0.1543346E-008  0.4614232E+02  0.7816164E-02  0.1320468E+00
        -11   -1    0    0    0    0  0.00000000000E+00  0.00000000000E+00  0.45593999997E+02  0.45594000000E+02  0.51100000000E-03 0.  1.
         11   -1    0    0    0    0 -0.00000000000E+00 -0.00000000000E+00 -0.45593999997E+02  0.45594000000E+02  0.51100000000E-03 0. -1.
    9900012    2    1    2    0    0 -0.45209862462E+01  0.27448737042E+02 -0.35429379621E+02  0.46142318495E+02  0.10000006695E+02 0.  0.
        -12    1    1    2    0    0  0.45209862462E+01 -0.27448737042E+02  0.35429379621E+02  0.45045681505E+02  0.00000000000E+00 0.  1.
         11    1    3    3    0    0 -0.20166503740E-01  0.23033305350E+01 -0.64914909167E+01  0.68880470980E+01  0.51100000000E-03 0. -1.
        -11    1    3    3    0    0 -0.18289932682E+01  0.22595880118E+02 -0.23251327625E+02  0.32473731711E+02  0.51100000000E-03 0.  1.
         12    1    3    3    0    0 -0.26718264743E+01  0.25495263896E+01 -0.56865610801E+01  0.67805396863E+01  0.00000000000E+00 0. -1.
</event>
<event>
 7    1  0.1543346E-008  0.4614232E+02  0.7816164E-02  0.1320468E+00
        -11   -1    0    0    0    0  0.00000000000E+00  0.00000000000E+00  0.45593999997E+02  0.45594000000E+02  0.51100000000E-03 0. -1.
         11   -1    0    0    0    0 -0.00000000000E+00 -0.00000000000E+00 -0.45593999997E+02  0.45594000000E+02  0.51100000000E-03 0.  1.
    9900012    2    1    2    0    0 -0.35515919024E+02  0.87745402500E+01  0.26281941059E+02  0.46142317781E+02  0.10000000181E+02 0.  0.
        -12    1    1    2    0    0  0.35515919024E+02 -0.87745402500E+01 -0.26281941059E+02  0.45045682219E+02  0.00000000000E+00 0.  1.
         11    1    3    3    0    0 -0.26250518148E+02  0.72363720580E+01  0.21631683938E+02  0.34776206432E+02  0.51100000000E-03 0. -1.
        -11    1    3    3    0    0 -0.71639777254E+01  0.20778790251E-02  0.15712575142E+01  0.73342642170E+01  0.51100000000E-03 0.  1.
        -12    1    3    3    0    0 -0.21014231507E+01  0.15360903130E+01  0.30789996077E+01  0.40318471315E+01  0.00000000000E+00 0.  1.
</event>
<event>
 7    1  0.1543346E-008  0.4614232E+02  0.7816164E-02  0.1320468E+00
        -11   -1    0    0    0    0  0.00000000000E+00  0.00000000000E+00  0.45593999997E+02  0.45594000000E+02  0.51100000000E-03 0.  1.
         11   -1    0    0    0    0 -0.00000000000E+00 -0.00000000000E+00 -0.45593999997E+02  0.45594000000E+02  0.51100000000E-03 0. -1.
    9900012    2    1    2    0    0 -0.32120220527E+02  0.23830062523E+02 -0.20725179165E+02  0.46142317655E+02  0.99999990281E+01 0.  0.
        -12    1    1    2    0    0  0.32120220527E+02 -0.23830062523E+02  0.20725179165E+02  0.45045682345E+02  0.00000000000E+00 0.  1.
         11    1    3    3    0    0 -0.11866123187E+02  0.12469140563E+02 -0.95400753543E+01  0.19679872558E+02  0.51100000000E-03 0. -1.
        -11    1    3    3    0    0  0.36917720345E+00 -0.65822958518E-01 -0.21155169126E-01  0.37559588885E+00  0.51100000000E-03 0.  1.
         12    1    3    3    0    0 -0.20623274543E+02  0.11426744919E+02 -0.11163948642E+02  0.26086849208E+02  0.00000000000E+00 0. -1.
</event>
<event>
 7    1  0.1543346E-008  0.4614232E+02  0.7816164E-02  0.1320468E+00
        -11   -1    0    0    0    0  0.00000000000E+00  0.00000000000E+00  0.45593999997E+02  0.45594000000E+02  0.51100000000E-03 0.  1.
         11   -1    0    0    0    0 -0.00000000000E+00 -0.00000000000E+00 -0.45593999997E+02  0.45594000000E+02  0.51100000000E-03 0. -1.
    9900012    2    1    2    0    0  0.38202160932E+02 -0.10493817739E+02 -0.21438006672E+02  0.46142318290E+02  0.10000004826E+02 0.  0.
        -12    1    1    2    0    0 -0.38202160932E+02  0.10493817739E+02  0.21438006672E+02  0.45045681710E+02  0.00000000000E+00 0.  1.
         11    1    3    3    0    0  0.29300254442E+02 -0.68605992100E+01 -0.13522377890E+02  0.32991323647E+02  0.51100000000E-03 0. -1.
        -11    1    3    3    0    0  0.15693006800E+01 -0.25574218259E+01 -0.15288224682E+01  0.33675524376E+01  0.51100000000E-03 0.  1.
        -12    1    3    3    0    0  0.73326058095E+01 -0.10757967034E+01 -0.63868063138E+01  0.97834422058E+01  0.00000000000E+00 0.  1.
</event>
<event>
 7    1  0.1543346E-008  0.4614232E+02  0.7816164E-02  0.1320468E+00
        -11   -1    0    0    0    0  0.00000000000E+00  0.00000000000E+00  0.45593999997E+02  0.45594000000E+02  0.51100000000E-03 0.  1.
         11   -1    0    0    0    0 -0.00000000000E+00 -0.00000000000E+00 -0.45593999997E+02  0.45594000000E+02  0.51100000000E-03 0. -1.
    9900012    2    1    2    0    0  0.24418426430E+02  0.24687365412E+02 -0.28694737807E+02  0.46142317209E+02  0.99999949646E+01 0.  0.
        -12    1    1    2    0    0 -0.24418426430E+02 -0.24687365412E+02  0.28694737807E+02  0.45045682791E+02  0.00000000000E+00 0.  1.
         11    1    3    3    0    0  0.78978686829E+01  0.57977746633E+01 -0.11429915309E+02  0.15054351033E+02  0.51100000000E-03 0. -1.
        -11    1    3    3    0    0  0.14390380581E+02  0.13286683625E+02 -0.11207088197E+02  0.22565855648E+02  0.51100000000E-03 0.  1.
         12    1    3    3    0    0  0.21301771665E+01  0.56029071240E+01 -0.60577343008E+01  0.85221105285E+01  0.00000000000E+00 0. -1.
</event>
<event>
 7    1  0.1543346E-008  0.4614232E+02  0.7816164E-02  0.1320468E+00
        -11   -1    0    0    0    0  0.00000000000E+00  0.00000000000E+00  0.45593999997E+02  0.45594000000E+02  0.51100000000E-03 0.  1.
         11   -1    0    0    0    0 -0.00000000000E+00 -0.00000000000E+00 -0.45593999997E+02  0.45594000000E+02  0.51100000000E-03 0. -1.
    9900012    2    1    2    0    0  0.18116778509E+02 -0.11179514780E+02 -0.39697788629E+02  0.46142316119E+02  0.99999850270E+01 0.  0.
        -12    1    1    2    0    0 -0.18116778509E+02  0.11179514780E+02  0.39697788629E+02  0.45045683881E+02  0.00000000000E+00 0.  1.
         11    1    3    3    0    0  0.86837605120E+00 -0.42799528570E+01 -0.82138402172E+01  0.93026471931E+01  0.51100000000E-03 0. -1.
        -11    1    3    3    0    0  0.12391755399E+02 -0.35471094154E+01 -0.18180488695E+02  0.22286043986E+02  0.51100000000E-03 0.  1.
         12    1    3    3    0    0  0.48566470588E+01 -0.33524525078E+01 -0.13303459717E+02  0.14553624940E+02  0.00000000000E+00 0. -1.
</event>
<event>
 7    1  0.1543346E-008  0.4614232E+02  0.7816164E-02  0.1320468E+00
        -11   -1    0    0    0    0  0.00000000000E+00  0.00000000000E+00  0.45593999997E+02  0.45594000000E+02  0.51100000000E-03 0.  1.
         11   -1    0    0    0    0 -0.00000000000E+00 -0.00000000000E+00 -0.45593999997E+02  0.45594000000E+02  0.51100000000E-03 0. -1.
    9900012    2    1    2    0    0 -0.28479796022E+02 -0.15825770187E+02 -0.31105622416E+02  0.46142317306E+02  0.99999958517E+01 0.  0.
        -12    1    1    2    0    0  0.28479796022E+02  0.15825770187E+02  0.31105622416E+02  0.45045682694E+02  0.00000000000E+00 0.  1.
         11    1    3    3    0    0 -0.10925788041E+02 -0.58643394241E+01 -0.12376089042E+02  0.17519443525E+02  0.51100000000E-03 0. -1.
        -11    1    3    3    0    0 -0.12869933411E+02 -0.86991703441E+01 -0.95351429915E+01  0.18227169358E+02  0.51100000000E-03 0.  1.
        -12    1    3    3    0    0 -0.46840745700E+01 -0.12622604189E+01 -0.91943903822E+01  0.10395704423E+02  0.00000000000E+00 0.  1.
</event>
<event>
 7    1  0.1543346E-008  0.4614232E+02  0.7816164E-02  0.1320468E+00
        -11   -1    0    0    0    0  0.00000000000E+00  0.00000000000E+00  0.45593999997E+02  0.45594000000E+02  0.51100000000E-03 0.  1.
         11   -1    0    0    0    0 -0.00000000000E+00 -0.00000000000E+00 -0.45593999997E+02  0.45594000000E+02  0.51100000000E-03 0. -1.
    9900012    2    1    2    0    0 -0.18830927172E+02  0.22635175699E+02 -0.34090446275E+02  0.46142317362E+02  0.99999963632E+01 0.  0.
        -12    1    1    2    0    0  0.18830927172E+02 -0.22635175699E+02  0.34090446275E+02  0.45045682638E+02  0.00000000000E+00 0.  1.
         11    1    3    3    0    0 -0.78789306177E+01  0.12266277802E+02 -0.14469529728E+02  0.20540360503E+02  0.51100000000E-03 0. -1.
        -11    1    3    3    0    0 -0.25745805613E+01  0.52921094458E+01 -0.11335548656E+02  0.12772217938E+02  0.51100000000E-03 0.  1.
         12    1    3    3    0    0 -0.83774159934E+01  0.50767884507E+01 -0.82853678904E+01  0.12829738921E+02  0.00000000000E+00 0. -1.
</event>
<event>
 7    1  0.1543346E-008  0.4614232E+02  0.7816164E-02  0.1320468E+00
        -11   -1    0    0    0    0  0.00000000000E+00  0.00000000000E+00  0.45593999997E+02  0.45594000000E+02  0.51100000000E-03 0. -1.
         11   -1    0    0    0    0 -0.00000000000E+00 -0.00000000000E+00 -0.45593999997E+02  0.45594000000E+02  0.51100000000E-03 0.  1.
    9900012    2    1    2    0    0  0.98698897392E+00 -0.41158385725E+02  0.18279130376E+02  0.46142317965E+02  0.10000001859E+02 0.  0.
        -12    1    1    2    0    0 -0.98698897392E+00  0.41158385725E+02 -0.18279130376E+02  0.45045682035E+02  0.00000000000E+00 0.  1.
         11    1    3    3    0    0 -0.28861860521E+00 -0.87812527369E+01  0.21172898652E+01  0.90375116577E+01  0.51100000000E-03 0. -1.
        -11    1    3    3    0    0  0.42956835750E+01 -0.25675438707E+02  0.12108431122E+02  0.28710540828E+02  0.51100000000E-03 0.  1.
        -12    1    3    3    0    0 -0.30200759958E+01 -0.67016942809E+01  0.40534093890E+01  0.83942654789E+01  0.00000000000E+00 0.  1.
</event>
<event>
 7    1  0.1543346E-008  0.4614232E+02  0.7816164E-02  0.1320468E+00
        -11   -1    0    0    0    0  0.00000000000E+00  0.00000000000E+00  0.45593999997E+02  0.45594000000E+02  0.51100000000E-03 0.  1.
         11   -1    0    0    0    0 -0.00000000000E+00 -0.00000000000E+00 -0.45593999997E+02  0.45594000000E+02  0.51100000000E-03 0. -1.
    9900012    2    1    2    0    0  0.44275574632E+02 -0.69253589220E+01 -0.45636152223E+01  0.46142315534E+02  0.99999796871E+01 0.  0.
        -12    1    1    2    0    0 -0.44275574632E+02  0.69253589220E+01  0.45636152223E+01  0.45045684466E+02  0.00000000000E+00 0.  1.
         11    1    3    3    0    0  0.33716314836E+02 -0.45212299298E+01 -0.27747268236E+01  0.34131078439E+02  0.51100000000E-03 0. -1.
        -11    1    3    3    0    0  0.13602726061E+01  0.66915750458E+00 -0.17461038833E+01  0.23123564520E+01  0.51100000000E-03 0.  1.
        -12    1    3    3    0    0  0.91989871898E+01 -0.30732864968E+01 -0.42784515342E-01  0.96988806429E+01  0.00000000000E+00 0.  1.
</event>
<event>
 7    1  0.1543346E-008  0.4614232E+02  0.7816164E-02  0.1320468E+00
        -11   -1    0    0    0    0  0.00000000000E+00  0.00000000000E+00  0.45593999997E+02  0.45594000000E+02  0.51100000000E-03 0. -1.
         11   -1    0    0    0    0 -0.00000000000E+00 -0.00000000000E+00 -0.45593999997E+02  0.45594000000E+02  0.51100000000E-03 0.  1.
    9900012    2    1    2    0    0  0.18820738402E+02  0.83590814838E+01  0.40062688372E+02  0.46142318333E+02  0.10000005215E+02 0.  0.
        -12    1    1    2    0    0 -0.18820738402E+02 -0.83590814838E+01 -0.40062688372E+02  0.45045681667E+02  0.00000000000E+00 0.  1.
         11    1    3    3    0    0  0.10145102355E+02  0.61681157803E+01  0.26559656224E+02  0.29092681091E+02  0.51100000000E-03 0. -1.
        -11    1    3    3    0    0  0.41929501645E+01 -0.15797926325E+01  0.68503996714E+01  0.81856308103E+01  0.51100000000E-03 0.  1.
         12    1    3    3    0    0  0.44826858822E+01  0.37707583360E+01  0.66526324771E+01  0.88640064318E+01  0.00000000000E+00 0. -1.
</event>
<event>
 7    1  0.1543346E-008  0.4614232E+02  0.7816164E-02  0.1320468E+00
        -11   -1    0    0    0    0  0.00000000000E+00  0.00000000000E+00  0.45593999997E+02  0.45594000000E+02  0.51100000000E-03 0.  1.
         11   -1    0    0    0    0 -0.00000000000E+00 -0.00000000000E+00 -0.45593999997E+02  0.45594000000E+02  0.51100000000E-03 0. -1.
    9900012    2    1    2    0    0 -0.17539846356E+02 -0.20767256359E+02 -0.35919190782E+02  0.46142318594E+02  0.10000007599E+02 0.  0.
        -12    1    1    2    0    0  0.17539846356E+02  0.20767256359E+02  0.35919190782E+02  0.45045681406E+02  0.00000000000E+00 0.  1.
         11    1    3    3    0    0 -0.71138015864E+01 -0.36080514326E+01 -0.73729415687E+01  0.10862065908E+02  0.51100000000E-03 0. -1.
        -11    1    3    3    0    0 -0.23810027218E+01 -0.15249386672E+01 -0.20981123187E+01  0.35208929923E+01  0.51100000000E-03 0.  1.
         12    1    3    3    0    0 -0.80450420482E+01 -0.15634266259E+02 -0.26448136894E+02  0.31759359694E+02  0.00000000000E+00 0. -1.
</event>
<event>
 7    1  0.1543346E-008  0.4614231E+02  0.7816164E-02  0.1320468E+00
        -11   -1    0    0    0    0  0.00000000000E+00  0.00000000000E+00  0.45593999997E+02  0.45594000000E+02  0.51100000000E-03 0.  1.
         11   -1    0    0    0    0 -0.00000000000E+00 -0.00000000000E+00 -0.45593999997E+02  0.45594000000E+02  0.51100000000E-03 0. -1.
    9900012    2    1    2    0    0 -0.86577454099E+01  0.22252199538E+02 -0.38196818053E+02  0.46142313756E+02  0.99999634789E+01 0.  0.
        -12    1    1    2    0    0  0.86577454099E+01 -0.22252199538E+02  0.38196818053E+02  0.45045686244E+02  0.00000000000E+00 0.  1.
         11    1    3    3    0    0 -0.36882011582E+01  0.14193376172E+02 -0.25121385173E+02  0.29088464177E+02  0.51100000000E-03 0. -1.
        -11    1    3    3    0    0 -0.61886343814E+01  0.67416407305E+01 -0.11055597891E+02  0.14351834734E+02  0.51100000000E-03 0.  1.
        -12    1    3    3    0    0  0.12190901296E+01  0.13171826355E+01 -0.20198349891E+01  0.27020148450E+01  0.00000000000E+00 0.  1.
</event>
<event>
 7    1  0.1543346E-008  0.4614232E+02  0.7816164E-02  0.1320468E+00
        -11   -1    0    0    0    0  0.00000000000E+00  0.00000000000E+00  0.45593999997E+02  0.45594000000E+02  0.51100000000E-03 0.  1.
         11   -1    0    0    0    0 -0.00000000000E+00 -0.00000000000E+00 -0.45593999997E+02  0.45594000000E+02  0.51100000000E-03 0. -1.
    9900012    2    1    2    0    0 -0.16339035977E+01  0.44725189575E+02 -0.51089452903E+01  0.46142317127E+02  0.99999942220E+01 0.  0.
        -12    1    1    2    0    0  0.16339035977E+01 -0.44725189575E+02  0.51089452903E+01  0.45045682873E+02  0.00000000000E+00 0.  1.
         11    1    3    3    0    0 -0.24318811612E-01  0.31117104848E+02 -0.43691820632E+01  0.31422357608E+02  0.51100000000E-03 0. -1.
        -11    1    3    3    0    0 -0.30671887011E+01  0.51229272495E+01 -0.12310273165E+01  0.60965120066E+01  0.51100000000E-03 0.  1.
         12    1    3    3    0    0  0.14576039151E+01  0.84851574777E+01  0.49126408941E+00  0.86234475124E+01  0.00000000000E+00 0. -1.
</event>
<event>
 7    1  0.1543346E-008  0.4614232E+02  0.7816164E-02  0.1320468E+00
        -11   -1    0    0    0    0  0.00000000000E+00  0.00000000000E+00  0.45593999997E+02  0.45594000000E+02  0.51100000000E-03 0. -1.
         11   -1    0    0    0    0 -0.00000000000E+00 -0.00000000000E+00 -0.45593999997E+02  0.45594000000E+02  0.51100000000E-03 0.  1.
    9900012    2    1    2    0    0 -0.44698701886E+02 -0.34432851412E+00  0.55696494939E+01  0.46142317544E+02  0.99999980183E+01 0.  0.
        -12    1    1    2    0    0  0.44698701886E+02  0.34432851412E+00 -0.55696494939E+01  0.45045682456E+02  0.00000000000E+00 0.  1.
         11    1    3    3    0    0 -0.41609046166E+02 -0.89596814087E+00  0.73599124214E+01  0.42264450698E+02  0.51100000000E-03 0. -1.
        -11    1    3    3    0    0 -0.22387231228E+00  0.25836810039E+00  0.18138374624E+00  0.38700544185E+00  0.51100000000E-03 0.  1.
         12    1    3    3    0    0 -0.28657834085E+01  0.29327152637E+00 -0.19716466737E+01  0.34908614035E+01  0.00000000000E+00 0. -1.
</event>
<event>
 7    1  0.1543346E-008  0.4614232E+02  0.7816164E-02  0.1320468E+00
        -11   -1    0    0    0    0  0.00000000000E+00  0.00000000000E+00  0.45593999997E+02  0.45594000000E+02  0.51100000000E-03 0. -1.
         11   -1    0    0    0    0 -0.00000000000E+00 -0.00000000000E+00 -0.45593999997E+02  0.45594000000E+02  0.51100000000E-03 0.  1.
    9900012    2    1    2    0    0  0.41302439296E+02  0.15960048467E+02  0.82764068847E+01  0.46142317079E+02  0.99999937789E+01 0.  0.
        -12    1    1    2    0    0 -0.41302439296E+02 -0.15960048467E+02 -0.82764068847E+01  0.45045682921E+02  0.00000000000E+00 0.  1.
         11    1    3    3    0    0  0.95524654295E+01  0.47629905291E+01  0.44496724695E+00  0.10683336121E+02  0.51100000000E-03 0. -1.
        -11    1    3    3    0    0  0.60055354632E+01  0.55181088443E+01  0.27764198072E+01  0.86153635224E+01  0.51100000000E-03 0.  1.
         12    1    3    3    0    0  0.25744438404E+02  0.56789490938E+01  0.50550198306E+01  0.26843617435E+02  0.00000000000E+00 0. -1.
</event>
<event>
 7    1  0.1543346E-008  0.4614232E+02  0.7816164E-02  0.1320468E+00
        -11   -1    0    0    0    0  0.00000000000E+00  0.00000000000E+00  0.45593999997E+02  0.45594000000E+02  0.51100000000E-03 0. -1.
         11   -1    0    0    0    0 -0.00000000000E+00 -0.00000000000E+00 -0.45593999997E+02  0.45594000000E+02  0.51100000000E-03 0.  1.
    9900012    2    1    2    0    0 -0.55256172065E+01 -0.13843364360E+02  0.42508144155E+02  0.46142317611E+02  0.99999986356E+01 0.  0.
        -12    1    1    2    0    0  0.55256172065E+01  0.13843364360E+02 -0.42508144155E+02  0.45045682389E+02  0.00000000000E+00 0.  1.
         11    1    3    3    0    0 -0.72397852425E+01 -0.13157178108E+02  0.39256742084E+02  0.42031150655E+02  0.51100000000E-03 0. -1.
        -11    1    3    3    0    0  0.47025606279E+00  0.41679442574E-01 -0.82346255364E-01  0.47922761546E+00  0.51100000000E-03 0.  1.
         12    1    3    3    0    0  0.12439119732E+01 -0.72786569389E+00  0.33337483273E+01  0.36319393408E+01  0.00000000000E+00 0. -1.
</event>
<event>
 7    1  0.1543346E-008  0.4614232E+02  0.7816164E-02  0.1320468E+00
        -11   -1    0    0    0    0  0.00000000000E+00  0.00000000000E+00  0.45593999997E+02  0.45594000000E+02  0.51100000000E-03 0.  1.
         11   -1    0    0    0    0 -0.00000000000E+00 -0.00000000000E+00 -0.45593999997E+02  0.45594000000E+02  0.51100000000E-03 0. -1.
    9900012    2    1    2    0    0  0.12761879615E+02 -0.41532295190E+02 -0.11887663860E+02  0.46142315777E+02  0.99999819085E+01 0.  0.
        -12    1    1    2    0    0 -0.12761879615E+02  0.41532295190E+02  0.11887663860E+02  0.45045684223E+02  0.00000000000E+00 0.  1.
         11    1    3    3    0    0  0.10476662572E+02 -0.24698658458E+02 -0.62540230327E+01  0.27548085099E+02  0.51100000000E-03 0. -1.
        -11    1    3    3    0    0 -0.30828019935E-01 -0.20896000682E+01 -0.26486365069E+01  0.33738189665E+01  0.51100000000E-03 0.  1.
         12    1    3    3    0    0  0.23160450632E+01 -0.14744036664E+02 -0.29850043206E+01  0.15220411712E+02  0.00000000000E+00 0. -1.
</event>
<event>
 7    1  0.1543346E-008  0.4614232E+02  0.7816164E-02  0.1320468E+00
        -11   -1    0    0    0    0  0.00000000000E+00  0.00000000000E+00  0.45593999997E+02  0.45594000000E+02  0.51100000000E-03 0. -1.
         11   -1    0    0    0    0 -0.00000000000E+00 -0.00000000000E+00 -0.45593999997E+02  0.45594000000E+02  0.51100000000E-03 0.  1.
    9900012    2    1    2    0    0 -0.32304801219E+02 -0.29402319451E+02  0.11000776040E+02  0.46142316030E+02  0.99999842116E+01 0.  0.
        -12    1    1    2    0    0  0.32304801219E+02  0.29402319451E+02 -0.11000776040E+02  0.45045683970E+02  0.00000000000E+00 0.  1.
         11    1    3    3    0    0 -0.62839405723E+01 -0.52684602448E+01  0.29843431233E+01  0.87264475364E+01  0.51100000000E-03 0. -1.
        -11    1    3    3    0    0 -0.87732454474E+01 -0.35612011470E+01  0.26138344814E+00  0.94720805982E+01  0.51100000000E-03 0.  1.
        -12    1    3    3    0    0 -0.17247615199E+02 -0.20572658059E+02  0.77550494688E+01  0.27943787895E+02  0.00000000000E+00 0.  1.
</event>
<event>
 7    1  0.1543346E-008  0.4614232E+02  0.7816164E-02  0.1320468E+00
        -11   -1    0    0    0    0  0.00000000000E+00  0.00000000000E+00  0.45593999997E+02  0.45594000000E+02  0.51100000000E-03 0.  1.
         11   -1    0    0    0    0 -0.00000000000E+00 -0.00000000000E+00 -0.45593999997E+02  0.45594000000E+02  0.51100000000E-03 0. -1.
    9900012    2    1    2    0    0 -0.30129672883E+02 -0.16885106270E+02 -0.28917287119E+02  0.46142317675E+02  0.99999992183E+01 0.  0.
        -12    1    1    2    0    0  0.30129672883E+02  0.16885106270E+02  0.28917287119E+02  0.45045682325E+02  0.00000000000E+00 0.  1.
         11    1    3    3    0    0 -0.15204635292E+02 -0.12631412512E+02 -0.12359731354E+02  0.23313010869E+02  0.51100000000E-03 0. -1.
        -11    1    3    3    0    0 -0.14345730547E+02 -0.35243928588E+01 -0.15340596855E+02  0.21296836433E+02  0.51100000000E-03 0.  1.
        -12    1    3    3    0    0 -0.57930704393E+00 -0.72930089953E+00 -0.12169589104E+01  0.15324703726E+01  0.00000000000E+00 0.  1.
</event>
<event>
 7    1  0.1543346E-008  0.4614232E+02  0.7816164E-02  0.1320468E+00
        -11   -1    0    0    0    0  0.00000000000E+00  0.00000000000E+00  0.45593999997E+02  0.45594000000E+02  0.51100000000E-03 0.  1.
         11   -1    0    0    0    0 -0.00000000000E+00 -0.00000000000E+00 -0.45593999997E+02  0.45594000000E+02  0.51100000000E-03 0. -1.
    9900012    2    1    2    0    0 -0.36950499411E+01 -0.18137153803E+02 -0.41067063844E+02  0.46142317910E+02  0.10000001360E+02 0.  0.
        -12    1    1    2    0    0  0.36950499411E+01  0.18137153803E+02  0.41067063844E+02  0.45045682090E+02  0.00000000000E+00 0.  1.
         11    1    3    3    0    0  0.16295540167E+01 -0.42413626772E+01 -0.62185518903E+01  0.77016226554E+01  0.51100000000E-03 0. -1.
        -11    1    3    3    0    0 -0.64327391120E+01 -0.13637815631E+02 -0.32059846335E+02  0.35428856811E+02  0.51100000000E-03 0.  1.
        -12    1    3    3    0    0  0.11081351542E+01 -0.25797549470E+00 -0.27886656195E+01  0.30118384440E+01  0.00000000000E+00 0.  1.
</event>
<event>
 7    1  0.1543346E-008  0.4614232E+02  0.7816164E-02  0.1320468E+00
        -11   -1    0    0    0    0  0.00000000000E+00  0.00000000000E+00  0.45593999997E+02  0.45594000000E+02  0.51100000000E-03 0.  1.
         11   -1    0    0    0    0 -0.00000000000E+00 -0.00000000000E+00 -0.45593999997E+02  0.45594000000E+02  0.51100000000E-03 0. -1.
    9900012    2    1    2    0    0  0.22167389884E+01 -0.11663369620E+02 -0.43453025200E+02  0.46142317392E+02  0.99999966339E+01 0.  0.
        -12    1    1    2    0    0 -0.22167389884E+01  0.11663369620E+02  0.43453025200E+02  0.45045682608E+02  0.00000000000E+00 0.  1.
         11    1    3    3    0    0 -0.17265158055E+00 -0.49560426333E+01 -0.19260388989E+02  0.19888558304E+02  0.51100000000E-03 0. -1.
        -11    1    3    3    0    0 -0.14700407937E+00  0.12925910740E+01 -0.11717181465E+01  0.17508071167E+01  0.51100000000E-03 0.  1.
        -12    1    3    3    0    0  0.25363946483E+01 -0.79999180604E+01 -0.23020918064E+02  0.24502951971E+02  0.00000000000E+00 0.  1.
</event>
<event>
 7    1  0.1543346E-008  0.4614232E+02  0.7816164E-02  0.1320468E+00
        -11   -1    0    0    0    0  0.00000000000E+00  0.00000000000E+00  0.45593999997E+02  0.45594000000E+02  0.51100000000E-03 0. -1.
         11   -1    0    0    0    0 -0.00000000000E+00 -0.00000000000E+00 -0.45593999997E+02  0.45594000000E+02  0.51100000000E-03 0.  1.
    9900012    2    1    2    0    0  0.34069274145E+02  0.46582726116E+00  0.29464913175E+02  0.46142317141E+02  0.99999943423E+01 0.  0.
        -12    1    1    2    0    0 -0.34069274145E+02 -0.46582726116E+00 -0.29464913175E+02  0.45045682859E+02  0.00000000000E+00 0.  1.
         11    1    3    3    0    0  0.10709720868E+02  0.35611727342E+01  0.12493356426E+02  0.16836389974E+02  0.51100000000E-03 0. -1.
        -11    1    3    3    0    0  0.18439405889E+02 -0.78707020940E+00  0.13197636837E+02  0.22689398128E+02  0.51100000000E-03 0.  1.
         12    1    3    3    0    0  0.49201473889E+01 -0.23082752637E+01  0.37739199125E+01  0.66165290393E+01  0.00000000000E+00 0. -1.
</event>
<event>
 7    1  0.1543346E-008  0.4614230E+02  0.7816164E-02  0.1320468E+00
        -11   -1    0    0    0    0  0.00000000000E+00  0.00000000000E+00  0.45593999997E+02  0.45594000000E+02  0.51100000000E-03 0.  1.
         11   -1    0    0    0    0 -0.00000000000E+00 -0.00000000000E+00 -0.45593999997E+02  0.45594000000E+02  0.51100000000E-03 0. -1.
    9900012    2    1    2    0    0 -0.31319862010E+02 -0.31277123608E+02 -0.83619650930E+01  0.46142304559E+02  0.99998796152E+01 0.  0.
        -12    1    1    2    0    0  0.31319862010E+02  0.31277123608E+02  0.83619650930E+01  0.45045695441E+02  0.00000000000E+00 0.  1.
         11    1    3    3    0    0 -0.18810414611E+02 -0.19964216361E+02 -0.41811703318E+01  0.27746780325E+02  0.51100000000E-03 0. -1.
        -11    1    3    3    0    0 -0.30738977491E+00 -0.26557290701E+01 -0.18565835361E+01  0.32548867961E+01  0.51100000000E-03 0.  1.
        -12    1    3    3    0    0 -0.12202057624E+02 -0.86571781764E+01 -0.23242112251E+01  0.15140637439E+02  0.00000000000E+00 0.  1.
</event>
<event>
 7    1  0.1543346E-008  0.4614232E+02  0.7816164E-02  0.1320468E+00
        -11   -1    0    0    0    0  0.00000000000E+00  0.00000000000E+00  0.45593999997E+02  0.45594000000E+02  0.51100000000E-03 0.  1.
         11   -1    0    0    0    0 -0.00000000000E+00 -0.00000000000E+00 -0.45593999997E+02  0.45594000000E+02  0.51100000000E-03 0. -1.
    9900012    2    1    2    0    0 -0.39196830159E+02 -0.78389624160E+01  0.20767107194E+02  0.46142316883E+02  0.99999919940E+01 0.  0.
        -12    1    1    2    0    0  0.39196830159E+02  0.78389624160E+01 -0.20767107194E+02  0.45045683117E+02  0.00000000000E+00 0.  1.
         11    1    3    3    0    0 -0.13249950580E+02 -0.50794555297E+01  0.47546111902E+01  0.14965573383E+02  0.51100000000E-03 0. -1.
        -11    1    3    3    0    0 -0.20668485486E+02 -0.27769482766E+00  0.10645966266E+02  0.23250806539E+02  0.51100000000E-03 0.  1.
         12    1    3    3    0    0 -0.52783940929E+01 -0.24818120586E+01  0.53665297370E+01  0.79259369612E+01  0.00000000000E+00 0. -1.
</event>
<event>
 7    1  0.1543346E-008  0.4614232E+02  0.7816164E-02  0.1320468E+00
        -11   -1    0    0    0    0  0.00000000000E+00  0.00000000000E+00  0.45593999997E+02  0.45594000000E+02  0.51100000000E-03 0.  1.
         11   -1    0    0    0    0 -0.00000000000E+00 -0.00000000000E+00 -0.45593999997E+02  0.45594000000E+02  0.51100000000E-03 0. -1.
    9900012    2    1    2    0    0  0.58410158386E+01 -0.31623696160E+02 -0.31542635197E+02  0.46142318076E+02  0.10000002871E+02 0.  0.
        -12    1    1    2    0    0 -0.58410158386E+01  0.31623696160E+02  0.31542635197E+02  0.45045681924E+02  0.00000000000E+00 0.  1.
         11    1    3    3    0    0  0.50397258562E+01 -0.12105922609E+02 -0.11833662391E+02  0.17663175387E+02  0.51100000000E-03 0. -1.
        -11    1    3    3    0    0 -0.20368713222E+01 -0.10529610702E+02 -0.76502805112E+01  0.13173774649E+02  0.51100000000E-03 0.  1.
        -12    1    3    3    0    0  0.28381613045E+01 -0.89881628484E+01 -0.12058692295E+02  0.15305368040E+02  0.00000000000E+00 0.  1.
</event>
<event>
 7    1  0.1543346E-008  0.4614232E+02  0.7816164E-02  0.1320468E+00
        -11   -1    0    0    0    0  0.00000000000E+00  0.00000000000E+00  0.45593999997E+02  0.45594000000E+02  0.51100000000E-03 0.  1.
         11   -1    0    0    0    0 -0.00000000000E+00 -0.00000000000E+00 -0.45593999997E+02  0.45594000000E+02  0.51100000000E-03 0. -1.
    9900012    2    1    2    0    0 -0.14755912745E+02 -0.42479780232E+02 -0.26162540517E+01  0.46142317912E+02  0.10000001373E+02 0.  0.
        -12    1    1    2    0    0  0.14755912745E+02  0.42479780232E+02  0.26162540517E+01  0.45045682088E+02  0.00000000000E+00 0.  1.
         11    1    3    3    0    0 -0.89558026956E+01 -0.30516213951E+02 -0.20250341443E+01  0.31867640004E+02  0.51100000000E-03 0. -1.
        -11    1    3    3    0    0 -0.25587675152E+01 -0.11886284170E+01 -0.10576572406E+01  0.30130993695E+01  0.51100000000E-03 0.  1.
        -12    1    3    3    0    0 -0.32413425341E+01 -0.10774937864E+02  0.46643733322E+00  0.11261578539E+02  0.00000000000E+00 0.  1.
</event>
<event>
 7    1  0.1543346E-008  0.4614232E+02  0.7816164E-02  0.1320468E+00
        -11   -1    0    0    0    0  0.00000000000E+00  0.00000000000E+00  0.45593999997E+02  0.45594000000E+02  0.51100000000E-03 0.  1.
         11   -1    0    0    0    0 -0.00000000000E+00 -0.00000000000E+00 -0.45593999997E+02  0.45594000000E+02  0.51100000000E-03 0. -1.
    9900012    2    1    2    0    0  0.42648995302E+02  0.14446208457E+02  0.12180808293E+01  0.46142318076E+02  0.10000002872E+02 0.  0.
        -12    1    1    2    0    0 -0.42648995302E+02 -0.14446208457E+02 -0.12180808293E+01  0.45045681924E+02  0.00000000000E+00 0.  1.
         11    1    3    3    0    0  0.19101179822E+02  0.27537897140E+01  0.50259332882E+00  0.19305207295E+02  0.51100000000E-03 0. -1.
        -11    1    3    3    0    0  0.52372806179E+01  0.48917917429E+01 -0.97014139308E+00  0.72318676226E+01  0.51100000000E-03 0.  1.
         12    1    3    3    0    0  0.18310534863E+02  0.68006269999E+01  0.16856288936E+01  0.19605243159E+02  0.00000000000E+00 0. -1.
</event>
<event>
 7    1  0.1543346E-008  0.4614232E+02  0.7816164E-02  0.1320468E+00
        -11   -1    0    0    0    0  0.00000000000E+00  0.00000000000E+00  0.45593999997E+02  0.45594000000E+02  0.51100000000E-03 0.  1.
         11   -1    0    0    0    0 -0.00000000000E+00 -0.00000000000E+00 -0.45593999997E+02  0.45594000000E+02  0.51100000000E-03 0. -1.
    9900012    2    1    2    0    0 -0.26722804675E+02 -0.11854119609E+02 -0.34270760720E+02  0.46142317834E+02  0.10000000668E+02 0.  0.
        -12    1    1    2    0    0  0.26722804675E+02  0.11854119609E+02  0.34270760720E+02  0.45045682166E+02  0.00000000000E+00 0.  1.
         11    1    3    3    0    0 -0.17313708297E+02 -0.98415947861E+01 -0.16845262241E+02  0.26084178024E+02  0.51100000000E-03 0. -1.
        -11    1    3    3    0    0 -0.35493553975E+00 -0.11219004914E+00 -0.53210030343E-01  0.37602847359E+00  0.51100000000E-03 0.  1.
         12    1    3    3    0    0 -0.90541608382E+01 -0.19003347735E+01 -0.17372288449E+02  0.19682111337E+02  0.00000000000E+00 0. -1.
</event>
<event>
 7    1  0.1543346E-008  0.4614232E+02  0.7816164E-02  0.1320468E+00
        -11   -1    0    0    0    0  0.00000000000E+00  0.00000000000E+00  0.45593999997E+02  0.45594000000E+02  0.51100000000E-03 0.  1.
         11   -1    0    0    0    0 -0.00000000000E+00 -0.00000000000E+00 -0.45593999997E+02  0.45594000000E+02  0.51100000000E-03 0. -1.
    9900012    2    1    2    0    0  0.33698986813E+02 -0.18159588752E+02 -0.23742815882E+02  0.46142315614E+02  0.99999804191E+01 0.  0.
        -12    1    1    2    0    0 -0.33698986813E+02  0.18159588752E+02  0.23742815882E+02  0.45045684386E+02  0.00000000000E+00 0.  1.
         11    1    3    3    0    0  0.20983588491E+02 -0.14086666805E+02 -0.14495928736E+02  0.29135495839E+02  0.51100000000E-03 0. -1.
        -11    1    3    3    0    0  0.10820037590E+02 -0.17420157727E+01 -0.56816762286E+01  0.12344605196E+02  0.51100000000E-03 0.  1.
        -12    1    3    3    0    0  0.18953607317E+01 -0.23309061738E+01 -0.35652109176E+01  0.46622145791E+01  0.00000000000E+00 0.  1.
</event>
<event>
 7    1  0.1543346E-008  0.4614232E+02  0.7816164E-02  0.1320468E+00
        -11   -1    0    0    0    0  0.00000000000E+00  0.00000000000E+00  0.45593999997E+02  0.45594000000E+02  0.51100000000E-03 0.  1.
         11   -1    0    0    0    0 -0.00000000000E+00 -0.00000000000E+00 -0.45593999997E+02  0.45594000000E+02  0.51100000000E-03 0. -1.
    9900012    2    1    2    0    0  0.97712971538E+01  0.30570850600E+02 -0.31607886559E+02  0.46142315998E+02  0.99999839255E+01 0.  0.
        -12    1    1    2    0    0 -0.97712971538E+01 -0.30570850600E+02  0.31607886559E+02  0.45045684002E+02  0.00000000000E+00 0.  1.
         11    1    3    3    0    0  0.41706188643E+01  0.18412700851E+02 -0.12941784381E+02  0.22889110895E+02  0.51100000000E-03 0. -1.
        -11    1    3    3    0    0  0.63288395132E+00  0.56000489473E+01 -0.78584857366E+01  0.96704130544E+01  0.51100000000E-03 0.  1.
         12    1    3    3    0    0  0.49677943382E+01  0.65581008017E+01 -0.10807616441E+02  0.13582792049E+02  0.00000000000E+00 0. -1.
</event>
<event>
 7    1  0.1543346E-008  0.4614232E+02  0.7816164E-02  0.1320468E+00
        -11   -1    0    0    0    0  0.00000000000E+00  0.00000000000E+00  0.45593999997E+02  0.45594000000E+02  0.51100000000E-03 0. -1.
         11   -1    0    0    0    0 -0.00000000000E+00 -0.00000000000E+00 -0.45593999997E+02  0.45594000000E+02  0.51100000000E-03 0.  1.
    9900012    2    1    2    0    0 -0.88231315874E+01  0.43441633098E+02  0.80056568357E+01  0.46142315649E+02  0.99999807417E+01 0.  0.
        -12    1    1    2    0    0  0.88231315874E+01 -0.43441633098E+02 -0.80056568357E+01  0.45045684351E+02  0.00000000000E+00 0.  1.
         11    1    3    3    0    0 -0.27266063775E+01  0.16186206777E+02 -0.86242956339E+00  0.16436893173E+02  0.51100000000E-03 0. -1.
        -11    1    3    3    0    0 -0.55366106776E+01  0.25413912963E+02  0.94830414871E+01  0.27684817247E+02  0.51100000000E-03 0.  1.
        -12    1    3    3    0    0 -0.55991453227E+00  0.18415133579E+01 -0.61495508799E+00  0.20206052288E+01  0.00000000000E+00 0.  1.
</event>
<event>
 7    1  0.1543346E-008  0.4614232E+02  0.7816164E-02  0.1320468E+00
        -11   -1    0    0    0    0  0.00000000000E+00  0.00000000000E+00  0.45593999997E+02  0.45594000000E+02  0.51100000000E-03 0. -1.
         11   -1    0    0    0    0 -0.00000000000E+00 -0.00000000000E+00 -0.45593999997E+02  0.45594000000E+02  0.51100000000E-03 0.  1.
    9900012    2    1    2    0    0 -0.26029940156E+02  0.34381447876E+02 -0.13018132480E+02  0.46142317457E+02  0.99999972227E+01 0.  0.
        -12    1    1    2    0    0  0.26029940156E+02 -0.34381447876E+02  0.13018132480E+02  0.45045682543E+02  0.00000000000E+00 0.  1.
         11    1    3    3    0    0 -0.24199594734E+02  0.34526621585E+02 -0.12276189633E+02  0.43913697356E+02  0.51100000000E-03 0. -1.
        -11    1    3    3    0    0 -0.10728608613E+01 -0.17862228575E+00 -0.94811697908E+00  0.14428660422E+01  0.51100000000E-03 0.  1.
         12    1    3    3    0    0 -0.75748456042E+00  0.33448576976E-01  0.20617413267E+00  0.78575405794E+00  0.00000000000E+00 0. -1.
</event>
<event>
 7    1  0.1543346E-008  0.4614232E+02  0.7816164E-02  0.1320468E+00
        -11   -1    0    0    0    0  0.00000000000E+00  0.00000000000E+00  0.45593999997E+02  0.45594000000E+02  0.51100000000E-03 0.  1.
         11   -1    0    0    0    0 -0.00000000000E+00 -0.00000000000E+00 -0.45593999997E+02  0.45594000000E+02  0.51100000000E-03 0. -1.
    9900012    2    1    2    0    0  0.33920880754E+02 -0.24520347707E+02 -0.16650523019E+02  0.46142317415E+02  0.99999968411E+01 0.  0.
        -12    1    1    2    0    0 -0.33920880754E+02  0.24520347707E+02  0.16650523019E+02  0.45045682585E+02  0.00000000000E+00 0.  1.
         11    1    3    3    0    0  0.17118336705E+02 -0.12914801484E+02 -0.66412924709E+01  0.22448525895E+02  0.51100000000E-03 0. -1.
        -11    1    3    3    0    0  0.12049199619E+02 -0.11251837929E+02 -0.62791529869E+01  0.17641282004E+02  0.51100000000E-03 0.  1.
        -12    1    3    3    0    0  0.47533444301E+01 -0.35370829321E+00 -0.37300775608E+01  0.60525095156E+01  0.00000000000E+00 0.  1.
</event>
<event>
 7    1  0.1543346E-008  0.4614232E+02  0.7816164E-02  0.1320468E+00
        -11   -1    0    0    0    0  0.00000000000E+00  0.00000000000E+00  0.45593999997E+02  0.45594000000E+02  0.51100000000E-03 0.  1.
         11   -1    0    0    0    0 -0.00000000000E+00 -0.00000000000E+00 -0.45593999997E+02  0.45594000000E+02  0.51100000000E-03 0. -1.
    9900012    2    1    2    0    0  0.15941423123E+02 -0.30309492736E+02 -0.29262933062E+02  0.46142316827E+02  0.99999914830E+01 0.  0.
        -12    1    1    2    0    0 -0.15941423123E+02  0.30309492736E+02  0.29262933062E+02  0.45045683173E+02  0.00000000000E+00 0.  1.
         11    1    3    3    0    0  0.10445362643E+02 -0.14003378184E+02 -0.13454192722E+02  0.22050294859E+02  0.51100000000E-03 0. -1.
        -11    1    3    3    0    0  0.46678870494E+00 -0.16562407152E+01 -0.47727205190E+01  0.50734491636E+01  0.51100000000E-03 0.  1.
         12    1    3    3    0    0  0.50292717753E+01 -0.14649873837E+02 -0.11036019821E+02  0.19018572804E+02  0.00000000000E+00 0. -1.
</event>
<event>
 7    1  0.1543346E-008  0.4614232E+02  0.7816164E-02  0.1320468E+00
        -11   -1    0    0    0    0  0.00000000000E+00  0.00000000000E+00  0.45593999997E+02  0.45594000000E+02  0.51100000000E-03 0. -1.
         11   -1    0    0    0    0 -0.00000000000E+00 -0.00000000000E+00 -0.45593999997E+02  0.45594000000E+02  0.51100000000E-03 0.  1.
    9900012    2    1    2    0    0 -0.32974148184E+02  0.21634820741E+02  0.21765880108E+02  0.46142318144E+02  0.10000003494E+02 0.  0.
        -12    1    1    2    0    0  0.32974148184E+02 -0.21634820741E+02 -0.21765880108E+02  0.45045681856E+02  0.00000000000E+00 0.  1.
         11    1    3    3    0    0 -0.33569806201E+01  0.59702828748E+01  0.28285527741E+01  0.74104188508E+01  0.51100000000E-03 0. -1.
        -11    1    3    3    0    0 -0.16127904219E+02  0.75980543987E+01  0.77494290971E+01  0.19439479847E+02  0.51100000000E-03 0.  1.
         12    1    3    3    0    0 -0.13489263345E+02  0.80664834675E+01  0.11187898237E+02  0.19292419446E+02  0.00000000000E+00 0. -1.
</event>
<event>
 7    1  0.1543346E-008  0.4614232E+02  0.7816164E-02  0.1320468E+00
        -11   -1    0    0    0    0  0.00000000000E+00  0.00000000000E+00  0.45593999997E+02  0.45594000000E+02  0.51100000000E-03 0.  1.
         11   -1    0    0    0    0 -0.00000000000E+00 -0.00000000000E+00 -0.45593999997E+02  0.45594000000E+02  0.51100000000E-03 0. -1.
    9900012    2    1    2    0    0  0.36678437591E+01  0.44456750066E+02 -0.62655972990E+01  0.46142318589E+02  0.10000007551E+02 0.  0.
        -12    1    1    2    0    0 -0.36678437591E+01 -0.44456750066E+02  0.62655972990E+01  0.45045681411E+02  0.00000000000E+00 0.  1.
         11    1    3    3    0    0 -0.19295910985E+01  0.77285486776E+01 -0.21165253429E+01  0.82421760633E+01  0.51100000000E-03 0. -1.
        -11    1    3    3    0    0 -0.55978694136E+00  0.50733078238E+00  0.43984678953E+00  0.87419185643E+00  0.51100000000E-03 0.  1.
         12    1    3    3    0    0  0.61572217990E+01  0.36220870606E+02 -0.45889187456E+01  0.37025950669E+02  0.00000000000E+00 0. -1.
</event>
<event>
 7    1  0.1543346E-008  0.4614232E+02  0.7816164E-02  0.1320468E+00
        -11   -1    0    0    0    0  0.00000000000E+00  0.00000000000E+00  0.45593999997E+02  0.45594000000E+02  0.51100000000E-03 0.  1.
         11   -1    0    0    0    0 -0.00000000000E+00 -0.00000000000E+00 -0.45593999997E+02  0.45594000000E+02  0.51100000000E-03 0. -1.
    9900012    2    1    2    0    0  0.12836257811E+02 -0.18774268178E+02 -0.38882781062E+02  0.46142319593E+02  0.10000016705E+02 0.  0.
        -12    1    1    2    0    0 -0.12836257811E+02  0.18774268178E+02  0.38882781062E+02  0.45045680407E+02  0.00000000000E+00 0.  1.
         11    1    3    3    0    0  0.48559830062E+01 -0.70514585220E+01 -0.97734227995E+01  0.12993207138E+02  0.51100000000E-03 0. -1.
        -11    1    3    3    0    0  0.79961370621E+01 -0.68261399109E+01 -0.23225071511E+02  0.25493888305E+02  0.51100000000E-03 0.  1.
        -12    1    3    3    0    0 -0.15862257322E-01 -0.48966697455E+01 -0.58842867518E+01  0.76552241499E+01  0.00000000000E+00 0.  1.
</event>
<event>
 7    1  0.1543346E-008  0.4614233E+02  0.7816164E-02  0.1320468E+00
        -11   -1    0    0    0    0  0.00000000000E+00  0.00000000000E+00  0.45593999997E+02  0.45594000000E+02  0.51100000000E-03 0.  1.
         11   -1    0    0    0    0 -0.00000000000E+00 -0.00000000000E+00 -0.45593999997E+02  0.45594000000E+02  0.51100000000E-03 0. -1.
    9900012    2    1    2    0    0 -0.12567124353E+02  0.43204477910E+02 -0.21337920796E+01  0.46142327682E+02  0.10000090465E+02 0.  0.
        -12    1    1    2    0    0  0.12567124353E+02 -0.43204477910E+02  0.21337920796E+01  0.45045672318E+02  0.00000000000E+00 0.  1.
         11    1    3    3    0    0 -0.29439835743E+01  0.17578002642E+02  0.34770874203E+01  0.18158836784E+02  0.51100000000E-03 0. -1.
        -11    1    3    3    0    0 -0.41105635932E+01  0.93499139564E+01 -0.16177189109E+01  0.10340920596E+02  0.51100000000E-03 0.  1.
         12    1    3    3    0    0 -0.55125771858E+01  0.16276561312E+02 -0.39931605889E+01  0.17642570302E+02  0.00000000000E+00 0. -1.
</event>
<event>
 7    1  0.1543346E-008  0.4614232E+02  0.7816164E-02  0.1320468E+00
        -11   -1    0    0    0    0  0.00000000000E+00  0.00000000000E+00  0.45593999997E+02  0.45594000000E+02  0.51100000000E-03 0.  1.
         11   -1    0    0    0    0 -0.00000000000E+00 -0.00000000000E+00 -0.45593999997E+02  0.45594000000E+02  0.51100000000E-03 0. -1.
    9900012    2    1    2    0    0 -0.28230816134E+02  0.18507221967E+02 -0.29826452300E+02  0.46142317617E+02  0.99999986849E+01 0.  0.
        -12    1    1    2    0    0  0.28230816134E+02 -0.18507221967E+02  0.29826452300E+02  0.45045682383E+02  0.00000000000E+00 0.  1.
         11    1    3    3    0    0 -0.75297782071E+01  0.43083691967E+01 -0.94340802058E+01  0.12816453276E+02  0.51100000000E-03 0. -1.
        -11    1    3    3    0    0 -0.67434844716E+01  0.66663617742E+00 -0.38114188421E+01  0.77746961654E+01  0.51100000000E-03 0.  1.
        -12    1    3    3    0    0 -0.13957553456E+02  0.13532216593E+02 -0.16580953252E+02  0.25551168176E+02  0.00000000000E+00 0.  1.
</event>
<event>
 7    1  0.1543346E-008  0.4614231E+02  0.7816164E-02  0.1320468E+00
        -11   -1    0    0    0    0  0.00000000000E+00  0.00000000000E+00  0.45593999997E+02  0.45594000000E+02  0.51100000000E-03 0.  1.
         11   -1    0    0    0    0 -0.00000000000E+00 -0.00000000000E+00 -0.45593999997E+02  0.45594000000E+02  0.51100000000E-03 0. -1.
    9900012    2    1    2    0    0 -0.27205590260E+02 -0.34108618507E+02 -0.11205897597E+02  0.46142310542E+02  0.99999341673E+01 0.  0.
        -12    1    1    2    0    0  0.27205590260E+02  0.34108618507E+02  0.11205897597E+02  0.45045689458E+02  0.00000000000E+00 0.  1.
         11    1    3    3    0    0 -0.19959763975E+02 -0.22487872352E+02 -0.86306261656E+01  0.31282331900E+02  0.51100000000E-03 0. -1.
        -11    1    3    3    0    0 -0.10601804486E+01 -0.54519764945E+01  0.55139214268E+00  0.55814033931E+01  0.51100000000E-03 0.  1.
        -12    1    3    3    0    0 -0.61856458355E+01 -0.61687696608E+01 -0.31266635740E+01  0.92785752481E+01  0.00000000000E+00 0.  1.
</event>
<event>
 7    1  0.1543346E-008  0.4614232E+02  0.7816164E-02  0.1320468E+00
        -11   -1    0    0    0    0  0.00000000000E+00  0.00000000000E+00  0.45593999997E+02  0.45594000000E+02  0.51100000000E-03 0.  1.
         11   -1    0    0    0    0 -0.00000000000E+00 -0.00000000000E+00 -0.45593999997E+02  0.45594000000E+02  0.51100000000E-03 0. -1.
    9900012    2    1    2    0    0 -0.16974885202E+01 -0.13868946188E+02 -0.42823877706E+02  0.46142316107E+02  0.99999849166E+01 0.  0.
        -12    1    1    2    0    0  0.16974885202E+01  0.13868946188E+02  0.42823877706E+02  0.45045683893E+02  0.00000000000E+00 0.  1.
         11    1    3    3    0    0  0.23680932509E+00 -0.70732249100E+01 -0.31361032723E+02  0.32149665053E+02  0.51100000000E-03 0. -1.
        -11    1    3    3    0    0 -0.12762514668E+01 -0.86974451578E-01 -0.16583890201E+01  0.20944299379E+01  0.51100000000E-03 0.  1.
        -12    1    3    3    0    0 -0.65804637851E+00 -0.67087468260E+01 -0.98044559627E+01  0.11898221116E+02  0.00000000000E+00 0.  1.
</event>
<event>
 7    1  0.1543346E-008  0.4614232E+02  0.7816164E-02  0.1320468E+00
        -11   -1    0    0    0    0  0.00000000000E+00  0.00000000000E+00  0.45593999997E+02  0.45594000000E+02  0.51100000000E-03 0.  1.
         11   -1    0    0    0    0 -0.00000000000E+00 -0.00000000000E+00 -0.45593999997E+02  0.45594000000E+02  0.51100000000E-03 0. -1.
    9900012    2    1    2    0    0 -0.32549310392E+02  0.29536259443E+02  0.98623116486E+01  0.46142318520E+02  0.10000006922E+02 0.  0.
        -12    1    1    2    0    0  0.32549310392E+02 -0.29536259443E+02 -0.98623116486E+01  0.45045681480E+02  0.00000000000E+00 0.  1.
         11    1    3    3    0    0 -0.11245024998E+02  0.14719878713E+02  0.88220870625E+00  0.18544640978E+02  0.51100000000E-03 0. -1.
        -11    1    3    3    0    0 -0.17921677435E+02  0.12853557705E+02  0.85866610281E+01  0.23667091406E+02  0.51100000000E-03 0.  1.
        -12    1    3    3    0    0 -0.33826079586E+01  0.19628230255E+01  0.39344191420E+00  0.39305861358E+01  0.00000000000E+00 0.  1.
</event>
<event>
 7    1  0.1543346E-008  0.4614232E+02  0.7816164E-02  0.1320468E+00
        -11   -1    0    0    0    0  0.00000000000E+00  0.00000000000E+00  0.45593999997E+02  0.45594000000E+02  0.51100000000E-03 0.  1.
         11   -1    0    0    0    0 -0.00000000000E+00 -0.00000000000E+00 -0.45593999997E+02  0.45594000000E+02  0.51100000000E-03 0. -1.
    9900012    2    1    2    0    0 -0.29661694945E+02  0.28167781030E+02 -0.18864607444E+02  0.46142318196E+02  0.10000003965E+02 0.  0.
        -12    1    1    2    0    0  0.29661694945E+02 -0.28167781030E+02  0.18864607444E+02  0.45045681804E+02  0.00000000000E+00 0.  1.
         11    1    3    3    0    0 -0.95588093591E+01  0.11497135982E+02 -0.74915898367E+01  0.16723602803E+02  0.51100000000E-03 0. -1.
        -11    1    3    3    0    0 -0.16592755970E+02  0.10155735815E+02 -0.63084698479E+01  0.20451291223E+02  0.51100000000E-03 0.  1.
        -12    1    3    3    0    0 -0.35101296158E+01  0.65149092331E+01 -0.50645477592E+01  0.89674241698E+01  0.00000000000E+00 0.  1.
</event>
<event>
 7    1  0.1543346E-008  0.4614232E+02  0.7816164E-02  0.1320468E+00
        -11   -1    0    0    0    0  0.00000000000E+00  0.00000000000E+00  0.45593999997E+02  0.45594000000E+02  0.51100000000E-03 0. -1.
         11   -1    0    0    0    0 -0.00000000000E+00 -0.00000000000E+00 -0.45593999997E+02  0.45594000000E+02  0.51100000000E-03 0.  1.
    9900012    2    1    2    0    0 -0.41563976224E+02  0.16993156943E+02 -0.35752178541E+01  0.46142315576E+02  0.99999800789E+01 0.  0.
        -12    1    1    2    0    0  0.41563976224E+02 -0.16993156943E+02  0.35752178541E+01  0.45045684424E+02  0.00000000000E+00 0.  1.
         11    1    3    3    0    0 -0.27505453667E+01  0.32669601835E+01 -0.85478041311E+00  0.43553620367E+01  0.51100000000E-03 0. -1.
        -11    1    3    3    0    0 -0.18087491960E+02  0.50785981605E+01  0.18200762672E+01  0.18874909339E+02  0.51100000000E-03 0.  1.
         12    1    3    3    0    0 -0.20725938898E+02  0.86475985990E+01 -0.45405137082E+01  0.22912044201E+02  0.00000000000E+00 0. -1.
</event>
<event>
 7    1  0.1543346E-008  0.4614232E+02  0.7816164E-02  0.1320468E+00
        -11   -1    0    0    0    0  0.00000000000E+00  0.00000000000E+00  0.45593999997E+02  0.45594000000E+02  0.51100000000E-03 0. -1.
         11   -1    0    0    0    0 -0.00000000000E+00 -0.00000000000E+00 -0.45593999997E+02  0.45594000000E+02  0.51100000000E-03 0.  1.
    9900012    2    1    2    0    0 -0.58889479265E+01 -0.13243231088E+01  0.44639444458E+02  0.46142317178E+02  0.99999946862E+01 0.  0.
        -12    1    1    2    0    0  0.58889479265E+01  0.13243231088E+01 -0.44639444458E+02  0.45045682822E+02  0.00000000000E+00 0.  1.
         11    1    3    3    0    0 -0.43698934974E+01  0.18829180547E+00  0.27163208663E+02  0.27513111930E+02  0.51100000000E-03 0. -1.
        -11    1    3    3    0    0 -0.20376711321E+01 -0.20164751428E+01  0.30534193293E+01  0.41882747649E+01  0.51100000000E-03 0.  1.
        -12    1    3    3    0    0  0.51861670307E+00  0.50386022854E+00  0.14422816466E+02  0.14440930483E+02  0.00000000000E+00 0.  1.
</event>
<event>
 7    1  0.1543346E-008  0.4614232E+02  0.7816164E-02  0.1320468E+00
        -11   -1    0    0    0    0  0.00000000000E+00  0.00000000000E+00  0.45593999997E+02  0.45594000000E+02  0.51100000000E-03 0.  1.
         11   -1    0    0    0    0 -0.00000000000E+00 -0.00000000000E+00 -0.45593999997E+02  0.45594000000E+02  0.51100000000E-03 0. -1.
    9900012    2    1    2    0    0 -0.45947294674E+01  0.44113374963E+02  0.78747879719E+01  0.46142315688E+02  0.99999810960E+01 0.  0.
        -12    1    1    2    0    0  0.45947294674E+01 -0.44113374963E+02 -0.78747879719E+01  0.45045684312E+02  0.00000000000E+00 0.  1.
         11    1    3    3    0    0 -0.24422801830E+01  0.12944343864E+02 -0.13117411665E+01  0.13237878822E+02  0.51100000000E-03 0. -1.
        -11    1    3    3    0    0 -0.36091366616E+01  0.24597367666E+02  0.74462359862E+01  0.25951932379E+02  0.51100000000E-03 0.  1.
        -12    1    3    3    0    0  0.14566873772E+01  0.65716634333E+01  0.17402931522E+01  0.69525044876E+01  0.00000000000E+00 0.  1.
</event>
<event>
 7    1  0.1543346E-008  0.4614232E+02  0.7816164E-02  0.1320468E+00
        -11   -1    0    0    0    0  0.00000000000E+00  0.00000000000E+00  0.45593999997E+02  0.45594000000E+02  0.51100000000E-03 0.  1.
         11   -1    0    0    0    0 -0.00000000000E+00 -0.00000000000E+00 -0.45593999997E+02  0.45594000000E+02  0.51100000000E-03 0. -1.
    9900012    2    1    2    0    0  0.17556386141E+02  0.19291800826E+02 -0.36724828014E+02  0.46142320229E+02  0.10000022500E+02 0.  0.
        -12    1    1    2    0    0 -0.17556386141E+02 -0.19291800826E+02  0.36724828014E+02  0.45045679771E+02  0.00000000000E+00 0.  1.
         11    1    3    3    0    0  0.69384994495E+01  0.60187704952E+01 -0.16900084976E+02  0.19234896552E+02  0.51100000000E-03 0.  1.
        -11    1    3    3    0    0  0.11529032087E+02  0.12384724039E+02 -0.18469725177E+02  0.25048567200E+02  0.51100000000E-03 0. -1.
        -12    1    3    3    0    0 -0.91114539591E+00  0.88830629120E+00 -0.13550178604E+01  0.18588564768E+01  0.00000000000E+00 0.  1.
</event>
<event>
 7    1  0.1543346E-008  0.4614232E+02  0.7816164E-02  0.1320468E+00
        -11   -1    0    0    0    0  0.00000000000E+00  0.00000000000E+00  0.45593999997E+02  0.45594000000E+02  0.51100000000E-03 0.  1.
         11   -1    0    0    0    0 -0.00000000000E+00 -0.00000000000E+00 -0.45593999997E+02  0.45594000000E+02  0.51100000000E-03 0. -1.
    9900012    2    1    2    0    0  0.18298435121E+02 -0.37425601496E+02 -0.17134909899E+02  0.46142317494E+02  0.99999975647E+01 0.  0.
        -12    1    1    2    0    0 -0.18298435121E+02  0.37425601496E+02  0.17134909899E+02  0.45045682506E+02  0.00000000000E+00 0.  1.
         11    1    3    3    0    0  0.10001184333E+02 -0.12948247802E+02 -0.93973110308E+01  0.18867704261E+02  0.51100000000E-03 0. -1.
        -11    1    3    3    0    0  0.45812044498E+01 -0.98790622802E+01 -0.15918197768E+01  0.11005325811E+02  0.51100000000E-03 0.  1.
         12    1    3    3    0    0  0.37160463379E+01 -0.14598291414E+02 -0.61457790911E+01  0.16269287422E+02  0.00000000000E+00 0. -1.
</event>
<event>
 7    1  0.1543346E-008  0.4614232E+02  0.7816164E-02  0.1320468E+00
        -11   -1    0    0    0    0  0.00000000000E+00  0.00000000000E+00  0.45593999997E+02  0.45594000000E+02  0.51100000000E-03 0.  1.
         11   -1    0    0    0    0 -0.00000000000E+00 -0.00000000000E+00 -0.45593999997E+02  0.45594000000E+02  0.51100000000E-03 0. -1.
    9900012    2    1    2    0    0  0.17883522160E+02  0.30646511342E+01 -0.41229855903E+02  0.46142317974E+02  0.10000001939E+02 0.  0.
        -12    1    1    2    0    0 -0.17883522160E+02 -0.30646511342E+01  0.41229855903E+02  0.45045682026E+02  0.00000000000E+00 0.  1.
         11    1    3    3    0    0  0.13150505666E+02  0.28462591320E+01 -0.22194377321E+02  0.25954332494E+02  0.51100000000E-03 0. -1.
        -11    1    3    3    0    0  0.35101807977E+01 -0.21066068299E+01 -0.11873963606E+02  0.12559863596E+02  0.51100000000E-03 0.  1.
        -12    1    3    3    0    0  0.12228356959E+01  0.23249988321E+01 -0.71615149763E+01  0.76281218832E+01  0.00000000000E+00 0.  1.
</event>
<event>
 7    1  0.1543346E-008  0.4614232E+02  0.7816164E-02  0.1320468E+00
        -11   -1    0    0    0    0  0.00000000000E+00  0.00000000000E+00  0.45593999997E+02  0.45594000000E+02  0.51100000000E-03 0.  1.
         11   -1    0    0    0    0 -0.00000000000E+00 -0.00000000000E+00 -0.45593999997E+02  0.45594000000E+02  0.51100000000E-03 0. -1.
    9900012    2    1    2    0    0  0.18835049224E+02 -0.75515606259E+01 -0.40216020432E+02  0.46142318226E+02  0.10000004238E+02 0.  0.
        -12    1    1    2    0    0 -0.18835049224E+02  0.75515606259E+01  0.40216020432E+02  0.45045681774E+02  0.00000000000E+00 0.  1.
         11    1    3    3    0    0  0.17627266148E+02 -0.69049264861E+01 -0.29714308049E+02  0.35232635790E+02  0.51100000000E-03 0. -1.
        -11    1    3    3    0    0  0.56600535868E+00  0.82512918196E+00 -0.68211584350E+01  0.68941571559E+01  0.51100000000E-03 0.  1.
        -12    1    3    3    0    0  0.64177771710E+00 -0.14717633218E+01 -0.36805539472E+01  0.40155252797E+01  0.00000000000E+00 0.  1.
</event>
<event>
 7    1  0.1543346E-008  0.4614232E+02  0.7816164E-02  0.1320468E+00
        -11   -1    0    0    0    0  0.00000000000E+00  0.00000000000E+00  0.45593999997E+02  0.45594000000E+02  0.51100000000E-03 0.  1.
         11   -1    0    0    0    0 -0.00000000000E+00 -0.00000000000E+00 -0.45593999997E+02  0.45594000000E+02  0.51100000000E-03 0. -1.
    9900012    2    1    2    0    0 -0.22231239162E+02  0.95707185886E+01 -0.37990615185E+02  0.46142317731E+02  0.99999997258E+01 0.  0.
        -12    1    1    2    0    0  0.22231239162E+02 -0.95707185886E+01  0.37990615185E+02  0.45045682269E+02  0.00000000000E+00 0.  1.
         11    1    3    3    0    0 -0.44649628436E+01  0.50400962996E+01 -0.65898079242E+01  0.94214665866E+01  0.51100000000E-03 0. -1.
        -11    1    3    3    0    0 -0.44492332720E+01  0.12830870701E+01 -0.41556237027E+01  0.62218323472E+01  0.51100000000E-03 0.  1.
         12    1    3    3    0    0 -0.13317043046E+02  0.32475352188E+01 -0.27245183558E+02  0.30499018797E+02  0.00000000000E+00 0. -1.
</event>
<event>
 7    1  0.1543346E-008  0.4614232E+02  0.7816164E-02  0.1320468E+00
        -11   -1    0    0    0    0  0.00000000000E+00  0.00000000000E+00  0.45593999997E+02  0.45594000000E+02  0.51100000000E-03 0.  1.
         11   -1    0    0    0    0 -0.00000000000E+00 -0.00000000000E+00 -0.45593999997E+02  0.45594000000E+02  0.51100000000E-03 0. -1.
    9900012    2    1    2    0    0  0.35290967103E+02 -0.13723560837E+02 -0.24399272140E+02  0.46142323603E+02  0.10000053267E+02 0.  0.
        -12    1    1    2    0    0 -0.35290967103E+02  0.13723560837E+02  0.24399272140E+02  0.45045676397E+02  0.00000000000E+00 0.  1.
         11    1    3    3    0    0  0.11271624618E+02 -0.87919085928E+01 -0.67662225873E+01  0.15815465425E+02  0.51100000000E-03 0. -1.
        -11    1    3    3    0    0  0.21673678691E+01  0.33328843529E+00 -0.14216159406E+01  0.26133420757E+01  0.51100000000E-03 0.  1.
         12    1    3    3    0    0  0.21851974616E+02 -0.52649406797E+01 -0.16211433612E+02  0.27713516102E+02  0.00000000000E+00 0. -1.
</event>
<event>
 7    1  0.1543346E-008  0.4614232E+02  0.7816164E-02  0.1320468E+00
        -11   -1    0    0    0    0  0.00000000000E+00  0.00000000000E+00  0.45593999997E+02  0.45594000000E+02  0.51100000000E-03 0.  1.
         11   -1    0    0    0    0 -0.00000000000E+00 -0.00000000000E+00 -0.45593999997E+02  0.45594000000E+02  0.51100000000E-03 0. -1.
    9900012    2    1    2    0    0  0.45285075865E+01 -0.30574732830E+02 -0.32768763343E+02  0.46142317414E+02  0.99999968329E+01 0.  0.
        -12    1    1    2    0    0 -0.45285075865E+01  0.30574732830E+02  0.32768763343E+02  0.45045682586E+02  0.00000000000E+00 0.  1.
         11    1    3    3    0    0  0.37822909105E+01 -0.76819315565E+01 -0.10463350599E+02  0.13520336645E+02  0.51100000000E-03 0. -1.
        -11    1    3    3    0    0 -0.28886690595E+01 -0.98799996139E+01 -0.96926619608E+01  0.14138829423E+02  0.51100000000E-03 0.  1.
        -12    1    3    3    0    0  0.36348857355E+01 -0.13012801660E+02 -0.12612750783E+02  0.18483151346E+02  0.00000000000E+00 0.  1.
</event>
<event>
 7    1  0.1543346E-008  0.4614232E+02  0.7816164E-02  0.1320468E+00
        -11   -1    0    0    0    0  0.00000000000E+00  0.00000000000E+00  0.45593999997E+02  0.45594000000E+02  0.51100000000E-03 0.  1.
         11   -1    0    0    0    0 -0.00000000000E+00 -0.00000000000E+00 -0.45593999997E+02  0.45594000000E+02  0.51100000000E-03 0. -1.
    9900012    2    1    2    0    0  0.10387546355E+02  0.40606732505E+02 -0.16501685803E+02  0.46142317872E+02  0.10000001012E+02 0.  0.
        -12    1    1    2    0    0 -0.10387546355E+02 -0.40606732505E+02  0.16501685803E+02  0.45045682128E+02  0.00000000000E+00 0.  1.
         11    1    3    3    0    0  0.43002861768E+01  0.15684699309E+02 -0.19617970870E+01  0.16381419404E+02  0.51100000000E-03 0.  1.
        -11    1    3    3    0    0 -0.15528757141E+00  0.28278100344E+01 -0.27663521837E+01  0.39589554792E+01  0.51100000000E-03 0. -1.
         12    1    3    3    0    0  0.62425477493E+01  0.22094223162E+02 -0.11773536532E+02  0.25801942989E+02  0.00000000000E+00 0. -1.
</event>
<event>
 7    1  0.1543346E-008  0.4614232E+02  0.7816164E-02  0.1320468E+00
        -11   -1    0    0    0    0  0.00000000000E+00  0.00000000000E+00  0.45593999997E+02  0.45594000000E+02  0.51100000000E-03 0.  1.
         11   -1    0    0    0    0 -0.00000000000E+00 -0.00000000000E+00 -0.45593999997E+02  0.45594000000E+02  0.51100000000E-03 0. -1.
    9900012    2    1    2    0    0 -0.35882499609E+02 -0.15724308393E+02 -0.22232988930E+02  0.46142318194E+02  0.10000003944E+02 0.  0.
        -12    1    1    2    0    0  0.35882499609E+02  0.15724308393E+02  0.22232988930E+02  0.45045681806E+02  0.00000000000E+00 0.  1.
         11    1    3    3    0    0 -0.19399962383E+02 -0.11324303746E+02 -0.15549124766E+02  0.27319840355E+02  0.51100000000E-03 0. -1.
        -11    1    3    3    0    0 -0.43788632038E+00  0.51327483796E+00 -0.78653141292E+00  0.10362564420E+01  0.51100000000E-03 0.  1.
         12    1    3    3    0    0 -0.16044650906E+02 -0.49132794847E+01 -0.58973327514E+01  0.17786221396E+02  0.00000000000E+00 0. -1.
</event>
<event>
 7    1  0.1543346E-008  0.4614232E+02  0.7816164E-02  0.1320468E+00
        -11   -1    0    0    0    0  0.00000000000E+00  0.00000000000E+00  0.45593999997E+02  0.45594000000E+02  0.51100000000E-03 0.  1.
         11   -1    0    0    0    0 -0.00000000000E+00 -0.00000000000E+00 -0.45593999997E+02  0.45594000000E+02  0.51100000000E-03 0. -1.
    9900012    2    1    2    0    0 -0.35862481205E+02  0.12723817480E+00 -0.27257654284E+02  0.46142318022E+02  0.10000002380E+02 0.  0.
        -12    1    1    2    0    0  0.35862481205E+02 -0.12723817480E+00  0.27257654284E+02  0.45045681978E+02  0.00000000000E+00 0.  1.
         11    1    3    3    0    0 -0.24433271809E+01 -0.15651947784E+01 -0.48436016425E+01  0.56462518134E+01  0.51100000000E-03 0. -1.
        -11    1    3    3    0    0 -0.39078337489E+01  0.78538121815E+00 -0.12800466141E+01  0.41864672293E+01  0.51100000000E-03 0.  1.
         12    1    3    3    0    0 -0.29511320276E+02  0.90705173510E+00 -0.21134006028E+02  0.36309598979E+02  0.00000000000E+00 0. -1.
</event>
<event>
 7    1  0.1543346E-008  0.4614232E+02  0.7816164E-02  0.1320468E+00
        -11   -1    0    0    0    0  0.00000000000E+00  0.00000000000E+00  0.45593999997E+02  0.45594000000E+02  0.51100000000E-03 0.  1.
         11   -1    0    0    0    0 -0.00000000000E+00 -0.00000000000E+00 -0.45593999997E+02  0.45594000000E+02  0.51100000000E-03 0. -1.
    9900012    2    1    2    0    0 -0.21593295734E+02  0.10068923039E+02 -0.38229044308E+02  0.46142318070E+02  0.10000002819E+02 0.  0.
        -12    1    1    2    0    0  0.21593295734E+02 -0.10068923039E+02  0.38229044308E+02  0.45045681930E+02  0.00000000000E+00 0.  1.
         11    1    3    3    0    0 -0.29913947326E+01  0.52442567354E+00 -0.10152392982E+02  0.10596912204E+02  0.51100000000E-03 0. -1.
        -11    1    3    3    0    0 -0.99933606889E+01  0.84640194662E+01 -0.16024740221E+02  0.20695390375E+02  0.51100000000E-03 0.  1.
        -12    1    3    3    0    0 -0.86085403124E+01  0.10804778996E+01 -0.12051911105E+02  0.14850015491E+02  0.00000000000E+00 0.  1.
</event>
<event>
 7    1  0.1543346E-008  0.4614232E+02  0.7816164E-02  0.1320468E+00
        -11   -1    0    0    0    0  0.00000000000E+00  0.00000000000E+00  0.45593999997E+02  0.45594000000E+02  0.51100000000E-03 0.  1.
         11   -1    0    0    0    0 -0.00000000000E+00 -0.00000000000E+00 -0.45593999997E+02  0.45594000000E+02  0.51100000000E-03 0. -1.
    9900012    2    1    2    0    0 -0.21580287433E+02  0.16152671170E+02 -0.36090107423E+02  0.46142318237E+02  0.10000004342E+02 0.  0.
        -12    1    1    2    0    0  0.21580287433E+02 -0.16152671170E+02  0.36090107423E+02  0.45045681763E+02  0.00000000000E+00 0.  1.
         11    1    3    3    0    0 -0.97681225707E+01  0.76519649145E+01 -0.10997199349E+02  0.16580325069E+02  0.51100000000E-03 0. -1.
        -11    1    3    3    0    0 -0.47114400919E+00  0.28240431765E+01 -0.58910985776E+01  0.65499800956E+01  0.51100000000E-03 0.  1.
         12    1    3    3    0    0 -0.11341020853E+02  0.56766630794E+01 -0.19201809496E+02  0.23012013072E+02  0.00000000000E+00 0. -1.
</event>
<event>
 7    1  0.1545658E-008  0.4614232E+02  0.7816164E-02  0.1320468E+00
        -11   -1    0    0    0    0  0.00000000000E+00  0.00000000000E+00  0.45593999997E+02  0.45594000000E+02  0.51100000000E-03 0. -1.
         11   -1    0    0    0    0 -0.00000000000E+00 -0.00000000000E+00 -0.45593999997E+02  0.45594000000E+02  0.51100000000E-03 0.  1.
    9900012    2    1    2    0    0 -0.11917120528E+02  0.81265409169E+01  0.42673821370E+02  0.46142318084E+02  0.10000002941E+02 0.  0.
        -12    1    1    2    0    0  0.11917120528E+02 -0.81265409169E+01 -0.42673821370E+02  0.45045681916E+02  0.00000000000E+00 0.  1.
         11    1    3    3    0    0 -0.79587273868E+01  0.91598647203E+01  0.36705387247E+02  0.38659150489E+02  0.51100000000E-03 0. -1.
        -11    1    3    3    0    0 -0.25109567788E+01 -0.14844788836E+01  0.45639827827E+01  0.54165044634E+01  0.51100000000E-03 0.  1.
         12    1    3    3    0    0 -0.14474363626E+01  0.45115508017E+00  0.14044513410E+01  0.20666631316E+01  0.00000000000E+00 0. -1.
</event>
<event>
 7    1  0.1543346E-008  0.4614232E+02  0.7816164E-02  0.1320468E+00
        -11   -1    0    0    0    0  0.00000000000E+00  0.00000000000E+00  0.45593999997E+02  0.45594000000E+02  0.51100000000E-03 0.  1.
         11   -1    0    0    0    0 -0.00000000000E+00 -0.00000000000E+00 -0.45593999997E+02  0.45594000000E+02  0.51100000000E-03 0. -1.
    9900012    2    1    2    0    0  0.18427690998E+02 -0.18097314869E+02 -0.36905559363E+02  0.46142324149E+02  0.10000058246E+02 0.  0.
        -12    1    1    2    0    0 -0.18427690998E+02  0.18097314869E+02  0.36905559363E+02  0.45045675851E+02  0.00000000000E+00 0.  1.
         11    1    3    3    0    0  0.56583987239E+01 -0.24812860785E+01 -0.55685041257E+01  0.83176015282E+01  0.51100000000E-03 0. -1.
        -11    1    3    3    0    0  0.29262712336E+01 -0.32493632472E+01 -0.27690161079E+01  0.51757970701E+01  0.51100000000E-03 0.  1.
         12    1    3    3    0    0  0.98430210405E+01 -0.12366665543E+02 -0.28568039130E+02  0.32648925550E+02  0.00000000000E+00 0. -1.
</event>
<event>
 7    1  0.1543346E-008  0.4614232E+02  0.7816164E-02  0.1320468E+00
        -11   -1    0    0    0    0  0.00000000000E+00  0.00000000000E+00  0.45593999997E+02  0.45594000000E+02  0.51100000000E-03 0.  1.
         11   -1    0    0    0    0 -0.00000000000E+00 -0.00000000000E+00 -0.45593999997E+02  0.45594000000E+02  0.51100000000E-03 0. -1.
    9900012    2    1    2    0    0 -0.59076015086E+01 -0.17882230440E+02 -0.40919916520E+02  0.46142317753E+02  0.99999999270E+01 0.  0.
        -12    1    1    2    0    0  0.59076015086E+01  0.17882230440E+02  0.40919916520E+02  0.45045682247E+02  0.00000000000E+00 0.  1.
         11    1    3    3    0    0 -0.46788455464E+01 -0.65621499806E+01 -0.24754940859E+02  0.26033833855E+02  0.51100000000E-03 0. -1.
        -11    1    3    3    0    0 -0.21219663748E+00 -0.71445391214E+01 -0.12760012257E+02  0.14625572800E+02  0.51100000000E-03 0.  1.
         12    1    3    3    0    0 -0.10165593247E+01 -0.41755413378E+01 -0.34049634044E+01  0.54829110980E+01  0.00000000000E+00 0. -1.
</event>
<event>
 7    1  0.1543346E-008  0.4614232E+02  0.7816164E-02  0.1320468E+00
        -11   -1    0    0    0    0  0.00000000000E+00  0.00000000000E+00  0.45593999997E+02  0.45594000000E+02  0.51100000000E-03 0.  1.
         11   -1    0    0    0    0 -0.00000000000E+00 -0.00000000000E+00 -0.45593999997E+02  0.45594000000E+02  0.51100000000E-03 0. -1.
    9900012    2    1    2    0    0  0.32685014168E+02 -0.30349281448E+02 -0.63027330823E+01  0.46142317856E+02  0.10000000862E+02 0.  0.
        -12    1    1    2    0    0 -0.32685014168E+02  0.30349281448E+02  0.63027330823E+01  0.45045682144E+02  0.00000000000E+00 0.  1.
         11    1    3    3    0    0  0.17110164527E+02 -0.13044443493E+02 -0.29744866902E+01  0.21720101462E+02  0.51100000000E-03 0. -1.
        -11    1    3    3    0    0  0.11441594624E+02 -0.83656942966E+01 -0.52874963135E+00  0.14183599861E+02  0.51100000000E-03 0.  1.
        -12    1    3    3    0    0  0.41332550171E+01 -0.89391436586E+01 -0.27994967608E+01  0.10238616533E+02  0.00000000000E+00 0.  1.
</event>
<event>
 7    1  0.1543346E-008  0.4614232E+02  0.7816164E-02  0.1320468E+00
        -11   -1    0    0    0    0  0.00000000000E+00  0.00000000000E+00  0.45593999997E+02  0.45594000000E+02  0.51100000000E-03 0.  1.
         11   -1    0    0    0    0 -0.00000000000E+00 -0.00000000000E+00 -0.45593999997E+02  0.45594000000E+02  0.51100000000E-03 0. -1.
    9900012    2    1    2    0    0 -0.30102018077E+02 -0.19810697014E+02 -0.27028102063E+02  0.46142317525E+02  0.99999978505E+01 0.  0.
        -12    1    1    2    0    0  0.30102018077E+02  0.19810697014E+02  0.27028102063E+02  0.45045682475E+02  0.00000000000E+00 0.  1.
         11    1    3    3    0    0 -0.40260248158E+01 -0.22402168868E+01 -0.18709709501E+01  0.49727236073E+01  0.51100000000E-03 0. -1.
        -11    1    3    3    0    0 -0.16609326731E+01  0.93078536382E-01 -0.40495702961E+01  0.43779425308E+01  0.51100000000E-03 0.  1.
        -12    1    3    3    0    0 -0.24415060588E+02 -0.17663558663E+02 -0.21107560817E+02  0.36791651387E+02  0.00000000000E+00 0.  1.
</event>
<event>
 7    1  0.1543346E-008  0.4614232E+02  0.7816164E-02  0.1320468E+00
        -11   -1    0    0    0    0  0.00000000000E+00  0.00000000000E+00  0.45593999997E+02  0.45594000000E+02  0.51100000000E-03 0.  1.
         11   -1    0    0    0    0 -0.00000000000E+00 -0.00000000000E+00 -0.45593999997E+02  0.45594000000E+02  0.51100000000E-03 0. -1.
    9900012    2    1    2    0    0  0.10589888205E+02 -0.47350673157E+01 -0.43526392781E+02  0.46142318040E+02  0.10000002548E+02 0.  0.
        -12    1    1    2    0    0 -0.10589888205E+02  0.47350673157E+01  0.43526392781E+02  0.45045681960E+02  0.00000000000E+00 0.  1.
         11    1    3    3    0    0  0.40054179681E+01 -0.55682776667E+01 -0.20786230119E+02  0.21888728882E+02  0.51100000000E-03 0. -1.
        -11    1    3    3    0    0  0.30587839770E+01  0.30068528364E+01 -0.11849945465E+02  0.12602322452E+02  0.51100000000E-03 0.  1.
         12    1    3    3    0    0  0.35256862602E+01 -0.21736424855E+01 -0.10890217197E+02  0.11651266706E+02  0.00000000000E+00 0. -1.
</event>
<event>
 7    1  0.1543346E-008  0.4614232E+02  0.7816164E-02  0.1320468E+00
        -11   -1    0    0    0    0  0.00000000000E+00  0.00000000000E+00  0.45593999997E+02  0.45594000000E+02  0.51100000000E-03 0.  1.
         11   -1    0    0    0    0 -0.00000000000E+00 -0.00000000000E+00 -0.45593999997E+02  0.45594000000E+02  0.51100000000E-03 0. -1.
    9900012    2    1    2    0    0 -0.38592435955E+02 -0.26411108021E+01  0.23081638721E+02  0.46142316241E+02  0.99999861412E+01 0.  0.
        -12    1    1    2    0    0  0.38592435955E+02  0.26411108021E+01 -0.23081638721E+02  0.45045683759E+02  0.00000000000E+00 0.  1.
         11    1    3    3    0    0 -0.21977057881E+02 -0.11723417525E+00  0.14432119757E+02  0.26292411413E+02  0.51100000000E-03 0. -1.
        -11    1    3    3    0    0 -0.14013730032E+02  0.57380198033E-01  0.56343641054E+01  0.15104104774E+02  0.51100000000E-03 0.  1.
        -12    1    3    3    0    0 -0.26016480420E+01 -0.25812568249E+01  0.30151548591E+01  0.47458000543E+01  0.00000000000E+00 0.  1.
</event>
<event>
 7    1  0.1543346E-008  0.4614232E+02  0.7816164E-02  0.1320468E+00
        -11   -1    0    0    0    0  0.00000000000E+00  0.00000000000E+00  0.45593999997E+02  0.45594000000E+02  0.51100000000E-03 0.  1.
         11   -1    0    0    0    0 -0.00000000000E+00 -0.00000000000E+00 -0.45593999997E+02  0.45594000000E+02  0.51100000000E-03 0. -1.
    9900012    2    1    2    0    0 -0.30489395105E+02 -0.12675717753E+02 -0.30640441975E+02  0.46142315203E+02  0.99999766689E+01 0.  0.
        -12    1    1    2    0    0  0.30489395105E+02  0.12675717753E+02  0.30640441975E+02  0.45045684797E+02  0.00000000000E+00 0.  1.
         11    1    3    3    0    0 -0.81649863388E+01 -0.25712719258E+01 -0.51108896877E+01  0.99699365540E+01  0.51100000000E-03 0. -1.
        -11    1    3    3    0    0 -0.16972862635E+02 -0.49618736892E+01 -0.21095980861E+02  0.27527053334E+02  0.51100000000E-03 0.  1.
        -12    1    3    3    0    0 -0.53515461318E+01 -0.51425721379E+01 -0.44335714265E+01  0.86453253142E+01  0.00000000000E+00 0.  1.
</event>
<event>
 7    1  0.1543346E-008  0.4614232E+02  0.7816164E-02  0.1320468E+00
        -11   -1    0    0    0    0  0.00000000000E+00  0.00000000000E+00  0.45593999997E+02  0.45594000000E+02  0.51100000000E-03 0.  1.
         11   -1    0    0    0    0 -0.00000000000E+00 -0.00000000000E+00 -0.45593999997E+02  0.45594000000E+02  0.51100000000E-03 0. -1.
    9900012    2    1    2    0    0 -0.19924380283E+02 -0.38254656556E+02 -0.12988996254E+02  0.46142315395E+02  0.99999784228E+01 0.  0.
        -12    1    1    2    0    0  0.19924380283E+02  0.38254656556E+02  0.12988996254E+02  0.45045684605E+02  0.00000000000E+00 0.  1.
         11    1    3    3    0    0 -0.12065334000E+02 -0.24725489259E+02 -0.73519075187E+01  0.28477581500E+02  0.51100000000E-03 0. -1.
        -11    1    3    3    0    0 -0.63603444162E+00 -0.30191601300E+00  0.97873299352E+00  0.12056581703E+01  0.51100000000E-03 0.  1.
        -12    1    3    3    0    0 -0.72230118410E+01 -0.13227251284E+02 -0.66158217284E+01  0.16459075725E+02  0.00000000000E+00 0.  1.
</event>
<event>
 7    1  0.1543346E-008  0.4614232E+02  0.7816164E-02  0.1320468E+00
        -11   -1    0    0    0    0  0.00000000000E+00  0.00000000000E+00  0.45593999997E+02  0.45594000000E+02  0.51100000000E-03 0.  1.
         11   -1    0    0    0    0 -0.00000000000E+00 -0.00000000000E+00 -0.45593999997E+02  0.45594000000E+02  0.51100000000E-03 0. -1.
    9900012    2    1    2    0    0  0.13833059711E+02 -0.14371995222E+02 -0.40388188245E+02  0.46142317218E+02  0.99999950464E+01 0.  0.
        -12    1    1    2    0    0 -0.13833059711E+02  0.14371995222E+02  0.40388188245E+02  0.45045682782E+02  0.00000000000E+00 0.  1.
         11    1    3    3    0    0  0.29852312520E+01 -0.48408818333E+00 -0.11656362106E+02  0.12042289019E+02  0.51100000000E-03 0.  1.
        -11    1    3    3    0    0  0.31990521844E+01 -0.82714054976E+01 -0.14372897628E+02  0.16888761656E+02  0.51100000000E-03 0. -1.
        -12    1    3    3    0    0  0.76487762744E+01 -0.56165015409E+01 -0.14358928510E+02  0.17211266543E+02  0.00000000000E+00 0.  1.
</event>
<event>
 7    1  0.1543346E-008  0.4614232E+02  0.7816164E-02  0.1320468E+00
        -11   -1    0    0    0    0  0.00000000000E+00  0.00000000000E+00  0.45593999997E+02  0.45594000000E+02  0.51100000000E-03 0.  1.
         11   -1    0    0    0    0 -0.00000000000E+00 -0.00000000000E+00 -0.45593999997E+02  0.45594000000E+02  0.51100000000E-03 0. -1.
    9900012    2    1    2    0    0 -0.20551589934E+01 -0.38230905538E+02 -0.23733676961E+02  0.46142320531E+02  0.10000025260E+02 0.  0.
        -12    1    1    2    0    0  0.20551589934E+01  0.38230905538E+02  0.23733676961E+02  0.45045679469E+02  0.00000000000E+00 0.  1.
         11    1    3    3    0    0 -0.34188784712E+00 -0.10008237530E+02 -0.11593251094E+02  0.15319437880E+02  0.51100000000E-03 0. -1.
        -11    1    3    3    0    0 -0.70876116501E+00 -0.38939238318E+01 -0.12656107235E+01  0.41553286225E+01  0.51100000000E-03 0.  1.
         12    1    3    3    0    0 -0.10045099813E+01 -0.24328744176E+02 -0.10874815143E+02  0.26667554029E+02  0.00000000000E+00 0. -1.
</event>
<event>
 7    1  0.1543346E-008  0.4614232E+02  0.7816164E-02  0.1320468E+00
        -11   -1    0    0    0    0  0.00000000000E+00  0.00000000000E+00  0.45593999997E+02  0.45594000000E+02  0.51100000000E-03 0. -1.
         11   -1    0    0    0    0 -0.00000000000E+00 -0.00000000000E+00 -0.45593999997E+02  0.45594000000E+02  0.51100000000E-03 0.  1.
    9900012    2    1    2    0    0 -0.19566683745E+02 -0.25391221619E+02  0.31647183647E+02  0.46142317844E+02  0.10000000760E+02 0.  0.
        -12    1    1    2    0    0  0.19566683745E+02  0.25391221619E+02 -0.31647183647E+02  0.45045682156E+02  0.00000000000E+00 0.  1.
         11    1    3    3    0    0 -0.83544518654E+01 -0.62675141415E+01  0.13041232187E+02  0.16707852546E+02  0.51100000000E-03 0. -1.
        -11    1    3    3    0    0 -0.72744600662E+01 -0.15193617978E+02  0.16207035431E+02  0.23375880609E+02  0.51100000000E-03 0.  1.
        -12    1    3    3    0    0 -0.39377718137E+01 -0.39300894987E+01  0.23989160294E+01  0.60585846896E+01  0.00000000000E+00 0.  1.
</event>
<event>
 7    1  0.1543346E-008  0.4614232E+02  0.7816164E-02  0.1320468E+00
        -11   -1    0    0    0    0  0.00000000000E+00  0.00000000000E+00  0.45593999997E+02  0.45594000000E+02  0.51100000000E-03 0. -1.
         11   -1    0    0    0    0 -0.00000000000E+00 -0.00000000000E+00 -0.45593999997E+02  0.45594000000E+02  0.51100000000E-03 0.  1.
    9900012    2    1    2    0    0 -0.44471776198E+02  0.33762633375E+01  0.63226144936E+01  0.46142317783E+02  0.10000000203E+02 0.  0.
        -12    1    1    2    0    0  0.44471776198E+02 -0.33762633375E+01 -0.63226144936E+01  0.45045682217E+02  0.00000000000E+00 0.  1.
         11    1    3    3    0    0 -0.62689130533E+01  0.35704968837E+00  0.47923252715E+00  0.62973343112E+01  0.51100000000E-03 0. -1.
        -11    1    3    3    0    0 -0.10087779204E+02  0.22813279436E+01  0.55090092013E+01  0.11718230630E+02  0.51100000000E-03 0.  1.
        -12    1    3    3    0    0 -0.28115083941E+02  0.73788570551E+00  0.33437276515E+00  0.28126752843E+02  0.00000000000E+00 0.  1.
</event>
<event>
 7    1  0.1543346E-008  0.4614232E+02  0.7816164E-02  0.1320468E+00
        -11   -1    0    0    0    0  0.00000000000E+00  0.00000000000E+00  0.45593999997E+02  0.45594000000E+02  0.51100000000E-03 0.  1.
         11   -1    0    0    0    0 -0.00000000000E+00 -0.00000000000E+00 -0.45593999997E+02  0.45594000000E+02  0.51100000000E-03 0. -1.
    9900012    2    1    2    0    0  0.32763819362E+01  0.32579371086E+02 -0.30934825029E+02  0.46142317648E+02  0.99999989712E+01 0.  0.
        -12    1    1    2    0    0 -0.32763819362E+01 -0.32579371086E+02  0.30934825029E+02  0.45045682352E+02  0.00000000000E+00 0.  1.
         11    1    3    3    0    0  0.71361825777E+00  0.83546285346E+01 -0.10489456081E+02  0.13428989467E+02  0.51100000000E-03 0. -1.
        -11    1    3    3    0    0 -0.14859147159E+01  0.81512795839E+00 -0.74796874685E+00  0.18525208876E+01  0.51100000000E-03 0.  1.
        -12    1    3    3    0    0  0.40486783944E+01  0.23409614593E+02 -0.19697400201E+02  0.30860807294E+02  0.00000000000E+00 0.  1.
</event>
<event>
 7    1  0.1543346E-008  0.4614232E+02  0.7816164E-02  0.1320468E+00
        -11   -1    0    0    0    0  0.00000000000E+00  0.00000000000E+00  0.45593999997E+02  0.45594000000E+02  0.51100000000E-03 0. -1.
         11   -1    0    0    0    0 -0.00000000000E+00 -0.00000000000E+00 -0.45593999997E+02  0.45594000000E+02  0.51100000000E-03 0.  1.
    9900012    2    1    2    0    0 -0.32662596464E+02 -0.29747346955E+02  0.87956625441E+01  0.46142317208E+02  0.99999949535E+01 0.  0.
        -12    1    1    2    0    0  0.32662596464E+02  0.29747346955E+02 -0.87956625441E+01  0.45045682792E+02  0.00000000000E+00 0.  1.
         11    1    3    3    0    0 -0.21225459025E+02 -0.16367079103E+02  0.53527029938E+01  0.27332266990E+02  0.51100000000E-03 0. -1.
        -11    1    3    3    0    0 -0.17667416543E+01 -0.32602365789E+01 -0.14505216920E+01  0.39817749890E+01  0.51100000000E-03 0.  1.
         12    1    3    3    0    0 -0.96703957849E+01 -0.10120031273E+02  0.48934812423E+01  0.14828275229E+02  0.00000000000E+00 0. -1.
</event>
<event>
 7    1  0.1543346E-008  0.4614232E+02  0.7816164E-02  0.1320468E+00
        -11   -1    0    0    0    0  0.00000000000E+00  0.00000000000E+00  0.45593999997E+02  0.45594000000E+02  0.51100000000E-03 0.  1.
         11   -1    0    0    0    0 -0.00000000000E+00 -0.00000000000E+00 -0.45593999997E+02  0.45594000000E+02  0.51100000000E-03 0. -1.
    9900012    2    1    2    0    0 -0.13613374571E+02  0.22230362941E+02 -0.36736909736E+02  0.46142317181E+02  0.99999947083E+01 0.  0.
        -12    1    1    2    0    0  0.13613374571E+02 -0.22230362941E+02  0.36736909736E+02  0.45045682819E+02  0.00000000000E+00 0.  1.
         11    1    3    3    0    0 -0.10139632032E+00  0.19635782359E+01  0.47627868243E-02  0.19662003071E+01  0.51100000000E-03 0.  1.
        -11    1    3    3    0    0 -0.10838157217E+02  0.14185374624E+02 -0.27757539865E+02  0.33002598757E+02  0.51100000000E-03 0. -1.
         12    1    3    3    0    0 -0.26738210330E+01  0.60814100815E+01 -0.89841326575E+01  0.11173518117E+02  0.00000000000E+00 0. -1.
</event>
<event>
 7    1  0.1543346E-008  0.4614232E+02  0.7816164E-02  0.1320468E+00
        -11   -1    0    0    0    0  0.00000000000E+00  0.00000000000E+00  0.45593999997E+02  0.45594000000E+02  0.51100000000E-03 0.  1.
         11   -1    0    0    0    0 -0.00000000000E+00 -0.00000000000E+00 -0.45593999997E+02  0.45594000000E+02  0.51100000000E-03 0. -1.
    9900012    2    1    2    0    0  0.32268626584E+01 -0.20087011244E+02 -0.40189710153E+02  0.46142318015E+02  0.10000002316E+02 0.  0.
        -12    1    1    2    0    0 -0.32268626584E+01  0.20087011244E+02  0.40189710153E+02  0.45045681985E+02  0.00000000000E+00 0.  1.
         11    1    3    3    0    0 -0.32376718986E+00 -0.26527795742E+01 -0.19109046526E+01  0.32853647461E+01  0.51100000000E-03 0. -1.
        -11    1    3    3    0    0  0.21781806914E+01 -0.61431990073E+01 -0.69540449290E+01  0.95311125428E+01  0.51100000000E-03 0.  1.
        -12    1    3    3    0    0  0.13724491569E+01 -0.11291032663E+02 -0.31324760571E+02  0.33325840726E+02  0.00000000000E+00 0.  1.
</event>
<event>
 7    1  0.1543346E-008  0.4614231E+02  0.7816164E-02  0.1320468E+00
        -11   -1    0    0    0    0  0.00000000000E+00  0.00000000000E+00  0.45593999997E+02  0.45594000000E+02  0.51100000000E-03 0. -1.
         11   -1    0    0    0    0 -0.00000000000E+00 -0.00000000000E+00 -0.45593999997E+02  0.45594000000E+02  0.51100000000E-03 0.  1.
    9900012    2    1    2    0    0  0.23980974576E+02  0.13340113940E+02  0.35722096329E+02  0.46142312663E+02  0.99999535075E+01 0.  0.
        -12    1    1    2    0    0 -0.23980974576E+02 -0.13340113940E+02 -0.35722096329E+02  0.45045687337E+02  0.00000000000E+00 0.  1.
         11    1    3    3    0    0  0.12359445172E+02  0.98069009631E+01  0.19861219280E+02  0.25365315354E+02  0.51100000000E-03 0. -1.
        -11    1    3    3    0    0  0.58609363857E+00  0.20190904022E+01  0.14102251389E+01  0.25315937685E+01  0.51100000000E-03 0.  1.
         12    1    3    3    0    0  0.11035435766E+02  0.15141225747E+01  0.14450651911E+02  0.18245403540E+02  0.00000000000E+00 0. -1.
</event>
<event>
 7    1  0.1543346E-008  0.4614231E+02  0.7816164E-02  0.1320468E+00
        -11   -1    0    0    0    0  0.00000000000E+00  0.00000000000E+00  0.45593999997E+02  0.45594000000E+02  0.51100000000E-03 0.  1.
         11   -1    0    0    0    0 -0.00000000000E+00 -0.00000000000E+00 -0.45593999997E+02  0.45594000000E+02  0.51100000000E-03 0. -1.
    9900012    2    1    2    0    0 -0.26420278231E+02 -0.32758366818E+02  0.16061513752E+02  0.46142312944E+02  0.99999560722E+01 0.  0.
        -12    1    1    2    0    0  0.26420278231E+02  0.32758366818E+02 -0.16061513752E+02  0.45045687056E+02  0.00000000000E+00 0.  1.
         11    1    3    3    0    0 -0.15219005139E+02 -0.21943746834E+02  0.79782622738E+01  0.27871110701E+02  0.51100000000E-03 0. -1.
        -11    1    3    3    0    0 -0.64464245264E+01 -0.31467056668E+01  0.49690499390E+01  0.87263740056E+01  0.51100000000E-03 0.  1.
        -12    1    3    3    0    0 -0.47548485647E+01 -0.76679143171E+01  0.31142015391E+01  0.95448282370E+01  0.00000000000E+00 0.  1.
</event>
<event>
 7    1  0.1543346E-008  0.4614232E+02  0.7816164E-02  0.1320468E+00
        -11   -1    0    0    0    0  0.00000000000E+00  0.00000000000E+00  0.45593999997E+02  0.45594000000E+02  0.51100000000E-03 0.  1.
         11   -1    0    0    0    0 -0.00000000000E+00 -0.00000000000E+00 -0.45593999997E+02  0.45594000000E+02  0.51100000000E-03 0. -1.
    9900012    2    1    2    0    0 -0.34313733426E+02 -0.29183347486E+02  0.11550130364E+00  0.46142318602E+02  0.10000007665E+02 0.  0.
        -12    1    1    2    0    0  0.34313733426E+02  0.29183347486E+02 -0.11550130364E+00  0.45045681398E+02  0.00000000000E+00 0.  1.
         11    1    3    3    0    0 -0.14833925967E+02 -0.11079049971E+02  0.27955458619E+00  0.18516718362E+02  0.51100000000E-03 0. -1.
        -11    1    3    3    0    0 -0.16103338802E+01  0.61448618050E+00 -0.28229277181E+00  0.17465560231E+01  0.51100000000E-03 0.  1.
        -12    1    3    3    0    0 -0.17869473579E+02 -0.18718783695E+02  0.11823948927E+00  0.25879044217E+02  0.00000000000E+00 0.  1.
</event>
<event>
 7    1  0.1543346E-008  0.4614232E+02  0.7816164E-02  0.1320468E+00
        -11   -1    0    0    0    0  0.00000000000E+00  0.00000000000E+00  0.45593999997E+02  0.45594000000E+02  0.51100000000E-03 0. -1.
         11   -1    0    0    0    0 -0.00000000000E+00 -0.00000000000E+00 -0.45593999997E+02  0.45594000000E+02  0.51100000000E-03 0.  1.
    9900012    2    1    2    0    0  0.38314965508E+02  0.17893039760E+02  0.15521469474E+02  0.46142317983E+02  0.10000002022E+02 0.  0.
        -12    1    1    2    0    0 -0.38314965508E+02 -0.17893039760E+02 -0.15521469474E+02  0.45045682017E+02  0.00000000000E+00 0.  1.
         11    1    3    3    0    0  0.77883421368E+01  0.51999486023E+00  0.50384961011E+01  0.92905926138E+01  0.51100000000E-03 0.  1.
        -11    1    3    3    0    0  0.13523046046E+02  0.56684764056E+01  0.36913211247E+01  0.15120524165E+02  0.51100000000E-03 0. -1.
         12    1    3    3    0    0  0.17003577326E+02  0.11704568494E+02  0.67916522479E+01  0.21731201204E+02  0.00000000000E+00 0. -1.
</event>
<event>
 7    1  0.1543346E-008  0.4614232E+02  0.7816164E-02  0.1320468E+00
        -11   -1    0    0    0    0  0.00000000000E+00  0.00000000000E+00  0.45593999997E+02  0.45594000000E+02  0.51100000000E-03 0. -1.
         11   -1    0    0    0    0 -0.00000000000E+00 -0.00000000000E+00 -0.45593999997E+02  0.45594000000E+02  0.51100000000E-03 0.  1.
    9900012    2    1    2    0    0  0.21274633737E+02 -0.71417081681E+01  0.39057642488E+02  0.46142317933E+02  0.10000001567E+02 0.  0.
        -12    1    1    2    0    0 -0.21274633737E+02  0.71417081681E+01 -0.39057642488E+02  0.45045682067E+02  0.00000000000E+00 0.  1.
         11    1    3    3    0    0  0.19740938939E+02 -0.48943215894E+01  0.29400558111E+02  0.35749851349E+02  0.51100000000E-03 0. -1.
        -11    1    3    3    0    0  0.76832035695E+00 -0.19182081247E+01  0.92256464712E+01  0.94542261266E+01  0.51100000000E-03 0.  1.
         12    1    3    3    0    0  0.76537444033E+00 -0.32917845412E+00  0.43143790597E+00  0.93824045706E+00  0.00000000000E+00 0. -1.
</event>
<event>
 7    1  0.1543346E-008  0.4614232E+02  0.7816164E-02  0.1320468E+00
        -11   -1    0    0    0    0  0.00000000000E+00  0.00000000000E+00  0.45593999997E+02  0.45594000000E+02  0.51100000000E-03 0.  1.
         11   -1    0    0    0    0 -0.00000000000E+00 -0.00000000000E+00 -0.45593999997E+02  0.45594000000E+02  0.51100000000E-03 0. -1.
    9900012    2    1    2    0    0  0.21328258591E+02  0.35086830514E+02 -0.18523852894E+02  0.46142318564E+02  0.10000007321E+02 0.  0.
        -12    1    1    2    0    0 -0.21328258591E+02 -0.35086830514E+02  0.18523852894E+02  0.45045681436E+02  0.00000000000E+00 0.  1.
         11    1    3    3    0    0  0.12640360411E+02  0.22598711011E+02 -0.12261567386E+02  0.28650069558E+02  0.51100000000E-03 0. -1.
        -11    1    3    3    0    0  0.29027288840E+01  0.13500619077E+01 -0.32976719370E+01  0.45959920141E+01  0.51100000000E-03 0.  1.
        -12    1    3    3    0    0  0.57851692956E+01  0.11138057595E+02 -0.29646135714E+01  0.12896256992E+02  0.00000000000E+00 0.  1.
</event>
<event>
 7    1  0.1543346E-008  0.4614232E+02  0.7816164E-02  0.1320468E+00
        -11   -1    0    0    0    0  0.00000000000E+00  0.00000000000E+00  0.45593999997E+02  0.45594000000E+02  0.51100000000E-03 0.  1.
         11   -1    0    0    0    0 -0.00000000000E+00 -0.00000000000E+00 -0.45593999997E+02  0.45594000000E+02  0.51100000000E-03 0. -1.
    9900012    2    1    2    0    0  0.26265111673E+02  0.60359256923E+01 -0.36094666846E+02  0.46142318021E+02  0.10000002373E+02 0.  0.
        -12    1    1    2    0    0 -0.26265111673E+02 -0.60359256923E+01  0.36094666846E+02  0.45045681979E+02  0.00000000000E+00 0.  1.
         11    1    3    3    0    0  0.73552365660E+01  0.57678341701E+01 -0.12355872637E+02  0.15493063120E+02  0.51100000000E-03 0. -1.
        -11    1    3    3    0    0  0.15966316447E+02  0.15302606143E+01 -0.18270341492E+02  0.24311938157E+02  0.51100000000E-03 0.  1.
        -12    1    3    3    0    0  0.29435586603E+01 -0.12621690921E+01 -0.54684527174E+01  0.63373167450E+01  0.00000000000E+00 0.  1.
</event>
<event>
 7    1  0.1543346E-008  0.4614232E+02  0.7816164E-02  0.1320468E+00
        -11   -1    0    0    0    0  0.00000000000E+00  0.00000000000E+00  0.45593999997E+02  0.45594000000E+02  0.51100000000E-03 0.  1.
         11   -1    0    0    0    0 -0.00000000000E+00 -0.00000000000E+00 -0.45593999997E+02  0.45594000000E+02  0.51100000000E-03 0. -1.
    9900012    2    1    2    0    0 -0.17663250115E+02 -0.38312173305E+02 -0.15789258531E+02  0.46142315269E+02  0.99999772717E+01 0.  0.
        -12    1    1    2    0    0  0.17663250115E+02  0.38312173305E+02  0.15789258531E+02  0.45045684731E+02  0.00000000000E+00 0.  1.
         11    1    3    3    0    0 -0.62711074566E+00 -0.86502309462E+00 -0.87337630292E+00  0.13799707494E+01  0.51100000000E-03 0. -1.
        -11    1    3    3    0    0 -0.14058108571E+02 -0.19659664920E+02 -0.84776908476E+01  0.25612576671E+02  0.51100000000E-03 0.  1.
        -12    1    3    3    0    0 -0.29780307979E+01 -0.17787485290E+02 -0.64381913802E+01  0.19149767848E+02  0.00000000000E+00 0.  1.
</event>
<event>
 7    1  0.1543346E-008  0.4614232E+02  0.7816164E-02  0.1320468E+00
        -11   -1    0    0    0    0  0.00000000000E+00  0.00000000000E+00  0.45593999997E+02  0.45594000000E+02  0.51100000000E-03 0.  1.
         11   -1    0    0    0    0 -0.00000000000E+00 -0.00000000000E+00 -0.45593999997E+02  0.45594000000E+02  0.51100000000E-03 0. -1.
    9900012    2    1    2    0    0  0.27148289727E+02 -0.94909823321E+01 -0.34669946811E+02  0.46142316604E+02  0.99999894530E+01 0.  0.
        -12    1    1    2    0    0 -0.27148289727E+02  0.94909823321E+01  0.34669946811E+02  0.45045683396E+02  0.00000000000E+00 0.  1.
         11    1    3    3    0    0  0.53634288752E+01 -0.34731393756E+01 -0.48631193704E+01  0.80298814869E+01  0.51100000000E-03 0. -1.
        -11    1    3    3    0    0  0.14137244512E+02 -0.38849789049E+01 -0.24535882806E+02  0.28582587161E+02  0.51100000000E-03 0.  1.
        -12    1    3    3    0    0  0.76476163396E+01 -0.21328640516E+01 -0.52709446344E+01  0.95298479568E+01  0.00000000000E+00 0.  1.
</event>
<event>
 7    1  0.1543346E-008  0.4614232E+02  0.7816164E-02  0.1320468E+00
        -11   -1    0    0    0    0  0.00000000000E+00  0.00000000000E+00  0.45593999997E+02  0.45594000000E+02  0.51100000000E-03 0.  1.
         11   -1    0    0    0    0 -0.00000000000E+00 -0.00000000000E+00 -0.45593999997E+02  0.45594000000E+02  0.51100000000E-03 0. -1.
    9900012    2    1    2    0    0 -0.14696595351E+02  0.19858110234E+02 -0.37666683723E+02  0.46142317414E+02  0.99999968371E+01 0.  0.
        -12    1    1    2    0    0  0.14696595351E+02 -0.19858110234E+02  0.37666683723E+02  0.45045682586E+02  0.00000000000E+00 0.  1.
         11    1    3    3    0    0 -0.95532688910E+01  0.62974458912E+01 -0.17610552541E+02  0.21001293587E+02  0.51100000000E-03 0. -1.
        -11    1    3    3    0    0 -0.54711880121E+01  0.13663517445E+02 -0.19928661233E+02  0.24774526152E+02  0.51100000000E-03 0.  1.
        -12    1    3    3    0    0  0.32786155238E+00 -0.10285310289E+00 -0.12746994801E+00  0.36649767523E+00  0.00000000000E+00 0.  1.
</event>
<event>
 7    1  0.1543346E-008  0.4614232E+02  0.7816164E-02  0.1320468E+00
        -11   -1    0    0    0    0  0.00000000000E+00  0.00000000000E+00  0.45593999997E+02  0.45594000000E+02  0.51100000000E-03 0.  1.
         11   -1    0    0    0    0 -0.00000000000E+00 -0.00000000000E+00 -0.45593999997E+02  0.45594000000E+02  0.51100000000E-03 0. -1.
    9900012    2    1    2    0    0  0.26925910758E+02  0.15942355018E+02 -0.32402933461E+02  0.46142318181E+02  0.10000003831E+02 0.  0.
        -12    1    1    2    0    0 -0.26925910758E+02 -0.15942355018E+02  0.32402933461E+02  0.45045681819E+02  0.00000000000E+00 0.  1.
         11    1    3    3    0    0  0.81066751605E+01  0.60619235793E+01 -0.10203884424E+02  0.14373042727E+02  0.51100000000E-03 0. -1.
        -11    1    3    3    0    0  0.17688771206E+02  0.70007858434E+01 -0.16066120050E+02  0.24900277969E+02  0.51100000000E-03 0.  1.
        -12    1    3    3    0    0  0.11304643914E+01  0.28796455954E+01 -0.61329289866E+01  0.68689974851E+01  0.00000000000E+00 0.  1.
</event>
<event>
 7    1  0.1543346E-008  0.4614232E+02  0.7816164E-02  0.1320468E+00
        -11   -1    0    0    0    0  0.00000000000E+00  0.00000000000E+00  0.45593999997E+02  0.45594000000E+02  0.51100000000E-03 0.  1.
         11   -1    0    0    0    0 -0.00000000000E+00 -0.00000000000E+00 -0.45593999997E+02  0.45594000000E+02  0.51100000000E-03 0. -1.
    9900012    2    1    2    0    0  0.12256668592E+02  0.31339310334E+02 -0.29945541052E+02  0.46142315122E+02  0.99999759369E+01 0.  0.
        -12    1    1    2    0    0 -0.12256668592E+02 -0.31339310334E+02  0.29945541052E+02  0.45045684878E+02  0.00000000000E+00 0.  1.
         11    1    3    3    0    0  0.76448014064E+01  0.14051141407E+02 -0.18150560969E+02  0.24193396354E+02  0.51100000000E-03 0.  1.
        -11    1    3    3    0    0  0.32831258716E+01  0.96249395346E+01 -0.39721109108E+01  0.10917693982E+02  0.51100000000E-03 0. -1.
        -12    1    3    3    0    0  0.13287413141E+01  0.76632293929E+01 -0.78228691719E+01  0.11031224786E+02  0.00000000000E+00 0.  1.
</event>
<event>
 7    1  0.1543346E-008  0.4614232E+02  0.7816164E-02  0.1320468E+00
        -11   -1    0    0    0    0  0.00000000000E+00  0.00000000000E+00  0.45593999997E+02  0.45594000000E+02  0.51100000000E-03 0.  1.
         11   -1    0    0    0    0 -0.00000000000E+00 -0.00000000000E+00 -0.45593999997E+02  0.45594000000E+02  0.51100000000E-03 0. -1.
    9900012    2    1    2    0    0  0.15493271035E+02  0.37306746117E+02 -0.19931851209E+02  0.46142318233E+02  0.10000004304E+02 0.  0.
        -12    1    1    2    0    0 -0.15493271035E+02 -0.37306746117E+02  0.19931851209E+02  0.45045681767E+02  0.00000000000E+00 0.  1.
         11    1    3    3    0    0  0.59826296704E+01  0.61608688952E+01 -0.47311321539E+01  0.98046812817E+01  0.51100000000E-03 0. -1.
        -11    1    3    3    0    0 -0.52478026713E+00  0.31542420586E+01 -0.79086167582E+00  0.32939489590E+01  0.51100000000E-03 0.  1.
         12    1    3    3    0    0  0.10035421632E+02  0.27991635163E+02 -0.14409857380E+02  0.33043687992E+02  0.00000000000E+00 0. -1.
</event>
<event>
 7    1  0.1543346E-008  0.4614232E+02  0.7816164E-02  0.1320468E+00
        -11   -1    0    0    0    0  0.00000000000E+00  0.00000000000E+00  0.45593999997E+02  0.45594000000E+02  0.51100000000E-03 0. -1.
         11   -1    0    0    0    0 -0.00000000000E+00 -0.00000000000E+00 -0.45593999997E+02  0.45594000000E+02  0.51100000000E-03 0.  1.
    9900012    2    1    2    0    0  0.11789534772E+02  0.29022346720E+02  0.32370106758E+02  0.46142317068E+02  0.99999936805E+01 0.  0.
        -12    1    1    2    0    0 -0.11789534772E+02 -0.29022346720E+02 -0.32370106758E+02  0.45045682932E+02  0.00000000000E+00 0.  1.
         11    1    3    3    0    0  0.57769486064E+00  0.23060022320E+01  0.22248985537E+01  0.32560023774E+01  0.51100000000E-03 0. -1.
        -11    1    3    3    0    0  0.11726541425E+02  0.24497433352E+02  0.30189057434E+02  0.40608068208E+02  0.51100000000E-03 0.  1.
        -12    1    3    3    0    0 -0.51470151435E+00  0.22189111362E+01 -0.43849229168E-01  0.22782464823E+01  0.00000000000E+00 0.  1.
</event>
<event>
 7    1  0.1543346E-008  0.4614232E+02  0.7816164E-02  0.1320468E+00
        -11   -1    0    0    0    0  0.00000000000E+00  0.00000000000E+00  0.45593999997E+02  0.45594000000E+02  0.51100000000E-03 0. -1.
         11   -1    0    0    0    0 -0.00000000000E+00 -0.00000000000E+00 -0.45593999997E+02  0.45594000000E+02  0.51100000000E-03 0.  1.
    9900012    2    1    2    0    0 -0.23464900679E+02  0.38443643453E+02  0.77349348115E+00  0.46142316767E+02  0.99999909306E+01 0.  0.
        -12    1    1    2    0    0  0.23464900679E+02 -0.38443643453E+02 -0.77349348115E+00  0.45045683233E+02  0.00000000000E+00 0.  1.
         11    1    3    3    0    0 -0.16022676841E+01  0.85630039413E+01 -0.18864799685E+00  0.87136609159E+01  0.51100000000E-03 0. -1.
        -11    1    3    3    0    0 -0.81791367496E+00  0.48650328095E+00 -0.78762987227E+00  0.12353255842E+01  0.51100000000E-03 0.  1.
         12    1    3    3    0    0 -0.21044719320E+02  0.29394136231E+02  0.17497713503E+01  0.36193330266E+02  0.00000000000E+00 0. -1.
</event>
<event>
 7    1  0.1543346E-008  0.4614232E+02  0.7816164E-02  0.1320468E+00
        -11   -1    0    0    0    0  0.00000000000E+00  0.00000000000E+00  0.45593999997E+02  0.45594000000E+02  0.51100000000E-03 0. -1.
         11   -1    0    0    0    0 -0.00000000000E+00 -0.00000000000E+00 -0.45593999997E+02  0.45594000000E+02  0.51100000000E-03 0.  1.
    9900012    2    1    2    0    0 -0.50143143500E+01 -0.40080868150E+02  0.19937254552E+02  0.46142318086E+02  0.10000002965E+02 0.  0.
        -12    1    1    2    0    0  0.50143143500E+01  0.40080868150E+02 -0.19937254552E+02  0.45045681914E+02  0.00000000000E+00 0.  1.
         11    1    3    3    0    0 -0.37217040981E+01 -0.10948479491E+02  0.36713634120E+01  0.12132567499E+02  0.51100000000E-03 0.  1.
        -11    1    3    3    0    0 -0.24453171276E+01 -0.19651529990E+02  0.13826967753E+02  0.24152582560E+02  0.51100000000E-03 0. -1.
        -12    1    3    3    0    0  0.11527068757E+01 -0.94808586683E+01  0.24389233869E+01  0.98571680272E+01  0.00000000000E+00 0.  1.
</event>
<event>
 7    1  0.1543346E-008  0.4614232E+02  0.7816164E-02  0.1320468E+00
        -11   -1    0    0    0    0  0.00000000000E+00  0.00000000000E+00  0.45593999997E+02  0.45594000000E+02  0.51100000000E-03 0.  1.
         11   -1    0    0    0    0 -0.00000000000E+00 -0.00000000000E+00 -0.45593999997E+02  0.45594000000E+02  0.51100000000E-03 0. -1.
    9900012    2    1    2    0    0 -0.43930608599E+02  0.84591597082E+01 -0.52590609975E+01  0.46142317882E+02  0.10000001104E+02 0.  0.
        -12    1    1    2    0    0  0.43930608599E+02 -0.84591597082E+01  0.52590609975E+01  0.45045682118E+02  0.00000000000E+00 0.  1.
         11    1    3    3    0    0 -0.19757495533E+02  0.35607843454E+01 -0.47421065935E+01  0.20628266774E+02  0.51100000000E-03 0. -1.
        -11    1    3    3    0    0 -0.11568527126E+02  0.56569446349E+01 -0.48265359932E+00  0.12886613101E+02  0.51100000000E-03 0.  1.
         12    1    3    3    0    0 -0.12604585941E+02 -0.75856927216E+00 -0.34300804651E-01  0.12627438007E+02  0.00000000000E+00 0. -1.
</event>
<event>
 7    1  0.1543346E-008  0.4614232E+02  0.7816164E-02  0.1320468E+00
        -11   -1    0    0    0    0  0.00000000000E+00  0.00000000000E+00  0.45593999997E+02  0.45594000000E+02  0.51100000000E-03 0.  1.
         11   -1    0    0    0    0 -0.00000000000E+00 -0.00000000000E+00 -0.45593999997E+02  0.45594000000E+02  0.51100000000E-03 0. -1.
    9900012    2    1    2    0    0  0.12808620801E+02  0.20179663032E+02 -0.38181590994E+02  0.46142318101E+02  0.10000003103E+02 0.  0.
        -12    1    1    2    0    0 -0.12808620801E+02 -0.20179663032E+02  0.38181590994E+02  0.45045681899E+02  0.00000000000E+00 0.  1.
         11    1    3    3    0    0  0.49846417950E+01  0.13437909905E+02 -0.15262905090E+02  0.20937534441E+02  0.51100000000E-03 0. -1.
        -11    1    3    3    0    0  0.42851911957E+01  0.26787023381E+01 -0.99021595770E+01  0.11117152259E+02  0.51100000000E-03 0.  1.
        -12    1    3    3    0    0  0.35387878105E+01  0.40630507888E+01 -0.13016526326E+02  0.14087631401E+02  0.00000000000E+00 0.  1.
</event>
<event>
 7    1  0.1543346E-008  0.4614232E+02  0.7816164E-02  0.1320468E+00
        -11   -1    0    0    0    0  0.00000000000E+00  0.00000000000E+00  0.45593999997E+02  0.45594000000E+02  0.51100000000E-03 0.  1.
         11   -1    0    0    0    0 -0.00000000000E+00 -0.00000000000E+00 -0.45593999997E+02  0.45594000000E+02  0.51100000000E-03 0. -1.
    9900012    2    1    2    0    0 -0.12892146597E+02 -0.33994508478E+02 -0.26594724130E+02  0.46142318719E+02  0.10000008735E+02 0.  0.
        -12    1    1    2    0    0  0.12892146597E+02  0.33994508478E+02  0.26594724130E+02  0.45045681281E+02  0.00000000000E+00 0.  1.
         11    1    3    3    0    0 -0.67413882247E+01 -0.14109489111E+02 -0.11444672076E+02  0.19377938935E+02  0.51100000000E-03 0. -1.
        -11    1    3    3    0    0 -0.57107169657E+01 -0.18250354078E+02 -0.10500497342E+02  0.21816236085E+02  0.51100000000E-03 0.  1.
         12    1    3    3    0    0 -0.44004140640E+00 -0.16346652885E+01 -0.46495547123E+01  0.49481436991E+01  0.00000000000E+00 0. -1.
</event>
<event>
 7    1  0.1543346E-008  0.4614232E+02  0.7816164E-02  0.1320468E+00
        -11   -1    0    0    0    0  0.00000000000E+00  0.00000000000E+00  0.45593999997E+02  0.45594000000E+02  0.51100000000E-03 0.  1.
         11   -1    0    0    0    0 -0.00000000000E+00 -0.00000000000E+00 -0.45593999997E+02  0.45594000000E+02  0.51100000000E-03 0. -1.
    9900012    2    1    2    0    0 -0.25612205230E+02 -0.21327507396E+02 -0.30302903856E+02  0.46142316404E+02  0.99999876270E+01 0.  0.
        -12    1    1    2    0    0  0.25612205230E+02  0.21327507396E+02  0.30302903856E+02  0.45045683596E+02  0.00000000000E+00 0.  1.
         11    1    3    3    0    0 -0.40061177918E+01 -0.72083589284E+01 -0.70894686143E+01  0.10875200398E+02  0.51100000000E-03 0. -1.
        -11    1    3    3    0    0 -0.21552530927E+02 -0.14457065023E+02 -0.23338561306E+02  0.34902818833E+02  0.51100000000E-03 0.  1.
        -12    1    3    3    0    0 -0.53556511651E-01  0.33791655528E+00  0.12512606388E+00  0.36429717284E+00  0.00000000000E+00 0.  1.
</event>
<event>
 7    1  0.1543346E-008  0.4614232E+02  0.7816164E-02  0.1320468E+00
        -11   -1    0    0    0    0  0.00000000000E+00  0.00000000000E+00  0.45593999997E+02  0.45594000000E+02  0.51100000000E-03 0.  1.
         11   -1    0    0    0    0 -0.00000000000E+00 -0.00000000000E+00 -0.45593999997E+02  0.45594000000E+02  0.51100000000E-03 0. -1.
    9900012    2    1    2    0    0 -0.21250513446E+02 -0.34664311910E+02 -0.19388516853E+02  0.46142318434E+02  0.10000006138E+02 0.  0.
        -12    1    1    2    0    0  0.21250513446E+02  0.34664311910E+02  0.19388516853E+02  0.45045681566E+02  0.00000000000E+00 0.  1.
         11    1    3    3    0    0 -0.73748925223E+01 -0.67432838292E+01 -0.76769455111E+01  0.12601444725E+02  0.51100000000E-03 0. -1.
        -11    1    3    3    0    0 -0.39174396710E+01 -0.51098400356E+01 -0.13416526343E+01  0.65769925359E+01  0.51100000000E-03 0.  1.
         12    1    3    3    0    0 -0.99581812530E+01 -0.22811188046E+02 -0.10369918708E+02  0.26963881173E+02  0.00000000000E+00 0. -1.
</event>
<event>
 7    1  0.1543346E-008  0.4614232E+02  0.7816164E-02  0.1320468E+00
        -11   -1    0    0    0    0  0.00000000000E+00  0.00000000000E+00  0.45593999997E+02  0.45594000000E+02  0.51100000000E-03 0.  1.
         11   -1    0    0    0    0 -0.00000000000E+00 -0.00000000000E+00 -0.45593999997E+02  0.45594000000E+02  0.51100000000E-03 0. -1.
    9900012    2    1    2    0    0  0.28533593197E+02 -0.26582204630E+02 -0.22546262580E+02  0.46142317631E+02  0.99999988177E+01 0.  0.
        -12    1    1    2    0    0 -0.28533593197E+02  0.26582204630E+02  0.22546262580E+02  0.45045682369E+02  0.00000000000E+00 0.  1.
         11    1    3    3    0    0  0.18239225043E+02 -0.14136896471E+02 -0.11108443502E+02  0.25610909576E+02  0.51100000000E-03 0. -1.
        -11    1    3    3    0    0  0.28185361517E+01 -0.38069347140E+01 -0.66031948183E+01  0.81264432580E+01  0.51100000000E-03 0.  1.
        -12    1    3    3    0    0  0.74758320023E+01 -0.86383734448E+01 -0.48346242601E+01  0.12404964798E+02  0.00000000000E+00 0.  1.
</event>
<event>
 7    1  0.1543346E-008  0.4614232E+02  0.7816164E-02  0.1320468E+00
        -11   -1    0    0    0    0  0.00000000000E+00  0.00000000000E+00  0.45593999997E+02  0.45594000000E+02  0.51100000000E-03 0.  1.
         11   -1    0    0    0    0 -0.00000000000E+00 -0.00000000000E+00 -0.45593999997E+02  0.45594000000E+02  0.51100000000E-03 0. -1.
    9900012    2    1    2    0    0 -0.40934293753E+02 -0.69913070158E+01 -0.17453329279E+02  0.46142317835E+02  0.10000000672E+02 0.  0.
        -12    1    1    2    0    0  0.40934293753E+02  0.69913070158E+01  0.17453329279E+02  0.45045682165E+02  0.00000000000E+00 0.  1.
         11    1    3    3    0    0 -0.28971836184E+02 -0.51818533812E+01 -0.15609075312E+02  0.33314593329E+02  0.51100000000E-03 0. -1.
        -11    1    3    3    0    0 -0.55000142190E+01 -0.22318809658E+01  0.46088888220E+00  0.59534752773E+01  0.51100000000E-03 0.  1.
        -12    1    3    3    0    0 -0.64624433500E+01  0.42242733123E+00 -0.23051428488E+01  0.68742492285E+01  0.00000000000E+00 0.  1.
</event>
<event>
 7    1  0.1543346E-008  0.4614232E+02  0.7816164E-02  0.1320468E+00
        -11   -1    0    0    0    0  0.00000000000E+00  0.00000000000E+00  0.45593999997E+02  0.45594000000E+02  0.51100000000E-03 0. -1.
         11   -1    0    0    0    0 -0.00000000000E+00 -0.00000000000E+00 -0.45593999997E+02  0.45594000000E+02  0.51100000000E-03 0.  1.
    9900012    2    1    2    0    0 -0.18921581218E+02  0.38735268437E+02  0.13063928963E+02  0.46142317669E+02  0.99999991597E+01 0.  0.
        -12    1    1    2    0    0  0.18921581218E+02 -0.38735268437E+02 -0.13063928963E+02  0.45045682331E+02  0.00000000000E+00 0.  1.
         11    1    3    3    0    0 -0.69180496177E+01  0.72952683178E+01  0.36703475226E+01  0.10702887533E+02  0.51100000000E-03 0. -1.
        -11    1    3    3    0    0 -0.12490168876E+02  0.29802286944E+02  0.81483598250E+01  0.33325311607E+02  0.51100000000E-03 0.  1.
        -12    1    3    3    0    0  0.48663727483E+00  0.16377131759E+01  0.12452216153E+01  0.21141185291E+01  0.00000000000E+00 0.  1.
</event>
<event>
 7    1  0.1543346E-008  0.4614232E+02  0.7816164E-02  0.1320468E+00
        -11   -1    0    0    0    0  0.00000000000E+00  0.00000000000E+00  0.45593999997E+02  0.45594000000E+02  0.51100000000E-03 0.  1.
         11   -1    0    0    0    0 -0.00000000000E+00 -0.00000000000E+00 -0.45593999997E+02  0.45594000000E+02  0.51100000000E-03 0. -1.
    9900012    2    1    2    0    0 -0.40150059123E+01 -0.85886392375E+01 -0.44036672010E+02  0.46142317875E+02  0.10000001037E+02 0.  0.
        -12    1    1    2    0    0  0.40150059123E+01  0.85886392375E+01  0.44036672010E+02  0.45045682125E+02  0.00000000000E+00 0.  1.
         11    1    3    3    0    0  0.65890047185E+00 -0.60834442225E+00 -0.72795539146E+01  0.73345850751E+01  0.51100000000E-03 0. -1.
        -11    1    3    3    0    0 -0.64795567153E-01 -0.63879811969E+00  0.32939143794E+00  0.72163736305E+00  0.51100000000E-03 0.  1.
        -12    1    3    3    0    0 -0.46091108170E+01 -0.73414966956E+01 -0.37086509533E+02  0.38086095437E+02  0.00000000000E+00 0.  1.
</event>
<event>
 7    1  0.1543346E-008  0.4614232E+02  0.7816164E-02  0.1320468E+00
        -11   -1    0    0    0    0  0.00000000000E+00  0.00000000000E+00  0.45593999997E+02  0.45594000000E+02  0.51100000000E-03 0.  1.
         11   -1    0    0    0    0 -0.00000000000E+00 -0.00000000000E+00 -0.45593999997E+02  0.45594000000E+02  0.51100000000E-03 0. -1.
    9900012    2    1    2    0    0  0.27102985299E+02  0.35955383179E+02  0.13236622381E+01  0.46142317928E+02  0.10000001519E+02 0.  0.
        -12    1    1    2    0    0 -0.27102985299E+02 -0.35955383179E+02 -0.13236622381E+01  0.45045682072E+02  0.00000000000E+00 0.  1.
         11    1    3    3    0    0  0.22157704293E+02  0.23734726785E+02 -0.22143185701E+00  0.32470758344E+02  0.51100000000E-03 0. -1.
        -11    1    3    3    0    0  0.52149433368E+01  0.10555192173E+02  0.19573250096E+01  0.11934774286E+02  0.51100000000E-03 0.  1.
         12    1    3    3    0    0 -0.26966233068E+00  0.16654642203E+01 -0.41223091450E+00  0.17367852972E+01  0.00000000000E+00 0. -1.
</event>
<event>
 7    1  0.1543346E-008  0.4614232E+02  0.7816164E-02  0.1320468E+00
        -11   -1    0    0    0    0  0.00000000000E+00  0.00000000000E+00  0.45593999997E+02  0.45594000000E+02  0.51100000000E-03 0. -1.
         11   -1    0    0    0    0 -0.00000000000E+00 -0.00000000000E+00 -0.45593999997E+02  0.45594000000E+02  0.51100000000E-03 0.  1.
    9900012    2    1    2    0    0 -0.34478253695E+02  0.31117053311E+01  0.28821537426E+02  0.46142315329E+02  0.99999778181E+01 0.  0.
        -12    1    1    2    0    0  0.34478253695E+02 -0.31117053311E+01 -0.28821537426E+02  0.45045684671E+02  0.00000000000E+00 0.  1.
         11    1    3    3    0    0 -0.15230740867E+02 -0.23600312755E+01  0.84653852654E+01  0.17584310136E+02  0.51100000000E-03 0. -1.
        -11    1    3    3    0    0 -0.14023917866E+02  0.41924118146E+01  0.14397923096E+02  0.20531604391E+02  0.51100000000E-03 0.  1.
         12    1    3    3    0    0 -0.52235949620E+01  0.12793247921E+01  0.59582290646E+01  0.80264008021E+01  0.00000000000E+00 0. -1.
</event>
<event>
 7    1  0.1543346E-008  0.4614232E+02  0.7816164E-02  0.1320468E+00
        -11   -1    0    0    0    0  0.00000000000E+00  0.00000000000E+00  0.45593999997E+02  0.45594000000E+02  0.51100000000E-03 0.  1.
         11   -1    0    0    0    0 -0.00000000000E+00 -0.00000000000E+00 -0.45593999997E+02  0.45594000000E+02  0.51100000000E-03 0. -1.
    9900012    2    1    2    0    0  0.14719929763E+02  0.41996742905E+02 -0.69793121891E+01  0.46142317127E+02  0.99999942147E+01 0.  0.
        -12    1    1    2    0    0 -0.14719929763E+02 -0.41996742905E+02  0.69793121891E+01  0.45045682873E+02  0.00000000000E+00 0.  1.
         11    1    3    3    0    0  0.36620782550E+01  0.15270089447E+02 -0.67331829274E+01  0.17085730932E+02  0.51100000000E-03 0. -1.
        -11    1    3    3    0    0  0.59918096392E+01  0.14620363095E+02  0.12403387512E+01  0.15849140048E+02  0.51100000000E-03 0.  1.
        -12    1    3    3    0    0  0.50660418693E+01  0.12106290363E+02 -0.14864680129E+01  0.13207446147E+02  0.00000000000E+00 0.  1.
</event>
<event>
 7    1  0.1543346E-008  0.4614232E+02  0.7816164E-02  0.1320468E+00
        -11   -1    0    0    0    0  0.00000000000E+00  0.00000000000E+00  0.45593999997E+02  0.45594000000E+02  0.51100000000E-03 0. -1.
         11   -1    0    0    0    0 -0.00000000000E+00 -0.00000000000E+00 -0.45593999997E+02  0.45594000000E+02  0.51100000000E-03 0.  1.
    9900012    2    1    2    0    0  0.17860650573E+02  0.32995380777E+02  0.24928207112E+02  0.46142317618E+02  0.99999986908E+01 0.  0.
        -12    1    1    2    0    0 -0.17860650573E+02 -0.32995380777E+02 -0.24928207112E+02  0.45045682382E+02  0.00000000000E+00 0.  1.
         11    1    3    3    0    0  0.26425803016E+01  0.62536995869E+01  0.59532613209E+00  0.68151597662E+01  0.51100000000E-03 0. -1.
        -11    1    3    3    0    0  0.49581870105E+01  0.86546085135E+01  0.95906926271E+01  0.13837169229E+02  0.51100000000E-03 0.  1.
         12    1    3    3    0    0  0.10259883261E+02  0.18087072676E+02  0.14742188353E+02  0.25489988622E+02  0.00000000000E+00 0. -1.
</event>
<event>
 7    1  0.1543346E-008  0.4614232E+02  0.7816164E-02  0.1320468E+00
        -11   -1    0    0    0    0  0.00000000000E+00  0.00000000000E+00  0.45593999997E+02  0.45594000000E+02  0.51100000000E-03 0.  1.
         11   -1    0    0    0    0 -0.00000000000E+00 -0.00000000000E+00 -0.45593999997E+02  0.45594000000E+02  0.51100000000E-03 0. -1.
    9900012    2    1    2    0    0 -0.32589530195E+02  0.10708249904E+00 -0.31097018164E+02  0.46142317813E+02  0.10000000477E+02 0.  0.
        -12    1    1    2    0    0  0.32589530195E+02 -0.10708249904E+00  0.31097018164E+02  0.45045682187E+02  0.00000000000E+00 0.  1.
         11    1    3    3    0    0 -0.63366180782E+00  0.12786989324E+01 -0.37754098898E+01  0.40361266510E+01  0.51100000000E-03 0.  1.
        -11    1    3    3    0    0 -0.30735511451E+02 -0.14689141323E+01 -0.26463000693E+02  0.40584723466E+02  0.51100000000E-03 0. -1.
        -12    1    3    3    0    0 -0.12203569355E+01  0.29729769901E+00 -0.85860758130E+00  0.15214676962E+01  0.00000000000E+00 0.  1.
</event>
<event>
 7    1  0.1543346E-008  0.4614232E+02  0.7816164E-02  0.1320468E+00
        -11   -1    0    0    0    0  0.00000000000E+00  0.00000000000E+00  0.45593999997E+02  0.45594000000E+02  0.51100000000E-03 0.  1.
         11   -1    0    0    0    0 -0.00000000000E+00 -0.00000000000E+00 -0.45593999997E+02  0.45594000000E+02  0.51100000000E-03 0. -1.
    9900012    2    1    2    0    0 -0.16728943845E+02 -0.37334899241E+02 -0.18851027120E+02  0.46142317776E+02  0.10000000135E+02 0.  0.
        -12    1    1    2    0    0  0.16728943845E+02  0.37334899241E+02  0.18851027120E+02  0.45045682224E+02  0.00000000000E+00 0.  1.
         11    1    3    3    0    0 -0.13391207900E+02 -0.27506598650E+02 -0.15311911438E+02  0.34210993123E+02  0.51100000000E-03 0. -1.
        -11    1    3    3    0    0 -0.11074290740E+01 -0.88289916148E+01 -0.32374813877E+01  0.94688319283E+01  0.51100000000E-03 0.  1.
         12    1    3    3    0    0 -0.22303068717E+01 -0.99930897655E+00 -0.30163429494E+00  0.24624927249E+01  0.00000000000E+00 0. -1.
</event>
<event>
 7    1  0.1543346E-008  0.4614232E+02  0.7816164E-02  0.1320468E+00
        -11   -1    0    0    0    0  0.00000000000E+00  0.00000000000E+00  0.45593999997E+02  0.45594000000E+02  0.51100000000E-03 0. -1.
         11   -1    0    0    0    0 -0.00000000000E+00 -0.00000000000E+00 -0.45593999997E+02  0.45594000000E+02  0.51100000000E-03 0.  1.
    9900012    2    1    2    0    0 -0.42409173311E+02 -0.22991220394E+01  0.15009645893E+02  0.46142318599E+02  0.10000007638E+02 0.  0.
        -12    1    1    2    0    0  0.42409173311E+02  0.22991220394E+01 -0.15009645893E+02  0.45045681401E+02  0.00000000000E+00 0.  1.
         11    1    3    3    0    0 -0.15212406645E+02 -0.18042275720E+01  0.10024264769E+02  0.18307332888E+02  0.51100000000E-03 0. -1.
        -11    1    3    3    0    0 -0.17582935937E+02 -0.73552688820E+00  0.17347011315E+01  0.17683603260E+02  0.51100000000E-03 0.  1.
         12    1    3    3    0    0 -0.96138307285E+01  0.24063242083E+00  0.32506799931E+01  0.10151382450E+02  0.00000000000E+00 0. -1.
</event>
<event>
 7    1  0.1543346E-008  0.4614232E+02  0.7816164E-02  0.1320468E+00
        -11   -1    0    0    0    0  0.00000000000E+00  0.00000000000E+00  0.45593999997E+02  0.45594000000E+02  0.51100000000E-03 0. -1.
         11   -1    0    0    0    0 -0.00000000000E+00 -0.00000000000E+00 -0.45593999997E+02  0.45594000000E+02  0.51100000000E-03 0.  1.
    9900012    2    1    2    0    0  0.35807204823E+02  0.27136713085E+02  0.32490225948E+01  0.46142320272E+02  0.10000022896E+02 0.  0.
        -12    1    1    2    0    0 -0.35807204823E+02 -0.27136713085E+02 -0.32490225948E+01  0.45045679728E+02  0.00000000000E+00 0.  1.
         11    1    3    3    0    0  0.96149904739E+01  0.64521459510E+01  0.10302025662E+01  0.11624953625E+02  0.51100000000E-03 0. -1.
        -11    1    3    3    0    0  0.42741332847E+01  0.77205327018E+01  0.20136384377E+01  0.90514960395E+01  0.51100000000E-03 0.  1.
        -12    1    3    3    0    0  0.21918081065E+02  0.12964034432E+02  0.20518159087E+00  0.25465870608E+02  0.00000000000E+00 0.  1.
</event>
<event>
 7    1  0.1543346E-008  0.4614232E+02  0.7816164E-02  0.1320468E+00
        -11   -1    0    0    0    0  0.00000000000E+00  0.00000000000E+00  0.45593999997E+02  0.45594000000E+02  0.51100000000E-03 0.  1.
         11   -1    0    0    0    0 -0.00000000000E+00 -0.00000000000E+00 -0.45593999997E+02  0.45594000000E+02  0.51100000000E-03 0. -1.
    9900012    2    1    2    0    0  0.10213188494E+02  0.29891404870E+02 -0.32113989256E+02  0.46142316409E+02  0.99999876678E+01 0.  0.
        -12    1    1    2    0    0 -0.10213188494E+02 -0.29891404870E+02  0.32113989256E+02  0.45045683591E+02  0.00000000000E+00 0.  1.
         11    1    3    3    0    0  0.49121350519E+01  0.12250397720E+02 -0.89475046592E+01  0.15945505791E+02  0.51100000000E-03 0. -1.
        -11    1    3    3    0    0  0.48837288819E+01  0.13578454686E+02 -0.21248070223E+02  0.25684737256E+02  0.51100000000E-03 0.  1.
        -12    1    3    3    0    0  0.41732456031E+00  0.40625524636E+01 -0.19184143739E+01  0.45120733613E+01  0.00000000000E+00 0.  1.
</event>
<event>
 7    1  0.1543346E-008  0.4614232E+02  0.7816164E-02  0.1320468E+00
        -11   -1    0    0    0    0  0.00000000000E+00  0.00000000000E+00  0.45593999997E+02  0.45594000000E+02  0.51100000000E-03 0.  1.
         11   -1    0    0    0    0 -0.00000000000E+00 -0.00000000000E+00 -0.45593999997E+02  0.45594000000E+02  0.51100000000E-03 0. -1.
    9900012    2    1    2    0    0 -0.18779286762E+02 -0.40768659046E+02  0.37905633220E+01  0.46142317165E+02  0.99999945684E+01 0.  0.
        -12    1    1    2    0    0  0.18779286762E+02  0.40768659046E+02 -0.37905633220E+01  0.45045682835E+02  0.00000000000E+00 0.  1.
         11    1    3    3    0    0 -0.65595924625E+01 -0.91997670779E+01  0.17400160815E+01  0.11432043727E+02  0.51100000000E-03 0. -1.
        -11    1    3    3    0    0  0.24613636952E+00 -0.52531254517E+01 -0.12482705378E+01  0.54050059871E+01  0.51100000000E-03 0.  1.
        -12    1    3    3    0    0 -0.12465830669E+02 -0.26315766517E+02  0.32988177782E+01  0.29305267451E+02  0.00000000000E+00 0.  1.
</event>
<event>
 7    1  0.1543346E-008  0.4614233E+02  0.7816164E-02  0.1320468E+00
        -11   -1    0    0    0    0  0.00000000000E+00  0.00000000000E+00  0.45593999997E+02  0.45594000000E+02  0.51100000000E-03 0.  1.
         11   -1    0    0    0    0 -0.00000000000E+00 -0.00000000000E+00 -0.45593999997E+02  0.45594000000E+02  0.51100000000E-03 0. -1.
    9900012    2    1    2    0    0  0.50264707790E+01 -0.37423135134E+02 -0.24563310704E+02  0.46142326684E+02  0.10000081366E+02 0.  0.
        -12    1    1    2    0    0 -0.50264707790E+01  0.37423135134E+02  0.24563310704E+02  0.45045673316E+02  0.00000000000E+00 0.  1.
         11    1    3    3    0    0  0.29660775017E+01 -0.16633786306E+02 -0.12742583104E+02  0.21162558613E+02  0.51100000000E-03 0. -1.
        -11    1    3    3    0    0  0.41245742834E+01 -0.85019505723E+01 -0.39468976928E+01  0.10240765509E+02  0.51100000000E-03 0.  1.
        -12    1    3    3    0    0 -0.20641810061E+01 -0.12287398256E+02 -0.78738299073E+01  0.14739002562E+02  0.00000000000E+00 0.  1.
</event>
<event>
 7    1  0.1543346E-008  0.4614232E+02  0.7816164E-02  0.1320468E+00
        -11   -1    0    0    0    0  0.00000000000E+00  0.00000000000E+00  0.45593999997E+02  0.45594000000E+02  0.51100000000E-03 0.  1.
         11   -1    0    0    0    0 -0.00000000000E+00 -0.00000000000E+00 -0.45593999997E+02  0.45594000000E+02  0.51100000000E-03 0. -1.
    9900012    2    1    2    0    0 -0.31552264303E+02 -0.29434026869E+02 -0.12930821412E+02  0.46142318046E+02  0.10000002596E+02 0.  0.
        -12    1    1    2    0    0  0.31552264303E+02  0.29434026869E+02  0.12930821412E+02  0.45045681954E+02  0.00000000000E+00 0.  1.
         11    1    3    3    0    0 -0.12265092109E+02 -0.10542789132E+02 -0.23918523774E+01  0.16349429506E+02  0.51100000000E-03 0. -1.
        -11    1    3    3    0    0 -0.63549517242E+01 -0.21870004229E+01 -0.30384124418E+01  0.73756581194E+01  0.51100000000E-03 0.  1.
        -12    1    3    3    0    0 -0.12932220470E+02 -0.16704237314E+02 -0.75005565924E+01  0.22417230420E+02  0.00000000000E+00 0.  1.
</event>
<event>
 7    1  0.1543346E-008  0.4614232E+02  0.7816164E-02  0.1320468E+00
        -11   -1    0    0    0    0  0.00000000000E+00  0.00000000000E+00  0.45593999997E+02  0.45594000000E+02  0.51100000000E-03 0.  1.
         11   -1    0    0    0    0 -0.00000000000E+00 -0.00000000000E+00 -0.45593999997E+02  0.45594000000E+02  0.51100000000E-03 0. -1.
    9900012    2    1    2    0    0  0.10991885761E+02 -0.38645827274E+02 -0.20366443769E+02  0.46142317076E+02  0.99999937525E+01 0.  0.
        -12    1    1    2    0    0 -0.10991885761E+02  0.38645827274E+02  0.20366443769E+02  0.45045682924E+02  0.00000000000E+00 0.  1.
         11    1    3    3    0    0  0.53501572795E+01 -0.65032571776E+01 -0.65973746300E+01  0.10697751591E+02  0.51100000000E-03 0. -1.
        -11    1    3    3    0    0  0.50494371711E+01 -0.25800747482E+02 -0.10963243425E+02  0.28484523746E+02  0.51100000000E-03 0.  1.
        -12    1    3    3    0    0  0.59229131043E+00 -0.63418226151E+01 -0.28058257135E+01  0.69600417392E+01  0.00000000000E+00 0.  1.
</event>
<event>
 7    1  0.1980322E-008  0.4614232E+02  0.7816164E-02  0.1320468E+00
        -11   -1    0    0    0    0  0.00000000000E+00  0.00000000000E+00  0.45593999997E+02  0.45594000000E+02  0.51100000000E-03 0.  1.
         11   -1    0    0    0    0 -0.00000000000E+00 -0.00000000000E+00 -0.45593999997E+02  0.45594000000E+02  0.51100000000E-03 0. -1.
    9900012    2    1    2    0    0  0.35526840866E+02 -0.23093280175E+02 -0.15285852639E+02  0.46142319829E+02  0.10000018858E+02 0.  0.
        -12    1    1    2    0    0 -0.35526840866E+02  0.23093280175E+02  0.15285852639E+02  0.45045680171E+02  0.00000000000E+00 0.  1.
         11    1    3    3    0    0  0.19732996520E+02 -0.14399468222E+02 -0.13216067463E+02  0.27774093616E+02  0.51100000000E-03 0. -1.
        -11    1    3    3    0    0  0.66349350105E+01 -0.24512316639E+01  0.99370780217E-01  0.70739503870E+01  0.51100000000E-03 0.  1.
         12    1    3    3    0    0  0.91589093352E+01 -0.62425802888E+01 -0.21691559565E+01  0.11294275826E+02  0.00000000000E+00 0. -1.
</event>
<event>
 7    1  0.1543346E-008  0.4614232E+02  0.7816164E-02  0.1320468E+00
        -11   -1    0    0    0    0  0.00000000000E+00  0.00000000000E+00  0.45593999997E+02  0.45594000000E+02  0.51100000000E-03 0.  1.
         11   -1    0    0    0    0 -0.00000000000E+00 -0.00000000000E+00 -0.45593999997E+02  0.45594000000E+02  0.51100000000E-03 0. -1.
    9900012    2    1    2    0    0  0.29866250656E+02  0.66968512235E+01 -0.33049550086E+02  0.46142317572E+02  0.99999982724E+01 0.  0.
        -12    1    1    2    0    0 -0.29866250656E+02 -0.66968512235E+01  0.33049550086E+02  0.45045682428E+02  0.00000000000E+00 0.  1.
         11    1    3    3    0    0  0.11929109203E+02  0.34525080879E+00 -0.15575600122E+02  0.19621981651E+02  0.51100000000E-03 0. -1.
        -11    1    3    3    0    0  0.16366413548E+02  0.74478195166E+01 -0.16326356644E+02  0.24287433572E+02  0.51100000000E-03 0.  1.
         12    1    3    3    0    0  0.15707279046E+01 -0.10962191019E+01 -0.11475933197E+01  0.22329023483E+01  0.00000000000E+00 0. -1.
</event>
<event>
 7    1  0.1543346E-008  0.4614232E+02  0.7816164E-02  0.1320468E+00
        -11   -1    0    0    0    0  0.00000000000E+00  0.00000000000E+00  0.45593999997E+02  0.45594000000E+02  0.51100000000E-03 0. -1.
         11   -1    0    0    0    0 -0.00000000000E+00 -0.00000000000E+00 -0.45593999997E+02  0.45594000000E+02  0.51100000000E-03 0.  1.
    9900012    2    1    2    0    0  0.45216723563E+01  0.31053095104E+02  0.32316762562E+02  0.46142318976E+02  0.10000011078E+02 0.  0.
        -12    1    1    2    0    0 -0.45216723563E+01 -0.31053095104E+02 -0.32316762562E+02  0.45045681024E+02  0.00000000000E+00 0.  1.
         11    1    3    3    0    0  0.13050312715E+01  0.20530277512E+02  0.25711029811E+02  0.32927988939E+02  0.51100000000E-03 0. -1.
        -11    1    3    3    0    0  0.13766244989E+01  0.68613773393E+01  0.25482804661E+01  0.74476390620E+01  0.51100000000E-03 0.  1.
         12    1    3    3    0    0  0.18400165859E+01  0.36614402526E+01  0.40574522850E+01  0.57666909754E+01  0.00000000000E+00 0. -1.
</event>
<event>
 7    1  0.1543346E-008  0.4614232E+02  0.7816164E-02  0.1320468E+00
        -11   -1    0    0    0    0  0.00000000000E+00  0.00000000000E+00  0.45593999997E+02  0.45594000000E+02  0.51100000000E-03 0.  1.
         11   -1    0    0    0    0 -0.00000000000E+00 -0.00000000000E+00 -0.45593999997E+02  0.45594000000E+02  0.51100000000E-03 0. -1.
    9900012    2    1    2    0    0 -0.15426196252E+02  0.26815562660E+02 -0.32742503505E+02  0.46142317994E+02  0.10000002123E+02 0.  0.
        -12    1    1    2    0    0  0.15426196252E+02 -0.26815562660E+02  0.32742503505E+02  0.45045682006E+02  0.00000000000E+00 0.  1.
         11    1    3    3    0    0 -0.10381931976E+01  0.90381158389E+01 -0.77744539752E+01  0.11966934357E+02  0.51100000000E-03 0. -1.
        -11    1    3    3    0    0 -0.43585908168E+01  0.38141344408E+01 -0.90567956944E+01  0.10750371340E+02  0.51100000000E-03 0.  1.
         12    1    3    3    0    0 -0.10029412238E+02  0.13963312381E+02 -0.15911253836E+02  0.23425012297E+02  0.00000000000E+00 0. -1.
</event>
<event>
 7    1  0.1543346E-008  0.4614232E+02  0.7816164E-02  0.1320468E+00
        -11   -1    0    0    0    0  0.00000000000E+00  0.00000000000E+00  0.45593999997E+02  0.45594000000E+02  0.51100000000E-03 0.  1.
         11   -1    0    0    0    0 -0.00000000000E+00 -0.00000000000E+00 -0.45593999997E+02  0.45594000000E+02  0.51100000000E-03 0. -1.
    9900012    2    1    2    0    0 -0.13300313073E+02 -0.10190574905E+02 -0.41813480858E+02  0.46142319562E+02  0.10000016418E+02 0.  0.
        -12    1    1    2    0    0  0.13300313073E+02  0.10190574905E+02  0.41813480858E+02  0.45045680438E+02  0.00000000000E+00 0.  1.
         11    1    3    3    0    0 -0.86283004614E+01 -0.10339693290E+02 -0.29232407018E+02  0.32185252003E+02  0.51100000000E-03 0. -1.
        -11    1    3    3    0    0 -0.40703084887E+01  0.13306840592E+01 -0.68802312123E+01  0.81040553462E+01  0.51100000000E-03 0.  1.
        -12    1    3    3    0    0 -0.60170412249E+00 -0.11815656736E+01 -0.57008426278E+01  0.58530122125E+01  0.00000000000E+00 0.  1.
</event>
<event>
 7    1  0.1543346E-008  0.4614232E+02  0.7816164E-02  0.1320468E+00
        -11   -1    0    0    0    0  0.00000000000E+00  0.00000000000E+00  0.45593999997E+02  0.45594000000E+02  0.51100000000E-03 0. -1.
         11   -1    0    0    0    0 -0.00000000000E+00 -0.00000000000E+00 -0.45593999997E+02  0.45594000000E+02  0.51100000000E-03 0.  1.
    9900012    2    1    2    0    0 -0.27437800862E+02  0.43614593064E+01  0.35457836544E+02  0.46142318567E+02  0.10000007347E+02 0.  0.
        -12    1    1    2    0    0  0.27437800862E+02 -0.43614593064E+01 -0.35457836544E+02  0.45045681433E+02  0.00000000000E+00 0.  1.
         11    1    3    3    0    0 -0.11256693573E+02  0.15403364219E+01  0.17598790013E+02  0.20947629859E+02  0.51100000000E-03 0. -1.
        -11    1    3    3    0    0 -0.82817825199E+01  0.40641591201E+01  0.64262364727E+01  0.11242856689E+02  0.51100000000E-03 0.  1.
        -12    1    3    3    0    0 -0.78993247684E+01 -0.12430362356E+01  0.11432810058E+02  0.13951832020E+02  0.00000000000E+00 0.  1.
</event>
<event>
 7    1  0.1543346E-008  0.4614232E+02  0.7816164E-02  0.1320468E+00
        -11   -1    0    0    0    0  0.00000000000E+00  0.00000000000E+00  0.45593999997E+02  0.45594000000E+02  0.51100000000E-03 0.  1.
         11   -1    0    0    0    0 -0.00000000000E+00 -0.00000000000E+00 -0.45593999997E+02  0.45594000000E+02  0.51100000000E-03 0. -1.
    9900012    2    1    2    0    0  0.26073523149E+02 -0.34593939082E+02 -0.12350876256E+02  0.46142319020E+02  0.10000011483E+02 0.  0.
        -12    1    1    2    0    0 -0.26073523149E+02  0.34593939082E+02  0.12350876256E+02  0.45045680980E+02  0.00000000000E+00 0.  1.
         11    1    3    3    0    0  0.80546009503E+01 -0.63016596839E+01 -0.26800117341E+01  0.10572131970E+02  0.51100000000E-03 0. -1.
        -11    1    3    3    0    0  0.74146902168E+00 -0.48734989635E+01 -0.27940136920E+01  0.56663287259E+01  0.51100000000E-03 0.  1.
        -12    1    3    3    0    0  0.17277453177E+02 -0.23418780435E+02 -0.68768508304E+01  0.29903858324E+02  0.00000000000E+00 0.  1.
</event>
<event>
 7    1  0.1543346E-008  0.4614232E+02  0.7816164E-02  0.1320468E+00
        -11   -1    0    0    0    0  0.00000000000E+00  0.00000000000E+00  0.45593999997E+02  0.45594000000E+02  0.51100000000E-03 0.  1.
         11   -1    0    0    0    0 -0.00000000000E+00 -0.00000000000E+00 -0.45593999997E+02  0.45594000000E+02  0.51100000000E-03 0. -1.
    9900012    2    1    2    0    0  0.26950169329E+02  0.33977343570E+02  0.12179569413E+02  0.46142318586E+02  0.10000007524E+02 0.  0.
        -12    1    1    2    0    0 -0.26950169329E+02 -0.33977343570E+02 -0.12179569413E+02  0.45045681414E+02  0.00000000000E+00 0.  1.
         11    1    3    3    0    0  0.12838822092E+02  0.14594512242E+02  0.46603284380E+01  0.19988841930E+02  0.51100000000E-03 0. -1.
        -11    1    3    3    0    0  0.39224515131E+01  0.23449212378E+01  0.38275773427E+01  0.59610930256E+01  0.51100000000E-03 0.  1.
        -12    1    3    3    0    0  0.10188895724E+02  0.17037910090E+02  0.36916636327E+01  0.20192383630E+02  0.00000000000E+00 0.  1.
</event>
<event>
 7    1  0.1543346E-008  0.4614232E+02  0.7816164E-02  0.1320468E+00
        -11   -1    0    0    0    0  0.00000000000E+00  0.00000000000E+00  0.45593999997E+02  0.45594000000E+02  0.51100000000E-03 0. -1.
         11   -1    0    0    0    0 -0.00000000000E+00 -0.00000000000E+00 -0.45593999997E+02  0.45594000000E+02  0.51100000000E-03 0.  1.
    9900012    2    1    2    0    0  0.15492179880E+02  0.41104987425E+02 -0.99742639473E+01  0.46142316856E+02  0.99999917423E+01 0.  0.
        -12    1    1    2    0    0 -0.15492179880E+02 -0.41104987425E+02  0.99742639473E+01  0.45045683144E+02  0.00000000000E+00 0.  1.
         11    1    3    3    0    0  0.43469979176E+01  0.15710136167E+02 -0.11829225433E+01  0.16343318980E+02  0.51100000000E-03 0. -1.
        -11    1    3    3    0    0  0.20540558586E+01  0.72144189874E+00 -0.62006400006E+00  0.22636482741E+01  0.51100000000E-03 0.  1.
        -12    1    3    3    0    0  0.90911261039E+01  0.24673409359E+02 -0.81712774039E+01  0.27535349601E+02  0.00000000000E+00 0.  1.
</event>
<event>
 7    1  0.1543346E-008  0.4614232E+02  0.7816164E-02  0.1320468E+00
        -11   -1    0    0    0    0  0.00000000000E+00  0.00000000000E+00  0.45593999997E+02  0.45594000000E+02  0.51100000000E-03 0.  1.
         11   -1    0    0    0    0 -0.00000000000E+00 -0.00000000000E+00 -0.45593999997E+02  0.45594000000E+02  0.51100000000E-03 0. -1.
    9900012    2    1    2    0    0 -0.13552783663E+02 -0.48333601230E+01 -0.42685760534E+02  0.46142317993E+02  0.10000002117E+02 0.  0.
        -12    1    1    2    0    0  0.13552783663E+02  0.48333601230E+01  0.42685760534E+02  0.45045682007E+02  0.00000000000E+00 0.  1.
         11    1    3    3    0    0 -0.83686305605E+01 -0.38481829768E+01 -0.15525649036E+02  0.18052375686E+02  0.51100000000E-03 0. -1.
        -11    1    3    3    0    0 -0.46462051611E+01 -0.63675986150E+00 -0.27032717095E+02  0.27436480812E+02  0.51100000000E-03 0.  1.
         12    1    3    3    0    0 -0.53794794100E+00 -0.34841728476E+00 -0.12739440306E+00  0.65346149502E+00  0.00000000000E+00 0. -1.
</event>
<event>
 7    1  0.1543346E-008  0.4614232E+02  0.7816164E-02  0.1320468E+00
        -11   -1    0    0    0    0  0.00000000000E+00  0.00000000000E+00  0.45593999997E+02  0.45594000000E+02  0.51100000000E-03 0.  1.
         11   -1    0    0    0    0 -0.00000000000E+00 -0.00000000000E+00 -0.45593999997E+02  0.45594000000E+02  0.51100000000E-03 0. -1.
    9900012    2    1    2    0    0  0.32897469944E+02  0.36213845752E+01 -0.30557413435E+02  0.46142317957E+02  0.10000001783E+02 0.  0.
        -12    1    1    2    0    0 -0.32897469944E+02 -0.36213845752E+01  0.30557413435E+02  0.45045682043E+02  0.00000000000E+00 0.  1.
         11    1    3    3    0    0  0.14532153152E+02  0.41400871191E+00 -0.11216986204E+02  0.18362343484E+02  0.51100000000E-03 0. -1.
        -11    1    3    3    0    0  0.11303336472E+02  0.53791976481E+01 -0.11354330661E+02  0.16900355255E+02  0.51100000000E-03 0.  1.
        -12    1    3    3    0    0  0.70619803195E+01 -0.21718217848E+01 -0.79860965696E+01  0.10879619217E+02  0.00000000000E+00 0.  1.
</event>
<event>
 7    1  0.1543346E-008  0.4614232E+02  0.7816164E-02  0.1320468E+00
        -11   -1    0    0    0    0  0.00000000000E+00  0.00000000000E+00  0.45593999997E+02  0.45594000000E+02  0.51100000000E-03 0.  1.
         11   -1    0    0    0    0 -0.00000000000E+00 -0.00000000000E+00 -0.45593999997E+02  0.45594000000E+02  0.51100000000E-03 0. -1.
    9900012    2    1    2    0    0 -0.42129081718E+02  0.15160590101E+02  0.49407015699E+01  0.46142317071E+02  0.99999937028E+01 0.  0.
        -12    1    1    2    0    0  0.42129081718E+02 -0.15160590101E+02 -0.49407015699E+01  0.45045682929E+02  0.00000000000E+00 0.  1.
         11    1    3    3    0    0 -0.24086148819E+02  0.82741870370E+01  0.63743715466E+01  0.26253330245E+02  0.51100000000E-03 0. -1.
        -11    1    3    3    0    0 -0.17804709643E+02  0.58714303113E+01 -0.10470448242E+01  0.18777052018E+02  0.51100000000E-03 0.  1.
        -12    1    3    3    0    0 -0.23822325553E+00  0.10149727526E+01 -0.38662515239E+00  0.11119348076E+01  0.00000000000E+00 0.  1.
</event>
<event>
 7    1  0.1543346E-008  0.4614232E+02  0.7816164E-02  0.1320468E+00
        -11   -1    0    0    0    0  0.00000000000E+00  0.00000000000E+00  0.45593999997E+02  0.45594000000E+02  0.51100000000E-03 0.  1.
         11   -1    0    0    0    0 -0.00000000000E+00 -0.00000000000E+00 -0.45593999997E+02  0.45594000000E+02  0.51100000000E-03 0. -1.
    9900012    2    1    2    0    0  0.26069418911E+02 -0.24759410671E+02 -0.27137987079E+02  0.46142319165E+02  0.10000012805E+02 0.  0.
        -12    1    1    2    0    0 -0.26069418911E+02  0.24759410671E+02  0.27137987079E+02  0.45045680835E+02  0.00000000000E+00 0.  1.
         11    1    3    3    0    0  0.18506062900E+02 -0.18880110570E+02 -0.20208180082E+02  0.33276169877E+02  0.51100000000E-03 0. -1.
        -11    1    3    3    0    0  0.21681930173E+01  0.68302571348E+00 -0.20946968411E+01  0.30911713318E+01  0.51100000000E-03 0.  1.
        -12    1    3    3    0    0  0.53951629941E+01 -0.65623258147E+01 -0.48351101558E+01  0.97749779565E+01  0.00000000000E+00 0.  1.
</event>
<event>
 7    1  0.1543346E-008  0.4614232E+02  0.7816164E-02  0.1320468E+00
        -11   -1    0    0    0    0  0.00000000000E+00  0.00000000000E+00  0.45593999997E+02  0.45594000000E+02  0.51100000000E-03 0.  1.
         11   -1    0    0    0    0 -0.00000000000E+00 -0.00000000000E+00 -0.45593999997E+02  0.45594000000E+02  0.51100000000E-03 0. -1.
    9900012    2    1    2    0    0  0.44417893190E+02 -0.71569022382E+01  0.22232868437E+01  0.46142317749E+02  0.99999998852E+01 0.  0.
        -12    1    1    2    0    0 -0.44417893190E+02  0.71569022382E+01 -0.22232868437E+01  0.45045682251E+02  0.00000000000E+00 0.  1.
         11    1    3    3    0    0  0.92671917778E+01 -0.22289633735E+01 -0.54753753504E+00  0.95471942884E+01  0.51100000000E-03 0. -1.
        -11    1    3    3    0    0  0.43402069946E+01  0.18478792823E+01 -0.10053729342E+01  0.48231555641E+01  0.51100000000E-03 0.  1.
        -12    1    3    3    0    0  0.30810494418E+02 -0.67758181471E+01  0.37761973129E+01  0.31771967896E+02  0.00000000000E+00 0.  1.
</event>
<event>
 7    1  0.1543346E-008  0.4614232E+02  0.7816164E-02  0.1320468E+00
        -11   -1    0    0    0    0  0.00000000000E+00  0.00000000000E+00  0.45593999997E+02  0.45594000000E+02  0.51100000000E-03 0.  1.
         11   -1    0    0    0    0 -0.00000000000E+00 -0.00000000000E+00 -0.45593999997E+02  0.45594000000E+02  0.51100000000E-03 0. -1.
    9900012    2    1    2    0    0 -0.22960267791E+02 -0.28368537080E+01 -0.38650897153E+02  0.46142317779E+02  0.10000000166E+02 0.  0.
        -12    1    1    2    0    0  0.22960267791E+02  0.28368537080E+01  0.38650897153E+02  0.45045682221E+02  0.00000000000E+00 0.  1.
         11    1    3    3    0    0 -0.74131856995E+01 -0.48193592224E+01 -0.13039203239E+02  0.15754439593E+02  0.51100000000E-03 0. -1.
        -11    1    3    3    0    0 -0.65705423688E+00  0.12398953433E+01 -0.28762443671E+01  0.32002879016E+01  0.51100000000E-03 0.  1.
         12    1    3    3    0    0 -0.14890027855E+02  0.74261017116E+00 -0.22735449546E+02  0.27187590284E+02  0.00000000000E+00 0. -1.
</event>
<event>
 7    1  0.1543346E-008  0.4614232E+02  0.7816164E-02  0.1320468E+00
        -11   -1    0    0    0    0  0.00000000000E+00  0.00000000000E+00  0.45593999997E+02  0.45594000000E+02  0.51100000000E-03 0.  1.
         11   -1    0    0    0    0 -0.00000000000E+00 -0.00000000000E+00 -0.45593999997E+02  0.45594000000E+02  0.51100000000E-03 0. -1.
    9900012    2    1    2    0    0 -0.43725408961E+02  0.39353238524E+01  0.10085401318E+02  0.46142317828E+02  0.10000000612E+02 0.  0.
        -12    1    1    2    0    0  0.43725408961E+02 -0.39353238524E+01 -0.10085401318E+02  0.45045682172E+02  0.00000000000E+00 0.  1.
         11    1    3    3    0    0 -0.30105387377E+02  0.34441585434E+01  0.10212228197E+02  0.31976337849E+02  0.51100000000E-03 0. -1.
        -11    1    3    3    0    0 -0.40626985486E+01  0.18041308421E+01  0.62799123934E+00  0.44894076280E+01  0.51100000000E-03 0.  1.
        -12    1    3    3    0    0 -0.95573230348E+01 -0.13129655331E+01 -0.75481811897E+00  0.96765723516E+01  0.00000000000E+00 0.  1.
</event>
<event>
 7    1  0.1543346E-008  0.4614232E+02  0.7816164E-02  0.1320468E+00
        -11   -1    0    0    0    0  0.00000000000E+00  0.00000000000E+00  0.45593999997E+02  0.45594000000E+02  0.51100000000E-03 0.  1.
         11   -1    0    0    0    0 -0.00000000000E+00 -0.00000000000E+00 -0.45593999997E+02  0.45594000000E+02  0.51100000000E-03 0. -1.
    9900012    2    1    2    0    0 -0.19355407449E+02  0.33123588501E+02 -0.23607405796E+02  0.46142317398E+02  0.99999966848E+01 0.  0.
        -12    1    1    2    0    0  0.19355407449E+02 -0.33123588501E+02  0.23607405796E+02  0.45045682602E+02  0.00000000000E+00 0.  1.
         11    1    3    3    0    0 -0.12313724038E+02  0.16216723292E+02 -0.13999352253E+02  0.24710155357E+02  0.51100000000E-03 0.  1.
        -11    1    3    3    0    0 -0.34487667633E+01  0.12372783411E+02 -0.88488460854E+01  0.15597494633E+02  0.51100000000E-03 0. -1.
         12    1    3    3    0    0 -0.35929166472E+01  0.45340817985E+01 -0.75920745723E+00  0.58346674072E+01  0.00000000000E+00 0. -1.
</event>
<event>
 7    1  0.1543346E-008  0.4614232E+02  0.7816164E-02  0.1320468E+00
        -11   -1    0    0    0    0  0.00000000000E+00  0.00000000000E+00  0.45593999997E+02  0.45594000000E+02  0.51100000000E-03 0.  1.
         11   -1    0    0    0    0 -0.00000000000E+00 -0.00000000000E+00 -0.45593999997E+02  0.45594000000E+02  0.51100000000E-03 0. -1.
    9900012    2    1    2    0    0  0.27344516505E+02  0.61911824656E-01 -0.35796467678E+02  0.46142317475E+02  0.99999973903E+01 0.  0.
        -12    1    1    2    0    0 -0.27344516505E+02 -0.61911824656E-01  0.35796467678E+02  0.45045682525E+02  0.00000000000E+00 0.  1.
         11    1    3    3    0    0  0.14515480301E+01  0.16227932962E+01 -0.44543034147E+00  0.22223542058E+01  0.51100000000E-03 0. -1.
        -11    1    3    3    0    0  0.54431042961E+01 -0.13021369914E+01 -0.70035797958E+01  0.89651031974E+01  0.51100000000E-03 0.  1.
         12    1    3    3    0    0  0.20449864178E+02 -0.25874448014E+00 -0.28347457541E+02  0.34954860072E+02  0.00000000000E+00 0. -1.
</event>
<event>
 7    1  0.1543346E-008  0.4614232E+02  0.7816164E-02  0.1320468E+00
        -11   -1    0    0    0    0  0.00000000000E+00  0.00000000000E+00  0.45593999997E+02  0.45594000000E+02  0.51100000000E-03 0. -1.
         11   -1    0    0    0    0 -0.00000000000E+00 -0.00000000000E+00 -0.45593999997E+02  0.45594000000E+02  0.51100000000E-03 0.  1.
    9900012    2    1    2    0    0 -0.13362716691E+01  0.44697204747E+02  0.54302583027E+01  0.46142318304E+02  0.10000004954E+02 0.  0.
        -12    1    1    2    0    0  0.13362716691E+01 -0.44697204747E+02 -0.54302583027E+01  0.45045681696E+02  0.00000000000E+00 0.  1.
         11    1    3    3    0    0 -0.13523764524E+01  0.18954379265E+02  0.67255462929E+01  0.20157638467E+02  0.51100000000E-03 0. -1.
        -11    1    3    3    0    0  0.62488150889E+00  0.12298667189E+02 -0.21449941189E+01  0.12499947662E+02  0.51100000000E-03 0.  1.
         12    1    3    3    0    0 -0.60877672552E+00  0.13444158294E+02  0.84970612874E+00  0.13484732175E+02  0.00000000000E+00 0. -1.
</event>
<event>
 7    1  0.1543346E-008  0.4614232E+02  0.7816164E-02  0.1320468E+00
        -11   -1    0    0    0    0  0.00000000000E+00  0.00000000000E+00  0.45593999997E+02  0.45594000000E+02  0.51100000000E-03 0.  1.
         11   -1    0    0    0    0 -0.00000000000E+00 -0.00000000000E+00 -0.45593999997E+02  0.45594000000E+02  0.51100000000E-03 0. -1.
    9900012    2    1    2    0    0  0.24807132342E+02 -0.10664090147E+00 -0.37599312947E+02  0.46142317394E+02  0.99999966516E+01 0.  0.
        -12    1    1    2    0    0 -0.24807132342E+02  0.10664090147E+00  0.37599312947E+02  0.45045682606E+02  0.00000000000E+00 0.  1.
         11    1    3    3    0    0  0.11557675393E+02 -0.27069177828E+01 -0.14059065266E+02  0.18400124478E+02  0.51100000000E-03 0. -1.
        -11    1    3    3    0    0 -0.28310599175E-01 -0.93034771851E+00 -0.17507365657E+01  0.19827826787E+01  0.51100000000E-03 0.  1.
        -12    1    3    3    0    0  0.13277767549E+02  0.35306245998E+01 -0.21789511115E+02  0.25759410238E+02  0.00000000000E+00 0.  1.
</event>
<event>
 7    1  0.1543346E-008  0.4614232E+02  0.7816164E-02  0.1320468E+00
        -11   -1    0    0    0    0  0.00000000000E+00  0.00000000000E+00  0.45593999997E+02  0.45594000000E+02  0.51100000000E-03 0.  1.
         11   -1    0    0    0    0 -0.00000000000E+00 -0.00000000000E+00 -0.45593999997E+02  0.45594000000E+02  0.51100000000E-03 0. -1.
    9900012    2    1    2    0    0  0.21620185570E+02  0.39133009671E+02 -0.55035055747E+01  0.46142318258E+02  0.10000004533E+02 0.  0.
        -12    1    1    2    0    0 -0.21620185570E+02 -0.39133009671E+02  0.55035055747E+01  0.45045681742E+02  0.00000000000E+00 0.  1.
         11    1    3    3    0    0  0.24217586640E+01  0.76801322651E+01 -0.16080987482E+01  0.82119016362E+01  0.51100000000E-03 0. -1.
        -11    1    3    3    0    0  0.68429667976E+01  0.82081461323E+01 -0.45092482215E+01  0.11598843792E+02  0.51100000000E-03 0.  1.
         12    1    3    3    0    0  0.12355460108E+02  0.23244731273E+02  0.61384139504E+00  0.26331572830E+02  0.00000000000E+00 0. -1.
</event>
<event>
 7    1  0.1543346E-008  0.4614232E+02  0.7816164E-02  0.1320468E+00
        -11   -1    0    0    0    0  0.00000000000E+00  0.00000000000E+00  0.45593999997E+02  0.45594000000E+02  0.51100000000E-03 0.  1.
         11   -1    0    0    0    0 -0.00000000000E+00 -0.00000000000E+00 -0.45593999997E+02  0.45594000000E+02  0.51100000000E-03 0. -1.
    9900012    2    1    2    0    0 -0.35508977959E+02  0.15022564632E+02 -0.23292670748E+02  0.46142317916E+02  0.10000001414E+02 0.  0.
        -12    1    1    2    0    0  0.35508977959E+02 -0.15022564632E+02  0.23292670748E+02  0.45045682084E+02  0.00000000000E+00 0.  1.
         11    1    3    3    0    0 -0.23081928030E+02  0.87576664107E+01 -0.12887735216E+02  0.27848982779E+02  0.51100000000E-03 0. -1.
        -11    1    3    3    0    0 -0.84289276832E+01  0.23461257063E+01 -0.89345447625E+01  0.12505087688E+02  0.51100000000E-03 0.  1.
        -12    1    3    3    0    0 -0.39981222456E+01  0.39187725148E+01 -0.14703907692E+01  0.57882474487E+01  0.00000000000E+00 0.  1.
</event>
<event>
 7    1  0.1543346E-008  0.4614232E+02  0.7816164E-02  0.1320468E+00
        -11   -1    0    0    0    0  0.00000000000E+00  0.00000000000E+00  0.45593999997E+02  0.45594000000E+02  0.51100000000E-03 0.  1.
         11   -1    0    0    0    0 -0.00000000000E+00 -0.00000000000E+00 -0.45593999997E+02  0.45594000000E+02  0.51100000000E-03 0. -1.
    9900012    2    1    2    0    0  0.33300967342E+02 -0.23235907565E+02 -0.19500042149E+02  0.46142317964E+02  0.10000001855E+02 0.  0.
        -12    1    1    2    0    0 -0.33300967342E+02  0.23235907565E+02  0.19500042149E+02  0.45045682036E+02  0.00000000000E+00 0.  1.
         11    1    3    3    0    0  0.11488151318E+02 -0.56539706444E+01 -0.25744638730E+01  0.13060354867E+02  0.51100000000E-03 0. -1.
        -11    1    3    3    0    0  0.77567839658E+01 -0.44552896559E+01 -0.74540784186E+01  0.11643907795E+02  0.51100000000E-03 0.  1.
         12    1    3    3    0    0  0.14056032058E+02 -0.13126647264E+02 -0.94714998572E+01  0.21438055303E+02  0.00000000000E+00 0. -1.
</event>
<event>
 7    1  0.1543346E-008  0.4614232E+02  0.7816164E-02  0.1320468E+00
        -11   -1    0    0    0    0  0.00000000000E+00  0.00000000000E+00  0.45593999997E+02  0.45594000000E+02  0.51100000000E-03 0. -1.
         11   -1    0    0    0    0 -0.00000000000E+00 -0.00000000000E+00 -0.45593999997E+02  0.45594000000E+02  0.51100000000E-03 0.  1.
    9900012    2    1    2    0    0 -0.24219016633E+02  0.34988621036E+02 -0.14776641505E+02  0.46142317600E+02  0.99999985321E+01 0.  0.
        -12    1    1    2    0    0  0.24219016633E+02 -0.34988621036E+02  0.14776641505E+02  0.45045682400E+02  0.00000000000E+00 0.  1.
         11    1    3    3    0    0 -0.52705595961E+01  0.37844778299E+01 -0.35075198334E+01  0.73758908983E+01  0.51100000000E-03 0. -1.
        -11    1    3    3    0    0 -0.38734532120E+00  0.46793091819E+01 -0.97873282454E+00  0.47962369646E+01  0.51100000000E-03 0.  1.
        -12    1    3    3    0    0 -0.18561111716E+02  0.26524834025E+02 -0.10290388847E+02  0.33970189737E+02  0.00000000000E+00 0.  1.
</event>
<event>
 7    1  0.1543346E-008  0.4614232E+02  0.7816164E-02  0.1320468E+00
        -11   -1    0    0    0    0  0.00000000000E+00  0.00000000000E+00  0.45593999997E+02  0.45594000000E+02  0.51100000000E-03 0.  1.
         11   -1    0    0    0    0 -0.00000000000E+00 -0.00000000000E+00 -0.45593999997E+02  0.45594000000E+02  0.51100000000E-03 0. -1.
    9900012    2    1    2    0    0 -0.32705639622E+02  0.30960626723E+02  0.94563550886E+00  0.46142317669E+02  0.99999991588E+01 0.  0.
        -12    1    1    2    0    0  0.32705639622E+02 -0.30960626723E+02 -0.94563550886E+00  0.45045682331E+02  0.00000000000E+00 0.  1.
         11    1    3    3    0    0 -0.12885485614E+02  0.10736443013E+02 -0.39779098481E+01  0.17237479952E+02  0.51100000000E-03 0. -1.
        -11    1    3    3    0    0 -0.11673550878E+02  0.13661106761E+02  0.39487859567E+01  0.18398112372E+02  0.51100000000E-03 0.  1.
         12    1    3    3    0    0 -0.81466031292E+01  0.65630769492E+01  0.97475940032E+00  0.10506725345E+02  0.00000000000E+00 0. -1.
</event>
<event>
 7    1  0.1543346E-008  0.4614232E+02  0.7816164E-02  0.1320468E+00
        -11   -1    0    0    0    0  0.00000000000E+00  0.00000000000E+00  0.45593999997E+02  0.45594000000E+02  0.51100000000E-03 0.  1.
         11   -1    0    0    0    0 -0.00000000000E+00 -0.00000000000E+00 -0.45593999997E+02  0.45594000000E+02  0.51100000000E-03 0. -1.
    9900012    2    1    2    0    0 -0.16040451247E+02  0.81891002239E+01 -0.41288692169E+02  0.46142317192E+02  0.99999948059E+01 0.  0.
        -12    1    1    2    0    0  0.16040451247E+02 -0.81891002239E+01  0.41288692169E+02  0.45045682808E+02  0.00000000000E+00 0.  1.
         11    1    3    3    0    0 -0.62099151118E+01  0.38514044971E+01 -0.97934683564E+01  0.12219181028E+02  0.51100000000E-03 0. -1.
        -11    1    3    3    0    0 -0.82789890848E+01  0.31158517038E+00 -0.20344280722E+02  0.21966531450E+02  0.51100000000E-03 0.  1.
         12    1    3    3    0    0 -0.15515470501E+01  0.40261105564E+01 -0.11150943091E+02  0.11956604713E+02  0.00000000000E+00 0. -1.
</event>
<event>
 7    1  0.1543346E-008  0.4614232E+02  0.7816164E-02  0.1320468E+00
        -11   -1    0    0    0    0  0.00000000000E+00  0.00000000000E+00  0.45593999997E+02  0.45594000000E+02  0.51100000000E-03 0. -1.
         11   -1    0    0    0    0 -0.00000000000E+00 -0.00000000000E+00 -0.45593999997E+02  0.45594000000E+02  0.51100000000E-03 0.  1.
    9900012    2    1    2    0    0  0.23651251157E+02  0.32778226027E+02  0.19882644944E+02  0.46142319267E+02  0.10000013729E+02 0.  0.
        -12    1    1    2    0    0 -0.23651251157E+02 -0.32778226027E+02 -0.19882644944E+02  0.45045680733E+02  0.00000000000E+00 0.  1.
         11    1    3    3    0    0  0.10071502522E+02  0.17062794269E+02  0.60076030463E+01  0.20704236425E+02  0.51100000000E-03 0. -1.
        -11    1    3    3    0    0  0.27689202370E+01  0.57781318142E+01  0.59881963618E+01  0.87699613722E+01  0.51100000000E-03 0.  1.
         12    1    3    3    0    0  0.10810828398E+02  0.99372999439E+01  0.78868455359E+01  0.16668121470E+02  0.00000000000E+00 0. -1.
</event>
<event>
 7    1  0.1543346E-008  0.4614232E+02  0.7816164E-02  0.1320468E+00
        -11   -1    0    0    0    0  0.00000000000E+00  0.00000000000E+00  0.45593999997E+02  0.45594000000E+02  0.51100000000E-03 0.  1.
         11   -1    0    0    0    0 -0.00000000000E+00 -0.00000000000E+00 -0.45593999997E+02  0.45594000000E+02  0.51100000000E-03 0. -1.
    9900012    2    1    2    0    0  0.36663627050E+02  0.14910422097E+01 -0.26127930278E+02  0.46142317677E+02  0.99999992295E+01 0.  0.
        -12    1    1    2    0    0 -0.36663627050E+02 -0.14910422097E+01  0.26127930278E+02  0.45045682323E+02  0.00000000000E+00 0.  1.
         11    1    3    3    0    0  0.11057859896E+02 -0.30083760348E+01 -0.47500103992E+01  0.12405208217E+02  0.51100000000E-03 0. -1.
        -11    1    3    3    0    0  0.12589327515E+02  0.29862618516E+01 -0.11731784165E+02  0.17465499909E+02  0.51100000000E-03 0.  1.
         12    1    3    3    0    0  0.13016439639E+02  0.15131563929E+01 -0.96461357142E+01  0.16271609551E+02  0.00000000000E+00 0. -1.
</event>
<event>
 7    1  0.1543346E-008  0.4614232E+02  0.7816164E-02  0.1320468E+00
        -11   -1    0    0    0    0  0.00000000000E+00  0.00000000000E+00  0.45593999997E+02  0.45594000000E+02  0.51100000000E-03 0.  1.
         11   -1    0    0    0    0 -0.00000000000E+00 -0.00000000000E+00 -0.45593999997E+02  0.45594000000E+02  0.51100000000E-03 0. -1.
    9900012    2    1    2    0    0  0.42731792736E+02 -0.13658968853E+02 -0.40669465782E+01  0.46142316577E+02  0.99999892038E+01 0.  0.
        -12    1    1    2    0    0 -0.42731792736E+02  0.13658968853E+02  0.40669465782E+01  0.45045683423E+02  0.00000000000E+00 0.  1.
         11    1    3    3    0    0  0.25950072470E+02 -0.99649292644E+01 -0.48216545078E+01  0.28212664336E+02  0.51100000000E-03 0. -1.
        -11    1    3    3    0    0  0.31539292987E+00  0.42671172294E+00  0.79461241772E+00  0.95549188915E+00  0.51100000000E-03 0.  1.
        -12    1    3    3    0    0  0.16466327336E+02 -0.41207513119E+01 -0.39904488085E-01  0.16974160352E+02  0.00000000000E+00 0.  1.
</event>
<event>
 7    1  0.1543346E-008  0.4614232E+02  0.7816164E-02  0.1320468E+00
        -11   -1    0    0    0    0  0.00000000000E+00  0.00000000000E+00  0.45593999997E+02  0.45594000000E+02  0.51100000000E-03 0.  1.
         11   -1    0    0    0    0 -0.00000000000E+00 -0.00000000000E+00 -0.45593999997E+02  0.45594000000E+02  0.51100000000E-03 0. -1.
    9900012    2    1    2    0    0 -0.31325761130E+02  0.16196862118E+01 -0.32329349331E+02  0.46142317388E+02  0.99999965953E+01 0.  0.
        -12    1    1    2    0    0  0.31325761130E+02 -0.16196862118E+01  0.32329349331E+02  0.45045682612E+02  0.00000000000E+00 0.  1.
         11    1    3    3    0    0 -0.88676590703E+01 -0.70260981830E+00 -0.64580494194E+01  0.10992517478E+02  0.51100000000E-03 0. -1.
        -11    1    3    3    0    0 -0.12228672672E+02  0.88704495171E+00 -0.84304248837E+01  0.14879494214E+02  0.51100000000E-03 0.  1.
        -12    1    3    3    0    0 -0.10229429388E+02  0.14352510784E+01 -0.17440875028E+02  0.20270305696E+02  0.00000000000E+00 0.  1.
</event>
<event>
 7    1  0.1543346E-008  0.4614232E+02  0.7816164E-02  0.1320468E+00
        -11   -1    0    0    0    0  0.00000000000E+00  0.00000000000E+00  0.45593999997E+02  0.45594000000E+02  0.51100000000E-03 0. -1.
         11   -1    0    0    0    0 -0.00000000000E+00 -0.00000000000E+00 -0.45593999997E+02  0.45594000000E+02  0.51100000000E-03 0.  1.
    9900012    2    1    2    0    0 -0.91578547838E+01 -0.43582130836E+02  0.67708996997E+01  0.46142317464E+02  0.99999972883E+01 0.  0.
        -12    1    1    2    0    0  0.91578547838E+01  0.43582130836E+02 -0.67708996997E+01  0.45045682536E+02  0.00000000000E+00 0.  1.
         11    1    3    3    0    0 -0.44200029117E+01 -0.13016824427E+02  0.49099528261E+01  0.14597321019E+02  0.51100000000E-03 0. -1.
        -11    1    3    3    0    0 -0.99429015709E+00 -0.56585230872E+01 -0.19598375678E+01  0.60702932382E+01  0.51100000000E-03 0.  1.
        -12    1    3    3    0    0 -0.37435617149E+01 -0.24906783321E+02  0.38207844414E+01  0.25474703207E+02  0.00000000000E+00 0.  1.
</event>
<event>
 7    1  0.1543346E-008  0.4614232E+02  0.7816164E-02  0.1320468E+00
        -11   -1    0    0    0    0  0.00000000000E+00  0.00000000000E+00  0.45593999997E+02  0.45594000000E+02  0.51100000000E-03 0.  1.
         11   -1    0    0    0    0 -0.00000000000E+00 -0.00000000000E+00 -0.45593999997E+02  0.45594000000E+02  0.51100000000E-03 0. -1.
    9900012    2    1    2    0    0  0.43813322282E+02  0.10121376765E+02  0.26578242165E+01  0.46142317559E+02  0.99999981578E+01 0.  0.
        -12    1    1    2    0    0 -0.43813322282E+02 -0.10121376765E+02 -0.26578242165E+01  0.45045682441E+02  0.00000000000E+00 0.  1.
         11    1    3    3    0    0  0.13633908863E+02  0.25796319721E+01 -0.21651436673E+01  0.14043711025E+02  0.51100000000E-03 0. -1.
        -11    1    3    3    0    0  0.30034380707E+02  0.66939316580E+01  0.51082148374E+01  0.31192412613E+02  0.51100000000E-03 0.  1.
        -12    1    3    3    0    0  0.14503271192E+00  0.84781313466E+00 -0.28524695362E+00  0.90619392150E+00  0.00000000000E+00 0.  1.
</event>
<event>
 7    1  0.1543346E-008  0.4614232E+02  0.7816164E-02  0.1320468E+00
        -11   -1    0    0    0    0  0.00000000000E+00  0.00000000000E+00  0.45593999997E+02  0.45594000000E+02  0.51100000000E-03 0.  1.
         11   -1    0    0    0    0 -0.00000000000E+00 -0.00000000000E+00 -0.45593999997E+02  0.45594000000E+02  0.51100000000E-03 0. -1.
    9900012    2    1    2    0    0  0.32134791280E+02  0.54282266860E+01 -0.31096674268E+02  0.46142316455E+02  0.99999880881E+01 0.  0.
        -12    1    1    2    0    0 -0.32134791280E+02 -0.54282266860E+01  0.31096674268E+02  0.45045683545E+02  0.00000000000E+00 0.  1.
         11    1    3    3    0    0  0.17957163812E+02  0.38894009238E+01 -0.16616882682E+02  0.24773129840E+02  0.51100000000E-03 0. -1.
        -11    1    3    3    0    0  0.58771889500E+01 -0.21802310875E+01 -0.81769795018E+01  0.10303288387E+02  0.51100000000E-03 0.  1.
        -12    1    3    3    0    0  0.83004385176E+01  0.37190568497E+01 -0.63028120840E+01  0.11065898228E+02  0.00000000000E+00 0.  1.
</event>
<event>
 7    1  0.1543346E-008  0.4614232E+02  0.7816164E-02  0.1320468E+00
        -11   -1    0    0    0    0  0.00000000000E+00  0.00000000000E+00  0.45593999997E+02  0.45594000000E+02  0.51100000000E-03 0.  1.
         11   -1    0    0    0    0 -0.00000000000E+00 -0.00000000000E+00 -0.45593999997E+02  0.45594000000E+02  0.51100000000E-03 0. -1.
    9900012    2    1    2    0    0  0.11703776041E+02 -0.40392444685E+01 -0.43310733285E+02  0.46142317774E+02  0.10000000122E+02 0.  0.
        -12    1    1    2    0    0 -0.11703776041E+02  0.40392444685E+01  0.43310733285E+02  0.45045682226E+02  0.00000000000E+00 0.  1.
         11    1    3    3    0    0  0.32143527313E+01 -0.24684799957E+00 -0.11702851623E+02  0.12138769863E+02  0.51100000000E-03 0. -1.
        -11    1    3    3    0    0  0.76448103936E+01 -0.62530943457E+01 -0.26275016787E+02  0.28069927364E+02  0.51100000000E-03 0.  1.
        -12    1    3    3    0    0  0.84461291628E+00  0.24606978768E+01 -0.53328648752E+01  0.59336205471E+01  0.00000000000E+00 0.  1.
</event>
<event>
 7    1  0.1543346E-008  0.4614231E+02  0.7816164E-02  0.1320468E+00
        -11   -1    0    0    0    0  0.00000000000E+00  0.00000000000E+00  0.45593999997E+02  0.45594000000E+02  0.51100000000E-03 0.  1.
         11   -1    0    0    0    0 -0.00000000000E+00 -0.00000000000E+00 -0.45593999997E+02  0.45594000000E+02  0.51100000000E-03 0. -1.
    9900012    2    1    2    0    0 -0.38946485623E+01 -0.25635196641E+02 -0.36834528990E+02  0.46142310748E+02  0.99999360477E+01 0.  0.
        -12    1    1    2    0    0  0.38946485623E+01  0.25635196641E+02  0.36834528990E+02  0.45045689252E+02  0.00000000000E+00 0.  1.
         11    1    3    3    0    0 -0.24517319917E+01 -0.48803420994E+01 -0.70604402789E+01  0.89262839950E+01  0.51100000000E-03 0. -1.
        -11    1    3    3    0    0 -0.26665772516E+01 -0.12577042178E+02 -0.23676819499E+02  0.26942242038E+02  0.51100000000E-03 0.  1.
        -12    1    3    3    0    0  0.12236606810E+01 -0.81778123639E+01 -0.60972692126E+01  0.10273784715E+02  0.00000000000E+00 0.  1.
</event>
<event>
 7    1  0.1543346E-008  0.4614232E+02  0.7816164E-02  0.1320468E+00
        -11   -1    0    0    0    0  0.00000000000E+00  0.00000000000E+00  0.45593999997E+02  0.45594000000E+02  0.51100000000E-03 0. -1.
         11   -1    0    0    0    0 -0.00000000000E+00 -0.00000000000E+00 -0.45593999997E+02  0.45594000000E+02  0.51100000000E-03 0.  1.
    9900012    2    1    2    0    0 -0.41727018563E+02  0.81443737481E+01  0.14887531837E+02  0.46142317565E+02  0.99999982076E+01 0.  0.
        -12    1    1    2    0    0  0.41727018563E+02 -0.81443737481E+01 -0.14887531837E+02  0.45045682435E+02  0.00000000000E+00 0.  1.
         11    1    3    3    0    0 -0.12393280504E+01  0.52089788988E+00  0.11458162611E+01  0.17663985376E+01  0.51100000000E-03 0. -1.
        -11    1    3    3    0    0 -0.37582390196E+02  0.87246930732E+01  0.14432805571E+02  0.41192987255E+02  0.51100000000E-03 0.  1.
        -12    1    3    3    0    0 -0.29053003165E+01 -0.11012172149E+01 -0.69108999587E+00  0.31829317721E+01  0.00000000000E+00 0.  1.
</event>
<event>
 7    1  0.1543346E-008  0.4614232E+02  0.7816164E-02  0.1320468E+00
        -11   -1    0    0    0    0  0.00000000000E+00  0.00000000000E+00  0.45593999997E+02  0.45594000000E+02  0.51100000000E-03 0.  1.
         11   -1    0    0    0    0 -0.00000000000E+00 -0.00000000000E+00 -0.45593999997E+02  0.45594000000E+02  0.51100000000E-03 0. -1.
    9900012    2    1    2    0    0 -0.30052036761E+02 -0.30594116479E+02 -0.13783637054E+02  0.46142317332E+02  0.99999960866E+01 0.  0.
        -12    1    1    2    0    0  0.30052036761E+02  0.30594116479E+02  0.13783637054E+02  0.45045682668E+02  0.00000000000E+00 0.  1.
         11    1    3    3    0    0 -0.62621618481E+01 -0.72531659545E+01 -0.90562068890E+00  0.96251356598E+01  0.51100000000E-03 0. -1.
        -11    1    3    3    0    0 -0.95111473382E+01 -0.59422510040E+01 -0.71219150729E+01  0.13285102380E+02  0.51100000000E-03 0.  1.
        -12    1    3    3    0    0 -0.14278727574E+02 -0.17398699520E+02 -0.57561012920E+01  0.23232079292E+02  0.00000000000E+00 0.  1.
</event>
<event>
 7    1  0.1543346E-008  0.4614232E+02  0.7816164E-02  0.1320468E+00
        -11   -1    0    0    0    0  0.00000000000E+00  0.00000000000E+00  0.45593999997E+02  0.45594000000E+02  0.51100000000E-03 0.  1.
         11   -1    0    0    0    0 -0.00000000000E+00 -0.00000000000E+00 -0.45593999997E+02  0.45594000000E+02  0.51100000000E-03 0. -1.
    9900012    2    1    2    0    0 -0.29378361023E+02  0.15935531307E+02 -0.30200733147E+02  0.46142317220E+02  0.99999950699E+01 0.  0.
        -12    1    1    2    0    0  0.29378361023E+02 -0.15935531307E+02  0.30200733147E+02  0.45045682780E+02  0.00000000000E+00 0.  1.
         11    1    3    3    0    0 -0.11991025016E+02  0.94927303628E+01 -0.11657510466E+02  0.19230032793E+02  0.51100000000E-03 0. -1.
        -11    1    3    3    0    0 -0.87679098731E+01  0.21058194622E+00 -0.70519064423E+01  0.11253887019E+02  0.51100000000E-03 0.  1.
        -12    1    3    3    0    0 -0.86194261336E+01  0.62322189982E+01 -0.11491316239E+02  0.15658397409E+02  0.00000000000E+00 0.  1.
</event>
<event>
 7    1  0.1543346E-008  0.4614232E+02  0.7816164E-02  0.1320468E+00
        -11   -1    0    0    0    0  0.00000000000E+00  0.00000000000E+00  0.45593999997E+02  0.45594000000E+02  0.51100000000E-03 0.  1.
         11   -1    0    0    0    0 -0.00000000000E+00 -0.00000000000E+00 -0.45593999997E+02  0.45594000000E+02  0.51100000000E-03 0. -1.
    9900012    2    1    2    0    0 -0.16128911170E+02 -0.49564166812E+01 -0.41766083730E+02  0.46142316611E+02  0.99999895122E+01 0.  0.
        -12    1    1    2    0    0  0.16128911170E+02  0.49564166812E+01  0.41766083730E+02  0.45045683389E+02  0.00000000000E+00 0.  1.
         11    1    3    3    0    0 -0.22979050367E+01 -0.16858733546E+01 -0.18322521492E+02  0.18542851200E+02  0.51100000000E-03 0. -1.
        -11    1    3    3    0    0 -0.12695765185E+02 -0.37338174251E+01 -0.22252292370E+02  0.25889927813E+02  0.51100000000E-03 0.  1.
        -12    1    3    3    0    0 -0.11352409484E+01  0.46327409851E+00 -0.11912698682E+01  0.17095375983E+01  0.00000000000E+00 0.  1.
</event>
<event>
 7    1  0.1543346E-008  0.4614232E+02  0.7816164E-02  0.1320468E+00
        -11   -1    0    0    0    0  0.00000000000E+00  0.00000000000E+00  0.45593999997E+02  0.45594000000E+02  0.51100000000E-03 0.  1.
         11   -1    0    0    0    0 -0.00000000000E+00 -0.00000000000E+00 -0.45593999997E+02  0.45594000000E+02  0.51100000000E-03 0. -1.
    9900012    2    1    2    0    0 -0.35354532758E+01  0.41082547387E+02 -0.18133896223E+02  0.46142319609E+02  0.10000016853E+02 0.  0.
        -12    1    1    2    0    0  0.35354532758E+01 -0.41082547387E+02  0.18133896223E+02  0.45045680391E+02  0.00000000000E+00 0.  1.
         11    1    3    3    0    0 -0.23826255627E+01  0.10695640829E+02 -0.25275559226E+01  0.11245540295E+02  0.51100000000E-03 0. -1.
        -11    1    3    3    0    0 -0.20080753068E+01  0.41587965710E+01 -0.43435188477E+01  0.63398826171E+01  0.51100000000E-03 0.  1.
        -12    1    3    3    0    0  0.85524759360E+00  0.26228109987E+02 -0.11262821452E+02  0.28556896698E+02  0.00000000000E+00 0.  1.
</event>
<event>
 7    1  0.1543346E-008  0.4614232E+02  0.7816164E-02  0.1320468E+00
        -11   -1    0    0    0    0  0.00000000000E+00  0.00000000000E+00  0.45593999997E+02  0.45594000000E+02  0.51100000000E-03 0.  1.
         11   -1    0    0    0    0 -0.00000000000E+00 -0.00000000000E+00 -0.45593999997E+02  0.45594000000E+02  0.51100000000E-03 0. -1.
    9900012    2    1    2    0    0 -0.29488938069E+02 -0.30095066743E+02 -0.15931196133E+02  0.46142317399E+02  0.99999966991E+01 0.  0.
        -12    1    1    2    0    0  0.29488938069E+02  0.30095066743E+02  0.15931196133E+02  0.45045682601E+02  0.00000000000E+00 0.  1.
         11    1    3    3    0    0 -0.87369964047E+01 -0.70617198516E+01 -0.39277182920E+01  0.11900838823E+02  0.51100000000E-03 0. -1.
        -11    1    3    3    0    0 -0.17910964973E+02 -0.16063048456E+02 -0.11585213916E+02  0.26702834563E+02  0.51100000000E-03 0.  1.
        -12    1    3    3    0    0 -0.28409766915E+01 -0.69702984362E+01 -0.41826392485E+00  0.75386440135E+01  0.00000000000E+00 0.  1.
</event>
<event>
 7    1  0.2154981E-008  0.4614231E+02  0.7816164E-02  0.1320468E+00
        -11   -1    0    0    0    0  0.00000000000E+00  0.00000000000E+00  0.45593999997E+02  0.45594000000E+02  0.51100000000E-03 0. -1.
         11   -1    0    0    0    0 -0.00000000000E+00 -0.00000000000E+00 -0.45593999997E+02  0.45594000000E+02  0.51100000000E-03 0.  1.
    9900012    2    1    2    0    0  0.23391658791E+02  0.23214964905E+02  0.30708468426E+02  0.46142308424E+02  0.99999148547E+01 0.  0.
        -12    1    1    2    0    0 -0.23391658791E+02 -0.23214964905E+02 -0.30708468426E+02  0.45045691576E+02  0.00000000000E+00 0.  1.
         11    1    3    3    0    0  0.74635958711E+01  0.12764230861E+02  0.15098505030E+02  0.21132811153E+02  0.51100000000E-03 0. -1.
        -11    1    3    3    0    0  0.20075056040E+01 -0.16372270770E+00  0.19677689211E+01  0.28158477699E+01  0.51100000000E-03 0.  1.
         12    1    3    3    0    0  0.13920557316E+02  0.10614456751E+02  0.13642194474E+02  0.22193649501E+02  0.00000000000E+00 0. -1.
</event>
<event>
 7    1  0.1543346E-008  0.4614232E+02  0.7816164E-02  0.1320468E+00
        -11   -1    0    0    0    0  0.00000000000E+00  0.00000000000E+00  0.45593999997E+02  0.45594000000E+02  0.51100000000E-03 0. -1.
         11   -1    0    0    0    0 -0.00000000000E+00 -0.00000000000E+00 -0.45593999997E+02  0.45594000000E+02  0.51100000000E-03 0.  1.
    9900012    2    1    2    0    0  0.38552544919E+02 -0.15238020648E+02  0.17624343112E+02  0.46142318041E+02  0.10000002551E+02 0.  0.
        -12    1    1    2    0    0 -0.38552544919E+02  0.15238020648E+02 -0.17624343112E+02  0.45045681959E+02  0.00000000000E+00 0.  1.
         11    1    3    3    0    0  0.18674258935E+02 -0.40368975906E+01  0.75464228123E+01  0.20541981074E+02  0.51100000000E-03 0. -1.
        -11    1    3    3    0    0  0.18491751609E+02 -0.10462941929E+02  0.74050260081E+01  0.22500054263E+02  0.51100000000E-03 0.  1.
         12    1    3    3    0    0  0.13865343754E+01 -0.73818112921E+00  0.26728942913E+01  0.31002827042E+01  0.00000000000E+00 0. -1.
</event>
<event>
 7    1  0.1543346E-008  0.4614232E+02  0.7816164E-02  0.1320468E+00
        -11   -1    0    0    0    0  0.00000000000E+00  0.00000000000E+00  0.45593999997E+02  0.45594000000E+02  0.51100000000E-03 0. -1.
         11   -1    0    0    0    0 -0.00000000000E+00 -0.00000000000E+00 -0.45593999997E+02  0.45594000000E+02  0.51100000000E-03 0.  1.
    9900012    2    1    2    0    0  0.24699284370E+02  0.34598752625E+02 -0.14899164718E+02  0.46142318288E+02  0.10000004803E+02 0.  0.
        -12    1    1    2    0    0 -0.24699284370E+02 -0.34598752625E+02  0.14899164718E+02  0.45045681712E+02  0.00000000000E+00 0.  1.
         11    1    3    3    0    0  0.19441291497E+02  0.27647924028E+02 -0.12973815911E+02  0.36203472453E+02  0.51100000000E-03 0. -1.
        -11    1    3    3    0    0 -0.75964995504E+00  0.47154694518E+00 -0.26046709580E-01  0.89448491765E+00  0.51100000000E-03 0.  1.
         12    1    3    3    0    0  0.60176428285E+01  0.64792816525E+01 -0.18993020978E+01  0.90443609173E+01  0.00000000000E+00 0. -1.
</event>
<event>
 7    1  0.1543346E-008  0.4614232E+02  0.7816164E-02  0.1320468E+00
        -11   -1    0    0    0    0  0.00000000000E+00  0.00000000000E+00  0.45593999997E+02  0.45594000000E+02  0.51100000000E-03 0.  1.
         11   -1    0    0    0    0 -0.00000000000E+00 -0.00000000000E+00 -0.45593999997E+02  0.45594000000E+02  0.51100000000E-03 0. -1.
    9900012    2    1    2    0    0  0.27281161634E+02 -0.35549801107E+02 -0.45894834737E+01  0.46142317661E+02  0.99999990891E+01 0.  0.
        -12    1    1    2    0    0 -0.27281161634E+02  0.35549801107E+02  0.45894834737E+01  0.45045682339E+02  0.00000000000E+00 0.  1.
         11    1    3    3    0    0  0.65836022725E+01 -0.13755991946E+02 -0.19660555719E+01  0.15376492060E+02  0.51100000000E-03 0. -1.
        -11    1    3    3    0    0  0.19115063486E+02 -0.19075359548E+02 -0.57256867973E+00  0.27010790976E+02  0.51100000000E-03 0.  1.
        -12    1    3    3    0    0  0.15824958749E+01 -0.27184496129E+01 -0.20508592221E+01  0.37550346258E+01  0.00000000000E+00 0.  1.
</event>
<event>
 7    1  0.1543346E-008  0.4614232E+02  0.7816164E-02  0.1320468E+00
        -11   -1    0    0    0    0  0.00000000000E+00  0.00000000000E+00  0.45593999997E+02  0.45594000000E+02  0.51100000000E-03 0.  1.
         11   -1    0    0    0    0 -0.00000000000E+00 -0.00000000000E+00 -0.45593999997E+02  0.45594000000E+02  0.51100000000E-03 0. -1.
    9900012    2    1    2    0    0 -0.34095893889E+02  0.27104770143E+02  0.11485426610E+02  0.46142316867E+02  0.99999918424E+01 0.  0.
        -12    1    1    2    0    0  0.34095893889E+02 -0.27104770143E+02 -0.11485426610E+02  0.45045683133E+02  0.00000000000E+00 0.  1.
         11    1    3    3    0    0 -0.16398781749E+01  0.52794339899E+01  0.17170300947E+01  0.57887663875E+01  0.51100000000E-03 0.  1.
        -11    1    3    3    0    0 -0.32062744150E+02  0.21719095809E+02  0.95310104941E+01  0.39882061713E+02  0.51100000000E-03 0. -1.
        -12    1    3    3    0    0 -0.39327156396E+00  0.10624034415E+00  0.23738602100E+00  0.47148876626E+00  0.00000000000E+00 0.  1.
</event>
<event>
 7    1  0.1543346E-008  0.4614232E+02  0.7816164E-02  0.1320468E+00
        -11   -1    0    0    0    0  0.00000000000E+00  0.00000000000E+00  0.45593999997E+02  0.45594000000E+02  0.51100000000E-03 0.  1.
         11   -1    0    0    0    0 -0.00000000000E+00 -0.00000000000E+00 -0.45593999997E+02  0.45594000000E+02  0.51100000000E-03 0. -1.
    9900012    2    1    2    0    0 -0.14997989761E+02  0.12454217195E+02 -0.40608696377E+02  0.46142318251E+02  0.10000004467E+02 0.  0.
        -12    1    1    2    0    0  0.14997989761E+02 -0.12454217195E+02  0.40608696377E+02  0.45045681749E+02  0.00000000000E+00 0.  1.
         11    1    3    3    0    0  0.87012545772E+00  0.63069574638E+00 -0.26536377034E+00  0.11069388549E+01  0.51100000000E-03 0.  1.
        -11    1    3    3    0    0 -0.10549204113E+02  0.62427482635E+01 -0.26256166384E+02  0.28976609304E+02  0.51100000000E-03 0. -1.
         12    1    3    3    0    0 -0.53189111052E+01  0.55807731853E+01 -0.14087166222E+02  0.16058770092E+02  0.00000000000E+00 0. -1.
</event>
<event>
 7    1  0.1543346E-008  0.4614232E+02  0.7816164E-02  0.1320468E+00
        -11   -1    0    0    0    0  0.00000000000E+00  0.00000000000E+00  0.45593999997E+02  0.45594000000E+02  0.51100000000E-03 0.  1.
         11   -1    0    0    0    0 -0.00000000000E+00 -0.00000000000E+00 -0.45593999997E+02  0.45594000000E+02  0.51100000000E-03 0. -1.
    9900012    2    1    2    0    0  0.93777652030E+01 -0.29952200838E+02 -0.32311551099E+02  0.46142321521E+02  0.10000034286E+02 0.  0.
        -12    1    1    2    0    0 -0.93777652030E+01  0.29952200838E+02  0.32311551099E+02  0.45045678479E+02  0.00000000000E+00 0.  1.
         11    1    3    3    0    0  0.71648167635E+01 -0.20118709405E+02 -0.25565065584E+02  0.33311704339E+02  0.51100000000E-03 0. -1.
        -11    1    3    3    0    0 -0.90557169656E+00 -0.39917683914E+01 -0.37908051386E+01  0.55789316941E+01  0.51100000000E-03 0.  1.
         12    1    3    3    0    0  0.31185201361E+01 -0.58417230415E+01 -0.29556803756E+01  0.72516854879E+01  0.00000000000E+00 0. -1.
</event>
<event>
 7    1  0.1543346E-008  0.4614232E+02  0.7816164E-02  0.1320468E+00
        -11   -1    0    0    0    0  0.00000000000E+00  0.00000000000E+00  0.45593999997E+02  0.45594000000E+02  0.51100000000E-03 0.  1.
         11   -1    0    0    0    0 -0.00000000000E+00 -0.00000000000E+00 -0.45593999997E+02  0.45594000000E+02  0.51100000000E-03 0. -1.
    9900012    2    1    2    0    0  0.42531057445E+02  0.12085359678E+02 -0.86119996319E+01  0.46142319813E+02  0.10000018707E+02 0.  0.
        -12    1    1    2    0    0 -0.42531057445E+02 -0.12085359678E+02  0.86119996319E+01  0.45045680187E+02  0.00000000000E+00 0.  1.
         11    1    3    3    0    0  0.79609862171E+01  0.21249773944E+01 -0.28254814798E+01  0.87106932175E+01  0.51100000000E-03 0. -1.
        -11    1    3    3    0    0  0.98133593441E+01  0.15672470892E+01  0.20388419071E+01  0.10144711018E+02  0.51100000000E-03 0.  1.
        -12    1    3    3    0    0  0.24756711883E+02  0.83931351940E+01 -0.78253600592E+01  0.27286915577E+02  0.00000000000E+00 0.  1.
</event>
<event>
 7    1  0.1543346E-008  0.4614232E+02  0.7816164E-02  0.1320468E+00
        -11   -1    0    0    0    0  0.00000000000E+00  0.00000000000E+00  0.45593999997E+02  0.45594000000E+02  0.51100000000E-03 0. -1.
         11   -1    0    0    0    0 -0.00000000000E+00 -0.00000000000E+00 -0.45593999997E+02  0.45594000000E+02  0.51100000000E-03 0.  1.
    9900012    2    1    2    0    0  0.43013986098E+02 -0.12026033703E+02 -0.58553408203E+01  0.46142317601E+02  0.99999985400E+01 0.  0.
        -12    1    1    2    0    0 -0.43013986098E+02  0.12026033703E+02  0.58553408203E+01  0.45045682399E+02  0.00000000000E+00 0.  1.
         11    1    3    3    0    0  0.20580376757E+02 -0.30185238010E+01 -0.96352539910E+00  0.20822866634E+02  0.51100000000E-03 0. -1.
        -11    1    3    3    0    0  0.77270892208E+01 -0.15953574050E+01 -0.39503869609E+01  0.88237537634E+01  0.51100000000E-03 0.  1.
        -12    1    3    3    0    0  0.14706520120E+02 -0.74121524975E+01 -0.94142846033E+00  0.16495697204E+02  0.00000000000E+00 0.  1.
</event>
<event>
 7    1  0.1543346E-008  0.4614232E+02  0.7816164E-02  0.1320468E+00
        -11   -1    0    0    0    0  0.00000000000E+00  0.00000000000E+00  0.45593999997E+02  0.45594000000E+02  0.51100000000E-03 0. -1.
         11   -1    0    0    0    0 -0.00000000000E+00 -0.00000000000E+00 -0.45593999997E+02  0.45594000000E+02  0.51100000000E-03 0.  1.
    9900012    2    1    2    0    0  0.41390719687E+02  0.11330089909E+02  0.13694912581E+02  0.46142320472E+02  0.10000024721E+02 0.  0.
        -12    1    1    2    0    0 -0.41390719687E+02 -0.11330089909E+02 -0.13694912581E+02  0.45045679528E+02  0.00000000000E+00 0.  1.
         11    1    3    3    0    0  0.14335136429E+02  0.62672283412E+00  0.45726588746E+01  0.15059818306E+02  0.51100000000E-03 0. -1.
        -11    1    3    3    0    0  0.17732813260E+02  0.88628050528E+01  0.37812352099E+01  0.20181667906E+02  0.51100000000E-03 0.  1.
         12    1    3    3    0    0  0.93227699979E+01  0.18405620221E+01  0.53410184962E+01  0.10900834260E+02  0.00000000000E+00 0. -1.
</event>
<event>
 7    1  0.1543346E-008  0.4614232E+02  0.7816164E-02  0.1320468E+00
        -11   -1    0    0    0    0  0.00000000000E+00  0.00000000000E+00  0.45593999997E+02  0.45594000000E+02  0.51100000000E-03 0. -1.
         11   -1    0    0    0    0 -0.00000000000E+00 -0.00000000000E+00 -0.45593999997E+02  0.45594000000E+02  0.51100000000E-03 0.  1.
    9900012    2    1    2    0    0  0.31243658787E+02  0.19736934440E+02  0.25756565423E+02  0.46142318099E+02  0.10000003081E+02 0.  0.
        -12    1    1    2    0    0 -0.31243658787E+02 -0.19736934440E+02 -0.25756565423E+02  0.45045681901E+02  0.00000000000E+00 0.  1.
         11    1    3    3    0    0  0.79157744583E+01  0.89448943843E+01  0.11716536875E+02  0.16731642401E+02  0.51100000000E-03 0. -1.
        -11    1    3    3    0    0  0.65517232083E+01  0.26765873684E+01  0.52122040412E+01  0.87895544920E+01  0.51100000000E-03 0.  1.
         12    1    3    3    0    0  0.16776161121E+02  0.81154526878E+01  0.88278245065E+01  0.20621121206E+02  0.00000000000E+00 0. -1.
</event>
<event>
 7    1  0.1543346E-008  0.4614232E+02  0.7816164E-02  0.1320468E+00
        -11   -1    0    0    0    0  0.00000000000E+00  0.00000000000E+00  0.45593999997E+02  0.45594000000E+02  0.51100000000E-03 0.  1.
         11   -1    0    0    0    0 -0.00000000000E+00 -0.00000000000E+00 -0.45593999997E+02  0.45594000000E+02  0.51100000000E-03 0. -1.
    9900012    2    1    2    0    0  0.10068753590E+02 -0.39224951843E+01 -0.43730397857E+02  0.46142318031E+02  0.10000002459E+02 0.  0.
        -12    1    1    2    0    0 -0.10068753590E+02  0.39224951843E+01  0.43730397857E+02  0.45045681969E+02  0.00000000000E+00 0.  1.
         11    1    3    3    0    0 -0.10727081012E+01 -0.29348125006E+00 -0.60111847452E+01  0.61131968900E+01  0.51100000000E-03 0. -1.
        -11    1    3    3    0    0  0.10127147338E+02 -0.53504688080E+00 -0.28131500318E+02  0.29903623506E+02  0.51100000000E-03 0.  1.
        -12    1    3    3    0    0  0.10143143528E+01 -0.30939670535E+01 -0.95877127937E+01  0.10125497635E+02  0.00000000000E+00 0.  1.
</event>
<event>
 7    1  0.1543346E-008  0.4614232E+02  0.7816164E-02  0.1320468E+00
        -11   -1    0    0    0    0  0.00000000000E+00  0.00000000000E+00  0.45593999997E+02  0.45594000000E+02  0.51100000000E-03 0. -1.
         11   -1    0    0    0    0 -0.00000000000E+00 -0.00000000000E+00 -0.45593999997E+02  0.45594000000E+02  0.51100000000E-03 0.  1.
    9900012    2    1    2    0    0  0.25642509035E+02 -0.24993704098E+02  0.27329287422E+02  0.46142318019E+02  0.10000002355E+02 0.  0.
        -12    1    1    2    0    0 -0.25642509035E+02  0.24993704098E+02 -0.27329287422E+02  0.45045681981E+02  0.00000000000E+00 0.  1.
         11    1    3    3    0    0  0.82183971768E+01 -0.48407812557E+01  0.34795747677E+01  0.10152962925E+02  0.51100000000E-03 0. -1.
        -11    1    3    3    0    0  0.16731830903E+02 -0.19968222958E+02  0.22341013356E+02  0.34319163327E+02  0.51100000000E-03 0.  1.
         12    1    3    3    0    0  0.69228095506E+00 -0.18469988381E+00  0.15086992981E+01  0.16701917674E+01  0.00000000000E+00 0. -1.
</event>
<event>
 7    1  0.1543346E-008  0.4614232E+02  0.7816164E-02  0.1320468E+00
        -11   -1    0    0    0    0  0.00000000000E+00  0.00000000000E+00  0.45593999997E+02  0.45594000000E+02  0.51100000000E-03 0.  1.
         11   -1    0    0    0    0 -0.00000000000E+00 -0.00000000000E+00 -0.45593999997E+02  0.45594000000E+02  0.51100000000E-03 0. -1.
    9900012    2    1    2    0    0 -0.38212968833E+02 -0.22621449804E+02 -0.75599282689E+01  0.46142317702E+02  0.99999994583E+01 0.  0.
        -12    1    1    2    0    0  0.38212968833E+02  0.22621449804E+02  0.75599282689E+01  0.45045682298E+02  0.00000000000E+00 0.  1.
         11    1    3    3    0    0 -0.21991953725E+02 -0.13282872283E+02 -0.13064746635E+01  0.25725232770E+02  0.51100000000E-03 0. -1.
        -11    1    3    3    0    0 -0.55067113091E+01 -0.19170577996E+01  0.28004058892E+00  0.58375853776E+01  0.51100000000E-03 0.  1.
         12    1    3    3    0    0 -0.10714303799E+02 -0.74215197215E+01 -0.65334941944E+01  0.14579499554E+02  0.00000000000E+00 0. -1.
</event>
<event>
 7    1  0.1543346E-008  0.4614232E+02  0.7816164E-02  0.1320468E+00
        -11   -1    0    0    0    0  0.00000000000E+00  0.00000000000E+00  0.45593999997E+02  0.45594000000E+02  0.51100000000E-03 0.  1.
         11   -1    0    0    0    0 -0.00000000000E+00 -0.00000000000E+00 -0.45593999997E+02  0.45594000000E+02  0.51100000000E-03 0. -1.
    9900012    2    1    2    0    0 -0.67806241212E+01  0.35348531282E+02 -0.27085381921E+02  0.46142318285E+02  0.10000004781E+02 0.  0.
        -12    1    1    2    0    0  0.67806241212E+01 -0.35348531282E+02  0.27085381921E+02  0.45045681715E+02  0.00000000000E+00 0.  1.
         11    1    3    3    0    0 -0.14356553485E+01  0.20163588714E+01  0.14391701188E+00  0.24794196388E+01  0.51100000000E-03 0.  1.
        -11    1    3    3    0    0 -0.59028330612E+01  0.23591778898E+02 -0.20553425609E+02  0.31841149072E+02  0.51100000000E-03 0. -1.
         12    1    3    3    0    0  0.55786428854E+00  0.97403935129E+01 -0.66758733248E+01  0.11821749574E+02  0.00000000000E+00 0. -1.
</event>
<event>
 7    1  0.1543346E-008  0.4614232E+02  0.7816164E-02  0.1320468E+00
        -11   -1    0    0    0    0  0.00000000000E+00  0.00000000000E+00  0.45593999997E+02  0.45594000000E+02  0.51100000000E-03 0.  1.
         11   -1    0    0    0    0 -0.00000000000E+00 -0.00000000000E+00 -0.45593999997E+02  0.45594000000E+02  0.51100000000E-03 0. -1.
    9900012    2    1    2    0    0  0.75764297589E+01  0.12767167084E+02 -0.42528939568E+02  0.46142317144E+02  0.99999943703E+01 0.  0.
        -12    1    1    2    0    0 -0.75764297589E+01 -0.12767167084E+02  0.42528939568E+02  0.45045682856E+02  0.00000000000E+00 0.  1.
         11    1    3    3    0    0  0.30826863662E+01  0.53381190600E+01 -0.27245888717E+02  0.27934511318E+02  0.51100000000E-03 0. -1.
        -11    1    3    3    0    0  0.21006356252E+01  0.19493290692E+01 -0.16160966434E+01  0.32900338101E+01  0.51100000000E-03 0.  1.
        -12    1    3    3    0    0  0.23931077675E+01  0.54797189546E+01 -0.13666954207E+02  0.14917772016E+02  0.00000000000E+00 0.  1.
</event>
<event>
 7    1  0.1543346E-008  0.4614232E+02  0.7816164E-02  0.1320468E+00
        -11   -1    0    0    0    0  0.00000000000E+00  0.00000000000E+00  0.45593999997E+02  0.45594000000E+02  0.51100000000E-03 0.  1.
         11   -1    0    0    0    0 -0.00000000000E+00 -0.00000000000E+00 -0.45593999997E+02  0.45594000000E+02  0.51100000000E-03 0. -1.
    9900012    2    1    2    0    0  0.15718950218E+02 -0.89589148143E+01 -0.41252466793E+02  0.46142316886E+02  0.99999920246E+01 0.  0.
        -12    1    1    2    0    0 -0.15718950218E+02  0.89589148143E+01  0.41252466793E+02  0.45045683114E+02  0.00000000000E+00 0.  1.
         11    1    3    3    0    0  0.11516784190E+02 -0.18225519029E+01 -0.25878670654E+02  0.28384214074E+02  0.51100000000E-03 0. -1.
        -11    1    3    3    0    0  0.32340558673E+01 -0.62786434905E+01 -0.14679491399E+02  0.16290118152E+02  0.51100000000E-03 0.  1.
        -12    1    3    3    0    0  0.96811016171E+00 -0.85771942097E+00 -0.69430474091E+00  0.14679846605E+01  0.00000000000E+00 0.  1.
</event>
<event>
 7    1  0.1543346E-008  0.4614232E+02  0.7816164E-02  0.1320468E+00
        -11   -1    0    0    0    0  0.00000000000E+00  0.00000000000E+00  0.45593999997E+02  0.45594000000E+02  0.51100000000E-03 0.  1.
         11   -1    0    0    0    0 -0.00000000000E+00 -0.00000000000E+00 -0.45593999997E+02  0.45594000000E+02  0.51100000000E-03 0. -1.
    9900012    2    1    2    0    0 -0.12871427065E+02 -0.42969223841E+02  0.41334766620E+01  0.46142318059E+02  0.10000002717E+02 0.  0.
        -12    1    1    2    0    0  0.12871427065E+02  0.42969223841E+02 -0.41334766620E+01  0.45045681941E+02  0.00000000000E+00 0.  1.
         11    1    3    3    0    0 -0.23860222563E+01 -0.20805175923E+01  0.25682753262E+00  0.31761008016E+01  0.51100000000E-03 0. -1.
        -11    1    3    3    0    0 -0.16979033074E+01 -0.34287217983E+01 -0.15116223272E+01  0.41138803012E+01  0.51100000000E-03 0.  1.
         12    1    3    3    0    0 -0.87875015016E+01 -0.37459984451E+02  0.53882714566E+01  0.38852336956E+02  0.00000000000E+00 0. -1.
</event>
<event>
 7    1  0.1543346E-008  0.4614232E+02  0.7816164E-02  0.1320468E+00
        -11   -1    0    0    0    0  0.00000000000E+00  0.00000000000E+00  0.45593999997E+02  0.45594000000E+02  0.51100000000E-03 0.  1.
         11   -1    0    0    0    0 -0.00000000000E+00 -0.00000000000E+00 -0.45593999997E+02  0.45594000000E+02  0.51100000000E-03 0. -1.
    9900012    2    1    2    0    0  0.27103705778E+02 -0.14062594553E+02 -0.33117155953E+02  0.46142318177E+02  0.10000003796E+02 0.  0.
        -12    1    1    2    0    0 -0.27103705778E+02  0.14062594553E+02  0.33117155953E+02  0.45045681823E+02  0.00000000000E+00 0.  1.
         11    1    3    3    0    0  0.30950879264E+00 -0.17675092152E+01 -0.70781643367E+00  0.19289605707E+01  0.51100000000E-03 0. -1.
        -11    1    3    3    0    0  0.82964172054E+01 -0.31180703833E+01 -0.60590508344E+01  0.10736153810E+02  0.51100000000E-03 0.  1.
         12    1    3    3    0    0  0.18497779780E+02 -0.91770149549E+01 -0.26350288684E+02  0.33477203796E+02  0.00000000000E+00 0. -1.
</event>
<event>
 7    1  0.1543346E-008  0.4614232E+02  0.7816164E-02  0.1320468E+00
        -11   -1    0    0    0    0  0.00000000000E+00  0.00000000000E+00  0.45593999997E+02  0.45594000000E+02  0.51100000000E-03 0.  1.
         11   -1    0    0    0    0 -0.00000000000E+00 -0.00000000000E+00 -0.45593999997E+02  0.45594000000E+02  0.51100000000E-03 0. -1.
    9900012    2    1    2    0    0 -0.12463905279E+02 -0.16930299176E+02 -0.39838794377E+02  0.46142317606E+02  0.99999985823E+01 0.  0.
        -12    1    1    2    0    0  0.12463905279E+02  0.16930299176E+02  0.39838794377E+02  0.45045682394E+02  0.00000000000E+00 0.  1.
         11    1    3    3    0    0 -0.38073607931E+01 -0.27181968412E+01 -0.12974374561E+02  0.13791989914E+02  0.51100000000E-03 0. -1.
        -11    1    3    3    0    0 -0.57844294569E+01 -0.57732902997E+01 -0.18050753735E+02  0.19814646494E+02  0.51100000000E-03 0.  1.
         12    1    3    3    0    0 -0.28721150291E+01 -0.84388120352E+01 -0.88136660804E+01  0.12535681197E+02  0.00000000000E+00 0. -1.
</event>
<event>
 7    1  0.1543346E-008  0.4614232E+02  0.7816164E-02  0.1320468E+00
        -11   -1    0    0    0    0  0.00000000000E+00  0.00000000000E+00  0.45593999997E+02  0.45594000000E+02  0.51100000000E-03 0. -1.
         11   -1    0    0    0    0 -0.00000000000E+00 -0.00000000000E+00 -0.45593999997E+02  0.45594000000E+02  0.51100000000E-03 0.  1.
    9900012    2    1    2    0    0  0.41842096120E+02 -0.35746734339E+01  0.16296441610E+02  0.46142319774E+02  0.10000018356E+02 0.  0.
        -12    1    1    2    0    0 -0.41842096120E+02  0.35746734339E+01 -0.16296441610E+02  0.45045680226E+02  0.00000000000E+00 0.  1.
         11    1    3    3    0    0  0.21937949944E+02 -0.17364907259E+01  0.10822054055E+02  0.24523578492E+02  0.51100000000E-03 0. -1.
        -11    1    3    3    0    0  0.15821810945E+02 -0.37718621942E+01  0.32626774429E+01  0.16589204633E+02  0.51100000000E-03 0.  1.
         12    1    3    3    0    0  0.40823352303E+01  0.19336794863E+01  0.22117101120E+01  0.50295366494E+01  0.00000000000E+00 0. -1.
</event>
<event>
 7    1  0.1543346E-008  0.4614232E+02  0.7816164E-02  0.1320468E+00
        -11   -1    0    0    0    0  0.00000000000E+00  0.00000000000E+00  0.45593999997E+02  0.45594000000E+02  0.51100000000E-03 0.  1.
         11   -1    0    0    0    0 -0.00000000000E+00 -0.00000000000E+00 -0.45593999997E+02  0.45594000000E+02  0.51100000000E-03 0. -1.
    9900012    2    1    2    0    0 -0.51012488533E+01  0.37565663144E+02 -0.24329235278E+02  0.46142317892E+02  0.10000001194E+02 0.  0.
        -12    1    1    2    0    0  0.51012488533E+01 -0.37565663144E+02  0.24329235278E+02  0.45045682108E+02  0.00000000000E+00 0.  1.
         11    1    3    3    0    0 -0.26123976642E+01  0.25125894915E+02 -0.18097722397E+02  0.31075115013E+02  0.51100000000E-03 0. -1.
        -11    1    3    3    0    0 -0.65185684666E+00  0.32298069655E+00 -0.19570802655E+01  0.20879169777E+01  0.51100000000E-03 0.  1.
        -12    1    3    3    0    0 -0.18369943424E+01  0.12116787533E+02 -0.42744326157E+01  0.12979285902E+02  0.00000000000E+00 0.  1.
</event>
<event>
 7    1  0.1543346E-008  0.4614231E+02  0.7816164E-02  0.1320468E+00
        -11   -1    0    0    0    0  0.00000000000E+00  0.00000000000E+00  0.45593999997E+02  0.45594000000E+02  0.51100000000E-03 0.  1.
         11   -1    0    0    0    0 -0.00000000000E+00 -0.00000000000E+00 -0.45593999997E+02  0.45594000000E+02  0.51100000000E-03 0. -1.
    9900012    2    1    2    0    0  0.14619670754E+02  0.20943366908E+02 -0.37104643066E+02  0.46142312888E+02  0.99999555591E+01 0.  0.
        -12    1    1    2    0    0 -0.14619670754E+02 -0.20943366908E+02  0.37104643066E+02  0.45045687112E+02  0.00000000000E+00 0.  1.
         11    1    3    3    0    0  0.93445238833E+01  0.10821655707E+02 -0.14374398364E+02  0.20274409669E+02  0.51100000000E-03 0. -1.
        -11    1    3    3    0    0  0.36230112585E+01  0.52296599489E+01 -0.17015370480E+02  0.18165857717E+02  0.51100000000E-03 0.  1.
        -12    1    3    3    0    0  0.16521356120E+01  0.48920512521E+01 -0.57148742218E+01  0.77020455013E+01  0.00000000000E+00 0.  1.
</event>
<event>
 7    1  0.1543346E-008  0.4614232E+02  0.7816164E-02  0.1320468E+00
        -11   -1    0    0    0    0  0.00000000000E+00  0.00000000000E+00  0.45593999997E+02  0.45594000000E+02  0.51100000000E-03 0.  1.
         11   -1    0    0    0    0 -0.00000000000E+00 -0.00000000000E+00 -0.45593999997E+02  0.45594000000E+02  0.51100000000E-03 0. -1.
    9900012    2    1    2    0    0  0.16540445645E+02  0.17609630534E+02 -0.38018785055E+02  0.46142318224E+02  0.10000004218E+02 0.  0.
        -12    1    1    2    0    0 -0.16540445645E+02 -0.17609630534E+02  0.38018785055E+02  0.45045681776E+02  0.00000000000E+00 0.  1.
         11    1    3    3    0    0  0.12994548426E+02  0.10619570612E+02 -0.25291653980E+02  0.30352945986E+02  0.51100000000E-03 0. -1.
        -11    1    3    3    0    0 -0.91410419326E-01  0.52849570702E+01 -0.64840057386E+01  0.83654920823E+01  0.51100000000E-03 0.  1.
         12    1    3    3    0    0  0.36373076385E+01  0.17051028521E+01 -0.62431253361E+01  0.74238801550E+01  0.00000000000E+00 0. -1.
</event>
<event>
 7    1  0.1543346E-008  0.4614232E+02  0.7816164E-02  0.1320468E+00
        -11   -1    0    0    0    0  0.00000000000E+00  0.00000000000E+00  0.45593999997E+02  0.45594000000E+02  0.51100000000E-03 0.  1.
         11   -1    0    0    0    0 -0.00000000000E+00 -0.00000000000E+00 -0.45593999997E+02  0.45594000000E+02  0.51100000000E-03 0. -1.
    9900012    2    1    2    0    0  0.36692572409E+02  0.11544307885E+02 -0.23441369534E+02  0.46142315188E+02  0.99999765393E+01 0.  0.
        -12    1    1    2    0    0 -0.36692572409E+02 -0.11544307885E+02  0.23441369534E+02  0.45045684812E+02  0.00000000000E+00 0.  1.
         11    1    3    3    0    0  0.27688663667E+02  0.92652437681E+01 -0.16562628075E+02  0.33568251173E+02  0.51100000000E-03 0. -1.
        -11    1    3    3    0    0 -0.50447609812E+00  0.67463820273E+00 -0.27259077628E+00  0.88540320226E+00  0.51100000000E-03 0.  1.
         12    1    3    3    0    0  0.95083848398E+01  0.16044259139E+01 -0.66061506823E+01  0.11688660813E+02  0.00000000000E+00 0. -1.
</event>
<event>
 7    1  0.1543346E-008  0.4614232E+02  0.7816164E-02  0.1320468E+00
        -11   -1    0    0    0    0  0.00000000000E+00  0.00000000000E+00  0.45593999997E+02  0.45594000000E+02  0.51100000000E-03 0.  1.
         11   -1    0    0    0    0 -0.00000000000E+00 -0.00000000000E+00 -0.45593999997E+02  0.45594000000E+02  0.51100000000E-03 0. -1.
    9900012    2    1    2    0    0 -0.98768033283E+01 -0.26763497762E+01 -0.43867976480E+02  0.46142318159E+02  0.10000003627E+02 0.  0.
        -12    1    1    2    0    0  0.98768033283E+01  0.26763497762E+01  0.43867976480E+02  0.45045681841E+02  0.00000000000E+00 0.  1.
         11    1    3    3    0    0 -0.75873806756E+01 -0.42933317006E+01 -0.29112548607E+02  0.30389826082E+02  0.51100000000E-03 0. -1.
        -11    1    3    3    0    0  0.43963639769E+00  0.19869024818E+01 -0.26690666151E+01  0.33563340852E+01  0.51100000000E-03 0.  1.
        -12    1    3    3    0    0 -0.27290590503E+01 -0.36992055745E+00 -0.12086361257E+02  0.12396157992E+02  0.00000000000E+00 0.  1.
</event>
<event>
 7    1  0.1543346E-008  0.4614232E+02  0.7816164E-02  0.1320468E+00
        -11   -1    0    0    0    0  0.00000000000E+00  0.00000000000E+00  0.45593999997E+02  0.45594000000E+02  0.51100000000E-03 0.  1.
         11   -1    0    0    0    0 -0.00000000000E+00 -0.00000000000E+00 -0.45593999997E+02  0.45594000000E+02  0.51100000000E-03 0. -1.
    9900012    2    1    2    0    0 -0.27759595579E+02  0.13003813192E+02 -0.33006350121E+02  0.46142318159E+02  0.10000003626E+02 0.  0.
        -12    1    1    2    0    0  0.27759595579E+02 -0.13003813192E+02  0.33006350121E+02  0.45045681841E+02  0.00000000000E+00 0.  1.
         11    1    3    3    0    0 -0.85683755486E+01  0.20777300069E+00 -0.84500812973E+01  0.12035950455E+02  0.51100000000E-03 0. -1.
        -11    1    3    3    0    0 -0.29088685206E+01  0.42658421192E+01 -0.40081379652E+01  0.65363671305E+01  0.51100000000E-03 0.  1.
        -12    1    3    3    0    0 -0.16282351510E+02  0.85301980720E+01 -0.20548130859E+02  0.27570000573E+02  0.00000000000E+00 0.  1.
</event>
<event>
 7    1  0.1543346E-008  0.4614232E+02  0.7816164E-02  0.1320468E+00
        -11   -1    0    0    0    0  0.00000000000E+00  0.00000000000E+00  0.45593999997E+02  0.45594000000E+02  0.51100000000E-03 0. -1.
         11   -1    0    0    0    0 -0.00000000000E+00 -0.00000000000E+00 -0.45593999997E+02  0.45594000000E+02  0.51100000000E-03 0.  1.
    9900012    2    1    2    0    0 -0.19355140947E+02  0.33028926001E+02  0.23739884300E+02  0.46142317184E+02  0.99999947332E+01 0.  0.
        -12    1    1    2    0    0  0.19355140947E+02 -0.33028926001E+02 -0.23739884300E+02  0.45045682816E+02  0.00000000000E+00 0.  1.
         11    1    3    3    0    0 -0.68129109538E+01  0.63264998640E+01  0.79815792013E+01  0.12253406180E+02  0.51100000000E-03 0. -1.
        -11    1    3    3    0    0 -0.57489782867E+01  0.80652717455E+01  0.73983025844E+01  0.12362614653E+02  0.51100000000E-03 0.  1.
         12    1    3    3    0    0 -0.67932517060E+01  0.18637154391E+02  0.83600025142E+01  0.21526296351E+02  0.00000000000E+00 0. -1.
</event>
<event>
 7    1  0.1543346E-008  0.4614232E+02  0.7816164E-02  0.1320468E+00
        -11   -1    0    0    0    0  0.00000000000E+00  0.00000000000E+00  0.45593999997E+02  0.45594000000E+02  0.51100000000E-03 0. -1.
         11   -1    0    0    0    0 -0.00000000000E+00 -0.00000000000E+00 -0.45593999997E+02  0.45594000000E+02  0.51100000000E-03 0.  1.
    9900012    2    1    2    0    0 -0.41060321019E+02 -0.85612068136E+01  0.16427699254E+02  0.46142317331E+02  0.99999960788E+01 0.  0.
        -12    1    1    2    0    0  0.41060321019E+02  0.85612068136E+01 -0.16427699254E+02  0.45045682669E+02  0.00000000000E+00 0.  1.
         11    1    3    3    0    0 -0.73532226005E+01 -0.35037966750E+01  0.14071792875E+01  0.82659922308E+01  0.51100000000E-03 0. -1.
        -11    1    3    3    0    0 -0.21120523821E+02 -0.96295642872E+00  0.11961643460E+02  0.24291659600E+02  0.51100000000E-03 0.  1.
        -12    1    3    3    0    0 -0.12586574598E+02 -0.40944537098E+01  0.30588765063E+01  0.13584665501E+02  0.00000000000E+00 0.  1.
</event>
<event>
 7    1  0.1543346E-008  0.4614232E+02  0.7816164E-02  0.1320468E+00
        -11   -1    0    0    0    0  0.00000000000E+00  0.00000000000E+00  0.45593999997E+02  0.45594000000E+02  0.51100000000E-03 0. -1.
         11   -1    0    0    0    0 -0.00000000000E+00 -0.00000000000E+00 -0.45593999997E+02  0.45594000000E+02  0.51100000000E-03 0.  1.
    9900012    2    1    2    0    0 -0.27916640719E+02  0.35219842052E+02  0.30557153188E+01  0.46142317640E+02  0.99999988933E+01 0.  0.
        -12    1    1    2    0    0  0.27916640719E+02 -0.35219842052E+02 -0.30557153188E+01  0.45045682360E+02  0.00000000000E+00 0.  1.
         11    1    3    3    0    0 -0.62361449839E+01  0.41683940821E+01  0.24278110937E+01  0.78841157051E+01  0.51100000000E-03 0. -1.
        -11    1    3    3    0    0 -0.30443997043E+01  0.74930256586E+01  0.14089452127E+01  0.82096851312E+01  0.51100000000E-03 0.  1.
         12    1    3    3    0    0 -0.18636096031E+02  0.23558422311E+02 -0.78104098756E+00  0.30048516803E+02  0.00000000000E+00 0. -1.
</event>
<event>
 7    1  0.1543346E-008  0.4614232E+02  0.7816164E-02  0.1320468E+00
        -11   -1    0    0    0    0  0.00000000000E+00  0.00000000000E+00  0.45593999997E+02  0.45594000000E+02  0.51100000000E-03 0. -1.
         11   -1    0    0    0    0 -0.00000000000E+00 -0.00000000000E+00 -0.45593999997E+02  0.45594000000E+02  0.51100000000E-03 0.  1.
    9900012    2    1    2    0    0 -0.52307781307E+01  0.29717927430E+02  0.33445436266E+02  0.46142318102E+02  0.10000003112E+02 0.  0.
        -12    1    1    2    0    0  0.52307781307E+01 -0.29717927430E+02 -0.33445436266E+02  0.45045681898E+02  0.00000000000E+00 0.  1.
         11    1    3    3    0    0 -0.48829976065E+00  0.24727112705E+02  0.26951713468E+02  0.36579548911E+02  0.51100000000E-03 0. -1.
        -11    1    3    3    0    0 -0.14897261294E+01  0.12401381668E+01  0.26541538859E+01  0.32866030677E+01  0.51100000000E-03 0.  1.
         12    1    3    3    0    0 -0.32527522406E+01  0.37506765582E+01  0.38395689117E+01  0.62761661236E+01  0.00000000000E+00 0. -1.
</event>
<event>
 7    1  0.1543346E-008  0.4614232E+02  0.7816164E-02  0.1320468E+00
        -11   -1    0    0    0    0  0.00000000000E+00  0.00000000000E+00  0.45593999997E+02  0.45594000000E+02  0.51100000000E-03 0.  1.
         11   -1    0    0    0    0 -0.00000000000E+00 -0.00000000000E+00 -0.45593999997E+02  0.45594000000E+02  0.51100000000E-03 0. -1.
    9900012    2    1    2    0    0  0.31697075474E+02 -0.13812063467E+02 -0.28872750051E+02  0.46142318894E+02  0.10000010328E+02 0.  0.
        -12    1    1    2    0    0 -0.31697075474E+02  0.13812063467E+02  0.28872750051E+02  0.45045681106E+02  0.00000000000E+00 0.  1.
         11    1    3    3    0    0  0.33650780105E+01 -0.18806644990E+01 -0.27593408499E+01  0.47407395163E+01  0.51100000000E-03 0. -1.
        -11    1    3    3    0    0  0.14297440836E+02 -0.99038390048E+00 -0.11532753823E+02  0.18395708350E+02  0.51100000000E-03 0.  1.
        -12    1    3    3    0    0  0.14034556628E+02 -0.10941015068E+02 -0.14580655378E+02  0.23005871027E+02  0.00000000000E+00 0.  1.
</event>
<event>
 7    1  0.1543346E-008  0.4614232E+02  0.7816164E-02  0.1320468E+00
        -11   -1    0    0    0    0  0.00000000000E+00  0.00000000000E+00  0.45593999997E+02  0.45594000000E+02  0.51100000000E-03 0. -1.
         11   -1    0    0    0    0 -0.00000000000E+00 -0.00000000000E+00 -0.45593999997E+02  0.45594000000E+02  0.51100000000E-03 0.  1.
    9900012    2    1    2    0    0 -0.34316583986E+02  0.24768815147E+02  0.15426968527E+02  0.46142317652E+02  0.99999990072E+01 0.  0.
        -12    1    1    2    0    0  0.34316583986E+02 -0.24768815147E+02 -0.15426968527E+02  0.45045682348E+02  0.00000000000E+00 0.  1.
         11    1    3    3    0    0 -0.23736664895E+02  0.18780957992E+02  0.10448446051E+02  0.32020675642E+02  0.51100000000E-03 0. -1.
        -11    1    3    3    0    0 -0.45582687969E+01  0.46478699404E+01  0.56105851153E+00  0.65341637814E+01  0.51100000000E-03 0.  1.
         12    1    3    3    0    0 -0.60216502934E+01  0.13399872153E+01  0.44174639647E+01  0.75874782288E+01  0.00000000000E+00 0. -1.
</event>
<event>
 7    1  0.1543346E-008  0.4614232E+02  0.7816164E-02  0.1320468E+00
        -11   -1    0    0    0    0  0.00000000000E+00  0.00000000000E+00  0.45593999997E+02  0.45594000000E+02  0.51100000000E-03 0. -1.
         11   -1    0    0    0    0 -0.00000000000E+00 -0.00000000000E+00 -0.45593999997E+02  0.45594000000E+02  0.51100000000E-03 0.  1.
    9900012    2    1    2    0    0 -0.34893793588E+02 -0.20172914500E+02  0.20114426477E+02  0.46142318043E+02  0.10000002575E+02 0.  0.
        -12    1    1    2    0    0  0.34893793588E+02  0.20172914500E+02 -0.20114426477E+02  0.45045681957E+02  0.00000000000E+00 0.  1.
         11    1    3    3    0    0 -0.19270027568E+02 -0.11767779220E+02  0.10838346159E+02  0.25045645090E+02  0.51100000000E-03 0. -1.
        -11    1    3    3    0    0 -0.50989084301E+01 -0.45041129754E+01  0.45105668638E+00  0.68183101476E+01  0.51100000000E-03 0.  1.
         12    1    3    3    0    0 -0.10524857590E+02 -0.39010223044E+01  0.88250236315E+01  0.14278362806E+02  0.00000000000E+00 0. -1.
</event>
<event>
 7    1  0.1543346E-008  0.4614232E+02  0.7816164E-02  0.1320468E+00
        -11   -1    0    0    0    0  0.00000000000E+00  0.00000000000E+00  0.45593999997E+02  0.45594000000E+02  0.51100000000E-03 0.  1.
         11   -1    0    0    0    0 -0.00000000000E+00 -0.00000000000E+00 -0.45593999997E+02  0.45594000000E+02  0.51100000000E-03 0. -1.
    9900012    2    1    2    0    0  0.42028453378E+02  0.14903687548E+02 -0.63720177108E+01  0.46142318680E+02  0.10000008378E+02 0.  0.
        -12    1    1    2    0    0 -0.42028453378E+02 -0.14903687548E+02  0.63720177108E+01  0.45045681320E+02  0.00000000000E+00 0.  1.
         11    1    3    3    0    0  0.64357323508E+01  0.65525217389E+00 -0.41954976667E+01  0.77103960492E+01  0.51100000000E-03 0.  1.
        -11    1    3    3    0    0  0.18415168450E+02  0.81850765423E+01 -0.13238023303E+01  0.20195701521E+02  0.51100000000E-03 0. -1.
         12    1    3    3    0    0  0.17177552577E+02  0.60633588320E+01 -0.85271771374E+00  0.18236221110E+02  0.00000000000E+00 0. -1.
</event>
<event>
 7    1  0.1543346E-008  0.4614232E+02  0.7816164E-02  0.1320468E+00
        -11   -1    0    0    0    0  0.00000000000E+00  0.00000000000E+00  0.45593999997E+02  0.45594000000E+02  0.51100000000E-03 0. -1.
         11   -1    0    0    0    0 -0.00000000000E+00 -0.00000000000E+00 -0.45593999997E+02  0.45594000000E+02  0.51100000000E-03 0.  1.
    9900012    2    1    2    0    0 -0.15238368118E+02 -0.24910238921E+02  0.34298477914E+02  0.46142318152E+02  0.10000003560E+02 0.  0.
        -12    1    1    2    0    0  0.15238368118E+02  0.24910238921E+02 -0.34298477914E+02  0.45045681848E+02  0.00000000000E+00 0.  1.
         11    1    3    3    0    0 -0.59710594377E+01 -0.10306215977E+02  0.99970780586E+01  0.15550344322E+02  0.51100000000E-03 0. -1.
        -11    1    3    3    0    0 -0.91983118599E+01 -0.15306933816E+02  0.23615101246E+02  0.29607164185E+02  0.51100000000E-03 0.  1.
         12    1    3    3    0    0 -0.68996820638E-01  0.70291087226E+00  0.68629860862E+00  0.98480964445E+00  0.00000000000E+00 0. -1.
</event>
<event>
 7    1  0.1543346E-008  0.4614232E+02  0.7816164E-02  0.1320468E+00
        -11   -1    0    0    0    0  0.00000000000E+00  0.00000000000E+00  0.45593999997E+02  0.45594000000E+02  0.51100000000E-03 0. -1.
         11   -1    0    0    0    0 -0.00000000000E+00 -0.00000000000E+00 -0.45593999997E+02  0.45594000000E+02  0.51100000000E-03 0.  1.
    9900012    2    1    2    0    0 -0.72216197466E+01  0.79893582282E+01  0.43739362053E+02  0.46142318415E+02  0.10000005959E+02 0.  0.
        -12    1    1    2    0    0  0.72216197466E+01 -0.79893582282E+01 -0.43739362053E+02  0.45045681585E+02  0.00000000000E+00 0.  1.
         11    1    3    3    0    0 -0.62764127794E+01  0.56198841899E+01  0.28807121492E+02  0.30013775248E+02  0.51100000000E-03 0. -1.
        -11    1    3    3    0    0  0.84565611881E+00 -0.13319624521E+01  0.72012317027E+01  0.73720415451E+01  0.51100000000E-03 0.  1.
        -12    1    3    3    0    0 -0.17908630860E+01  0.37014364904E+01  0.77310088582E+01  0.87565016217E+01  0.00000000000E+00 0.  1.
</event>
<event>
 7    1  0.1543346E-008  0.4614232E+02  0.7816164E-02  0.1320468E+00
        -11   -1    0    0    0    0  0.00000000000E+00  0.00000000000E+00  0.45593999997E+02  0.45594000000E+02  0.51100000000E-03 0.  1.
         11   -1    0    0    0    0 -0.00000000000E+00 -0.00000000000E+00 -0.45593999997E+02  0.45594000000E+02  0.51100000000E-03 0. -1.
    9900012    2    1    2    0    0 -0.32867890138E+02  0.18388433220E+01 -0.30747909950E+02  0.46142317486E+02  0.99999974884E+01 0.  0.
        -12    1    1    2    0    0  0.32867890138E+02 -0.18388433220E+01  0.30747909950E+02  0.45045682514E+02  0.00000000000E+00 0.  1.
         11    1    3    3    0    0 -0.15822548247E+02 -0.35163642270E+01 -0.15065159477E+02  0.22128643897E+02  0.51100000000E-03 0. -1.
        -11    1    3    3    0    0 -0.52132876697E+01  0.19830472002E+01 -0.29572124570E+01  0.63131569205E+01  0.51100000000E-03 0.  1.
         12    1    3    3    0    0 -0.11832054222E+02  0.33721603488E+01 -0.12725538016E+02  0.17700516668E+02  0.00000000000E+00 0. -1.
</event>
<event>
 7    1  0.1543346E-008  0.4614232E+02  0.7816164E-02  0.1320468E+00
        -11   -1    0    0    0    0  0.00000000000E+00  0.00000000000E+00  0.45593999997E+02  0.45594000000E+02  0.51100000000E-03 0.  1.
         11   -1    0    0    0    0 -0.00000000000E+00 -0.00000000000E+00 -0.45593999997E+02  0.45594000000E+02  0.51100000000E-03 0. -1.
    9900012    2    1    2    0    0 -0.18822358607E+01 -0.20627353952E+02 -0.40001035557E+02  0.46142318870E+02  0.10000010110E+02 0.  0.
        -12    1    1    2    0    0  0.18822358607E+01  0.20627353952E+02  0.40001035557E+02  0.45045681130E+02  0.00000000000E+00 0.  1.
         11    1    3    3    0    0 -0.18496101255E+01 -0.14209903522E+02 -0.22096012724E+02  0.26335834794E+02  0.51100000000E-03 0. -1.
        -11    1    3    3    0    0  0.22213562897E+01 -0.31500692293E+01 -0.50523171902E+01  0.63547831723E+01  0.51100000000E-03 0.  1.
         12    1    3    3    0    0 -0.22539820249E+01 -0.32673812005E+01 -0.12852705642E+02  0.13451700904E+02  0.00000000000E+00 0. -1.
</event>
<event>
 7    1  0.1543346E-008  0.4614232E+02  0.7816164E-02  0.1320468E+00
        -11   -1    0    0    0    0  0.00000000000E+00  0.00000000000E+00  0.45593999997E+02  0.45594000000E+02  0.51100000000E-03 0. -1.
         11   -1    0    0    0    0 -0.00000000000E+00 -0.00000000000E+00 -0.45593999997E+02  0.45594000000E+02  0.51100000000E-03 0.  1.
    9900012    2    1    2    0    0 -0.18777221663E+01  0.14261335093E+02  0.42687259004E+02  0.46142316517E+02  0.99999886570E+01 0.  0.
        -12    1    1    2    0    0  0.18777221663E+01 -0.14261335093E+02 -0.42687259004E+02  0.45045683483E+02  0.00000000000E+00 0.  1.
         11    1    3    3    0    0 -0.26177029227E+00  0.12201484163E+01  0.55170307697E+01  0.56564047432E+01  0.51100000000E-03 0. -1.
        -11    1    3    3    0    0  0.13077437773E+00  0.13949698802E+02  0.30660893057E+02  0.33685331554E+02  0.51100000000E-03 0.  1.
        -12    1    3    3    0    0 -0.17467262518E+01 -0.90851212473E+00  0.65093351768E+01  0.68005802196E+01  0.00000000000E+00 0.  1.
</event>
<event>
 7    1  0.1543346E-008  0.4614232E+02  0.7816164E-02  0.1320468E+00
        -11   -1    0    0    0    0  0.00000000000E+00  0.00000000000E+00  0.45593999997E+02  0.45594000000E+02  0.51100000000E-03 0. -1.
         11   -1    0    0    0    0 -0.00000000000E+00 -0.00000000000E+00 -0.45593999997E+02  0.45594000000E+02  0.51100000000E-03 0.  1.
    9900012    2    1    2    0    0 -0.12406187085E+02 -0.41253744637E+02 -0.13165432703E+02  0.46142317157E+02  0.99999944902E+01 0.  0.
        -12    1    1    2    0    0  0.12406187085E+02  0.41253744637E+02  0.13165432703E+02  0.45045682843E+02  0.00000000000E+00 0.  1.
         11    1    3    3    0    0 -0.94643156827E+00 -0.27909171050E+01  0.24954814554E+00  0.29575708848E+01  0.51100000000E-03 0. -1.
        -11    1    3    3    0    0 -0.10957672974E+02 -0.30097292842E+02 -0.13610754751E+02  0.34801871768E+02  0.51100000000E-03 0.  1.
        -12    1    3    3    0    0 -0.50208254227E+00 -0.83655346897E+01  0.19577390232E+00  0.83828745037E+01  0.00000000000E+00 0.  1.
</event>
<event>
 7    1  0.1543346E-008  0.4614232E+02  0.7816164E-02  0.1320468E+00
        -11   -1    0    0    0    0  0.00000000000E+00  0.00000000000E+00  0.45593999997E+02  0.45594000000E+02  0.51100000000E-03 0.  1.
         11   -1    0    0    0    0 -0.00000000000E+00 -0.00000000000E+00 -0.45593999997E+02  0.45594000000E+02  0.51100000000E-03 0. -1.
    9900012    2    1    2    0    0  0.14770247012E+02 -0.42342402634E+02 -0.42513872648E+01  0.46142317063E+02  0.99999936362E+01 0.  0.
        -12    1    1    2    0    0 -0.14770247012E+02  0.42342402634E+02  0.42513872648E+01  0.45045682937E+02  0.00000000000E+00 0.  1.
         11    1    3    3    0    0  0.28848708008E+00 -0.41425199640E+01 -0.30869439381E+00  0.41640111597E+01  0.51100000000E-03 0. -1.
        -11    1    3    3    0    0 -0.20151827101E+00 -0.69996849958E+01  0.12302554252E+01  0.71098332137E+01  0.51100000000E-03 0.  1.
        -12    1    3    3    0    0  0.14683278203E+02 -0.31200197674E+02 -0.51729482962E+01  0.34868472690E+02  0.00000000000E+00 0.  1.
</event>
<event>
 7    1  0.1543346E-008  0.4614231E+02  0.7816164E-02  0.1320468E+00
        -11   -1    0    0    0    0  0.00000000000E+00  0.00000000000E+00  0.45593999997E+02  0.45594000000E+02  0.51100000000E-03 0. -1.
         11   -1    0    0    0    0 -0.00000000000E+00 -0.00000000000E+00 -0.45593999997E+02  0.45594000000E+02  0.51100000000E-03 0.  1.
    9900012    2    1    2    0    0  0.39103212060E+02 -0.31937738047E+01 -0.22132609882E+02  0.46142314250E+02  0.99999679818E+01 0.  0.
        -12    1    1    2    0    0 -0.39103212060E+02  0.31937738047E+01  0.22132609882E+02  0.45045685750E+02  0.00000000000E+00 0.  1.
         11    1    3    3    0    0  0.14035901610E+02  0.21883080231E+01 -0.76419825413E+01  0.16130564883E+02  0.51100000000E-03 0. -1.
        -11    1    3    3    0    0  0.23099752876E+02 -0.64524615477E+01 -0.12667827735E+02  0.27123913853E+02  0.51100000000E-03 0.  1.
        -12    1    3    3    0    0  0.19675575738E+01  0.10703797199E+01 -0.18227996058E+01  0.28878355136E+01  0.00000000000E+00 0.  1.
</event>
<event>
 7    1  0.1543346E-008  0.4614232E+02  0.7816164E-02  0.1320468E+00
        -11   -1    0    0    0    0  0.00000000000E+00  0.00000000000E+00  0.45593999997E+02  0.45594000000E+02  0.51100000000E-03 0.  1.
         11   -1    0    0    0    0 -0.00000000000E+00 -0.00000000000E+00 -0.45593999997E+02  0.45594000000E+02  0.51100000000E-03 0. -1.
    9900012    2    1    2    0    0  0.33848239542E+02 -0.62153257538E+01 -0.29065097039E+02  0.46142318074E+02  0.10000002852E+02 0.  0.
        -12    1    1    2    0    0 -0.33848239542E+02  0.62153257538E+01  0.29065097039E+02  0.45045681926E+02  0.00000000000E+00 0.  1.
         11    1    3    3    0    0  0.29993651239E+02 -0.53651543266E+01 -0.27085055898E+02  0.40767686332E+02  0.51100000000E-03 0. -1.
        -11    1    3    3    0    0  0.25828608889E+01 -0.12982692462E+01  0.10373937225E+00  0.28926519883E+01  0.51100000000E-03 0.  1.
        -12    1    3    3    0    0  0.12717274140E+01  0.44809781896E+00 -0.20837805135E+01  0.24819797540E+01  0.00000000000E+00 0.  1.
</event>
<event>
 7    1  0.1543346E-008  0.4614232E+02  0.7816164E-02  0.1320468E+00
        -11   -1    0    0    0    0  0.00000000000E+00  0.00000000000E+00  0.45593999997E+02  0.45594000000E+02  0.51100000000E-03 0. -1.
         11   -1    0    0    0    0 -0.00000000000E+00 -0.00000000000E+00 -0.45593999997E+02  0.45594000000E+02  0.51100000000E-03 0.  1.
    9900012    2    1    2    0    0  0.34027740591E+02  0.17492265820E+02  0.23774924196E+02  0.46142317479E+02  0.99999974299E+01 0.  0.
        -12    1    1    2    0    0 -0.34027740591E+02 -0.17492265820E+02 -0.23774924196E+02  0.45045682521E+02  0.00000000000E+00 0.  1.
         11    1    3    3    0    0  0.47381595612E+01  0.88966139893E+00  0.47569582293E+01  0.67727620133E+01  0.51100000000E-03 0. -1.
        -11    1    3    3    0    0  0.28338065348E+02  0.13820335559E+02  0.17524905792E+02  0.36071733336E+02  0.51100000000E-03 0.  1.
        -12    1    3    3    0    0  0.95151568192E+00  0.27822688619E+01  0.14930601752E+01  0.32978221298E+01  0.00000000000E+00 0.  1.
</event>
<event>
 7    1  0.1543346E-008  0.4614232E+02  0.7816164E-02  0.1320468E+00
        -11   -1    0    0    0    0  0.00000000000E+00  0.00000000000E+00  0.45593999997E+02  0.45594000000E+02  0.51100000000E-03 0.  1.
         11   -1    0    0    0    0 -0.00000000000E+00 -0.00000000000E+00 -0.45593999997E+02  0.45594000000E+02  0.51100000000E-03 0. -1.
    9900012    2    1    2    0    0  0.30068026199E+02 -0.13098297320E+02 -0.30878179187E+02  0.46142317165E+02  0.99999945648E+01 0.  0.
        -12    1    1    2    0    0 -0.30068026199E+02  0.13098297320E+02  0.30878179187E+02  0.45045682835E+02  0.00000000000E+00 0.  1.
         11    1    3    3    0    0  0.34370127416E+01 -0.33702948015E+01 -0.36657811307E+01  0.60506111422E+01  0.51100000000E-03 0. -1.
        -11    1    3    3    0    0  0.18579329025E+02 -0.31094479755E+01 -0.15341699357E+02  0.24294605845E+02  0.51100000000E-03 0.  1.
        -12    1    3    3    0    0  0.80516844325E+01 -0.66185545433E+01 -0.11870698699E+02  0.15797100178E+02  0.00000000000E+00 0.  1.
</event>
<event>
 7    1  0.1543346E-008  0.4614232E+02  0.7816164E-02  0.1320468E+00
        -11   -1    0    0    0    0  0.00000000000E+00  0.00000000000E+00  0.45593999997E+02  0.45594000000E+02  0.51100000000E-03 0. -1.
         11   -1    0    0    0    0 -0.00000000000E+00 -0.00000000000E+00 -0.45593999997E+02  0.45594000000E+02  0.51100000000E-03 0.  1.
    9900012    2    1    2    0    0 -0.21715441413E+02  0.34216743119E+02  0.19666407369E+02  0.46142317807E+02  0.10000000417E+02 0.  0.
        -12    1    1    2    0    0  0.21715441413E+02 -0.34216743119E+02 -0.19666407369E+02  0.45045682193E+02  0.00000000000E+00 0.  1.
         11    1    3    3    0    0 -0.91015322821E+01  0.20418858569E+02  0.12169971769E+02  0.25453406221E+02  0.51100000000E-03 0. -1.
        -11    1    3    3    0    0 -0.15986215854E+01  0.36819180116E+01  0.12640635957E+00  0.40159793383E+01  0.51100000000E-03 0.  1.
        -12    1    3    3    0    0 -0.11015287545E+02  0.10115966539E+02  0.73700292403E+01  0.16672932247E+02  0.00000000000E+00 0.  1.
</event>
<event>
 7    1  0.1543346E-008  0.4614232E+02  0.7816164E-02  0.1320468E+00
        -11   -1    0    0    0    0  0.00000000000E+00  0.00000000000E+00  0.45593999997E+02  0.45594000000E+02  0.51100000000E-03 0.  1.
         11   -1    0    0    0    0 -0.00000000000E+00 -0.00000000000E+00 -0.45593999997E+02  0.45594000000E+02  0.51100000000E-03 0. -1.
    9900012    2    1    2    0    0 -0.25715959864E+02 -0.35793551095E+02 -0.93072361132E+01  0.46142317235E+02  0.99999951992E+01 0.  0.
        -12    1    1    2    0    0  0.25715959864E+02  0.35793551095E+02  0.93072361132E+01  0.45045682765E+02  0.00000000000E+00 0.  1.
         11    1    3    3    0    0 -0.57320816364E+01 -0.98900478514E+01 -0.40061685906E+01  0.12112769849E+02  0.51100000000E-03 0. -1.
        -11    1    3    3    0    0 -0.59433726588E+00  0.14600028903E+00 -0.11354962201E+01  0.12899243377E+01  0.51100000000E-03 0.  1.
        -12    1    3    3    0    0 -0.19389540962E+02 -0.26049503533E+02 -0.41655713026E+01  0.32739623048E+02  0.00000000000E+00 0.  1.
</event>
<event>
 7    1  0.1543346E-008  0.4614232E+02  0.7816164E-02  0.1320468E+00
        -11   -1    0    0    0    0  0.00000000000E+00  0.00000000000E+00  0.45593999997E+02  0.45594000000E+02  0.51100000000E-03 0. -1.
         11   -1    0    0    0    0 -0.00000000000E+00 -0.00000000000E+00 -0.45593999997E+02  0.45594000000E+02  0.51100000000E-03 0.  1.
    9900012    2    1    2    0    0  0.27158694509E+02  0.26221663973E+01 -0.35841916860E+02  0.46142318207E+02  0.10000004064E+02 0.  0.
        -12    1    1    2    0    0 -0.27158694509E+02 -0.26221663973E+01  0.35841916860E+02  0.45045681793E+02  0.00000000000E+00 0.  1.
         11    1    3    3    0    0  0.20896657781E+02  0.36103553025E+01 -0.26958462221E+02  0.34299615995E+02  0.51100000000E-03 0. -1.
        -11    1    3    3    0    0  0.56726123437E+01 -0.21999864701E+00 -0.92115737700E+01  0.10820352203E+02  0.51100000000E-03 0.  1.
         12    1    3    3    0    0  0.58942438462E+00 -0.76819025811E+00  0.32811913109E+00  0.10223500095E+01  0.00000000000E+00 0. -1.
</event>
<event>
 7    1  0.1543346E-008  0.4614232E+02  0.7816164E-02  0.1320468E+00
        -11   -1    0    0    0    0  0.00000000000E+00  0.00000000000E+00  0.45593999997E+02  0.45594000000E+02  0.51100000000E-03 0.  1.
         11   -1    0    0    0    0 -0.00000000000E+00 -0.00000000000E+00 -0.45593999997E+02  0.45594000000E+02  0.51100000000E-03 0. -1.
    9900012    2    1    2    0    0 -0.68920024673E+01  0.40653184181E+02 -0.18136493887E+02  0.46142317714E+02  0.99999995723E+01 0.  0.
        -12    1    1    2    0    0  0.68920024673E+01 -0.40653184181E+02  0.18136493887E+02  0.45045682286E+02  0.00000000000E+00 0.  1.
         11    1    3    3    0    0 -0.51498914507E+01  0.15403257894E+02 -0.62356477540E+01  0.17397271018E+02  0.51100000000E-03 0. -1.
        -11    1    3    3    0    0  0.14244931472E+01  0.13672162211E+02 -0.37917062789E+01  0.14259531445E+02  0.51100000000E-03 0.  1.
        -12    1    3    3    0    0 -0.31666041638E+01  0.11577764076E+02 -0.81091398536E+01  0.14485515252E+02  0.00000000000E+00 0.  1.
</event>
<event>
 7    1  0.1543346E-008  0.4614232E+02  0.7816164E-02  0.1320468E+00
        -11   -1    0    0    0    0  0.00000000000E+00  0.00000000000E+00  0.45593999997E+02  0.45594000000E+02  0.51100000000E-03 0.  1.
         11   -1    0    0    0    0 -0.00000000000E+00 -0.00000000000E+00 -0.45593999997E+02  0.45594000000E+02  0.51100000000E-03 0. -1.
    9900012    2    1    2    0    0 -0.73597546547E+01 -0.31645004516E+02 -0.31201622019E+02  0.46142317454E+02  0.99999972016E+01 0.  0.
        -12    1    1    2    0    0  0.73597546547E+01  0.31645004516E+02  0.31201622019E+02  0.45045682546E+02  0.00000000000E+00 0.  1.
         11    1    3    3    0    0 -0.42267170925E+00 -0.16221746626E+01 -0.25149772535E+00  0.16950968635E+01  0.51100000000E-03 0. -1.
        -11    1    3    3    0    0 -0.35649744215E+01 -0.16657125777E+02 -0.22706338412E+02  0.28385677482E+02  0.51100000000E-03 0.  1.
        -12    1    3    3    0    0 -0.33721085240E+01 -0.13365704077E+02 -0.82437858810E+01  0.16061543109E+02  0.00000000000E+00 0.  1.
</event>
<event>
 7    1  0.1543346E-008  0.4614232E+02  0.7816164E-02  0.1320468E+00
        -11   -1    0    0    0    0  0.00000000000E+00  0.00000000000E+00  0.45593999997E+02  0.45594000000E+02  0.51100000000E-03 0. -1.
         11   -1    0    0    0    0 -0.00000000000E+00 -0.00000000000E+00 -0.45593999997E+02  0.45594000000E+02  0.51100000000E-03 0.  1.
    9900012    2    1    2    0    0 -0.64633727252E+01 -0.40464268158E+02 -0.18707787380E+02  0.46142317708E+02  0.99999995125E+01 0.  0.
        -12    1    1    2    0    0  0.64633727252E+01  0.40464268158E+02  0.18707787380E+02  0.45045682292E+02  0.00000000000E+00 0.  1.
         11    1    3    3    0    0 -0.75456086941E+01 -0.28408596350E+02 -0.13928882129E+02  0.32526886029E+02  0.51100000000E-03 0. -1.
        -11    1    3    3    0    0  0.47760352458E+00 -0.90203835334E+01 -0.53057408015E+01  0.10475987301E+02  0.51100000000E-03 0.  1.
        -12    1    3    3    0    0  0.60463244426E+00 -0.30352882748E+01  0.52683555043E+00  0.31394443777E+01  0.00000000000E+00 0.  1.
</event>
<event>
 7    1  0.1543346E-008  0.4614232E+02  0.7816164E-02  0.1320468E+00
        -11   -1    0    0    0    0  0.00000000000E+00  0.00000000000E+00  0.45593999997E+02  0.45594000000E+02  0.51100000000E-03 0. -1.
         11   -1    0    0    0    0 -0.00000000000E+00 -0.00000000000E+00 -0.45593999997E+02  0.45594000000E+02  0.51100000000E-03 0.  1.
    9900012    2    1    2    0    0  0.40182241308E+02 -0.17510197961E+02  0.10387199014E+02  0.46142318159E+02  0.10000003628E+02 0.  0.
        -12    1    1    2    0    0 -0.40182241308E+02  0.17510197961E+02 -0.10387199014E+02  0.45045681841E+02  0.00000000000E+00 0.  1.
         11    1    3    3    0    0  0.13593832538E+02 -0.61621498638E+01  0.50682865985E+01  0.15762357162E+02  0.51100000000E-03 0. -1.
        -11    1    3    3    0    0  0.53074024503E+01 -0.85688411120E+00  0.38414347743E+01  0.66075254473E+01  0.51100000000E-03 0.  1.
         12    1    3    3    0    0  0.21281006320E+02 -0.10491163986E+02  0.14774776410E+01  0.23772435549E+02  0.00000000000E+00 0. -1.
</event>
<event>
 7    1  0.1543346E-008  0.4614232E+02  0.7816164E-02  0.1320468E+00
        -11   -1    0    0    0    0  0.00000000000E+00  0.00000000000E+00  0.45593999997E+02  0.45594000000E+02  0.51100000000E-03 0. -1.
         11   -1    0    0    0    0 -0.00000000000E+00 -0.00000000000E+00 -0.45593999997E+02  0.45594000000E+02  0.51100000000E-03 0.  1.
    9900012    2    1    2    0    0 -0.15157567326E+02 -0.28784307617E+01  0.42321108375E+02  0.46142318464E+02  0.10000006414E+02 0.  0.
        -12    1    1    2    0    0  0.15157567326E+02  0.28784307617E+01 -0.42321108375E+02  0.45045681536E+02  0.00000000000E+00 0.  1.
         11    1    3    3    0    0 -0.60656841200E+01  0.32006343000E+01  0.16103133647E+02  0.17502785415E+02  0.51100000000E-03 0. -1.
        -11    1    3    3    0    0 -0.87570493546E+01 -0.61339234747E+01  0.22553598130E+02  0.24959481555E+02  0.51100000000E-03 0.  1.
         12    1    3    3    0    0 -0.33483385117E+00  0.54858413085E-01  0.36643765980E+01  0.36800514949E+01  0.00000000000E+00 0. -1.
</event>
<event>
 7    1  0.1543346E-008  0.4614232E+02  0.7816164E-02  0.1320468E+00
        -11   -1    0    0    0    0  0.00000000000E+00  0.00000000000E+00  0.45593999997E+02  0.45594000000E+02  0.51100000000E-03 0.  1.
         11   -1    0    0    0    0 -0.00000000000E+00 -0.00000000000E+00 -0.45593999997E+02  0.45594000000E+02  0.51100000000E-03 0. -1.
    9900012    2    1    2    0    0 -0.32915948820E+02  0.93300013865E+01 -0.29301956491E+02  0.46142320221E+02  0.10000022428E+02 0.  0.
        -12    1    1    2    0    0  0.32915948820E+02 -0.93300013865E+01  0.29301956491E+02  0.45045679779E+02  0.00000000000E+00 0.  1.
         11    1    3    3    0    0 -0.23874643052E+02  0.35420292108E+01 -0.22845718359E+02  0.33233588422E+02  0.51100000000E-03 0. -1.
        -11    1    3    3    0    0 -0.37092399057E+01  0.35122776196E+01 -0.16201106903E+01  0.53590403680E+01  0.51100000000E-03 0.  1.
        -12    1    3    3    0    0 -0.53320658620E+01  0.22756945560E+01 -0.48361274418E+01  0.75496914309E+01  0.00000000000E+00 0.  1.
</event>
<event>
 7    1  0.1543346E-008  0.4614232E+02  0.7816164E-02  0.1320468E+00
        -11   -1    0    0    0    0  0.00000000000E+00  0.00000000000E+00  0.45593999997E+02  0.45594000000E+02  0.51100000000E-03 0.  1.
         11   -1    0    0    0    0 -0.00000000000E+00 -0.00000000000E+00 -0.45593999997E+02  0.45594000000E+02  0.51100000000E-03 0. -1.
    9900012    2    1    2    0    0 -0.43586051551E+02  0.20606248362E+01 -0.11185852296E+02  0.46142319229E+02  0.10000013386E+02 0.  0.
        -12    1    1    2    0    0  0.43586051551E+02 -0.20606248362E+01  0.11185852296E+02  0.45045680771E+02  0.00000000000E+00 0.  1.
         11    1    3    3    0    0 -0.35403801451E+02  0.28446470795E+01 -0.52850068896E+01  0.35908946967E+02  0.51100000000E-03 0. -1.
        -11    1    3    3    0    0 -0.70401729514E+01 -0.90009602521E+00 -0.44260370766E+01  0.83644493246E+01  0.51100000000E-03 0.  1.
         12    1    3    3    0    0 -0.11420771491E+01  0.11607378197E+00 -0.14748083300E+01  0.18689229378E+01  0.00000000000E+00 0. -1.
</event>
<event>
 7    1  0.1543346E-008  0.4614232E+02  0.7816164E-02  0.1320468E+00
        -11   -1    0    0    0    0  0.00000000000E+00  0.00000000000E+00  0.45593999997E+02  0.45594000000E+02  0.51100000000E-03 0. -1.
         11   -1    0    0    0    0 -0.00000000000E+00 -0.00000000000E+00 -0.45593999997E+02  0.45594000000E+02  0.51100000000E-03 0.  1.
    9900012    2    1    2    0    0 -0.40772974083E+02  0.14402176879E+02  0.12619637886E+02  0.46142319022E+02  0.10000011493E+02 0.  0.
        -12    1    1    2    0    0  0.40772974083E+02 -0.14402176879E+02 -0.12619637886E+02  0.45045680978E+02  0.00000000000E+00 0.  1.
         11    1    3    3    0    0 -0.17705846888E+02  0.76400730231E+01  0.34049001483E+01  0.19582162166E+02  0.51100000000E-03 0. -1.
        -11    1    3    3    0    0 -0.38517864460E+01  0.27651939071E+01  0.41238903496E+01  0.62840296026E+01  0.51100000000E-03 0.  1.
         12    1    3    3    0    0 -0.19215340749E+02  0.39969099490E+01  0.50908473884E+01  0.20276127252E+02  0.00000000000E+00 0. -1.
</event>
<event>
 7    1  0.1543346E-008  0.4614232E+02  0.7816164E-02  0.1320468E+00
        -11   -1    0    0    0    0  0.00000000000E+00  0.00000000000E+00  0.45593999997E+02  0.45594000000E+02  0.51100000000E-03 0.  1.
         11   -1    0    0    0    0 -0.00000000000E+00 -0.00000000000E+00 -0.45593999997E+02  0.45594000000E+02  0.51100000000E-03 0. -1.
    9900012    2    1    2    0    0 -0.17190182803E+02  0.33019083266E+02  0.25364370562E+02  0.46142317204E+02  0.99999949203E+01 0.  0.
        -12    1    1    2    0    0  0.17190182803E+02 -0.33019083266E+02 -0.25364370562E+02  0.45045682796E+02  0.00000000000E+00 0.  1.
         11    1    3    3    0    0 -0.13137642803E+02  0.18263383503E+02  0.15655537241E+02  0.27408843135E+02  0.51100000000E-03 0. -1.
        -11    1    3    3    0    0 -0.17840990475E+01  0.10075239877E+02  0.87101289110E+01  0.13437254701E+02  0.51100000000E-03 0.  1.
        -12    1    3    3    0    0 -0.22684409523E+01  0.46804598864E+01  0.99870440966E+00  0.52962193686E+01  0.00000000000E+00 0.  1.
</event>
<event>
 7    1  0.1543346E-008  0.4614232E+02  0.7816164E-02  0.1320468E+00
        -11   -1    0    0    0    0  0.00000000000E+00  0.00000000000E+00  0.45593999997E+02  0.45594000000E+02  0.51100000000E-03 0. -1.
         11   -1    0    0    0    0 -0.00000000000E+00 -0.00000000000E+00 -0.45593999997E+02  0.45594000000E+02  0.51100000000E-03 0.  1.
    9900012    2    1    2    0    0 -0.40809326686E+02 -0.17313797682E+02  0.79965471588E+01  0.46142317619E+02  0.99999987013E+01 0.  0.
        -12    1    1    2    0    0  0.40809326686E+02  0.17313797682E+02 -0.79965471588E+01  0.45045682381E+02  0.00000000000E+00 0.  1.
         11    1    3    3    0    0 -0.21411185095E+02 -0.81080220756E+01  0.26478855253E+01  0.23047563150E+02  0.51100000000E-03 0. -1.
        -11    1    3    3    0    0 -0.13862499428E+02 -0.93672581808E+01  0.53219406935E+01  0.17556693003E+02  0.51100000000E-03 0.  1.
        -12    1    3    3    0    0 -0.55356421637E+01  0.16148257429E+00  0.26720940001E-01  0.55380614654E+01  0.00000000000E+00 0.  1.
</event>
<event>
 7    1  0.1543346E-008  0.4614231E+02  0.7816164E-02  0.1320468E+00
        -11   -1    0    0    0    0  0.00000000000E+00  0.00000000000E+00  0.45593999997E+02  0.45594000000E+02  0.51100000000E-03 0.  1.
         11   -1    0    0    0    0 -0.00000000000E+00 -0.00000000000E+00 -0.45593999997E+02  0.45594000000E+02  0.51100000000E-03 0. -1.
    9900012    2    1    2    0    0 -0.19292588114E+01 -0.35524847612E+01 -0.44863922919E+02  0.46142314666E+02  0.99999717793E+01 0.  0.
        -12    1    1    2    0    0  0.19292588114E+01  0.35524847612E+01  0.44863922919E+02  0.45045685334E+02  0.00000000000E+00 0.  1.
         11    1    3    3    0    0 -0.12047955493E+01  0.19831047206E+01 -0.28902425740E+02  0.28995421200E+02  0.51100000000E-03 0. -1.
        -11    1    3    3    0    0  0.78801619307E+00 -0.33306560566E+01 -0.69493920513E+01  0.77465017545E+01  0.51100000000E-03 0.  1.
         12    1    3    3    0    0 -0.15124794552E+01 -0.22049334252E+01 -0.90121051268E+01  0.94003917114E+01  0.00000000000E+00 0. -1.
</event>
<event>
 7    1  0.1543346E-008  0.4614232E+02  0.7816164E-02  0.1320468E+00
        -11   -1    0    0    0    0  0.00000000000E+00  0.00000000000E+00  0.45593999997E+02  0.45594000000E+02  0.51100000000E-03 0.  1.
         11   -1    0    0    0    0 -0.00000000000E+00 -0.00000000000E+00 -0.45593999997E+02  0.45594000000E+02  0.51100000000E-03 0. -1.
    9900012    2    1    2    0    0  0.18642800606E+02 -0.20075397293E+02 -0.35756648288E+02  0.46142317768E+02  0.10000000067E+02 0.  0.
        -12    1    1    2    0    0 -0.18642800606E+02  0.20075397293E+02  0.35756648288E+02  0.45045682232E+02  0.00000000000E+00 0.  1.
         11    1    3    3    0    0  0.11674120776E+02 -0.13719623586E+02 -0.21614871040E+02  0.28137445114E+02  0.51100000000E-03 0. -1.
        -11    1    3    3    0    0 -0.14935640721E+00 -0.34261509471E+01 -0.39063752304E+01  0.51981328716E+01  0.51100000000E-03 0.  1.
         12    1    3    3    0    0  0.71180362376E+01 -0.29296227598E+01 -0.10235402018E+02  0.12806739782E+02  0.00000000000E+00 0. -1.
</event>
<event>
 7    1  0.1543346E-008  0.4614232E+02  0.7816164E-02  0.1320468E+00
        -11   -1    0    0    0    0  0.00000000000E+00  0.00000000000E+00  0.45593999997E+02  0.45594000000E+02  0.51100000000E-03 0. -1.
         11   -1    0    0    0    0 -0.00000000000E+00 -0.00000000000E+00 -0.45593999997E+02  0.45594000000E+02  0.51100000000E-03 0.  1.
    9900012    2    1    2    0    0 -0.51316558198E+01  0.10370454686E+02  0.43534275870E+02  0.46142318771E+02  0.10000009213E+02 0.  0.
        -12    1    1    2    0    0  0.51316558198E+01 -0.10370454686E+02 -0.43534275870E+02  0.45045681229E+02  0.00000000000E+00 0.  1.
         11    1    3    3    0    0 -0.11856868834E+00  0.14114465499E+01  0.24961608516E+00  0.14382448846E+01  0.51100000000E-03 0. -1.
        -11    1    3    3    0    0 -0.17957176775E+01  0.24177461152E+01  0.59994235826E+01  0.67129115769E+01  0.51100000000E-03 0.  1.
         12    1    3    3    0    0 -0.32173694540E+01  0.65412620204E+01  0.37285236202E+02  0.37991162310E+02  0.00000000000E+00 0. -1.
</event>
<event>
 7    1  0.1543346E-008  0.4614232E+02  0.7816164E-02  0.1320468E+00
        -11   -1    0    0    0    0  0.00000000000E+00  0.00000000000E+00  0.45593999997E+02  0.45594000000E+02  0.51100000000E-03 0.  1.
         11   -1    0    0    0    0 -0.00000000000E+00 -0.00000000000E+00 -0.45593999997E+02  0.45594000000E+02  0.51100000000E-03 0. -1.
    9900012    2    1    2    0    0  0.29665027316E+02  0.30528128480E+02  0.14735433520E+02  0.46142317908E+02  0.10000001338E+02 0.  0.
        -12    1    1    2    0    0 -0.29665027316E+02 -0.30528128480E+02 -0.14735433520E+02  0.45045682092E+02  0.00000000000E+00 0.  1.
         11    1    3    3    0    0  0.14126948161E+02  0.11323963174E+02  0.95118010099E+01  0.20451825469E+02  0.51100000000E-03 0. -1.
        -11    1    3    3    0    0  0.15743457768E+01  0.48847255933E+01  0.14910855586E+01  0.53443844501E+01  0.51100000000E-03 0.  1.
        -12    1    3    3    0    0  0.13963733378E+02  0.14319439713E+02  0.37325469517E+01  0.20346107989E+02  0.00000000000E+00 0.  1.
</event>
<event>
 7    1  0.1543346E-008  0.4614232E+02  0.7816164E-02  0.1320468E+00
        -11   -1    0    0    0    0  0.00000000000E+00  0.00000000000E+00  0.45593999997E+02  0.45594000000E+02  0.51100000000E-03 0.  1.
         11   -1    0    0    0    0 -0.00000000000E+00 -0.00000000000E+00 -0.45593999997E+02  0.45594000000E+02  0.51100000000E-03 0. -1.
    9900012    2    1    2    0    0 -0.31937596354E+02  0.20881676629E+01 -0.31697681064E+02  0.46142317744E+02  0.99999998412E+01 0.  0.
        -12    1    1    2    0    0  0.31937596354E+02 -0.20881676629E+01  0.31697681064E+02  0.45045682256E+02  0.00000000000E+00 0.  1.
         11    1    3    3    0    0 -0.23596222841E+02  0.11805969464E+00 -0.21212039665E+02  0.31729265630E+02  0.51100000000E-03 0. -1.
        -11    1    3    3    0    0 -0.59884721371E+01  0.23140169775E+01 -0.10152303323E+02  0.12011899772E+02  0.51100000000E-03 0.  1.
        -12    1    3    3    0    0 -0.23529013767E+01 -0.34390900922E+00 -0.33333807699E+00  0.24011523418E+01  0.00000000000E+00 0.  1.
</event>
<event>
 7    1  0.1543346E-008  0.4614232E+02  0.7816164E-02  0.1320468E+00
        -11   -1    0    0    0    0  0.00000000000E+00  0.00000000000E+00  0.45593999997E+02  0.45594000000E+02  0.51100000000E-03 0.  1.
         11   -1    0    0    0    0 -0.00000000000E+00 -0.00000000000E+00 -0.45593999997E+02  0.45594000000E+02  0.51100000000E-03 0. -1.
    9900012    2    1    2    0    0  0.58782597761E+01  0.19242491518E+02 -0.40302432522E+02  0.46142317798E+02  0.10000000338E+02 0.  0.
        -12    1    1    2    0    0 -0.58782597761E+01 -0.19242491518E+02  0.40302432522E+02  0.45045682202E+02  0.00000000000E+00 0.  1.
         11    1    3    3    0    0  0.15203072883E+01  0.10954260527E+02 -0.15623324493E+02  0.19141458315E+02  0.51100000000E-03 0. -1.
        -11    1    3    3    0    0  0.28202832174E+01  0.56612616659E+01 -0.22174764532E+02  0.23059142729E+02  0.51100000000E-03 0.  1.
        -12    1    3    3    0    0  0.15376692704E+01  0.26269693258E+01 -0.25043434971E+01  0.39417167548E+01  0.00000000000E+00 0.  1.
</event>
<event>
 7    1  0.1543346E-008  0.4614232E+02  0.7816164E-02  0.1320468E+00
        -11   -1    0    0    0    0  0.00000000000E+00  0.00000000000E+00  0.45593999997E+02  0.45594000000E+02  0.51100000000E-03 0.  1.
         11   -1    0    0    0    0 -0.00000000000E+00 -0.00000000000E+00 -0.45593999997E+02  0.45594000000E+02  0.51100000000E-03 0. -1.
    9900012    2    1    2    0    0  0.34783115123E+02 -0.51997733236E+01 -0.28146239117E+02  0.46142317446E+02  0.99999971288E+01 0.  0.
        -12    1    1    2    0    0 -0.34783115123E+02  0.51997733236E+01  0.28146239117E+02  0.45045682554E+02  0.00000000000E+00 0.  1.
         11    1    3    3    0    0  0.21030063526E+02 -0.59044865276E+01 -0.16095073830E+02  0.27132599118E+02  0.51100000000E-03 0. -1.
        -11    1    3    3    0    0  0.77106954866E+01  0.21764313991E+01 -0.91049289032E+01  0.12128124716E+02  0.51100000000E-03 0.  1.
         12    1    3    3    0    0  0.60423561111E+01 -0.14717181950E+01 -0.29462363833E+01  0.68815936123E+01  0.00000000000E+00 0. -1.
</event>
<event>
 7    1  0.1543346E-008  0.4614232E+02  0.7816164E-02  0.1320468E+00
        -11   -1    0    0    0    0  0.00000000000E+00  0.00000000000E+00  0.45593999997E+02  0.45594000000E+02  0.51100000000E-03 0.  1.
         11   -1    0    0    0    0 -0.00000000000E+00 -0.00000000000E+00 -0.45593999997E+02  0.45594000000E+02  0.51100000000E-03 0. -1.
    9900012    2    1    2    0    0 -0.14399708571E+02  0.22622894782E+02 -0.36193459202E+02  0.46142318029E+02  0.10000002440E+02 0.  0.
        -12    1    1    2    0    0  0.14399708571E+02 -0.22622894782E+02  0.36193459202E+02  0.45045681971E+02  0.00000000000E+00 0.  1.
         11    1    3    3    0    0 -0.29809601094E+01  0.70105602529E+01 -0.77816410020E+01  0.10889812449E+02  0.51100000000E-03 0. -1.
        -11    1    3    3    0    0 -0.12566294659E+02  0.14964929328E+02 -0.26870989942E+02  0.33225155711E+02  0.51100000000E-03 0.  1.
        -12    1    3    3    0    0  0.11475461977E+01  0.64740520109E+00 -0.15408282580E+01  0.20273498689E+01  0.00000000000E+00 0.  1.
</event>
<event>
 7    1  0.1543346E-008  0.4614232E+02  0.7816164E-02  0.1320468E+00
        -11   -1    0    0    0    0  0.00000000000E+00  0.00000000000E+00  0.45593999997E+02  0.45594000000E+02  0.51100000000E-03 0.  1.
         11   -1    0    0    0    0 -0.00000000000E+00 -0.00000000000E+00 -0.45593999997E+02  0.45594000000E+02  0.51100000000E-03 0. -1.
    9900012    2    1    2    0    0 -0.19758233977E+02 -0.38926490738E+02 -0.11110983991E+02  0.46142318117E+02  0.10000003247E+02 0.  0.
        -12    1    1    2    0    0  0.19758233977E+02  0.38926490738E+02  0.11110983991E+02  0.45045681883E+02  0.00000000000E+00 0.  1.
         11    1    3    3    0    0 -0.80000263743E+01 -0.16501712973E+02 -0.73114777316E+01  0.19742458305E+02  0.51100000000E-03 0. -1.
        -11    1    3    3    0    0 -0.51677583331E+01 -0.13859910419E+02  0.42100748000E+00  0.14797975894E+02  0.51100000000E-03 0.  1.
        -12    1    3    3    0    0 -0.65904492696E+01 -0.85648673456E+01 -0.42205137398E+01  0.11601883918E+02  0.00000000000E+00 0.  1.
</event>
<event>
 7    1  0.1543346E-008  0.4614232E+02  0.7816164E-02  0.1320468E+00
        -11   -1    0    0    0    0  0.00000000000E+00  0.00000000000E+00  0.45593999997E+02  0.45594000000E+02  0.51100000000E-03 0.  1.
         11   -1    0    0    0    0 -0.00000000000E+00 -0.00000000000E+00 -0.45593999997E+02  0.45594000000E+02  0.51100000000E-03 0. -1.
    9900012    2    1    2    0    0 -0.23804106316E+02  0.37523184178E+02 -0.73816439528E+01  0.46142317678E+02  0.99999992466E+01 0.  0.
        -12    1    1    2    0    0  0.23804106316E+02 -0.37523184178E+02  0.73816439528E+01  0.45045682322E+02  0.00000000000E+00 0.  1.
         11    1    3    3    0    0 -0.76230804048E+01  0.12682357681E+02 -0.28092504523E+01  0.15061389032E+02  0.51100000000E-03 0. -1.
        -11    1    3    3    0    0 -0.11622584244E+02  0.11577841565E+02 -0.46669623262E+01  0.17056125510E+02  0.51100000000E-03 0.  1.
        -12    1    3    3    0    0 -0.45584416671E+01  0.13262984932E+02  0.94568825651E-01  0.14024803136E+02  0.00000000000E+00 0.  1.
</event>
<event>
 7    1  0.1543346E-008  0.4614232E+02  0.7816164E-02  0.1320468E+00
        -11   -1    0    0    0    0  0.00000000000E+00  0.00000000000E+00  0.45593999997E+02  0.45594000000E+02  0.51100000000E-03 0. -1.
         11   -1    0    0    0    0 -0.00000000000E+00 -0.00000000000E+00 -0.45593999997E+02  0.45594000000E+02  0.51100000000E-03 0.  1.
    9900012    2    1    2    0    0 -0.12193388140E+02 -0.28021249958E+02  0.33094475850E+02  0.46142317684E+02  0.99999993008E+01 0.  0.
        -12    1    1    2    0    0  0.12193388140E+02  0.28021249958E+02 -0.33094475850E+02  0.45045682316E+02  0.00000000000E+00 0.  1.
         11    1    3    3    0    0 -0.98877744933E+01 -0.22097847584E+02  0.29927587666E+02  0.38493420945E+02  0.51100000000E-03 0. -1.
        -11    1    3    3    0    0 -0.10116923233E+01 -0.54119677104E+01  0.20882981969E+01  0.58884552708E+01  0.51100000000E-03 0.  1.
         12    1    3    3    0    0 -0.12939213231E+01 -0.51143466311E+00  0.10785899867E+01  0.17604414686E+01  0.00000000000E+00 0. -1.
</event>
<event>
 7    1  0.1543346E-008  0.4614232E+02  0.7816164E-02  0.1320468E+00
        -11   -1    0    0    0    0  0.00000000000E+00  0.00000000000E+00  0.45593999997E+02  0.45594000000E+02  0.51100000000E-03 0. -1.
         11   -1    0    0    0    0 -0.00000000000E+00 -0.00000000000E+00 -0.45593999997E+02  0.45594000000E+02  0.51100000000E-03 0.  1.
    9900012    2    1    2    0    0 -0.16508968706E+02  0.38104471008E+02  0.17453277733E+02  0.46142315832E+02  0.99999824108E+01 0.  0.
        -12    1    1    2    0    0  0.16508968706E+02 -0.38104471008E+02 -0.17453277733E+02  0.45045684168E+02  0.00000000000E+00 0.  1.
         11    1    3    3    0    0 -0.10717491820E+02  0.26539026844E+02  0.11695876670E+02  0.30918895648E+02  0.51100000000E-03 0. -1.
        -11    1    3    3    0    0  0.66463757706E+00  0.14017078386E+01  0.21548263363E+01  0.26551468461E+01  0.51100000000E-03 0.  1.
         12    1    3    3    0    0 -0.64561144624E+01  0.10163736325E+02  0.36025747263E+01  0.12568273338E+02  0.00000000000E+00 0. -1.
</event>
<event>
 7    1  0.1543346E-008  0.4614232E+02  0.7816164E-02  0.1320468E+00
        -11   -1    0    0    0    0  0.00000000000E+00  0.00000000000E+00  0.45593999997E+02  0.45594000000E+02  0.51100000000E-03 0.  1.
         11   -1    0    0    0    0 -0.00000000000E+00 -0.00000000000E+00 -0.45593999997E+02  0.45594000000E+02  0.51100000000E-03 0. -1.
    9900012    2    1    2    0    0  0.25247517868E+02 -0.23383343889E+01 -0.37231822440E+02  0.46142316873E+02  0.99999918970E+01 0.  0.
        -12    1    1    2    0    0 -0.25247517868E+02  0.23383343889E+01  0.37231822440E+02  0.45045683127E+02  0.00000000000E+00 0.  1.
         11    1    3    3    0    0  0.18968169416E+02  0.88717228390E+00 -0.20958808765E+02  0.28281622845E+02  0.51100000000E-03 0. -1.
        -11    1    3    3    0    0  0.16056749758E+00 -0.50119883733E+00 -0.50627688739E+00  0.73027306102E+00  0.51100000000E-03 0.  1.
         12    1    3    3    0    0  0.61187809549E+01 -0.27243078355E+01 -0.15766736787E+02  0.17130420966E+02  0.00000000000E+00 0. -1.
</event>
<event>
 7    1  0.1543346E-008  0.4614232E+02  0.7816164E-02  0.1320468E+00
        -11   -1    0    0    0    0  0.00000000000E+00  0.00000000000E+00  0.45593999997E+02  0.45594000000E+02  0.51100000000E-03 0. -1.
         11   -1    0    0    0    0 -0.00000000000E+00 -0.00000000000E+00 -0.45593999997E+02  0.45594000000E+02  0.51100000000E-03 0.  1.
    9900012    2    1    2    0    0  0.40238877773E+02  0.20114431725E+02  0.23142751638E+01  0.46142317436E+02  0.99999970397E+01 0.  0.
        -12    1    1    2    0    0 -0.40238877773E+02 -0.20114431725E+02 -0.23142751638E+01  0.45045682564E+02  0.00000000000E+00 0.  1.
         11    1    3    3    0    0  0.25777434499E+02  0.10278940475E+02  0.36674133336E+01  0.27992546641E+02  0.51100000000E-03 0. -1.
        -11    1    3    3    0    0 -0.25299297523E+00  0.73529837512E+00 -0.23604514388E+00  0.81264181349E+00  0.51100000000E-03 0.  1.
         12    1    3    3    0    0  0.14714436249E+02  0.91001928748E+01 -0.11170930259E+01  0.17337128982E+02  0.00000000000E+00 0. -1.
</event>
<event>
 7    1  0.1543346E-008  0.4614232E+02  0.7816164E-02  0.1320468E+00
        -11   -1    0    0    0    0  0.00000000000E+00  0.00000000000E+00  0.45593999997E+02  0.45594000000E+02  0.51100000000E-03 0.  1.
         11   -1    0    0    0    0 -0.00000000000E+00 -0.00000000000E+00 -0.45593999997E+02  0.45594000000E+02  0.51100000000E-03 0. -1.
    9900012    2    1    2    0    0 -0.11289596102E+02  0.36377442038E+02 -0.24048705423E+02  0.46142317611E+02  0.99999986315E+01 0.  0.
        -12    1    1    2    0    0  0.11289596102E+02 -0.36377442038E+02  0.24048705423E+02  0.45045682389E+02  0.00000000000E+00 0.  1.
         11    1    3    3    0    0 -0.34883802445E+01  0.10158254029E+02 -0.95751438487E+01  0.14388964578E+02  0.51100000000E-03 0. -1.
        -11    1    3    3    0    0 -0.42124699235E+01  0.79500397005E+01 -0.16525534047E+01  0.91476208444E+01  0.51100000000E-03 0.  1.
        -12    1    3    3    0    0 -0.35887459338E+01  0.18269148308E+02 -0.12821008170E+02  0.22605732188E+02  0.00000000000E+00 0.  1.
</event>
<event>
 7    1  0.1543346E-008  0.4614232E+02  0.7816164E-02  0.1320468E+00
        -11   -1    0    0    0    0  0.00000000000E+00  0.00000000000E+00  0.45593999997E+02  0.45594000000E+02  0.51100000000E-03 0. -1.
         11   -1    0    0    0    0 -0.00000000000E+00 -0.00000000000E+00 -0.45593999997E+02  0.45594000000E+02  0.51100000000E-03 0.  1.
    9900012    2    1    2    0    0 -0.42606243454E+02  0.13927096903E+02  0.44561897414E+01  0.46142316118E+02  0.99999850189E+01 0.  0.
        -12    1    1    2    0    0  0.42606243454E+02 -0.13927096903E+02 -0.44561897414E+01  0.45045683882E+02  0.00000000000E+00 0.  1.
         11    1    3    3    0    0 -0.70171522023E+01  0.29891342122E+01 -0.87966842300E+00  0.76778359689E+01  0.51100000000E-03 0. -1.
        -11    1    3    3    0    0 -0.90626128237E+01  0.43964537723E+01 -0.17871965864E+01  0.10230045399E+02  0.51100000000E-03 0.  1.
        -12    1    3    3    0    0 -0.26526478427E+02  0.65415089183E+01  0.71230547508E+01  0.28234434750E+02  0.00000000000E+00 0.  1.
</event>
<event>
 7    1  0.1543346E-008  0.4614232E+02  0.7816164E-02  0.1320468E+00
        -11   -1    0    0    0    0  0.00000000000E+00  0.00000000000E+00  0.45593999997E+02  0.45594000000E+02  0.51100000000E-03 0.  1.
         11   -1    0    0    0    0 -0.00000000000E+00 -0.00000000000E+00 -0.45593999997E+02  0.45594000000E+02  0.51100000000E-03 0. -1.
    9900012    2    1    2    0    0 -0.27118400582E+02  0.15875943556E+02 -0.32274760942E+02  0.46142318434E+02  0.10000006134E+02 0.  0.
        -12    1    1    2    0    0  0.27118400582E+02 -0.15875943556E+02  0.32274760942E+02  0.45045681566E+02  0.00000000000E+00 0.  1.
         11    1    3    3    0    0 -0.83049531542E+01  0.46083680746E+01 -0.87952395200E+01  0.12944710954E+02  0.51100000000E-03 0.  1.
        -11    1    3    3    0    0 -0.61753267080E+01  0.58967543793E+01 -0.41678541792E+01  0.95014409897E+01  0.51100000000E-03 0. -1.
        -12    1    3    3    0    0 -0.12638120719E+02  0.53708211017E+01 -0.19311667243E+02  0.23696166490E+02  0.00000000000E+00 0.  1.
</event>
<event>
 7    1  0.1543346E-008  0.4614232E+02  0.7816164E-02  0.1320468E+00
        -11   -1    0    0    0    0  0.00000000000E+00  0.00000000000E+00  0.45593999997E+02  0.45594000000E+02  0.51100000000E-03 0. -1.
         11   -1    0    0    0    0 -0.00000000000E+00 -0.00000000000E+00 -0.45593999997E+02  0.45594000000E+02  0.51100000000E-03 0.  1.
    9900012    2    1    2    0    0 -0.41588553422E+02  0.13961857920E+02  0.10226057209E+02  0.46142317650E+02  0.99999989886E+01 0.  0.
        -12    1    1    2    0    0  0.41588553422E+02 -0.13961857920E+02 -0.10226057209E+02  0.45045682350E+02  0.00000000000E+00 0.  1.
         11    1    3    3    0    0 -0.13548634394E+02  0.47366974715E+01  0.22438868708E+01  0.14527106574E+02  0.51100000000E-03 0. -1.
        -11    1    3    3    0    0 -0.13935304111E+02  0.85990525527E+01  0.55426744714E+01  0.17287499704E+02  0.51100000000E-03 0.  1.
        -12    1    3    3    0    0 -0.14104614917E+02  0.62610789599E+00  0.24394958665E+01  0.14327711371E+02  0.00000000000E+00 0.  1.
</event>
<event>
 7    1  0.1543346E-008  0.4614232E+02  0.7816164E-02  0.1320468E+00
        -11   -1    0    0    0    0  0.00000000000E+00  0.00000000000E+00  0.45593999997E+02  0.45594000000E+02  0.51100000000E-03 0.  1.
         11   -1    0    0    0    0 -0.00000000000E+00 -0.00000000000E+00 -0.45593999997E+02  0.45594000000E+02  0.51100000000E-03 0. -1.
    9900012    2    1    2    0    0 -0.34169803808E+02 -0.19592973513E+02 -0.21855282686E+02  0.46142317802E+02  0.10000000377E+02 0.  0.
        -12    1    1    2    0    0  0.34169803808E+02  0.19592973513E+02  0.21855282686E+02  0.45045682198E+02  0.00000000000E+00 0.  1.
         11    1    3    3    0    0 -0.16613567279E+02 -0.13190436224E+02 -0.97187465867E+01  0.23333500831E+02  0.51100000000E-03 0. -1.
        -11    1    3    3    0    0 -0.13382950996E+02 -0.51251063201E+01 -0.11548759798E+02  0.18404997834E+02  0.51100000000E-03 0.  1.
        -12    1    3    3    0    0 -0.41732855327E+01 -0.12774309682E+01 -0.58777630206E+00  0.44038191376E+01  0.00000000000E+00 0.  1.
</event>
<event>
 7    1  0.1543346E-008  0.4614232E+02  0.7816164E-02  0.1320468E+00
        -11   -1    0    0    0    0  0.00000000000E+00  0.00000000000E+00  0.45593999997E+02  0.45594000000E+02  0.51100000000E-03 0.  1.
         11   -1    0    0    0    0 -0.00000000000E+00 -0.00000000000E+00 -0.45593999997E+02  0.45594000000E+02  0.51100000000E-03 0. -1.
    9900012    2    1    2    0    0  0.15114267290E+01  0.14558513721E+02 -0.42601393525E+02  0.46142318045E+02  0.10000002588E+02 0.  0.
        -12    1    1    2    0    0 -0.15114267290E+01 -0.14558513721E+02  0.42601393525E+02  0.45045681955E+02  0.00000000000E+00 0.  1.
         11    1    3    3    0    0  0.18376129148E+01  0.18063980470E+01 -0.85939513730E+01  0.89719504898E+01  0.51100000000E-03 0. -1.
        -11    1    3    3    0    0  0.35420539653E+01  0.41780733221E+01 -0.10317213401E+02  0.11681067400E+02  0.51100000000E-03 0.  1.
         12    1    3    3    0    0 -0.38682401512E+01  0.85740423522E+01 -0.23690228751E+02  0.25489300155E+02  0.00000000000E+00 0. -1.
</event>
<event>
 7    1  0.1543346E-008  0.4614232E+02  0.7816164E-02  0.1320468E+00
        -11   -1    0    0    0    0  0.00000000000E+00  0.00000000000E+00  0.45593999997E+02  0.45594000000E+02  0.51100000000E-03 0.  1.
         11   -1    0    0    0    0 -0.00000000000E+00 -0.00000000000E+00 -0.45593999997E+02  0.45594000000E+02  0.51100000000E-03 0. -1.
    9900012    2    1    2    0    0 -0.10587051565E+02 -0.42498072968E+02 -0.10532888846E+02  0.46142316363E+02  0.99999872554E+01 0.  0.
        -12    1    1    2    0    0  0.10587051565E+02  0.42498072968E+02  0.10532888846E+02  0.45045683637E+02  0.00000000000E+00 0.  1.
         11    1    3    3    0    0 -0.44429918144E+01 -0.10763498389E+02 -0.17715113601E+01  0.11778426320E+02  0.51100000000E-03 0. -1.
        -11    1    3    3    0    0 -0.74627548177E+01 -0.29962236889E+02 -0.73433397964E+01  0.31738824623E+02  0.51100000000E-03 0.  1.
        -12    1    3    3    0    0  0.13186950671E+01 -0.17723376907E+01 -0.14180376891E+01  0.26250654197E+01  0.00000000000E+00 0.  1.
</event>
<event>
 7    1  0.1543346E-008  0.4614232E+02  0.7816164E-02  0.1320468E+00
        -11   -1    0    0    0    0  0.00000000000E+00  0.00000000000E+00  0.45593999997E+02  0.45594000000E+02  0.51100000000E-03 0. -1.
         11   -1    0    0    0    0 -0.00000000000E+00 -0.00000000000E+00 -0.45593999997E+02  0.45594000000E+02  0.51100000000E-03 0.  1.
    9900012    2    1    2    0    0  0.19567990499E+02 -0.40219974589E+02  0.53442358336E+01  0.46142318023E+02  0.10000002388E+02 0.  0.
        -12    1    1    2    0    0 -0.19567990499E+02  0.40219974589E+02 -0.53442358336E+01  0.45045681977E+02  0.00000000000E+00 0.  1.
         11    1    3    3    0    0  0.11003625179E+02 -0.22815576757E+02  0.64414640873E+01  0.26136617411E+02  0.51100000000E-03 0. -1.
        -11    1    3    3    0    0  0.61354326253E+01 -0.90071081395E+01 -0.24226641182E+01  0.11164265862E+02  0.51100000000E-03 0.  1.
        -12    1    3    3    0    0  0.24289326949E+01 -0.83972896927E+01  0.13254358645E+01  0.88414347507E+01  0.00000000000E+00 0.  1.
</event>
<event>
 7    1  0.1543346E-008  0.4614232E+02  0.7816164E-02  0.1320468E+00
        -11   -1    0    0    0    0  0.00000000000E+00  0.00000000000E+00  0.45593999997E+02  0.45594000000E+02  0.51100000000E-03 0. -1.
         11   -1    0    0    0    0 -0.00000000000E+00 -0.00000000000E+00 -0.45593999997E+02  0.45594000000E+02  0.51100000000E-03 0.  1.
    9900012    2    1    2    0    0  0.24071136106E+02  0.24633418420E+01  0.37995076588E+02  0.46142317728E+02  0.99999996935E+01 0.  0.
        -12    1    1    2    0    0 -0.24071136106E+02 -0.24633418420E+01 -0.37995076588E+02  0.45045682272E+02  0.00000000000E+00 0.  1.
         11    1    3    3    0    0  0.11954609624E+02  0.45248892662E+01  0.15638868889E+02  0.20198057692E+02  0.51100000000E-03 0. -1.
        -11    1    3    3    0    0  0.13125686102E+01  0.91370197065E+00  0.53007649365E+01  0.55367677232E+01  0.51100000000E-03 0.  1.
         12    1    3    3    0    0  0.10803957872E+02 -0.29752493949E+01  0.17055442762E+02  0.20407492313E+02  0.00000000000E+00 0. -1.
</event>
<event>
 7    1  0.1543346E-008  0.4614232E+02  0.7816164E-02  0.1320468E+00
        -11   -1    0    0    0    0  0.00000000000E+00  0.00000000000E+00  0.45593999997E+02  0.45594000000E+02  0.51100000000E-03 0.  1.
         11   -1    0    0    0    0 -0.00000000000E+00 -0.00000000000E+00 -0.45593999997E+02  0.45594000000E+02  0.51100000000E-03 0. -1.
    9900012    2    1    2    0    0  0.23163994567E+01  0.24579202522E+02 -0.37677720366E+02  0.46142317465E+02  0.99999972994E+01 0.  0.
        -12    1    1    2    0    0 -0.23163994567E+01 -0.24579202522E+02  0.37677720366E+02  0.45045682535E+02  0.00000000000E+00 0.  1.
         11    1    3    3    0    0  0.35088463900E+01  0.51066864018E+01 -0.14003567385E+02  0.15313071174E+02  0.51100000000E-03 0. -1.
        -11    1    3    3    0    0 -0.55929797346E+00  0.26537973433E+01 -0.19128472909E+01  0.33188009253E+01  0.51100000000E-03 0.  1.
         12    1    3    3    0    0 -0.63314895986E+00  0.16818718777E+02 -0.21761305690E+02  0.27510445366E+02  0.00000000000E+00 0. -1.
</event>
<event>
 7    1  0.1543346E-008  0.4614232E+02  0.7816164E-02  0.1320468E+00
        -11   -1    0    0    0    0  0.00000000000E+00  0.00000000000E+00  0.45593999997E+02  0.45594000000E+02  0.51100000000E-03 0.  1.
         11   -1    0    0    0    0 -0.00000000000E+00 -0.00000000000E+00 -0.45593999997E+02  0.45594000000E+02  0.51100000000E-03 0. -1.
    9900012    2    1    2    0    0  0.15241811730E+01 -0.43396477153E+02 -0.11980656908E+02  0.46142317659E+02  0.99999990731E+01 0.  0.
        -12    1    1    2    0    0 -0.15241811730E+01  0.43396477153E+02  0.11980656908E+02  0.45045682341E+02  0.00000000000E+00 0.  1.
         11    1    3    3    0    0 -0.71831784729E+00 -0.73595189498E+00  0.69762176869E+00  0.12426914801E+01  0.51100000000E-03 0. -1.
        -11    1    3    3    0    0  0.23531251545E+01 -0.17483108288E+02 -0.28392878550E+01  0.17867787473E+02  0.51100000000E-03 0.  1.
         12    1    3    3    0    0 -0.11062613421E+00 -0.25177416971E+02 -0.98389908217E+01  0.27031838706E+02  0.00000000000E+00 0. -1.
</event>
<event>
 7    1  0.1543346E-008  0.4614232E+02  0.7816164E-02  0.1320468E+00
        -11   -1    0    0    0    0  0.00000000000E+00  0.00000000000E+00  0.45593999997E+02  0.45594000000E+02  0.51100000000E-03 0. -1.
         11   -1    0    0    0    0 -0.00000000000E+00 -0.00000000000E+00 -0.45593999997E+02  0.45594000000E+02  0.51100000000E-03 0.  1.
    9900012    2    1    2    0    0 -0.40762094730E+02  0.10879690701E+02  0.15785990159E+02  0.46142317390E+02  0.99999966122E+01 0.  0.
        -12    1    1    2    0    0  0.40762094730E+02 -0.10879690701E+02 -0.15785990159E+02  0.45045682610E+02  0.00000000000E+00 0.  1.
         11    1    3    3    0    0 -0.10545137961E+02  0.52413438652E+01  0.12839911589E+01  0.11845685024E+02  0.51100000000E-03 0. -1.
        -11    1    3    3    0    0 -0.52828163614E+01 -0.49088311691E+00  0.35397548713E+01  0.63780075065E+01  0.51100000000E-03 0.  1.
         12    1    3    3    0    0 -0.24934140407E+02  0.61292299528E+01  0.10962244129E+02  0.27918624859E+02  0.00000000000E+00 0. -1.
</event>
<event>
 7    1  0.1543346E-008  0.4614232E+02  0.7816164E-02  0.1320468E+00
        -11   -1    0    0    0    0  0.00000000000E+00  0.00000000000E+00  0.45593999997E+02  0.45594000000E+02  0.51100000000E-03 0. -1.
         11   -1    0    0    0    0 -0.00000000000E+00 -0.00000000000E+00 -0.45593999997E+02  0.45594000000E+02  0.51100000000E-03 0.  1.
    9900012    2    1    2    0    0  0.25160646929E+02  0.31707216169E+02  0.19766328719E+02  0.46142318052E+02  0.10000002653E+02 0.  0.
        -12    1    1    2    0    0 -0.25160646929E+02 -0.31707216169E+02 -0.19766328719E+02  0.45045681948E+02  0.00000000000E+00 0.  1.
         11    1    3    3    0    0  0.11395102931E+01  0.25512668464E+01  0.39057328849E+01  0.48023115120E+01  0.51100000000E-03 0. -1.
        -11    1    3    3    0    0  0.14333597212E+02  0.21446453177E+02  0.10656537098E+02  0.27909929166E+02  0.51100000000E-03 0.  1.
        -12    1    3    3    0    0  0.96875394245E+01  0.77094961462E+01  0.52040587368E+01  0.13430077374E+02  0.00000000000E+00 0.  1.
</event>
<event>
 7    1  0.1543346E-008  0.4614232E+02  0.7816164E-02  0.1320468E+00
        -11   -1    0    0    0    0  0.00000000000E+00  0.00000000000E+00  0.45593999997E+02  0.45594000000E+02  0.51100000000E-03 0.  1.
         11   -1    0    0    0    0 -0.00000000000E+00 -0.00000000000E+00 -0.45593999997E+02  0.45594000000E+02  0.51100000000E-03 0. -1.
    9900012    2    1    2    0    0 -0.28009635996E+00  0.21900426424E+02 -0.39362497533E+02  0.46142319369E+02  0.10000014660E+02 0.  0.
        -12    1    1    2    0    0  0.28009635996E+00 -0.21900426424E+02  0.39362497533E+02  0.45045680631E+02  0.00000000000E+00 0.  1.
         11    1    3    3    0    0 -0.18075596591E+01  0.11290318806E+02 -0.21527836290E+02  0.24375937033E+02  0.51100000000E-03 0. -1.
        -11    1    3    3    0    0 -0.47888278797E+00  0.59996756775E+00  0.40198581772E+00  0.86653486124E+00  0.51100000000E-03 0.  1.
        -12    1    3    3    0    0  0.20063460871E+01  0.10010140050E+02 -0.18236647060E+02  0.20899847474E+02  0.00000000000E+00 0.  1.
</event>
<event>
 7    1  0.1543346E-008  0.4614231E+02  0.7816164E-02  0.1320468E+00
        -11   -1    0    0    0    0  0.00000000000E+00  0.00000000000E+00  0.45593999997E+02  0.45594000000E+02  0.51100000000E-03 0.  1.
         11   -1    0    0    0    0 -0.00000000000E+00 -0.00000000000E+00 -0.45593999997E+02  0.45594000000E+02  0.51100000000E-03 0. -1.
    9900012    2    1    2    0    0  0.17907867714E+02  0.30758674167E+02 -0.27610254207E+02  0.46142313193E+02  0.99999583412E+01 0.  0.
        -12    1    1    2    0    0 -0.17907867714E+02 -0.30758674167E+02  0.27610254207E+02  0.45045686807E+02  0.00000000000E+00 0.  1.
         11    1    3    3    0    0  0.10492886489E+02  0.21209523875E+02 -0.13632608333E+02  0.27309203213E+02  0.51100000000E-03 0. -1.
        -11    1    3    3    0    0  0.31296396789E+01  0.45809096109E+01 -0.90990908742E+01  0.10657055521E+02  0.51100000000E-03 0.  1.
        -12    1    3    3    0    0  0.42853415461E+01  0.49682406809E+01 -0.48785549998E+01  0.81760544589E+01  0.00000000000E+00 0.  1.
</event>
<event>
 7    1  0.1543346E-008  0.4614232E+02  0.7816164E-02  0.1320468E+00
        -11   -1    0    0    0    0  0.00000000000E+00  0.00000000000E+00  0.45593999997E+02  0.45594000000E+02  0.51100000000E-03 0.  1.
         11   -1    0    0    0    0 -0.00000000000E+00 -0.00000000000E+00 -0.45593999997E+02  0.45594000000E+02  0.51100000000E-03 0. -1.
    9900012    2    1    2    0    0  0.34708601555E+02 -0.15554912612E+02 -0.24134441678E+02  0.46142316484E+02  0.99999883576E+01 0.  0.
        -12    1    1    2    0    0 -0.34708601555E+02  0.15554912612E+02  0.24134441678E+02  0.45045683516E+02  0.00000000000E+00 0.  1.
         11    1    3    3    0    0  0.12508536913E+02 -0.56595850518E+01 -0.11220308813E+02  0.17731038570E+02  0.51100000000E-03 0. -1.
        -11    1    3    3    0    0  0.25677388896E+01 -0.43469311728E+00  0.72358787920E+00  0.27029281884E+01  0.51100000000E-03 0.  1.
        -12    1    3    3    0    0  0.19632325753E+02 -0.94606344428E+01 -0.13637720744E+02  0.25708349726E+02  0.00000000000E+00 0.  1.
</event>
<event>
 7    1  0.1841761E-008  0.4614232E+02  0.7816164E-02  0.1320468E+00
        -11   -1    0    0    0    0  0.00000000000E+00  0.00000000000E+00  0.45593999997E+02  0.45594000000E+02  0.51100000000E-03 0. -1.
         11   -1    0    0    0    0 -0.00000000000E+00 -0.00000000000E+00 -0.45593999997E+02  0.45594000000E+02  0.51100000000E-03 0.  1.
    9900012    2    1    2    0    0  0.29605163243E+01 -0.37925814482E+02  0.24124291759E+02  0.46142317478E+02  0.99999974186E+01 0.  0.
        -12    1    1    2    0    0 -0.29605163243E+01  0.37925814482E+02 -0.24124291759E+02  0.45045682522E+02  0.00000000000E+00 0.  1.
         11    1    3    3    0    0  0.42143433775E+00 -0.35399766554E+02  0.21196965927E+02  0.41262966977E+02  0.51100000000E-03 0. -1.
        -11    1    3    3    0    0  0.20139757501E+01 -0.15606656365E+01  0.11630400478E+01  0.28007923816E+01  0.51100000000E-03 0.  1.
         12    1    3    3    0    0  0.52510623648E+00 -0.96538229086E+00  0.17642857838E+01  0.20785581190E+01  0.00000000000E+00 0. -1.
</event>
<event>
 7    1  0.1543346E-008  0.4614232E+02  0.7816164E-02  0.1320468E+00
        -11   -1    0    0    0    0  0.00000000000E+00  0.00000000000E+00  0.45593999997E+02  0.45594000000E+02  0.51100000000E-03 0. -1.
         11   -1    0    0    0    0 -0.00000000000E+00 -0.00000000000E+00 -0.45593999997E+02  0.45594000000E+02  0.51100000000E-03 0.  1.
    9900012    2    1    2    0    0 -0.37904684903E+02  0.20442808803E+02  0.13207575349E+02  0.46142316345E+02  0.99999870898E+01 0.  0.
        -12    1    1    2    0    0  0.37904684903E+02 -0.20442808803E+02 -0.13207575349E+02  0.45045683655E+02  0.00000000000E+00 0.  1.
         11    1    3    3    0    0 -0.14581545840E+02  0.48610268311E+01  0.56209369869E+01  0.16366001155E+02  0.51100000000E-03 0. -1.
        -11    1    3    3    0    0 -0.19278120623E+02  0.12736113108E+02  0.35169073104E+01  0.23371417354E+02  0.51100000000E-03 0.  1.
        -12    1    3    3    0    0 -0.40450184400E+01  0.28456688642E+01  0.40697310515E+01  0.64048978365E+01  0.00000000000E+00 0.  1.
</event>
<event>
 7    1  0.1543346E-008  0.4614231E+02  0.7816164E-02  0.1320468E+00
        -11   -1    0    0    0    0  0.00000000000E+00  0.00000000000E+00  0.45593999997E+02  0.45594000000E+02  0.51100000000E-03 0.  1.
         11   -1    0    0    0    0 -0.00000000000E+00 -0.00000000000E+00 -0.45593999997E+02  0.45594000000E+02  0.51100000000E-03 0. -1.
    9900012    2    1    2    0    0 -0.33817976359E+02  0.10207029175E+02 -0.27951304906E+02  0.46142307470E+02  0.99999061537E+01 0.  0.
        -12    1    1    2    0    0  0.33817976359E+02 -0.10207029175E+02  0.27951304906E+02  0.45045692530E+02  0.00000000000E+00 0.  1.
         11    1    3    3    0    0 -0.69619072908E+01  0.28259073724E+01 -0.63584192909E+01  0.98429366423E+01  0.51100000000E-03 0. -1.
        -11    1    3    3    0    0 -0.34262612130E+01  0.20544532801E+01 -0.73552836416E+01  0.83701996326E+01  0.51100000000E-03 0.  1.
        -12    1    3    3    0    0 -0.23429807855E+02  0.53266685230E+01 -0.14237601974E+02  0.27929171195E+02  0.00000000000E+00 0.  1.
</event>
<event>
 7    1  0.1543346E-008  0.4614232E+02  0.7816164E-02  0.1320468E+00
        -11   -1    0    0    0    0  0.00000000000E+00  0.00000000000E+00  0.45593999997E+02  0.45594000000E+02  0.51100000000E-03 0. -1.
         11   -1    0    0    0    0 -0.00000000000E+00 -0.00000000000E+00 -0.45593999997E+02  0.45594000000E+02  0.51100000000E-03 0.  1.
    9900012    2    1    2    0    0  0.89986971340E+01 -0.43379747054E+02  0.81446059946E+01  0.46142316395E+02  0.99999875451E+01 0.  0.
        -12    1    1    2    0    0 -0.89986971340E+01  0.43379747054E+02 -0.81446059946E+01  0.45045683605E+02  0.00000000000E+00 0.  1.
         11    1    3    3    0    0  0.58297052602E+01 -0.14136316836E+02  0.36379568993E+01  0.15718003937E+02  0.51100000000E-03 0.  1.
        -11    1    3    3    0    0  0.40553048972E+01 -0.23070741286E+02  0.56212742914E+01  0.24089485802E+02  0.51100000000E-03 0. -1.
        -12    1    3    3    0    0 -0.88631302345E+00 -0.61726889323E+01 -0.11146251961E+01  0.63348266557E+01  0.00000000000E+00 0.  1.
</event>
<event>
 7    1  0.1543346E-008  0.4614232E+02  0.7816164E-02  0.1320468E+00
        -11   -1    0    0    0    0  0.00000000000E+00  0.00000000000E+00  0.45593999997E+02  0.45594000000E+02  0.51100000000E-03 0.  1.
         11   -1    0    0    0    0 -0.00000000000E+00 -0.00000000000E+00 -0.45593999997E+02  0.45594000000E+02  0.51100000000E-03 0. -1.
    9900012    2    1    2    0    0 -0.23671089661E+02  0.37700965376E+02  0.68869590505E+01  0.46142317843E+02  0.10000000747E+02 0.  0.
        -12    1    1    2    0    0  0.23671089661E+02 -0.37700965376E+02 -0.68869590505E+01  0.45045682157E+02  0.00000000000E+00 0.  1.
         11    1    3    3    0    0 -0.78233268948E+01  0.15112137269E+02  0.39815762008E+01  0.17476672619E+02  0.51100000000E-03 0. -1.
        -11    1    3    3    0    0 -0.48667004916E+01  0.13109123960E+02  0.79298205167E+00  0.14005810418E+02  0.51100000000E-03 0.  1.
         12    1    3    3    0    0 -0.10981062275E+02  0.94797041473E+01  0.21124007980E+01  0.14659834806E+02  0.00000000000E+00 0. -1.
</event>
<event>
 7    1  0.1543346E-008  0.4614231E+02  0.7816164E-02  0.1320468E+00
        -11   -1    0    0    0    0  0.00000000000E+00  0.00000000000E+00  0.45593999997E+02  0.45594000000E+02  0.51100000000E-03 0. -1.
         11   -1    0    0    0    0 -0.00000000000E+00 -0.00000000000E+00 -0.45593999997E+02  0.45594000000E+02  0.51100000000E-03 0.  1.
    9900012    2    1    2    0    0 -0.32213787365E+01 -0.17533408152E+02  0.41368056855E+02  0.46142314187E+02  0.99999674125E+01 0.  0.
        -12    1    1    2    0    0  0.32213787365E+01  0.17533408152E+02 -0.41368056855E+02  0.45045685813E+02  0.00000000000E+00 0.  1.
         11    1    3    3    0    0 -0.41928747722E+01 -0.56901698699E+01  0.11112458737E+02  0.13169850852E+02  0.51100000000E-03 0. -1.
        -11    1    3    3    0    0 -0.12493927426E+01 -0.28663624287E+01  0.36534413409E+01  0.48088095918E+01  0.51100000000E-03 0.  1.
         12    1    3    3    0    0  0.22208887783E+01 -0.89768758537E+01  0.26602156776E+02  0.28163653744E+02  0.00000000000E+00 0. -1.
</event>
<event>
 7    1  0.1543346E-008  0.4614232E+02  0.7816164E-02  0.1320468E+00
        -11   -1    0    0    0    0  0.00000000000E+00  0.00000000000E+00  0.45593999997E+02  0.45594000000E+02  0.51100000000E-03 0.  1.
         11   -1    0    0    0    0 -0.00000000000E+00 -0.00000000000E+00 -0.45593999997E+02  0.45594000000E+02  0.51100000000E-03 0. -1.
    9900012    2    1    2    0    0 -0.16164461239E+01 -0.61812559216E+01 -0.44590275966E+02  0.46142317260E+02  0.99999954293E+01 0.  0.
        -12    1    1    2    0    0  0.16164461239E+01  0.61812559216E+01  0.44590275966E+02  0.45045682740E+02  0.00000000000E+00 0.  1.
         11    1    3    3    0    0 -0.13721097552E+01 -0.12083694685E+01 -0.28538322907E+02  0.28596830534E+02  0.51100000000E-03 0. -1.
        -11    1    3    3    0    0 -0.82671824643E+00  0.16161433604E+00 -0.19066112532E+00  0.86367481057E+00  0.51100000000E-03 0.  1.
        -12    1    3    3    0    0  0.58238187772E+00 -0.51345007891E+01 -0.15861291933E+02  0.16681811916E+02  0.00000000000E+00 0.  1.
</event>
<event>
 7    1  0.1543346E-008  0.4614232E+02  0.7816164E-02  0.1320468E+00
        -11   -1    0    0    0    0  0.00000000000E+00  0.00000000000E+00  0.45593999997E+02  0.45594000000E+02  0.51100000000E-03 0.  1.
         11   -1    0    0    0    0 -0.00000000000E+00 -0.00000000000E+00 -0.45593999997E+02  0.45594000000E+02  0.51100000000E-03 0. -1.
    9900012    2    1    2    0    0 -0.23591654891E+02 -0.95968002210E+01 -0.37154386455E+02  0.46142321097E+02  0.10000030416E+02 0.  0.
        -12    1    1    2    0    0  0.23591654891E+02  0.95968002210E+01  0.37154386455E+02  0.45045678903E+02  0.00000000000E+00 0.  1.
         11    1    3    3    0    0 -0.14779478867E+02 -0.52955884605E+01 -0.17788204684E+02  0.23725439488E+02  0.51100000000E-03 0. -1.
        -11    1    3    3    0    0 -0.26716047502E+01  0.10607328785E+01 -0.31339228169E+01  0.42525402601E+01  0.51100000000E-03 0.  1.
        -12    1    3    3    0    0 -0.61405712740E+01 -0.53619446391E+01 -0.16232258954E+02  0.18164341349E+02  0.00000000000E+00 0.  1.
</event>
<event>
 7    1  0.1543346E-008  0.4614232E+02  0.7816164E-02  0.1320468E+00
        -11   -1    0    0    0    0  0.00000000000E+00  0.00000000000E+00  0.45593999997E+02  0.45594000000E+02  0.51100000000E-03 0.  1.
         11   -1    0    0    0    0 -0.00000000000E+00 -0.00000000000E+00 -0.45593999997E+02  0.45594000000E+02  0.51100000000E-03 0. -1.
    9900012    2    1    2    0    0  0.36967645566E+02 -0.14077992963E+02 -0.21548011325E+02  0.46142317670E+02  0.99999991674E+01 0.  0.
        -12    1    1    2    0    0 -0.36967645566E+02  0.14077992963E+02  0.21548011325E+02  0.45045682330E+02  0.00000000000E+00 0.  1.
         11    1    3    3    0    0  0.26795259216E+02 -0.14532452741E+02 -0.14680309977E+02  0.33833261747E+02  0.51100000000E-03 0. -1.
        -11    1    3    3    0    0  0.48706450870E+01 -0.23882217060E-01 -0.36768651922E+01  0.61027118420E+01  0.51100000000E-03 0.  1.
         12    1    3    3    0    0  0.53017412627E+01  0.47834199560E+00 -0.31908361556E+01  0.62063440812E+01  0.00000000000E+00 0. -1.
</event>
<event>
 7    1  0.1543346E-008  0.4614232E+02  0.7816164E-02  0.1320468E+00
        -11   -1    0    0    0    0  0.00000000000E+00  0.00000000000E+00  0.45593999997E+02  0.45594000000E+02  0.51100000000E-03 0. -1.
         11   -1    0    0    0    0 -0.00000000000E+00 -0.00000000000E+00 -0.45593999997E+02  0.45594000000E+02  0.51100000000E-03 0.  1.
    9900012    2    1    2    0    0  0.42779683423E+02  0.17046938903E+01  0.14003792232E+02  0.46142317722E+02  0.99999996394E+01 0.  0.
        -12    1    1    2    0    0 -0.42779683423E+02 -0.17046938903E+01 -0.14003792232E+02  0.45045682278E+02  0.00000000000E+00 0.  1.
         11    1    3    3    0    0  0.84708430701E+01  0.10587455625E+01  0.62079245262E+00  0.85592936633E+01  0.51100000000E-03 0. -1.
        -11    1    3    3    0    0  0.23295478913E+02  0.73112751310E+00  0.52474195842E+01  0.23890359934E+02  0.51100000000E-03 0.  1.
         12    1    3    3    0    0  0.11013361440E+02 -0.85179185281E-01  0.81355801953E+01  0.13692664124E+02  0.00000000000E+00 0. -1.
</event>
<event>
 7    1  0.1543346E-008  0.4614232E+02  0.7816164E-02  0.1320468E+00
        -11   -1    0    0    0    0  0.00000000000E+00  0.00000000000E+00  0.45593999997E+02  0.45594000000E+02  0.51100000000E-03 0. -1.
         11   -1    0    0    0    0 -0.00000000000E+00 -0.00000000000E+00 -0.45593999997E+02  0.45594000000E+02  0.51100000000E-03 0.  1.
    9900012    2    1    2    0    0  0.28201470096E+02 -0.31756371810E+02 -0.15010778056E+02  0.46142317366E+02  0.99999963997E+01 0.  0.
        -12    1    1    2    0    0 -0.28201470096E+02  0.31756371810E+02  0.15010778056E+02  0.45045682634E+02  0.00000000000E+00 0.  1.
         11    1    3    3    0    0  0.21748728174E+02 -0.26008429735E+02 -0.10043627132E+02  0.35359864829E+02  0.51100000000E-03 0. -1.
        -11    1    3    3    0    0  0.11824364188E+01 -0.25180198183E+01 -0.34236656016E+01  0.44113564923E+01  0.51100000000E-03 0.  1.
         12    1    3    3    0    0  0.52703055031E+01 -0.32299222568E+01 -0.15434853217E+01  0.63710960454E+01  0.00000000000E+00 0. -1.
</event>
<event>
 7    1  0.1543346E-008  0.4614233E+02  0.7816164E-02  0.1320468E+00
        -11   -1    0    0    0    0  0.00000000000E+00  0.00000000000E+00  0.45593999997E+02  0.45594000000E+02  0.51100000000E-03 0. -1.
         11   -1    0    0    0    0 -0.00000000000E+00 -0.00000000000E+00 -0.45593999997E+02  0.45594000000E+02  0.51100000000E-03 0.  1.
    9900012    2    1    2    0    0 -0.12011350103E+02 -0.36110825437E+02  0.24100794694E+02  0.46142328177E+02  0.10000094984E+02 0.  0.
        -12    1    1    2    0    0  0.12011350103E+02  0.36110825437E+02 -0.24100794694E+02  0.45045671823E+02  0.00000000000E+00 0.  1.
         11    1    3    3    0    0 -0.82989698626E+01 -0.28252338639E+02  0.18963158555E+02  0.35023833628E+02  0.51100000000E-03 0. -1.
        -11    1    3    3    0    0 -0.45703702143E+01 -0.62004834609E+01  0.51242358132E+01  0.92515983471E+01  0.51100000000E-03 0.  1.
         12    1    3    3    0    0  0.85798997358E+00 -0.16580033378E+01  0.13400325459E-01  0.18668962027E+01  0.00000000000E+00 0. -1.
</event>
<event>
 7    1  0.1543346E-008  0.4614232E+02  0.7816164E-02  0.1320468E+00
        -11   -1    0    0    0    0  0.00000000000E+00  0.00000000000E+00  0.45593999997E+02  0.45594000000E+02  0.51100000000E-03 0.  1.
         11   -1    0    0    0    0 -0.00000000000E+00 -0.00000000000E+00 -0.45593999997E+02  0.45594000000E+02  0.51100000000E-03 0. -1.
    9900012    2    1    2    0    0  0.22663596953E+02 -0.12412947270E+02 -0.36897068047E+02  0.46142317441E+02  0.99999970771E+01 0.  0.
        -12    1    1    2    0    0 -0.22663596953E+02  0.12412947270E+02  0.36897068047E+02  0.45045682559E+02  0.00000000000E+00 0.  1.
         11    1    3    3    0    0  0.14462867476E+02 -0.10319386852E+02 -0.22775116001E+02  0.28885466756E+02  0.51100000000E-03 0. -1.
        -11    1    3    3    0    0  0.16987101164E+01 -0.29054656219E+01 -0.48013678901E+01  0.58634870526E+01  0.51100000000E-03 0.  1.
         12    1    3    3    0    0  0.65020193608E+01  0.81190520381E+00 -0.93205841562E+01  0.11393363632E+02  0.00000000000E+00 0. -1.
</event>
<event>
 7    1  0.1543346E-008  0.4614232E+02  0.7816164E-02  0.1320468E+00
        -11   -1    0    0    0    0  0.00000000000E+00  0.00000000000E+00  0.45593999997E+02  0.45594000000E+02  0.51100000000E-03 0. -1.
         11   -1    0    0    0    0 -0.00000000000E+00 -0.00000000000E+00 -0.45593999997E+02  0.45594000000E+02  0.51100000000E-03 0.  1.
    9900012    2    1    2    0    0 -0.17082143083E+02  0.35241568950E+02  0.22256361457E+02  0.46142318523E+02  0.10000006950E+02 0.  0.
        -12    1    1    2    0    0  0.17082143083E+02 -0.35241568950E+02 -0.22256361457E+02  0.45045681477E+02  0.00000000000E+00 0.  1.
         11    1    3    3    0    0 -0.11633933487E+02  0.26830227836E+02  0.14259081244E+02  0.32535072342E+02  0.51100000000E-03 0. -1.
        -11    1    3    3    0    0 -0.50127863572E+01  0.82029069576E+01  0.55242027063E+01  0.11087494100E+02  0.51100000000E-03 0.  1.
         12    1    3    3    0    0 -0.43542323909E+00  0.20843415624E+00  0.24730775069E+01  0.25197520811E+01  0.00000000000E+00 0. -1.
</event>
<event>
 7    1  0.1543346E-008  0.4614232E+02  0.7816164E-02  0.1320468E+00
        -11   -1    0    0    0    0  0.00000000000E+00  0.00000000000E+00  0.45593999997E+02  0.45594000000E+02  0.51100000000E-03 0.  1.
         11   -1    0    0    0    0 -0.00000000000E+00 -0.00000000000E+00 -0.45593999997E+02  0.45594000000E+02  0.51100000000E-03 0. -1.
    9900012    2    1    2    0    0  0.19410785643E+02 -0.28546972557E+02 -0.28937954451E+02  0.46142318195E+02  0.10000003960E+02 0.  0.
        -12    1    1    2    0    0 -0.19410785643E+02  0.28546972557E+02  0.28937954451E+02  0.45045681805E+02  0.00000000000E+00 0.  1.
         11    1    3    3    0    0  0.19586501556E+02 -0.27352533479E+02 -0.28900315932E+02  0.44351103618E+02  0.51100000000E-03 0. -1.
        -11    1    3    3    0    0  0.14060458119E+00 -0.10573785752E+00  0.50467490124E+00  0.53445968962E+00  0.51100000000E-03 0.  1.
         12    1    3    3    0    0 -0.31632049431E+00 -0.10887012200E+01 -0.54231342062E+00  0.12567548877E+01  0.00000000000E+00 0. -1.
</event>
<event>
 7    1  0.1543346E-008  0.4614230E+02  0.7816164E-02  0.1320468E+00
        -11   -1    0    0    0    0  0.00000000000E+00  0.00000000000E+00  0.45593999997E+02  0.45594000000E+02  0.51100000000E-03 0.  1.
         11   -1    0    0    0    0 -0.00000000000E+00 -0.00000000000E+00 -0.45593999997E+02  0.45594000000E+02  0.51100000000E-03 0. -1.
    9900012    2    1    2    0    0  0.32462536612E+02  0.24812554187E+01 -0.31131045109E+02  0.46142302300E+02  0.99998590091E+01 0.  0.
        -12    1    1    2    0    0 -0.32462536612E+02 -0.24812554187E+01  0.31131045109E+02  0.45045697700E+02  0.00000000000E+00 0.  1.
         11    1    3    3    0    0  0.93402930331E+01  0.23213274833E+01 -0.14699999395E+02  0.17570418825E+02  0.51100000000E-03 0. -1.
        -11    1    3    3    0    0  0.15959222688E+02 -0.13831490614E+01 -0.11918383957E+02  0.19966415966E+02  0.51100000000E-03 0.  1.
        -12    1    3    3    0    0  0.71630208904E+01  0.15430769968E+01 -0.45126617582E+01  0.86054675084E+01  0.00000000000E+00 0.  1.
</event>
<event>
 7    1  0.1543346E-008  0.4614232E+02  0.7816164E-02  0.1320468E+00
        -11   -1    0    0    0    0  0.00000000000E+00  0.00000000000E+00  0.45593999997E+02  0.45594000000E+02  0.51100000000E-03 0. -1.
         11   -1    0    0    0    0 -0.00000000000E+00 -0.00000000000E+00 -0.45593999997E+02  0.45594000000E+02  0.51100000000E-03 0.  1.
    9900012    2    1    2    0    0 -0.22760002754E+02  0.63429520541E+00  0.38867639820E+02  0.46142317843E+02  0.10000000748E+02 0.  0.
        -12    1    1    2    0    0  0.22760002754E+02 -0.63429520541E+00 -0.38867639820E+02  0.45045682157E+02  0.00000000000E+00 0.  1.
         11    1    3    3    0    0 -0.28086659894E+01  0.19439242665E+01  0.26879092174E+01  0.43465276274E+01  0.51100000000E-03 0. -1.
        -11    1    3    3    0    0 -0.12598428712E+02 -0.37792048009E+01  0.21941733529E+02  0.25582073127E+02  0.51100000000E-03 0.  1.
        -12    1    3    3    0    0 -0.73529080531E+01  0.24695757399E+01  0.14237997074E+02  0.16213717089E+02  0.00000000000E+00 0.  1.
</event>
<event>
 7    1  0.1543346E-008  0.4614232E+02  0.7816164E-02  0.1320468E+00
        -11   -1    0    0    0    0  0.00000000000E+00  0.00000000000E+00  0.45593999997E+02  0.45594000000E+02  0.51100000000E-03 0.  1.
         11   -1    0    0    0    0 -0.00000000000E+00 -0.00000000000E+00 -0.45593999997E+02  0.45594000000E+02  0.51100000000E-03 0. -1.
    9900012    2    1    2    0    0 -0.22922050836E+02 -0.18700005923E+02 -0.33970616977E+02  0.46142318145E+02  0.10000003497E+02 0.  0.
        -12    1    1    2    0    0  0.22922050836E+02  0.18700005923E+02  0.33970616977E+02  0.45045681855E+02  0.00000000000E+00 0.  1.
         11    1    3    3    0    0 -0.13915901662E+02 -0.86337672282E+01 -0.20864650845E+02  0.26524100564E+02  0.51100000000E-03 0. -1.
        -11    1    3    3    0    0 -0.86077754197E+01 -0.88795682958E+01 -0.13497782384E+02  0.18306574238E+02  0.51100000000E-03 0.  1.
         12    1    3    3    0    0 -0.39837375465E+00 -0.11866703984E+01  0.39181625143E+00  0.13116433424E+01  0.00000000000E+00 0. -1.
</event>
<event>
 7    1  0.1543346E-008  0.4614232E+02  0.7816164E-02  0.1320468E+00
        -11   -1    0    0    0    0  0.00000000000E+00  0.00000000000E+00  0.45593999997E+02  0.45594000000E+02  0.51100000000E-03 0.  1.
         11   -1    0    0    0    0 -0.00000000000E+00 -0.00000000000E+00 -0.45593999997E+02  0.45594000000E+02  0.51100000000E-03 0. -1.
    9900012    2    1    2    0    0 -0.60070784813E+01 -0.52695846239E+01 -0.44331253341E+02  0.46142317224E+02  0.99999950998E+01 0.  0.
        -12    1    1    2    0    0  0.60070784813E+01  0.52695846239E+01  0.44331253341E+02  0.45045682776E+02  0.00000000000E+00 0.  1.
         11    1    3    3    0    0 -0.30735151782E+01  0.16380536587E+01 -0.14616931555E+02  0.15026124040E+02  0.51100000000E-03 0. -1.
        -11    1    3    3    0    0 -0.30879038132E+01 -0.26093007335E+01 -0.78176744496E+01  0.88011155167E+01  0.51100000000E-03 0.  1.
        -12    1    3    3    0    0  0.15434051014E+00 -0.42983375492E+01 -0.21896647337E+02  0.22315077667E+02  0.00000000000E+00 0.  1.
</event>
<event>
 7    1  0.1543346E-008  0.4614232E+02  0.7816164E-02  0.1320468E+00
        -11   -1    0    0    0    0  0.00000000000E+00  0.00000000000E+00  0.45593999997E+02  0.45594000000E+02  0.51100000000E-03 0.  1.
         11   -1    0    0    0    0 -0.00000000000E+00 -0.00000000000E+00 -0.45593999997E+02  0.45594000000E+02  0.51100000000E-03 0. -1.
    9900012    2    1    2    0    0 -0.10985079542E+02 -0.39960390459E+01 -0.43502565528E+02  0.46142317542E+02  0.99999980019E+01 0.  0.
        -12    1    1    2    0    0  0.10985079542E+02  0.39960390459E+01  0.43502565528E+02  0.45045682458E+02  0.00000000000E+00 0.  1.
         11    1    3    3    0    0 -0.27298274433E+01 -0.20785492667E-02 -0.25083477403E+02  0.25231583404E+02  0.51100000000E-03 0. -1.
        -11    1    3    3    0    0  0.35785354134E+00  0.86287988141E-01 -0.72536537736E+00  0.81342483718E+00  0.51100000000E-03 0.  1.
         12    1    3    3    0    0 -0.86131056396E+01 -0.40802484847E+01 -0.17693722747E+02  0.20097309300E+02  0.00000000000E+00 0. -1.
</event>
<event>
 7    1  0.1543346E-008  0.4614231E+02  0.7816164E-02  0.1320468E+00
        -11   -1    0    0    0    0  0.00000000000E+00  0.00000000000E+00  0.45593999997E+02  0.45594000000E+02  0.51100000000E-03 0.  1.
         11   -1    0    0    0    0 -0.00000000000E+00 -0.00000000000E+00 -0.45593999997E+02  0.45594000000E+02  0.51100000000E-03 0. -1.
    9900012    2    1    2    0    0  0.13935651991E+02 -0.40945571798E+02  0.12584588288E+02  0.46142310876E+02  0.99999372147E+01 0.  0.
        -12    1    1    2    0    0 -0.13935651991E+02  0.40945571798E+02 -0.12584588288E+02  0.45045689124E+02  0.00000000000E+00 0.  1.
         11    1    3    3    0    0  0.98496217669E+01 -0.32114578016E+02  0.97450271192E+01  0.34976087887E+02  0.51100000000E-03 0. -1.
        -11    1    3    3    0    0  0.12380933680E+01 -0.22040134235E+01 -0.13074522259E+01  0.28460467218E+01  0.51100000000E-03 0.  1.
        -12    1    3    3    0    0  0.28479368556E+01 -0.66269803588E+01  0.41470133951E+01  0.83201762667E+01  0.00000000000E+00 0.  1.
</event>
<event>
 7    1  0.1543346E-008  0.4614232E+02  0.7816164E-02  0.1320468E+00
        -11   -1    0    0    0    0  0.00000000000E+00  0.00000000000E+00  0.45593999997E+02  0.45594000000E+02  0.51100000000E-03 0.  1.
         11   -1    0    0    0    0 -0.00000000000E+00 -0.00000000000E+00 -0.45593999997E+02  0.45594000000E+02  0.51100000000E-03 0. -1.
    9900012    2    1    2    0    0 -0.33731725111E+02 -0.25062028412E+02  0.16222788125E+02  0.46142318724E+02  0.10000008779E+02 0.  0.
        -12    1    1    2    0    0  0.33731725111E+02  0.25062028412E+02 -0.16222788125E+02  0.45045681276E+02  0.00000000000E+00 0.  1.
         11    1    3    3    0    0 -0.13547499884E+02 -0.58794373624E+01  0.59978460070E+01  0.15939783368E+02  0.51100000000E-03 0. -1.
        -11    1    3    3    0    0 -0.46236225897E-01 -0.18460524507E+01  0.67027591717E+00  0.19645145725E+01  0.51100000000E-03 0.  1.
         12    1    3    3    0    0 -0.20137989001E+02 -0.17336538599E+02  0.95546662010E+01  0.28238020784E+02  0.00000000000E+00 0. -1.
</event>
<event>
 7    1  0.1543346E-008  0.4614232E+02  0.7816164E-02  0.1320468E+00
        -11   -1    0    0    0    0  0.00000000000E+00  0.00000000000E+00  0.45593999997E+02  0.45594000000E+02  0.51100000000E-03 0.  1.
         11   -1    0    0    0    0 -0.00000000000E+00 -0.00000000000E+00 -0.45593999997E+02  0.45594000000E+02  0.51100000000E-03 0. -1.
    9900012    2    1    2    0    0  0.39909963141E+02  0.19390118558E+02 -0.77673423155E+01  0.46142318051E+02  0.10000002645E+02 0.  0.
        -12    1    1    2    0    0 -0.39909963141E+02 -0.19390118558E+02  0.77673423155E+01  0.45045681949E+02  0.00000000000E+00 0.  1.
         11    1    3    3    0    0  0.52705679195E+01  0.94165207889E+00 -0.36490639528E+01  0.64792949327E+01  0.51100000000E-03 0. -1.
        -11    1    3    3    0    0  0.55656242724E+00  0.82295765549E+00 -0.52747884207E+00  0.11248356449E+01  0.51100000000E-03 0.  1.
         12    1    3    3    0    0  0.34082832794E+02  0.17625508824E+02 -0.35907995207E+01  0.38538187474E+02  0.00000000000E+00 0. -1.
</event>
<event>
 7    1  0.1543346E-008  0.4614232E+02  0.7816164E-02  0.1320468E+00
        -11   -1    0    0    0    0  0.00000000000E+00  0.00000000000E+00  0.45593999997E+02  0.45594000000E+02  0.51100000000E-03 0. -1.
         11   -1    0    0    0    0 -0.00000000000E+00 -0.00000000000E+00 -0.45593999997E+02  0.45594000000E+02  0.51100000000E-03 0.  1.
    9900012    2    1    2    0    0  0.26461112048E+02  0.26640856301E+02  0.24883487599E+02  0.46142316185E+02  0.99999856316E+01 0.  0.
        -12    1    1    2    0    0 -0.26461112048E+02 -0.26640856301E+02 -0.24883487599E+02  0.45045683815E+02  0.00000000000E+00 0.  1.
         11    1    3    3    0    0  0.74175955639E+01  0.72305425104E+01  0.41269156837E+01  0.11150466460E+02  0.51100000000E-03 0. -1.
        -11    1    3    3    0    0  0.14717533297E+02  0.17625320421E+02  0.14419826451E+02  0.27114370754E+02  0.51100000000E-03 0.  1.
        -12    1    3    3    0    0  0.43259831872E+01  0.17849933694E+01  0.63367454644E+01  0.78774789714E+01  0.00000000000E+00 0.  1.
</event>
<event>
 7    1  0.1543346E-008  0.4614232E+02  0.7816164E-02  0.1320468E+00
        -11   -1    0    0    0    0  0.00000000000E+00  0.00000000000E+00  0.45593999997E+02  0.45594000000E+02  0.51100000000E-03 0.  1.
         11   -1    0    0    0    0 -0.00000000000E+00 -0.00000000000E+00 -0.45593999997E+02  0.45594000000E+02  0.51100000000E-03 0. -1.
    9900012    2    1    2    0    0  0.34608868773E+02 -0.22982951680E+02 -0.17410446811E+02  0.46142317367E+02  0.99999964107E+01 0.  0.
        -12    1    1    2    0    0 -0.34608868773E+02  0.22982951680E+02  0.17410446811E+02  0.45045682633E+02  0.00000000000E+00 0.  1.
         11    1    3    3    0    0  0.12899720711E+02 -0.59964760594E+01 -0.92774067567E+01  0.16983250452E+02  0.51100000000E-03 0. -1.
        -11    1    3    3    0    0  0.16886900969E+02 -0.14692403192E+02 -0.81429640250E+01  0.23818942027E+02  0.51100000000E-03 0.  1.
         12    1    3    3    0    0  0.48222470936E+01 -0.22940724284E+01  0.99239707607E-02  0.53401248884E+01  0.00000000000E+00 0. -1.
</event>
<event>
 7    1  0.1543346E-008  0.4614232E+02  0.7816164E-02  0.1320468E+00
        -11   -1    0    0    0    0  0.00000000000E+00  0.00000000000E+00  0.45593999997E+02  0.45594000000E+02  0.51100000000E-03 0. -1.
         11   -1    0    0    0    0 -0.00000000000E+00 -0.00000000000E+00 -0.45593999997E+02  0.45594000000E+02  0.51100000000E-03 0.  1.
    9900012    2    1    2    0    0  0.44822397673E+02  0.11905673869E+01 -0.43184235926E+01  0.46142316898E+02  0.99999921262E+01 0.  0.
        -12    1    1    2    0    0 -0.44822397673E+02 -0.11905673869E+01  0.43184235926E+01  0.45045683102E+02  0.00000000000E+00 0.  1.
         11    1    3    3    0    0  0.13428702981E+01 -0.10086793347E+01  0.72895636424E+00  0.18308774617E+01  0.51100000000E-03 0. -1.
        -11    1    3    3    0    0  0.25374624277E-01 -0.78483116556E-01  0.44481345391E+00  0.45239666338E+00  0.51100000000E-03 0.  1.
         12    1    3    3    0    0  0.43454152750E+02  0.22777298381E+01 -0.54921934107E+01  0.43859042773E+02  0.00000000000E+00 0. -1.
</event>
<event>
 7    1  0.1543346E-008  0.4614231E+02  0.7816164E-02  0.1320468E+00
        -11   -1    0    0    0    0  0.00000000000E+00  0.00000000000E+00  0.45593999997E+02  0.45594000000E+02  0.51100000000E-03 0.  1.
         11   -1    0    0    0    0 -0.00000000000E+00 -0.00000000000E+00 -0.45593999997E+02  0.45594000000E+02  0.51100000000E-03 0. -1.
    9900012    2    1    2    0    0  0.31604434372E+02 -0.26091683687E+01 -0.31991652350E+02  0.46142313729E+02  0.99999632328E+01 0.  0.
        -12    1    1    2    0    0 -0.31604434372E+02  0.26091683687E+01  0.31991652350E+02  0.45045686271E+02  0.00000000000E+00 0.  1.
         11    1    3    3    0    0  0.69357719343E+01  0.92554712870E+00 -0.11334498545E+02  0.13320376396E+02  0.51100000000E-03 0. -1.
        -11    1    3    3    0    0  0.22402309403E+02 -0.47301708683E+01 -0.17942705539E+02  0.29089150303E+02  0.51100000000E-03 0.  1.
        -12    1    3    3    0    0  0.22663530341E+01  0.11954553709E+01 -0.27144482666E+01  0.37327870299E+01  0.00000000000E+00 0.  1.
</event>
<event>
 7    1  0.1543346E-008  0.4614232E+02  0.7816164E-02  0.1320468E+00
        -11   -1    0    0    0    0  0.00000000000E+00  0.00000000000E+00  0.45593999997E+02  0.45594000000E+02  0.51100000000E-03 0. -1.
         11   -1    0    0    0    0 -0.00000000000E+00 -0.00000000000E+00 -0.45593999997E+02  0.45594000000E+02  0.51100000000E-03 0.  1.
    9900012    2    1    2    0    0  0.97321495752E+01 -0.24040228888E+02  0.36830234552E+02  0.46142317438E+02  0.99999970514E+01 0.  0.
        -12    1    1    2    0    0 -0.97321495752E+01  0.24040228888E+02 -0.36830234552E+02  0.45045682562E+02  0.00000000000E+00 0.  1.
         11    1    3    3    0    0  0.10436444414E+02 -0.14894272052E+02  0.21146044537E+02  0.27891108113E+02  0.51100000000E-03 0. -1.
        -11    1    3    3    0    0 -0.11088307460E+01 -0.69469628021E+01  0.12752455788E+02  0.14564165842E+02  0.51100000000E-03 0.  1.
         12    1    3    3    0    0  0.40453590732E+00 -0.21989940337E+01  0.29317342270E+01  0.36870434820E+01  0.00000000000E+00 0. -1.
</event>
<event>
 7    1  0.1543346E-008  0.4614232E+02  0.7816164E-02  0.1320468E+00
        -11   -1    0    0    0    0  0.00000000000E+00  0.00000000000E+00  0.45593999997E+02  0.45594000000E+02  0.51100000000E-03 0.  1.
         11   -1    0    0    0    0 -0.00000000000E+00 -0.00000000000E+00 -0.45593999997E+02  0.45594000000E+02  0.51100000000E-03 0. -1.
    9900012    2    1    2    0    0  0.19542077222E+01  0.39985121252E+02 -0.20651500663E+02  0.46142319530E+02  0.10000016128E+02 0.  0.
        -12    1    1    2    0    0 -0.19542077222E+01 -0.39985121252E+02  0.20651500663E+02  0.45045680470E+02  0.00000000000E+00 0.  1.
         11    1    3    3    0    0  0.25866561104E+01  0.24558148982E+02 -0.13594602420E+02  0.28188768800E+02  0.51100000000E-03 0. -1.
        -11    1    3    3    0    0 -0.30490893252E+01  0.11465387083E+02 -0.48924377814E+01  0.12833082029E+02  0.51100000000E-03 0.  1.
        -12    1    3    3    0    0  0.24166409369E+01  0.39615851880E+01 -0.21644604618E+01  0.51204687003E+01  0.00000000000E+00 0.  1.
</event>
<event>
 7    1  0.1543346E-008  0.4614232E+02  0.7816164E-02  0.1320468E+00
        -11   -1    0    0    0    0  0.00000000000E+00  0.00000000000E+00  0.45593999997E+02  0.45594000000E+02  0.51100000000E-03 0.  1.
         11   -1    0    0    0    0 -0.00000000000E+00 -0.00000000000E+00 -0.45593999997E+02  0.45594000000E+02  0.51100000000E-03 0. -1.
    9900012    2    1    2    0    0  0.28522629844E+01 -0.24639001316E+02 -0.37601830878E+02  0.46142317906E+02  0.10000001322E+02 0.  0.
        -12    1    1    2    0    0 -0.28522629844E+01  0.24639001316E+02  0.37601830878E+02  0.45045682094E+02  0.00000000000E+00 0.  1.
         11    1    3    3    0    0  0.49870744093E+01 -0.81167378398E+01 -0.11418269059E+02  0.14870414012E+02  0.51100000000E-03 0. -1.
        -11    1    3    3    0    0 -0.15049067077E+01 -0.16051492131E+02 -0.23675133972E+02  0.28643098866E+02  0.51100000000E-03 0.  1.
        -12    1    3    3    0    0 -0.62990471727E+00 -0.47077134516E+00 -0.25084278466E+01  0.26288050277E+01  0.00000000000E+00 0.  1.
</event>
<event>
 7    1  0.1543346E-008  0.4614232E+02  0.7816164E-02  0.1320468E+00
        -11   -1    0    0    0    0  0.00000000000E+00  0.00000000000E+00  0.45593999997E+02  0.45594000000E+02  0.51100000000E-03 0.  1.
         11   -1    0    0    0    0 -0.00000000000E+00 -0.00000000000E+00 -0.45593999997E+02  0.45594000000E+02  0.51100000000E-03 0. -1.
    9900012    2    1    2    0    0  0.24182757298E+02  0.21634695813E+02 -0.31244963457E+02  0.46142317023E+02  0.99999932664E+01 0.  0.
        -12    1    1    2    0    0 -0.24182757298E+02 -0.21634695813E+02  0.31244963457E+02  0.45045682977E+02  0.00000000000E+00 0.  1.
         11    1    3    3    0    0  0.67464652390E+01  0.67173153436E+01 -0.73032816436E+01  0.11998960025E+02  0.51100000000E-03 0. -1.
        -11    1    3    3    0    0  0.90050186884E+01  0.26749209671E+01 -0.10669436884E+02  0.14215570599E+02  0.51100000000E-03 0.  1.
        -12    1    3    3    0    0  0.84312733707E+01  0.12242459502E+02 -0.13272244929E+02  0.19927786399E+02  0.00000000000E+00 0.  1.
</event>
<event>
 7    1  0.1543346E-008  0.4614232E+02  0.7816164E-02  0.1320468E+00
        -11   -1    0    0    0    0  0.00000000000E+00  0.00000000000E+00  0.45593999997E+02  0.45594000000E+02  0.51100000000E-03 0. -1.
         11   -1    0    0    0    0 -0.00000000000E+00 -0.00000000000E+00 -0.45593999997E+02  0.45594000000E+02  0.51100000000E-03 0.  1.
    9900012    2    1    2    0    0  0.95867015349E+01  0.36714444738E+02  0.24274639244E+02  0.46142318640E+02  0.10000008017E+02 0.  0.
        -12    1    1    2    0    0 -0.95867015349E+01 -0.36714444738E+02 -0.24274639244E+02  0.45045681360E+02  0.00000000000E+00 0.  1.
         11    1    3    3    0    0  0.38087898213E+01  0.85784404937E+01  0.10017129093E+02  0.13727322999E+02  0.51100000000E-03 0. -1.
        -11    1    3    3    0    0  0.42432724246E+01  0.25879213597E+02  0.11858338424E+02  0.28781230824E+02  0.51100000000E-03 0.  1.
        -12    1    3    3    0    0  0.15346392890E+01  0.22567906470E+01  0.23991717265E+01  0.36337648170E+01  0.00000000000E+00 0.  1.
</event>
<event>
 7    1  0.1543346E-008  0.4614232E+02  0.7816164E-02  0.1320468E+00
        -11   -1    0    0    0    0  0.00000000000E+00  0.00000000000E+00  0.45593999997E+02  0.45594000000E+02  0.51100000000E-03 0.  1.
         11   -1    0    0    0    0 -0.00000000000E+00 -0.00000000000E+00 -0.45593999997E+02  0.45594000000E+02  0.51100000000E-03 0. -1.
    9900012    2    1    2    0    0 -0.13763149304E+02  0.42708203149E+02 -0.39621468503E+01  0.46142317602E+02  0.99999985525E+01 0.  0.
        -12    1    1    2    0    0  0.13763149304E+02 -0.42708203149E+02  0.39621468503E+01  0.45045682398E+02  0.00000000000E+00 0.  1.
         11    1    3    3    0    0 -0.10731960838E+02  0.33264573143E+02 -0.40741427269E+01  0.35189564490E+02  0.51100000000E-03 0. -1.
        -11    1    3    3    0    0 -0.82405608393E+00  0.75902304699E+01  0.14564152837E+01  0.77725036350E+01  0.51100000000E-03 0.  1.
        -12    1    3    3    0    0 -0.22071323820E+01  0.18533995367E+01 -0.13444194072E+01  0.31802494771E+01  0.00000000000E+00 0.  1.
</event>
<event>
 7    1  0.1543346E-008  0.4614232E+02  0.7816164E-02  0.1320468E+00
        -11   -1    0    0    0    0  0.00000000000E+00  0.00000000000E+00  0.45593999997E+02  0.45594000000E+02  0.51100000000E-03 0. -1.
         11   -1    0    0    0    0 -0.00000000000E+00 -0.00000000000E+00 -0.45593999997E+02  0.45594000000E+02  0.51100000000E-03 0.  1.
    9900012    2    1    2    0    0 -0.18218183981E+02 -0.33214986241E+02  0.24371622387E+02  0.46142317451E+02  0.99999971718E+01 0.  0.
        -12    1    1    2    0    0  0.18218183981E+02  0.33214986241E+02 -0.24371622387E+02  0.45045682549E+02  0.00000000000E+00 0.  1.
         11    1    3    3    0    0 -0.50113225229E+01 -0.14895767874E+02  0.12167360262E+02  0.19875661246E+02  0.51100000000E-03 0. -1.
        -11    1    3    3    0    0 -0.88863386104E+01 -0.91216505090E+01  0.90630308866E+01  0.15630420692E+02  0.51100000000E-03 0.  1.
        -12    1    3    3    0    0 -0.43205228477E+01 -0.91975678580E+01  0.31412312387E+01  0.10636235512E+02  0.00000000000E+00 0.  1.
</event>
<event>
 7    1  0.1543346E-008  0.4614232E+02  0.7816164E-02  0.1320468E+00
        -11   -1    0    0    0    0  0.00000000000E+00  0.00000000000E+00  0.45593999997E+02  0.45594000000E+02  0.51100000000E-03 0. -1.
         11   -1    0    0    0    0 -0.00000000000E+00 -0.00000000000E+00 -0.45593999997E+02  0.45594000000E+02  0.51100000000E-03 0.  1.
    9900012    2    1    2    0    0 -0.71268849160E+01 -0.39387982525E+02 -0.20661749604E+02  0.46142317047E+02  0.99999934879E+01 0.  0.
        -12    1    1    2    0    0  0.71268849160E+01  0.39387982525E+02  0.20661749604E+02  0.45045682953E+02  0.00000000000E+00 0.  1.
         11    1    3    3    0    0 -0.26398530536E+01 -0.14014857187E+02 -0.36835124828E+01  0.14729335036E+02  0.51100000000E-03 0. -1.
        -11    1    3    3    0    0 -0.16529858014E+01 -0.15013965405E+01 -0.56066973239E+00  0.23023693104E+01  0.51100000000E-03 0.  1.
         12    1    3    3    0    0 -0.28340460610E+01 -0.23871728797E+02 -0.16417567389E+02  0.29110612701E+02  0.00000000000E+00 0. -1.
</event>
<event>
 7    1  0.1543346E-008  0.4614232E+02  0.7816164E-02  0.1320468E+00
        -11   -1    0    0    0    0  0.00000000000E+00  0.00000000000E+00  0.45593999997E+02  0.45594000000E+02  0.51100000000E-03 0.  1.
         11   -1    0    0    0    0 -0.00000000000E+00 -0.00000000000E+00 -0.45593999997E+02  0.45594000000E+02  0.51100000000E-03 0. -1.
    9900012    2    1    2    0    0 -0.52249039071E+01  0.16042204664E+02 -0.41766750487E+02  0.46142318769E+02  0.10000009192E+02 0.  0.
        -12    1    1    2    0    0  0.52249039071E+01 -0.16042204664E+02  0.41766750487E+02  0.45045681231E+02  0.00000000000E+00 0.  1.
         11    1    3    3    0    0 -0.36151376022E+01  0.78892357032E+01 -0.17337110642E+02  0.19387745241E+02  0.51100000000E-03 0. -1.
        -11    1    3    3    0    0 -0.46662569594E+00 -0.12854599591E+01 -0.38288021112E+01  0.40656946165E+01  0.51100000000E-03 0.  1.
        -12    1    3    3    0    0 -0.11431406089E+01  0.94384289202E+01 -0.20600837733E+02  0.22688878911E+02  0.00000000000E+00 0.  1.
</event>
<event>
 7    1  0.1543346E-008  0.4614232E+02  0.7816164E-02  0.1320468E+00
        -11   -1    0    0    0    0  0.00000000000E+00  0.00000000000E+00  0.45593999997E+02  0.45594000000E+02  0.51100000000E-03 0. -1.
         11   -1    0    0    0    0 -0.00000000000E+00 -0.00000000000E+00 -0.45593999997E+02  0.45594000000E+02  0.51100000000E-03 0.  1.
    9900012    2    1    2    0    0  0.23186740839E+02 -0.14722673517E+02  0.35703380635E+02  0.46142318131E+02  0.10000003377E+02 0.  0.
        -12    1    1    2    0    0 -0.23186740839E+02  0.14722673517E+02 -0.35703380635E+02  0.45045681869E+02  0.00000000000E+00 0.  1.
         11    1    3    3    0    0  0.69759895356E+01 -0.47687048545E+01  0.68110745330E+01  0.10853373326E+02  0.51100000000E-03 0. -1.
        -11    1    3    3    0    0  0.46753889069E+01 -0.54358323301E+01  0.15307632241E+02  0.16903583633E+02  0.51100000000E-03 0.  1.
        -12    1    3    3    0    0  0.11535362397E+02 -0.45181363324E+01  0.13584673861E+02  0.18385361173E+02  0.00000000000E+00 0.  1.
</event>
<event>
 7    1  0.1543346E-008  0.4614232E+02  0.7816164E-02  0.1320468E+00
        -11   -1    0    0    0    0  0.00000000000E+00  0.00000000000E+00  0.45593999997E+02  0.45594000000E+02  0.51100000000E-03 0.  1.
         11   -1    0    0    0    0 -0.00000000000E+00 -0.00000000000E+00 -0.45593999997E+02  0.45594000000E+02  0.51100000000E-03 0. -1.
    9900012    2    1    2    0    0 -0.26539987758E+02 -0.36316690736E+02  0.24167118834E+01  0.46142317937E+02  0.10000001604E+02 0.  0.
        -12    1    1    2    0    0  0.26539987758E+02  0.36316690736E+02 -0.24167118834E+01  0.45045682063E+02  0.00000000000E+00 0.  1.
         11    1    3    3    0    0 -0.21811732388E+02 -0.31929422438E+02 -0.34555662529E+00  0.38669873243E+02  0.51100000000E-03 0. -1.
        -11    1    3    3    0    0 -0.35220477965E+01 -0.15368840301E+01  0.13848196028E+01  0.40846736462E+01  0.51100000000E-03 0.  1.
         12    1    3    3    0    0 -0.12062075739E+01 -0.28503842680E+01  0.13774489059E+01  0.33877710481E+01  0.00000000000E+00 0. -1.
</event>
<event>
 7    1  0.1543346E-008  0.4614232E+02  0.7816164E-02  0.1320468E+00
        -11   -1    0    0    0    0  0.00000000000E+00  0.00000000000E+00  0.45593999997E+02  0.45594000000E+02  0.51100000000E-03 0.  1.
         11   -1    0    0    0    0 -0.00000000000E+00 -0.00000000000E+00 -0.45593999997E+02  0.45594000000E+02  0.51100000000E-03 0. -1.
    9900012    2    1    2    0    0 -0.25518967816E+01  0.20359364717E+02 -0.40101091574E+02  0.46142318139E+02  0.10000003449E+02 0.  0.
        -12    1    1    2    0    0  0.25518967816E+01 -0.20359364717E+02  0.40101091574E+02  0.45045681861E+02  0.00000000000E+00 0.  1.
         11    1    3    3    0    0 -0.10039944083E+01  0.26992581998E+01 -0.13073343331E+02  0.13386795947E+02  0.51100000000E-03 0. -1.
        -11    1    3    3    0    0 -0.21267615843E+01  0.36295550218E+01 -0.41327959081E+01  0.58971846479E+01  0.51100000000E-03 0.  1.
         12    1    3    3    0    0  0.57885921097E+00  0.14030551496E+02 -0.22894952335E+02  0.26858337545E+02  0.00000000000E+00 0. -1.
</event>
<event>
 7    1  0.1543346E-008  0.4614232E+02  0.7816164E-02  0.1320468E+00
        -11   -1    0    0    0    0  0.00000000000E+00  0.00000000000E+00  0.45593999997E+02  0.45594000000E+02  0.51100000000E-03 0.  1.
         11   -1    0    0    0    0 -0.00000000000E+00 -0.00000000000E+00 -0.45593999997E+02  0.45594000000E+02  0.51100000000E-03 0. -1.
    9900012    2    1    2    0    0 -0.28091756238E+02  0.18819731793E+02 -0.29762131775E+02  0.46142316955E+02  0.99999926449E+01 0.  0.
        -12    1    1    2    0    0  0.28091756238E+02 -0.18819731793E+02  0.29762131775E+02  0.45045683045E+02  0.00000000000E+00 0.  1.
         11    1    3    3    0    0 -0.11409179605E+02  0.42739230688E+01 -0.15422416826E+02  0.19654178657E+02  0.51100000000E-03 0. -1.
        -11    1    3    3    0    0 -0.31334883678E+01  0.25172930637E+01 -0.15372893657E+01  0.43033443477E+01  0.51100000000E-03 0.  1.
         12    1    3    3    0    0 -0.13549088264E+02  0.12028515660E+02 -0.12802425583E+02  0.22184793950E+02  0.00000000000E+00 0. -1.
</event>
<event>
 7    1  0.1543346E-008  0.4614232E+02  0.7816164E-02  0.1320468E+00
        -11   -1    0    0    0    0  0.00000000000E+00  0.00000000000E+00  0.45593999997E+02  0.45594000000E+02  0.51100000000E-03 0. -1.
         11   -1    0    0    0    0 -0.00000000000E+00 -0.00000000000E+00 -0.45593999997E+02  0.45594000000E+02  0.51100000000E-03 0.  1.
    9900012    2    1    2    0    0 -0.40464982190E+02  0.95430121352E+01  0.17338672294E+02  0.46142318507E+02  0.10000006805E+02 0.  0.
        -12    1    1    2    0    0  0.40464982190E+02 -0.95430121352E+01 -0.17338672294E+02  0.45045681493E+02  0.00000000000E+00 0.  1.
         11    1    3    3    0    0 -0.24870266030E+02  0.18675506923E+01  0.77455726140E+01  0.26115355126E+02  0.51100000000E-03 0. -1.
        -11    1    3    3    0    0 -0.49416315352E+01  0.18507627196E+01  0.41876815790E+01  0.67365957384E+01  0.51100000000E-03 0.  1.
         12    1    3    3    0    0 -0.10653084625E+02  0.58246987233E+01  0.54054181007E+01  0.13290367643E+02  0.00000000000E+00 0. -1.
</event>
<event>
 7    1  0.1543346E-008  0.4614232E+02  0.7816164E-02  0.1320468E+00
        -11   -1    0    0    0    0  0.00000000000E+00  0.00000000000E+00  0.45593999997E+02  0.45594000000E+02  0.51100000000E-03 0. -1.
         11   -1    0    0    0    0 -0.00000000000E+00 -0.00000000000E+00 -0.45593999997E+02  0.45594000000E+02  0.51100000000E-03 0.  1.
    9900012    2    1    2    0    0 -0.12597598180E+02  0.34227282528E+02  0.26436852505E+02  0.46142317416E+02  0.99999968508E+01 0.  0.
        -12    1    1    2    0    0  0.12597598180E+02 -0.34227282528E+02 -0.26436852505E+02  0.45045682584E+02  0.00000000000E+00 0.  1.
         11    1    3    3    0    0  0.61604599665E+00  0.17230545033E+01  0.38010516526E+01  0.42185807351E+01  0.51100000000E-03 0. -1.
        -11    1    3    3    0    0 -0.19173773408E+00  0.19754084799E+01  0.21237830265E+01  0.29067949061E+01  0.51100000000E-03 0.  1.
         12    1    3    3    0    0 -0.13021906442E+02  0.30528819544E+02  0.20512017826E+02  0.39016941775E+02  0.00000000000E+00 0. -1.
</event>
<event>
 7    1  0.1543346E-008  0.4614232E+02  0.7816164E-02  0.1320468E+00
        -11   -1    0    0    0    0  0.00000000000E+00  0.00000000000E+00  0.45593999997E+02  0.45594000000E+02  0.51100000000E-03 0.  1.
         11   -1    0    0    0    0 -0.00000000000E+00 -0.00000000000E+00 -0.45593999997E+02  0.45594000000E+02  0.51100000000E-03 0. -1.
    9900012    2    1    2    0    0 -0.21779829326E+02  0.10088147601E+02 -0.38117998371E+02  0.46142317773E+02  0.10000000106E+02 0.  0.
        -12    1    1    2    0    0  0.21779829326E+02 -0.10088147601E+02  0.38117998371E+02  0.45045682227E+02  0.00000000000E+00 0.  1.
         11    1    3    3    0    0 -0.93772057753E+01  0.86425229979E+01 -0.20439596570E+02  0.24091540011E+02  0.51100000000E-03 0. -1.
        -11    1    3    3    0    0 -0.96043910120E+01 -0.13910237100E+00 -0.10773257909E+02  0.14433529104E+02  0.51100000000E-03 0.  1.
        -12    1    3    3    0    0 -0.27982325391E+01  0.15847269745E+01 -0.69051438924E+01  0.76172486569E+01  0.00000000000E+00 0.  1.
</event>
<event>
 7    1  0.1543346E-008  0.4614232E+02  0.7816164E-02  0.1320468E+00
        -11   -1    0    0    0    0  0.00000000000E+00  0.00000000000E+00  0.45593999997E+02  0.45594000000E+02  0.51100000000E-03 0.  1.
         11   -1    0    0    0    0 -0.00000000000E+00 -0.00000000000E+00 -0.45593999997E+02  0.45594000000E+02  0.51100000000E-03 0. -1.
    9900012    2    1    2    0    0  0.28896406300E+02  0.21355549615E+02 -0.27167106236E+02  0.46142318102E+02  0.10000003106E+02 0.  0.
        -12    1    1    2    0    0 -0.28896406300E+02 -0.21355549615E+02  0.27167106236E+02  0.45045681898E+02  0.00000000000E+00 0.  1.
         11    1    3    3    0    0  0.17426615400E+02  0.14221156273E+02 -0.18913426150E+02  0.29387852916E+02  0.51100000000E-03 0. -1.
        -11    1    3    3    0    0  0.90651150697E+01  0.39027826659E+01 -0.33815012919E+01  0.10432764495E+02  0.51100000000E-03 0.  1.
        -12    1    3    3    0    0  0.24046758306E+01  0.32316106760E+01 -0.48721787948E+01  0.63217006904E+01  0.00000000000E+00 0.  1.
</event>
<event>
 7    1  0.1543346E-008  0.4614232E+02  0.7816164E-02  0.1320468E+00
        -11   -1    0    0    0    0  0.00000000000E+00  0.00000000000E+00  0.45593999997E+02  0.45594000000E+02  0.51100000000E-03 0.  1.
         11   -1    0    0    0    0 -0.00000000000E+00 -0.00000000000E+00 -0.45593999997E+02  0.45594000000E+02  0.51100000000E-03 0. -1.
    9900012    2    1    2    0    0  0.29637781549E+02  0.33911066535E+02 -0.86892161689E+00  0.46142317039E+02  0.99999934112E+01 0.  0.
        -12    1    1    2    0    0 -0.29637781549E+02 -0.33911066535E+02  0.86892161689E+00  0.45045682961E+02  0.00000000000E+00 0.  1.
         11    1    3    3    0    0  0.72473852011E+01  0.95944072460E+01  0.25917617770E+01  0.12300181788E+02  0.51100000000E-03 0. -1.
        -11    1    3    3    0    0  0.11284583921E+02  0.16049427366E+02 -0.21041954612E+00  0.19620658238E+02  0.51100000000E-03 0.  1.
        -12    1    3    3    0    0  0.11105812427E+02  0.82672319234E+01 -0.32502638478E+01  0.14221477013E+02  0.00000000000E+00 0.  1.
</event>
<event>
 7    1  0.1543346E-008  0.4614232E+02  0.7816164E-02  0.1320468E+00
        -11   -1    0    0    0    0  0.00000000000E+00  0.00000000000E+00  0.45593999997E+02  0.45594000000E+02  0.51100000000E-03 0. -1.
         11   -1    0    0    0    0 -0.00000000000E+00 -0.00000000000E+00 -0.45593999997E+02  0.45594000000E+02  0.51100000000E-03 0.  1.
    9900012    2    1    2    0    0 -0.29300780048E+02 -0.29256465092E+02 -0.17738011343E+02  0.46142317549E+02  0.99999980659E+01 0.  0.
        -12    1    1    2    0    0  0.29300780048E+02  0.29256465092E+02  0.17738011343E+02  0.45045682451E+02  0.00000000000E+00 0.  1.
         11    1    3    3    0    0 -0.99509256846E+01 -0.13250771394E+02 -0.10637241809E+02  0.19691489992E+02  0.51100000000E-03 0. -1.
        -11    1    3    3    0    0 -0.28412538351E+01 -0.61511575686E+00 -0.93664429566E+00  0.30542418941E+01  0.51100000000E-03 0.  1.
        -12    1    3    3    0    0 -0.16508600528E+02 -0.15390577940E+02 -0.61641252374E+01  0.23396585663E+02  0.00000000000E+00 0.  1.
</event>
<event>
 7    1  0.1543346E-008  0.4614232E+02  0.7816164E-02  0.1320468E+00
        -11   -1    0    0    0    0  0.00000000000E+00  0.00000000000E+00  0.45593999997E+02  0.45594000000E+02  0.51100000000E-03 0. -1.
         11   -1    0    0    0    0 -0.00000000000E+00 -0.00000000000E+00 -0.45593999997E+02  0.45594000000E+02  0.51100000000E-03 0.  1.
    9900012    2    1    2    0    0 -0.32278714275E+02 -0.13192799965E+02 -0.28515754810E+02  0.46142316094E+02  0.99999847961E+01 0.  0.
        -12    1    1    2    0    0  0.32278714275E+02  0.13192799965E+02  0.28515754810E+02  0.45045683906E+02  0.00000000000E+00 0.  1.
         11    1    3    3    0    0 -0.26212814949E+02 -0.78997934996E+01 -0.19506259995E+02  0.33615659805E+02  0.51100000000E-03 0. -1.
        -11    1    3    3    0    0 -0.13920657731E+01 -0.33741206762E+01 -0.36946048115E+01  0.51935192720E+01  0.51100000000E-03 0.  1.
        -12    1    3    3    0    0 -0.46738335538E+01 -0.19188857890E+01 -0.53148900032E+01  0.73331370167E+01  0.00000000000E+00 0.  1.
</event>
<event>
 7    1  0.1543346E-008  0.4614232E+02  0.7816164E-02  0.1320468E+00
        -11   -1    0    0    0    0  0.00000000000E+00  0.00000000000E+00  0.45593999997E+02  0.45594000000E+02  0.51100000000E-03 0. -1.
         11   -1    0    0    0    0 -0.00000000000E+00 -0.00000000000E+00 -0.45593999997E+02  0.45594000000E+02  0.51100000000E-03 0.  1.
    9900012    2    1    2    0    0 -0.15109530365E+02  0.10521434298E+02  0.41111008359E+02  0.46142317678E+02  0.99999992418E+01 0.  0.
        -12    1    1    2    0    0  0.15109530365E+02 -0.10521434298E+02 -0.41111008359E+02  0.45045682322E+02  0.00000000000E+00 0.  1.
         11    1    3    3    0    0 -0.64166049088E+01  0.37461674254E+01  0.18461518044E+02  0.19900608978E+02  0.51100000000E-03 0. -1.
        -11    1    3    3    0    0 -0.35919700856E+01  0.33272976000E+01  0.17632010903E+02  0.18299206736E+02  0.51100000000E-03 0.  1.
         12    1    3    3    0    0 -0.51009553706E+01  0.34479692730E+01  0.50174794117E+01  0.79425019640E+01  0.00000000000E+00 0. -1.
</event>
<event>
 7    1  0.1543346E-008  0.4614232E+02  0.7816164E-02  0.1320468E+00
        -11   -1    0    0    0    0  0.00000000000E+00  0.00000000000E+00  0.45593999997E+02  0.45594000000E+02  0.51100000000E-03 0. -1.
         11   -1    0    0    0    0 -0.00000000000E+00 -0.00000000000E+00 -0.45593999997E+02  0.45594000000E+02  0.51100000000E-03 0.  1.
    9900012    2    1    2    0    0 -0.39827727552E+02  0.19998188106E+02  0.65527101005E+01  0.46142318530E+02  0.10000007010E+02 0.  0.
        -12    1    1    2    0    0  0.39827727552E+02 -0.19998188106E+02 -0.65527101005E+01  0.45045681470E+02  0.00000000000E+00 0.  1.
         11    1    3    3    0    0 -0.10668633730E+02  0.47578286814E+01  0.34682275300E+01  0.12185453701E+02  0.51100000000E-03 0. -1.
        -11    1    3    3    0    0 -0.29380639992E+02  0.14111693267E+02  0.25646240308E+01  0.32694635491E+02  0.51100000000E-03 0.  1.
        -12    1    3    3    0    0  0.22154617080E+00  0.11286661573E+01  0.51985853964E+00  0.12622293380E+01  0.00000000000E+00 0.  1.
</event>
<event>
 7    1  0.1543346E-008  0.4614232E+02  0.7816164E-02  0.1320468E+00
        -11   -1    0    0    0    0  0.00000000000E+00  0.00000000000E+00  0.45593999997E+02  0.45594000000E+02  0.51100000000E-03 0.  1.
         11   -1    0    0    0    0 -0.00000000000E+00 -0.00000000000E+00 -0.45593999997E+02  0.45594000000E+02  0.51100000000E-03 0. -1.
    9900012    2    1    2    0    0 -0.43267677924E+02 -0.71290573762E+01  0.10305255358E+02  0.46142315412E+02  0.99999785765E+01 0.  0.
        -12    1    1    2    0    0  0.43267677924E+02  0.71290573762E+01 -0.10305255358E+02  0.45045684588E+02  0.00000000000E+00 0.  1.
         11    1    3    3    0    0 -0.11175073474E+02 -0.47794088733E+01  0.35526179554E+01  0.12662784485E+02  0.51100000000E-03 0. -1.
        -11    1    3    3    0    0 -0.21092744143E+02 -0.13507401113E+01  0.13371073650E+01  0.21178201310E+02  0.51100000000E-03 0.  1.
        -12    1    3    3    0    0 -0.10999860307E+02 -0.99890839165E+00  0.54155300380E+01  0.12301329617E+02  0.00000000000E+00 0.  1.
</event>
<event>
 7    1  0.1543346E-008  0.4614232E+02  0.7816164E-02  0.1320468E+00
        -11   -1    0    0    0    0  0.00000000000E+00  0.00000000000E+00  0.45593999997E+02  0.45594000000E+02  0.51100000000E-03 0.  1.
         11   -1    0    0    0    0 -0.00000000000E+00 -0.00000000000E+00 -0.45593999997E+02  0.45594000000E+02  0.51100000000E-03 0. -1.
    9900012    2    1    2    0    0 -0.32180735844E+02 -0.19793485942E+02 -0.24530218520E+02  0.46142318012E+02  0.10000002286E+02 0.  0.
        -12    1    1    2    0    0  0.32180735844E+02  0.19793485942E+02  0.24530218520E+02  0.45045681988E+02  0.00000000000E+00 0.  1.
         11    1    3    3    0    0 -0.59781582515E+01 -0.19956731828E+01 -0.72654223287E+01  0.96180792993E+01  0.51100000000E-03 0. -1.
        -11    1    3    3    0    0 -0.19616275680E+02 -0.15968745263E+02 -0.12689769400E+02  0.28298928328E+02  0.51100000000E-03 0.  1.
        -12    1    3    3    0    0 -0.65863019121E+01 -0.18290674958E+01 -0.45750267905E+01  0.82253103842E+01  0.00000000000E+00 0.  1.
</event>
<event>
 7    1  0.1543346E-008  0.4614232E+02  0.7816164E-02  0.1320468E+00
        -11   -1    0    0    0    0  0.00000000000E+00  0.00000000000E+00  0.45593999997E+02  0.45594000000E+02  0.51100000000E-03 0.  1.
         11   -1    0    0    0    0 -0.00000000000E+00 -0.00000000000E+00 -0.45593999997E+02  0.45594000000E+02  0.51100000000E-03 0. -1.
    9900012    2    1    2    0    0  0.13777581521E+02  0.41886290031E+02 -0.92103494983E+01  0.46142316711E+02  0.99999904216E+01 0.  0.
        -12    1    1    2    0    0 -0.13777581521E+02 -0.41886290031E+02  0.92103494983E+01  0.45045683289E+02  0.00000000000E+00 0.  1.
         11    1    3    3    0    0  0.94673470695E+01  0.22218886164E+02 -0.42946519407E+01  0.24530666490E+02  0.51100000000E-03 0. -1.
        -11    1    3    3    0    0 -0.49315157747E+00  0.11864902435E+02 -0.24881140567E+01  0.12133005402E+02  0.51100000000E-03 0.  1.
        -12    1    3    3    0    0  0.48033860286E+01  0.78025014319E+01 -0.24275835009E+01  0.94786448181E+01  0.00000000000E+00 0.  1.
</event>
<event>
 7    1  0.1543346E-008  0.4614232E+02  0.7816164E-02  0.1320468E+00
        -11   -1    0    0    0    0  0.00000000000E+00  0.00000000000E+00  0.45593999997E+02  0.45594000000E+02  0.51100000000E-03 0.  1.
         11   -1    0    0    0    0 -0.00000000000E+00 -0.00000000000E+00 -0.45593999997E+02  0.45594000000E+02  0.51100000000E-03 0. -1.
    9900012    2    1    2    0    0 -0.46730895638E+01 -0.61054537084E+01 -0.44384671849E+02  0.46142318451E+02  0.10000006292E+02 0.  0.
        -12    1    1    2    0    0  0.46730895638E+01  0.61054537084E+01  0.44384671849E+02  0.45045681549E+02  0.00000000000E+00 0.  1.
         11    1    3    3    0    0 -0.13131707067E+01 -0.48970593452E+01 -0.18393872294E+02  0.19079836104E+02  0.51100000000E-03 0. -1.
        -11    1    3    3    0    0 -0.24348206179E+01  0.25563474565E+01 -0.14938753818E+02  0.15350232234E+02  0.51100000000E-03 0.  1.
        -12    1    3    3    0    0 -0.92509823930E+00 -0.37647418197E+01 -0.11052045738E+02  0.11712250113E+02  0.00000000000E+00 0.  1.
</event>
<event>
 7    1  0.1543346E-008  0.4614232E+02  0.7816164E-02  0.1320468E+00
        -11   -1    0    0    0    0  0.00000000000E+00  0.00000000000E+00  0.45593999997E+02  0.45594000000E+02  0.51100000000E-03 0.  1.
         11   -1    0    0    0    0 -0.00000000000E+00 -0.00000000000E+00 -0.45593999997E+02  0.45594000000E+02  0.51100000000E-03 0. -1.
    9900012    2    1    2    0    0  0.29341621537E+02  0.24224268828E+02 -0.24111564885E+02  0.46142317456E+02  0.99999972196E+01 0.  0.
        -12    1    1    2    0    0 -0.29341621537E+02 -0.24224268828E+02  0.24111564885E+02  0.45045682544E+02  0.00000000000E+00 0.  1.
         11    1    3    3    0    0  0.12136768316E+01  0.13218979060E+01  0.56972098395E+00  0.18828191061E+01  0.51100000000E-03 0.  1.
        -11    1    3    3    0    0  0.61143666799E+00  0.22009561922E+01 -0.11908474548E+01  0.25760785859E+01  0.51100000000E-03 0. -1.
         12    1    3    3    0    0  0.27516508037E+02  0.20701414729E+02 -0.23490438414E+02  0.41683419764E+02  0.00000000000E+00 0. -1.
</event>
<event>
 7    1  0.1543346E-008  0.4614232E+02  0.7816164E-02  0.1320468E+00
        -11   -1    0    0    0    0  0.00000000000E+00  0.00000000000E+00  0.45593999997E+02  0.45594000000E+02  0.51100000000E-03 0.  1.
         11   -1    0    0    0    0 -0.00000000000E+00 -0.00000000000E+00 -0.45593999997E+02  0.45594000000E+02  0.51100000000E-03 0. -1.
    9900012    2    1    2    0    0  0.16830636053E+02 -0.31643993676E+02 -0.27285544057E+02  0.46142316963E+02  0.99999927244E+01 0.  0.
        -12    1    1    2    0    0 -0.16830636053E+02  0.31643993676E+02  0.27285544057E+02  0.45045683037E+02  0.00000000000E+00 0.  1.
         11    1    3    3    0    0  0.38291313838E+01 -0.16068557048E+02 -0.10144337173E+02  0.19384745283E+02  0.51100000000E-03 0. -1.
        -11    1    3    3    0    0  0.65109693885E+00 -0.61696177165E+00 -0.40489647636E-01  0.89789126521E+00  0.51100000000E-03 0.  1.
         12    1    3    3    0    0  0.12350407730E+02 -0.14958474857E+02 -0.17100717236E+02  0.25859680415E+02  0.00000000000E+00 0. -1.
</event>
<event>
 7    1  0.1543346E-008  0.4614232E+02  0.7816164E-02  0.1320468E+00
        -11   -1    0    0    0    0  0.00000000000E+00  0.00000000000E+00  0.45593999997E+02  0.45594000000E+02  0.51100000000E-03 0. -1.
         11   -1    0    0    0    0 -0.00000000000E+00 -0.00000000000E+00 -0.45593999997E+02  0.45594000000E+02  0.51100000000E-03 0.  1.
    9900012    2    1    2    0    0  0.12034793682E+02 -0.43074118388E+02  0.53756413875E+01  0.46142318141E+02  0.10000003460E+02 0.  0.
        -12    1    1    2    0    0 -0.12034793682E+02  0.43074118388E+02 -0.53756413875E+01  0.45045681859E+02  0.00000000000E+00 0.  1.
         11    1    3    3    0    0  0.30076134775E+01 -0.22029025322E+02 -0.69338590576E+00  0.22244201036E+02  0.51100000000E-03 0. -1.
        -11    1    3    3    0    0  0.53606741461E+01 -0.11938249614E+02  0.18657497848E+01  0.13218912726E+02  0.51100000000E-03 0.  1.
         12    1    3    3    0    0  0.36665060586E+01 -0.91068434524E+01  0.42032775084E+01  0.10679204379E+02  0.00000000000E+00 0. -1.
</event>
<event>
 7    1  0.1543346E-008  0.4614232E+02  0.7816164E-02  0.1320468E+00
        -11   -1    0    0    0    0  0.00000000000E+00  0.00000000000E+00  0.45593999997E+02  0.45594000000E+02  0.51100000000E-03 0.  1.
         11   -1    0    0    0    0 -0.00000000000E+00 -0.00000000000E+00 -0.45593999997E+02  0.45594000000E+02  0.51100000000E-03 0. -1.
    9900012    2    1    2    0    0  0.15089761450E+01 -0.99904608976E+01 -0.43897912670E+02  0.46142322574E+02  0.10000043887E+02 0.  0.
        -12    1    1    2    0    0 -0.15089761450E+01  0.99904608976E+01  0.43897912670E+02  0.45045677426E+02  0.00000000000E+00 0.  1.
         11    1    3    3    0    0  0.37918678383E+01 -0.60918300490E+01 -0.17846754650E+02  0.19235262069E+02  0.51100000000E-03 0. -1.
        -11    1    3    3    0    0 -0.32801952952E+00 -0.25748314978E+01 -0.42607259185E+01  0.49891020903E+01  0.51100000000E-03 0.  1.
         12    1    3    3    0    0 -0.19548721637E+01 -0.13237993508E+01 -0.21790432102E+02  0.21917958415E+02  0.00000000000E+00 0. -1.
</event>
<event>
 7    1  0.1543346E-008  0.4614232E+02  0.7816164E-02  0.1320468E+00
        -11   -1    0    0    0    0  0.00000000000E+00  0.00000000000E+00  0.45593999997E+02  0.45594000000E+02  0.51100000000E-03 0.  1.
         11   -1    0    0    0    0 -0.00000000000E+00 -0.00000000000E+00 -0.45593999997E+02  0.45594000000E+02  0.51100000000E-03 0. -1.
    9900012    2    1    2    0    0 -0.35740964818E+02 -0.25354301163E+02 -0.10433423264E+02  0.46142317915E+02  0.10000001400E+02 0.  0.
        -12    1    1    2    0    0  0.35740964818E+02  0.25354301163E+02  0.10433423264E+02  0.45045682085E+02  0.00000000000E+00 0.  1.
         11    1    3    3    0    0 -0.25060397696E+02 -0.14512903463E+02 -0.80011230935E+01  0.30044398324E+02  0.51100000000E-03 0. -1.
        -11    1    3    3    0    0 -0.53921126059E+01 -0.56280431911E+01 -0.35915381470E+01  0.85818934413E+01  0.51100000000E-03 0.  1.
         12    1    3    3    0    0 -0.52884545154E+01 -0.52133545082E+01  0.11592379768E+01  0.75160261493E+01  0.00000000000E+00 0. -1.
</event>
<event>
 7    1  0.1543346E-008  0.4614232E+02  0.7816164E-02  0.1320468E+00
        -11   -1    0    0    0    0  0.00000000000E+00  0.00000000000E+00  0.45593999997E+02  0.45594000000E+02  0.51100000000E-03 0.  1.
         11   -1    0    0    0    0 -0.00000000000E+00 -0.00000000000E+00 -0.45593999997E+02  0.45594000000E+02  0.51100000000E-03 0. -1.
    9900012    2    1    2    0    0 -0.11589826143E+01 -0.39881845660E+02 -0.20909534060E+02  0.46142317981E+02  0.10000002008E+02 0.  0.
        -12    1    1    2    0    0  0.11589826143E+01  0.39881845660E+02  0.20909534060E+02  0.45045682019E+02  0.00000000000E+00 0.  1.
         11    1    3    3    0    0 -0.23823544328E+01 -0.89841661014E+01 -0.45165313631E+01  0.10333920311E+02  0.51100000000E-03 0. -1.
        -11    1    3    3    0    0  0.19470396797E+01 -0.30551982613E+02 -0.14754109006E+02  0.33983795225E+02  0.51100000000E-03 0.  1.
        -12    1    3    3    0    0 -0.72366786115E+00 -0.34569694539E+00 -0.16388936911E+01  0.18246024449E+01  0.00000000000E+00 0.  1.
</event>
<event>
 7    1  0.1543346E-008  0.4614232E+02  0.7816164E-02  0.1320468E+00
        -11   -1    0    0    0    0  0.00000000000E+00  0.00000000000E+00  0.45593999997E+02  0.45594000000E+02  0.51100000000E-03 0.  1.
         11   -1    0    0    0    0 -0.00000000000E+00 -0.00000000000E+00 -0.45593999997E+02  0.45594000000E+02  0.51100000000E-03 0. -1.
    9900012    2    1    2    0    0 -0.38250420769E+02  0.15557807930E+02  0.17999261964E+02  0.46142317545E+02  0.99999980329E+01 0.  0.
        -12    1    1    2    0    0  0.38250420769E+02 -0.15557807930E+02 -0.17999261964E+02  0.45045682455E+02  0.00000000000E+00 0.  1.
         11    1    3    3    0    0 -0.26026248984E+02  0.72470761917E+01  0.14773793392E+02  0.30792056134E+02  0.51100000000E-03 0. -1.
        -11    1    3    3    0    0 -0.57145581503E+01  0.24136856663E+01  0.93935033780E+00  0.62741081173E+01  0.51100000000E-03 0.  1.
         12    1    3    3    0    0 -0.65096136345E+01  0.58970460716E+01  0.22861182341E+01  0.90761532943E+01  0.00000000000E+00 0. -1.
</event>
<event>
 7    1  0.1543346E-008  0.4614232E+02  0.7816164E-02  0.1320468E+00
        -11   -1    0    0    0    0  0.00000000000E+00  0.00000000000E+00  0.45593999997E+02  0.45594000000E+02  0.51100000000E-03 0. -1.
         11   -1    0    0    0    0 -0.00000000000E+00 -0.00000000000E+00 -0.45593999997E+02  0.45594000000E+02  0.51100000000E-03 0.  1.
    9900012    2    1    2    0    0  0.44191408487E+02 -0.82260128319E+01  0.29267184759E+01  0.46142317053E+02  0.99999935409E+01 0.  0.
        -12    1    1    2    0    0 -0.44191408487E+02  0.82260128319E+01 -0.29267184759E+01  0.45045682947E+02  0.00000000000E+00 0.  1.
         11    1    3    3    0    0  0.21053673701E+02 -0.64057047216E+01  0.35889719556E+01  0.22297330541E+02  0.51100000000E-03 0. -1.
        -11    1    3    3    0    0  0.74098873798E+01 -0.30220814496E+01  0.57332244916E+00  0.80229736483E+01  0.51100000000E-03 0.  1.
         12    1    3    3    0    0  0.15727847406E+02  0.12017733394E+01 -0.12355759289E+01  0.15822012864E+02  0.00000000000E+00 0. -1.
</event>
<event>
 7    1  0.1543346E-008  0.4614231E+02  0.7816164E-02  0.1320468E+00
        -11   -1    0    0    0    0  0.00000000000E+00  0.00000000000E+00  0.45593999997E+02  0.45594000000E+02  0.51100000000E-03 0.  1.
         11   -1    0    0    0    0 -0.00000000000E+00 -0.00000000000E+00 -0.45593999997E+02  0.45594000000E+02  0.51100000000E-03 0. -1.
    9900012    2    1    2    0    0  0.75405259325E+01 -0.40675397657E+02 -0.17826001051E+02  0.46142314087E+02  0.99999664955E+01 0.  0.
        -12    1    1    2    0    0 -0.75405259325E+01  0.40675397657E+02  0.17826001051E+02  0.45045685913E+02  0.00000000000E+00 0.  1.
         11    1    3    3    0    0  0.46773322422E+01 -0.20916330530E+02 -0.80130629107E+01  0.22881859566E+02  0.51100000000E-03 0. -1.
        -11    1    3    3    0    0 -0.15618410885E+01 -0.11787209545E+01 -0.13000554949E+01  0.23492286448E+01  0.51100000000E-03 0.  1.
        -12    1    3    3    0    0  0.44250347788E+01 -0.18580346173E+02 -0.85128826450E+01  0.20911225876E+02  0.00000000000E+00 0.  1.
</event>
<event>
 7    1  0.1543346E-008  0.4614232E+02  0.7816164E-02  0.1320468E+00
        -11   -1    0    0    0    0  0.00000000000E+00  0.00000000000E+00  0.45593999997E+02  0.45594000000E+02  0.51100000000E-03 0.  1.
         11   -1    0    0    0    0 -0.00000000000E+00 -0.00000000000E+00 -0.45593999997E+02  0.45594000000E+02  0.51100000000E-03 0. -1.
    9900012    2    1    2    0    0 -0.18475269857E+01 -0.42776125854E+02  0.13996540002E+02  0.46142318397E+02  0.10000005802E+02 0.  0.
        -12    1    1    2    0    0  0.18475269857E+01  0.42776125854E+02 -0.13996540002E+02  0.45045681603E+02  0.00000000000E+00 0.  1.
         11    1    3    3    0    0  0.21764541662E+01 -0.29329884215E+02  0.91377262610E+01  0.30797355443E+02  0.51100000000E-03 0. -1.
        -11    1    3    3    0    0 -0.39565174033E+00 -0.37124020412E+01 -0.30186364162E+00  0.37456095811E+01  0.51100000000E-03 0.  1.
         12    1    3    3    0    0 -0.36283294116E+01 -0.97338395975E+01  0.51606773822E+01  0.11599353373E+02  0.00000000000E+00 0. -1.
</event>
<event>
 7    1  0.1543346E-008  0.4614232E+02  0.7816164E-02  0.1320468E+00
        -11   -1    0    0    0    0  0.00000000000E+00  0.00000000000E+00  0.45593999997E+02  0.45594000000E+02  0.51100000000E-03 0.  1.
         11   -1    0    0    0    0 -0.00000000000E+00 -0.00000000000E+00 -0.45593999997E+02  0.45594000000E+02  0.51100000000E-03 0. -1.
    9900012    2    1    2    0    0 -0.22574900673E+01  0.39101496704E+02 -0.22250615837E+02  0.46142320840E+02  0.10000028074E+02 0.  0.
        -12    1    1    2    0    0  0.22574900673E+01 -0.39101496704E+02  0.22250615837E+02  0.45045679160E+02  0.00000000000E+00 0.  1.
         11    1    3    3    0    0 -0.46759348538E-01  0.19160714135E+02 -0.13359436512E+02  0.23358289681E+02  0.51100000000E-03 0. -1.
        -11    1    3    3    0    0 -0.42370261136E+01  0.12107084056E+02 -0.62780042122E+01  0.14281008780E+02  0.51100000000E-03 0.  1.
        -12    1    3    3    0    0  0.20262953949E+01  0.78336985131E+01 -0.26131751119E+01  0.85030223796E+01  0.00000000000E+00 0.  1.
</event>
<event>
 7    1  0.1543346E-008  0.4614232E+02  0.7816164E-02  0.1320468E+00
        -11   -1    0    0    0    0  0.00000000000E+00  0.00000000000E+00  0.45593999997E+02  0.45594000000E+02  0.51100000000E-03 0.  1.
         11   -1    0    0    0    0 -0.00000000000E+00 -0.00000000000E+00 -0.45593999997E+02  0.45594000000E+02  0.51100000000E-03 0. -1.
    9900012    2    1    2    0    0 -0.20986701429E+02  0.53321199334E+01 -0.39499876941E+02  0.46142318539E+02  0.10000007098E+02 0.  0.
        -12    1    1    2    0    0  0.20986701429E+02 -0.53321199334E+01  0.39499876941E+02  0.45045681461E+02  0.00000000000E+00 0.  1.
         11    1    3    3    0    0 -0.89991225050E+01 -0.26300923796E+01 -0.14158724190E+02  0.16981491770E+02  0.51100000000E-03 0. -1.
        -11    1    3    3    0    0 -0.81923559171E+01  0.60091002303E+01 -0.17917670411E+02  0.20597740028E+02  0.51100000000E-03 0.  1.
         12    1    3    3    0    0 -0.37952230070E+01  0.19531120827E+01 -0.74234823406E+01  0.85630867414E+01  0.00000000000E+00 0. -1.
</event>
<event>
 7    1  0.1543346E-008  0.4614232E+02  0.7816164E-02  0.1320468E+00
        -11   -1    0    0    0    0  0.00000000000E+00  0.00000000000E+00  0.45593999997E+02  0.45594000000E+02  0.51100000000E-03 0.  1.
         11   -1    0    0    0    0 -0.00000000000E+00 -0.00000000000E+00 -0.45593999997E+02  0.45594000000E+02  0.51100000000E-03 0. -1.
    9900012    2    1    2    0    0 -0.29886771344E+01 -0.30415445568E+02 -0.33092022616E+02  0.46142317844E+02  0.10000000753E+02 0.  0.
        -12    1    1    2    0    0  0.29886771344E+01  0.30415445568E+02  0.33092022616E+02  0.45045682156E+02  0.00000000000E+00 0.  1.
         11    1    3    3    0    0  0.93825444160E+00 -0.18804167334E+01 -0.23147608779E+00  0.21142066902E+01  0.51100000000E-03 0. -1.
        -11    1    3    3    0    0  0.81268458241E+00 -0.73485507097E+00 -0.14031922182E+01  0.17802856142E+01  0.51100000000E-03 0.  1.
         12    1    3    3    0    0 -0.47396161584E+01 -0.27800173763E+02 -0.31457354310E+02  0.42247825539E+02  0.00000000000E+00 0. -1.
</event>
<event>
 7    1  0.1543346E-008  0.4614231E+02  0.7816164E-02  0.1320468E+00
        -11   -1    0    0    0    0  0.00000000000E+00  0.00000000000E+00  0.45593999997E+02  0.45594000000E+02  0.51100000000E-03 0.  1.
         11   -1    0    0    0    0 -0.00000000000E+00 -0.00000000000E+00 -0.45593999997E+02  0.45594000000E+02  0.51100000000E-03 0. -1.
    9900012    2    1    2    0    0  0.15331355243E+02  0.37313496528E+02 -0.20044107932E+02  0.46142314973E+02  0.99999745794E+01 0.  0.
        -12    1    1    2    0    0 -0.15331355243E+02 -0.37313496528E+02  0.20044107932E+02  0.45045685027E+02  0.00000000000E+00 0.  1.
         11    1    3    3    0    0  0.14429627807E+02  0.35287771972E+02 -0.17532942350E+02  0.41962424585E+02  0.51100000000E-03 0. -1.
        -11    1    3    3    0    0 -0.64960407493E+00 -0.15249834416E+00 -0.50897450916E+00  0.83922375516E+00  0.51100000000E-03 0.  1.
         12    1    3    3    0    0  0.15513315109E+01  0.21782229008E+01 -0.20021910725E+01  0.33406666331E+01  0.00000000000E+00 0. -1.
</event>
<event>
 7    1  0.1543346E-008  0.4614232E+02  0.7816164E-02  0.1320468E+00
        -11   -1    0    0    0    0  0.00000000000E+00  0.00000000000E+00  0.45593999997E+02  0.45594000000E+02  0.51100000000E-03 0. -1.
         11   -1    0    0    0    0 -0.00000000000E+00 -0.00000000000E+00 -0.45593999997E+02  0.45594000000E+02  0.51100000000E-03 0.  1.
    9900012    2    1    2    0    0  0.14947843123E+02  0.40620803748E+02  0.12475005646E+02  0.46142317886E+02  0.10000001142E+02 0.  0.
        -12    1    1    2    0    0 -0.14947843123E+02 -0.40620803748E+02 -0.12475005646E+02  0.45045682114E+02  0.00000000000E+00 0.  1.
         11    1    3    3    0    0  0.10790252191E+02  0.26781657783E+02  0.81390501347E+01  0.29998847866E+02  0.51100000000E-03 0. -1.
        -11    1    3    3    0    0 -0.12237657021E+01  0.35173670331E+01  0.69106494231E-02  0.37241806290E+01  0.51100000000E-03 0.  1.
        -12    1    3    3    0    0  0.53813566347E+01  0.10321778932E+02  0.43290448622E+01  0.12419289391E+02  0.00000000000E+00 0.  1.
</event>
<event>
 7    1  0.1543346E-008  0.4614232E+02  0.7816164E-02  0.1320468E+00
        -11   -1    0    0    0    0  0.00000000000E+00  0.00000000000E+00  0.45593999997E+02  0.45594000000E+02  0.51100000000E-03 0.  1.
         11   -1    0    0    0    0 -0.00000000000E+00 -0.00000000000E+00 -0.45593999997E+02  0.45594000000E+02  0.51100000000E-03 0. -1.
    9900012    2    1    2    0    0  0.30233347067E+02  0.33144813644E+01 -0.33227585495E+02  0.46142317639E+02  0.99999988836E+01 0.  0.
        -12    1    1    2    0    0 -0.30233347067E+02 -0.33144813644E+01  0.33227585495E+02  0.45045682361E+02  0.00000000000E+00 0.  1.
         11    1    3    3    0    0  0.11895283273E+02 -0.26845212860E+01 -0.15605444520E+02  0.19804906403E+02  0.51100000000E-03 0. -1.
        -11    1    3    3    0    0  0.17040047267E+02  0.45727465511E+01 -0.15996894006E+02  0.23815411816E+02  0.51100000000E-03 0.  1.
        -12    1    3    3    0    0  0.12980165267E+01  0.14262560992E+01 -0.16252469691E+01  0.25219994201E+01  0.00000000000E+00 0.  1.
</event>
<event>
 7    1  0.1543346E-008  0.4614232E+02  0.7816164E-02  0.1320468E+00
        -11   -1    0    0    0    0  0.00000000000E+00  0.00000000000E+00  0.45593999997E+02  0.45594000000E+02  0.51100000000E-03 0.  1.
         11   -1    0    0    0    0 -0.00000000000E+00 -0.00000000000E+00 -0.45593999997E+02  0.45594000000E+02  0.51100000000E-03 0. -1.
    9900012    2    1    2    0    0 -0.95243501020E+01  0.76250243681E+01 -0.43361955912E+02  0.46142318053E+02  0.10000002666E+02 0.  0.
        -12    1    1    2    0    0  0.95243501020E+01 -0.76250243681E+01  0.43361955912E+02  0.45045681947E+02  0.00000000000E+00 0.  1.
         11    1    3    3    0    0 -0.96126964165E+00  0.21144859087E+01 -0.16846750326E+01  0.28693588497E+01  0.51100000000E-03 0.  1.
        -11    1    3    3    0    0 -0.57777872302E+01  0.64692504488E+01 -0.32261753618E+02  0.33407405966E+02  0.51100000000E-03 0. -1.
         12    1    3    3    0    0 -0.27852932301E+01 -0.95871198943E+00 -0.94155272621E+01  0.98655532374E+01  0.00000000000E+00 0. -1.
</event>
<event>
 7    1  0.1543346E-008  0.4614232E+02  0.7816164E-02  0.1320468E+00
        -11   -1    0    0    0    0  0.00000000000E+00  0.00000000000E+00  0.45593999997E+02  0.45594000000E+02  0.51100000000E-03 0.  1.
         11   -1    0    0    0    0 -0.00000000000E+00 -0.00000000000E+00 -0.45593999997E+02  0.45594000000E+02  0.51100000000E-03 0. -1.
    9900012    2    1    2    0    0 -0.26528633033E+02 -0.16329930699E+02 -0.32537341551E+02  0.46142316495E+02  0.99999884561E+01 0.  0.
        -12    1    1    2    0    0  0.26528633033E+02  0.16329930699E+02  0.32537341551E+02  0.45045683505E+02  0.00000000000E+00 0.  1.
         11    1    3    3    0    0 -0.71485830734E+01 -0.30427975210E+01 -0.10067248169E+02  0.12716538156E+02  0.51100000000E-03 0. -1.
        -11    1    3    3    0    0 -0.15607062156E+02 -0.13384714786E+02 -0.20959734576E+02  0.29360542448E+02  0.51100000000E-03 0.  1.
        -12    1    3    3    0    0 -0.37729878033E+01  0.97581607551E-01 -0.15103588051E+01  0.40652358916E+01  0.00000000000E+00 0.  1.
</event>
<event>
 7    1  0.1543346E-008  0.4614232E+02  0.7816164E-02  0.1320468E+00
        -11   -1    0    0    0    0  0.00000000000E+00  0.00000000000E+00  0.45593999997E+02  0.45594000000E+02  0.51100000000E-03 0.  1.
         11   -1    0    0    0    0 -0.00000000000E+00 -0.00000000000E+00 -0.45593999997E+02  0.45594000000E+02  0.51100000000E-03 0. -1.
    9900012    2    1    2    0    0 -0.33637418644E+02 -0.28610580909E+02 -0.88922569125E+01  0.46142317565E+02  0.99999982159E+01 0.  0.
        -12    1    1    2    0    0  0.33637418644E+02  0.28610580909E+02  0.88922569125E+01  0.45045682435E+02  0.00000000000E+00 0.  1.
         11    1    3    3    0    0 -0.55688173974E+01 -0.29369353256E+01 -0.22318414030E+01  0.66797030339E+01  0.51100000000E-03 0. -1.
        -11    1    3    3    0    0 -0.13179032827E+02 -0.16181842362E+02 -0.63056274971E+01  0.21801373050E+02  0.51100000000E-03 0.  1.
        -12    1    3    3    0    0 -0.14889568420E+02 -0.94918032211E+01 -0.35478801241E+00  0.17661241481E+02  0.00000000000E+00 0.  1.
</event>
<event>
 7    1  0.1543346E-008  0.4614232E+02  0.7816164E-02  0.1320468E+00
        -11   -1    0    0    0    0  0.00000000000E+00  0.00000000000E+00  0.45593999997E+02  0.45594000000E+02  0.51100000000E-03 0.  1.
         11   -1    0    0    0    0 -0.00000000000E+00 -0.00000000000E+00 -0.45593999997E+02  0.45594000000E+02  0.51100000000E-03 0. -1.
    9900012    2    1    2    0    0 -0.13934144062E+02 -0.27004759675E+02 -0.33252009353E+02  0.46142317168E+02  0.99999945890E+01 0.  0.
        -12    1    1    2    0    0  0.13934144062E+02  0.27004759675E+02  0.33252009353E+02  0.45045682832E+02  0.00000000000E+00 0.  1.
         11    1    3    3    0    0 -0.74064296251E+01 -0.79070256918E+01 -0.11395087673E+02  0.15723367274E+02  0.51100000000E-03 0. -1.
        -11    1    3    3    0    0 -0.34070106280E+01 -0.13575618119E+02 -0.18631168156E+02  0.23302908743E+02  0.51100000000E-03 0.  1.
        -12    1    3    3    0    0 -0.31207038086E+01 -0.55221158639E+01 -0.32257535232E+01  0.71160411514E+01  0.00000000000E+00 0.  1.
</event>
<event>
 7    1  0.1543346E-008  0.4614232E+02  0.7816164E-02  0.1320468E+00
        -11   -1    0    0    0    0  0.00000000000E+00  0.00000000000E+00  0.45593999997E+02  0.45594000000E+02  0.51100000000E-03 0. -1.
         11   -1    0    0    0    0 -0.00000000000E+00 -0.00000000000E+00 -0.45593999997E+02  0.45594000000E+02  0.51100000000E-03 0.  1.
    9900012    2    1    2    0    0 -0.31426306088E+02  0.32161472161E+02  0.26721628124E+01  0.46142318076E+02  0.10000002872E+02 0.  0.
        -12    1    1    2    0    0  0.31426306088E+02 -0.32161472161E+02 -0.26721628124E+01  0.45045681924E+02  0.00000000000E+00 0.  1.
         11    1    3    3    0    0 -0.22855707533E+02  0.28789403870E+02  0.22933892293E+01  0.36830324143E+02  0.51100000000E-03 0. -1.
        -11    1    3    3    0    0 -0.80676215462E+01  0.34213931270E+01  0.54475507955E+00  0.87800459395E+01  0.51100000000E-03 0.  1.
         12    1    3    3    0    0 -0.50297700899E+00 -0.49324836211E-01 -0.16598149651E+00  0.53194799391E+00  0.00000000000E+00 0. -1.
</event>
<event>
 7    1  0.1543346E-008  0.4614232E+02  0.7816164E-02  0.1320468E+00
        -11   -1    0    0    0    0  0.00000000000E+00  0.00000000000E+00  0.45593999997E+02  0.45594000000E+02  0.51100000000E-03 0.  1.
         11   -1    0    0    0    0 -0.00000000000E+00 -0.00000000000E+00 -0.45593999997E+02  0.45594000000E+02  0.51100000000E-03 0. -1.
    9900012    2    1    2    0    0  0.33971464125E+01 -0.30185631948E+02 -0.33262601961E+02  0.46142315756E+02  0.99999817121E+01 0.  0.
        -12    1    1    2    0    0 -0.33971464125E+01  0.30185631948E+02  0.33262601961E+02  0.45045684244E+02  0.00000000000E+00 0.  1.
         11    1    3    3    0    0  0.15841683123E+01 -0.29647587609E+02 -0.30369301395E+02  0.42470972531E+02  0.51100000000E-03 0. -1.
        -11    1    3    3    0    0  0.12268130258E+01  0.22092013027E+00 -0.20236741745E+01  0.23767905524E+01  0.51100000000E-03 0.  1.
         12    1    3    3    0    0  0.58616507437E+00 -0.75896446928E+00 -0.86962639177E+00  0.12945526723E+01  0.00000000000E+00 0. -1.
</event>
<event>
 7    1  0.1543346E-008  0.4614232E+02  0.7816164E-02  0.1320468E+00
        -11   -1    0    0    0    0  0.00000000000E+00  0.00000000000E+00  0.45593999997E+02  0.45594000000E+02  0.51100000000E-03 0. -1.
         11   -1    0    0    0    0 -0.00000000000E+00 -0.00000000000E+00 -0.45593999997E+02  0.45594000000E+02  0.51100000000E-03 0.  1.
    9900012    2    1    2    0    0  0.28939799555E+02  0.25660085125E+02  0.23090290478E+02  0.46142317840E+02  0.10000000719E+02 0.  0.
        -12    1    1    2    0    0 -0.28939799555E+02 -0.25660085125E+02 -0.23090290478E+02  0.45045682160E+02  0.00000000000E+00 0.  1.
         11    1    3    3    0    0  0.20152682244E+02  0.12204985850E+02  0.11789255006E+02  0.26345375592E+02  0.51100000000E-03 0. -1.
        -11    1    3    3    0    0  0.24667298047E+01  0.59588133725E+01  0.44706483909E+01  0.78472230779E+01  0.51100000000E-03 0.  1.
         12    1    3    3    0    0  0.63203875056E+01  0.74962859030E+01  0.68303870811E+01  0.11949719170E+02  0.00000000000E+00 0. -1.
</event>
<event>
 7    1  0.1543346E-008  0.4614232E+02  0.7816164E-02  0.1320468E+00
        -11   -1    0    0    0    0  0.00000000000E+00  0.00000000000E+00  0.45593999997E+02  0.45594000000E+02  0.51100000000E-03 0.  1.
         11   -1    0    0    0    0 -0.00000000000E+00 -0.00000000000E+00 -0.45593999997E+02  0.45594000000E+02  0.51100000000E-03 0. -1.
    9900012    2    1    2    0    0 -0.16799153506E+02 -0.16943104029E+02 -0.38207761609E+02  0.46142318966E+02  0.10000010983E+02 0.  0.
        -12    1    1    2    0    0  0.16799153506E+02  0.16943104029E+02  0.38207761609E+02  0.45045681034E+02  0.00000000000E+00 0.  1.
         11    1    3    3    0    0 -0.21242477321E+01 -0.14183553155E+01 -0.10606058195E+02  0.10909291036E+02  0.51100000000E-03 0.  1.
        -11    1    3    3    0    0 -0.72191649564E+01 -0.97598345110E+01 -0.18525470788E+02  0.22148674465E+02  0.51100000000E-03 0. -1.
        -12    1    3    3    0    0 -0.74557408170E+01 -0.57649142027E+01 -0.90762326266E+01  0.13084353465E+02  0.00000000000E+00 0.  1.
</event>
<event>
 7    1  0.1543346E-008  0.4614232E+02  0.7816164E-02  0.1320468E+00
        -11   -1    0    0    0    0  0.00000000000E+00  0.00000000000E+00  0.45593999997E+02  0.45594000000E+02  0.51100000000E-03 0.  1.
         11   -1    0    0    0    0 -0.00000000000E+00 -0.00000000000E+00 -0.45593999997E+02  0.45594000000E+02  0.51100000000E-03 0. -1.
    9900012    2    1    2    0    0 -0.32611107219E+02  0.16797018998E+02 -0.26143628285E+02  0.46142318063E+02  0.10000002752E+02 0.  0.
        -12    1    1    2    0    0  0.32611107219E+02 -0.16797018998E+02  0.26143628285E+02  0.45045681937E+02  0.00000000000E+00 0.  1.
         11    1    3    3    0    0 -0.19974384808E+02  0.10822482738E+02 -0.18130373429E+02  0.29065660529E+02  0.51100000000E-03 0. -1.
        -11    1    3    3    0    0 -0.95151181505E+01  0.64991488656E+01 -0.45605028904E+01  0.12392521788E+02  0.51100000000E-03 0.  1.
         12    1    3    3    0    0 -0.31216042607E+01 -0.52461260548E+00 -0.34527519655E+01  0.46841357454E+01  0.00000000000E+00 0. -1.
</event>
<event>
 7    1  0.1543346E-008  0.4614232E+02  0.7816164E-02  0.1320468E+00
        -11   -1    0    0    0    0  0.00000000000E+00  0.00000000000E+00  0.45593999997E+02  0.45594000000E+02  0.51100000000E-03 0.  1.
         11   -1    0    0    0    0 -0.00000000000E+00 -0.00000000000E+00 -0.45593999997E+02  0.45594000000E+02  0.51100000000E-03 0. -1.
    9900012    2    1    2    0    0  0.65628985217E+01 -0.10526659027E+02 -0.43303941715E+02  0.46142317018E+02  0.99999932206E+01 0.  0.
        -12    1    1    2    0    0 -0.65628985217E+01  0.10526659027E+02  0.43303941715E+02  0.45045682982E+02  0.00000000000E+00 0.  1.
         11    1    3    3    0    0  0.27260702963E+01 -0.43561453566E+01 -0.23915739783E+02  0.24461604021E+02  0.51100000000E-03 0. -1.
        -11    1    3    3    0    0  0.51426995411E+01 -0.65555998178E+01 -0.16315713284E+02  0.18320091369E+02  0.51100000000E-03 0.  1.
         12    1    3    3    0    0 -0.13058713157E+01  0.38508614752E+00 -0.30724886480E+01  0.33606216279E+01  0.00000000000E+00 0. -1.
</event>
<event>
 7    1  0.1543346E-008  0.4614232E+02  0.7816164E-02  0.1320468E+00
        -11   -1    0    0    0    0  0.00000000000E+00  0.00000000000E+00  0.45593999997E+02  0.45594000000E+02  0.51100000000E-03 0. -1.
         11   -1    0    0    0    0 -0.00000000000E+00 -0.00000000000E+00 -0.45593999997E+02  0.45594000000E+02  0.51100000000E-03 0.  1.
    9900012    2    1    2    0    0 -0.16391556924E+02 -0.41653887872E+02 -0.50382508776E+01  0.46142317797E+02  0.10000000328E+02 0.  0.
        -12    1    1    2    0    0  0.16391556924E+02  0.41653887872E+02  0.50382508776E+01  0.45045682203E+02  0.00000000000E+00 0.  1.
         11    1    3    3    0    0 -0.65431299395E+01 -0.19335670827E+02 -0.29412828169E-01  0.20412779848E+02  0.51100000000E-03 0. -1.
        -11    1    3    3    0    0 -0.41947363549E+01 -0.90675798725E+01  0.11600256669E+01  0.10057955937E+02  0.51100000000E-03 0.  1.
        -12    1    3    3    0    0 -0.56536906293E+01 -0.13250637172E+02 -0.61688637163E+01  0.15671582012E+02  0.00000000000E+00 0.  1.
</event>
<event>
 7    1  0.1543346E-008  0.4614232E+02  0.7816164E-02  0.1320468E+00
        -11   -1    0    0    0    0  0.00000000000E+00  0.00000000000E+00  0.45593999997E+02  0.45594000000E+02  0.51100000000E-03 0.  1.
         11   -1    0    0    0    0 -0.00000000000E+00 -0.00000000000E+00 -0.45593999997E+02  0.45594000000E+02  0.51100000000E-03 0. -1.
    9900012    2    1    2    0    0  0.39042041408E+02 -0.20942526085E+02 -0.81389879412E+01  0.46142317401E+02  0.99999967127E+01 0.  0.
        -12    1    1    2    0    0 -0.39042041408E+02  0.20942526085E+02  0.81389879412E+01  0.45045682599E+02  0.00000000000E+00 0.  1.
         11    1    3    3    0    0  0.26499452667E+02 -0.13779487195E+02 -0.72112905409E+00  0.29876667926E+02  0.51100000000E-03 0. -1.
        -11    1    3    3    0    0  0.66708401329E+01 -0.35777500139E+01 -0.43740941135E+01  0.87426027483E+01  0.51100000000E-03 0.  1.
         12    1    3    3    0    0  0.58717486087E+01 -0.35852888758E+01 -0.30437647736E+01  0.75230467262E+01  0.00000000000E+00 0. -1.
</event>
<event>
 7    1  0.1543346E-008  0.4614232E+02  0.7816164E-02  0.1320468E+00
        -11   -1    0    0    0    0  0.00000000000E+00  0.00000000000E+00  0.45593999997E+02  0.45594000000E+02  0.51100000000E-03 0.  1.
         11   -1    0    0    0    0 -0.00000000000E+00 -0.00000000000E+00 -0.45593999997E+02  0.45594000000E+02  0.51100000000E-03 0. -1.
    9900012    2    1    2    0    0  0.20821672169E+02  0.19219690061E+02 -0.35016783028E+02  0.46142316394E+02  0.99999875307E+01 0.  0.
        -12    1    1    2    0    0 -0.20821672169E+02 -0.19219690061E+02  0.35016783028E+02  0.45045683606E+02  0.00000000000E+00 0.  1.
         11    1    3    3    0    0  0.10114912074E+02  0.90066178410E+01 -0.11087160844E+02  0.17503021083E+02  0.51100000000E-03 0. -1.
        -11    1    3    3    0    0 -0.42259315404E-01 -0.52299651033E+00 -0.57764315939E+00  0.78037367989E+00  0.51100000000E-03 0.  1.
         12    1    3    3    0    0  0.10749019410E+02  0.10736068730E+02 -0.23351979024E+02  0.27858921630E+02  0.00000000000E+00 0. -1.
</event>
<event>
 7    1  0.1543346E-008  0.4614232E+02  0.7816164E-02  0.1320468E+00
        -11   -1    0    0    0    0  0.00000000000E+00  0.00000000000E+00  0.45593999997E+02  0.45594000000E+02  0.51100000000E-03 0. -1.
         11   -1    0    0    0    0 -0.00000000000E+00 -0.00000000000E+00 -0.45593999997E+02  0.45594000000E+02  0.51100000000E-03 0.  1.
    9900012    2    1    2    0    0  0.25908109186E+02 -0.21391558959E+02  0.30004743089E+02  0.46142317364E+02  0.99999963803E+01 0.  0.
        -12    1    1    2    0    0 -0.25908109186E+02  0.21391558959E+02 -0.30004743089E+02  0.45045682636E+02  0.00000000000E+00 0.  1.
         11    1    3    3    0    0  0.14362802340E+02 -0.11414107056E+02  0.16805549134E+02  0.24879678713E+02  0.51100000000E-03 0. -1.
        -11    1    3    3    0    0  0.36643780186E+01 -0.31254164084E+00  0.98613067761E+00  0.38075979981E+01  0.51100000000E-03 0.  1.
        -12    1    3    3    0    0  0.78809288279E+01 -0.96649102622E+01  0.12213063277E+02  0.17455040653E+02  0.00000000000E+00 0.  1.
</event>
<event>
 7    1  0.1543346E-008  0.4614232E+02  0.7816164E-02  0.1320468E+00
        -11   -1    0    0    0    0  0.00000000000E+00  0.00000000000E+00  0.45593999997E+02  0.45594000000E+02  0.51100000000E-03 0.  1.
         11   -1    0    0    0    0 -0.00000000000E+00 -0.00000000000E+00 -0.45593999997E+02  0.45594000000E+02  0.51100000000E-03 0. -1.
    9900012    2    1    2    0    0  0.35871026863E+02  0.10972737467E+02 -0.24939564592E+02  0.46142318545E+02  0.10000007147E+02 0.  0.
        -12    1    1    2    0    0 -0.35871026863E+02 -0.10972737467E+02  0.24939564592E+02  0.45045681455E+02  0.00000000000E+00 0.  1.
         11    1    3    3    0    0  0.18081245458E+02  0.28534390790E+01 -0.89559820375E+01  0.20378497648E+02  0.51100000000E-03 0. -1.
        -11    1    3    3    0    0  0.15384020437E+02  0.73943976396E+01 -0.11365870705E+02  0.20506784692E+02  0.51100000000E-03 0.  1.
         12    1    3    3    0    0  0.24057609677E+01  0.72490074832E+00 -0.46177118494E+01  0.52570362042E+01  0.00000000000E+00 0. -1.
</event>
<event>
 7    1  0.1543346E-008  0.4614232E+02  0.7816164E-02  0.1320468E+00
        -11   -1    0    0    0    0  0.00000000000E+00  0.00000000000E+00  0.45593999997E+02  0.45594000000E+02  0.51100000000E-03 0.  1.
         11   -1    0    0    0    0 -0.00000000000E+00 -0.00000000000E+00 -0.45593999997E+02  0.45594000000E+02  0.51100000000E-03 0. -1.
    9900012    2    1    2    0    0 -0.26269410763E+01 -0.31249942423E+02 -0.32336570138E+02  0.46142317752E+02  0.99999999172E+01 0.  0.
        -12    1    1    2    0    0  0.26269410763E+01  0.31249942423E+02  0.32336570138E+02  0.45045682248E+02  0.00000000000E+00 0.  1.
         11    1    3    3    0    0  0.93772106685E+00 -0.45874653688E+01 -0.63839068350E+01  0.79169707621E+01  0.51100000000E-03 0. -1.
        -11    1    3    3    0    0  0.22932829019E+01 -0.47098375266E+01 -0.62192491190E+01  0.81314682475E+01  0.51100000000E-03 0.  1.
        -12    1    3    3    0    0 -0.58579450451E+01 -0.21952639528E+02 -0.19733414184E+02  0.30093878742E+02  0.00000000000E+00 0.  1.
</event>
<event>
 7    1  0.1543346E-008  0.4614232E+02  0.7816164E-02  0.1320468E+00
        -11   -1    0    0    0    0  0.00000000000E+00  0.00000000000E+00  0.45593999997E+02  0.45594000000E+02  0.51100000000E-03 0.  1.
         11   -1    0    0    0    0 -0.00000000000E+00 -0.00000000000E+00 -0.45593999997E+02  0.45594000000E+02  0.51100000000E-03 0. -1.
    9900012    2    1    2    0    0  0.55078607575E+01 -0.44336098897E+02 -0.57521593832E+01  0.46142317265E+02  0.99999954734E+01 0.  0.
        -12    1    1    2    0    0 -0.55078607575E+01  0.44336098897E+02  0.57521593832E+01  0.45045682735E+02  0.00000000000E+00 0.  1.
         11    1    3    3    0    0  0.91322699358E+00 -0.76053467708E+01 -0.23579983073E+01  0.80147014495E+01  0.51100000000E-03 0. -1.
        -11    1    3    3    0    0 -0.17797091783E+01 -0.13862648514E+02 -0.34155479430E+01  0.14387715475E+02  0.51100000000E-03 0.  1.
        -12    1    3    3    0    0  0.63743429422E+01 -0.22868103612E+02  0.21386867123E-01  0.23739900340E+02  0.00000000000E+00 0.  1.
</event>
<event>
 7    1  0.1543346E-008  0.4614232E+02  0.7816164E-02  0.1320468E+00
        -11   -1    0    0    0    0  0.00000000000E+00  0.00000000000E+00  0.45593999997E+02  0.45594000000E+02  0.51100000000E-03 0.  1.
         11   -1    0    0    0    0 -0.00000000000E+00 -0.00000000000E+00 -0.45593999997E+02  0.45594000000E+02  0.51100000000E-03 0. -1.
    9900012    2    1    2    0    0 -0.28030248662E+01  0.44603378996E+02  0.56386915098E+01  0.46142320871E+02  0.10000028355E+02 0.  0.
        -12    1    1    2    0    0  0.28030248662E+01 -0.44603378996E+02 -0.56386915098E+01  0.45045679129E+02  0.00000000000E+00 0.  1.
         11    1    3    3    0    0  0.16131053862E-02  0.33494896349E+02  0.47747031666E+01  0.33833502251E+02  0.51100000000E-03 0. -1.
        -11    1    3    3    0    0 -0.37931921868E+00 -0.25455491834E+00  0.50967391176E+00  0.68443336678E+00  0.51100000000E-03 0.  1.
         12    1    3    3    0    0 -0.24253187529E+01  0.11363037566E+02  0.35431443147E+00  0.11624385252E+02  0.00000000000E+00 0. -1.
</event>
<event>
 7    1  0.1543346E-008  0.4614232E+02  0.7816164E-02  0.1320468E+00
        -11   -1    0    0    0    0  0.00000000000E+00  0.00000000000E+00  0.45593999997E+02  0.45594000000E+02  0.51100000000E-03 0.  1.
         11   -1    0    0    0    0 -0.00000000000E+00 -0.00000000000E+00 -0.45593999997E+02  0.45594000000E+02  0.51100000000E-03 0. -1.
    9900012    2    1    2    0    0 -0.84583262476E+01  0.43895269973E+02 -0.55475682342E+01  0.46142317386E+02  0.99999965752E+01 0.  0.
        -12    1    1    2    0    0  0.84583262476E+01 -0.43895269973E+02  0.55475682342E+01  0.45045682614E+02  0.00000000000E+00 0.  1.
         11    1    3    3    0    0 -0.97279067766E+01  0.31587244838E+02 -0.18719553660E+01  0.33104235739E+02  0.51100000000E-03 0. -1.
        -11    1    3    3    0    0  0.60208307599E+00  0.70124636871E+01 -0.11438753718E+01  0.71306102207E+01  0.51100000000E-03 0.  1.
         12    1    3    3    0    0  0.66749745294E+00  0.52955614475E+01 -0.25317374964E+01  0.59074714256E+01  0.00000000000E+00 0. -1.
</event>
<event>
 7    1  0.1543346E-008  0.4614232E+02  0.7816164E-02  0.1320468E+00
        -11   -1    0    0    0    0  0.00000000000E+00  0.00000000000E+00  0.45593999997E+02  0.45594000000E+02  0.51100000000E-03 0.  1.
         11   -1    0    0    0    0 -0.00000000000E+00 -0.00000000000E+00 -0.45593999997E+02  0.45594000000E+02  0.51100000000E-03 0. -1.
    9900012    2    1    2    0    0 -0.92237015019E+01 -0.43983489861E+02 -0.30805080037E+01  0.46142316751E+02  0.99999907926E+01 0.  0.
        -12    1    1    2    0    0  0.92237015019E+01  0.43983489861E+02  0.30805080037E+01  0.45045683249E+02  0.00000000000E+00 0.  1.
         11    1    3    3    0    0 -0.34355459458E+01 -0.15814281708E+02 -0.21110249821E+01  0.16320260679E+02  0.51100000000E-03 0. -1.
        -11    1    3    3    0    0 -0.57333834975E+01 -0.94220079264E+01 -0.10020544484E+01  0.11074747540E+02  0.51100000000E-03 0.  1.
        -12    1    3    3    0    0 -0.54772058686E-01 -0.18747200227E+02  0.32571426790E-01  0.18747308533E+02  0.00000000000E+00 0.  1.
</event>
<event>
 7    1  0.1543346E-008  0.4614232E+02  0.7816164E-02  0.1320468E+00
        -11   -1    0    0    0    0  0.00000000000E+00  0.00000000000E+00  0.45593999997E+02  0.45594000000E+02  0.51100000000E-03 0. -1.
         11   -1    0    0    0    0 -0.00000000000E+00 -0.00000000000E+00 -0.45593999997E+02  0.45594000000E+02  0.51100000000E-03 0.  1.
    9900012    2    1    2    0    0 -0.28766993722E+02 -0.30402488373E+02  0.16651195361E+02  0.46142317254E+02  0.99999953737E+01 0.  0.
        -12    1    1    2    0    0  0.28766993722E+02  0.30402488373E+02 -0.16651195361E+02  0.45045682746E+02  0.00000000000E+00 0.  1.
         11    1    3    3    0    0 -0.71203697675E+01 -0.38662336204E+01  0.33132018684E+01  0.87535555585E+01  0.51100000000E-03 0. -1.
        -11    1    3    3    0    0 -0.11987396564E+01 -0.37219586991E+01  0.33965772071E+01  0.51794488420E+01  0.51100000000E-03 0.  1.
         12    1    3    3    0    0 -0.20447884299E+02 -0.22814296054E+02  0.99414162854E+01  0.32209312853E+02  0.00000000000E+00 0. -1.
</event>
<event>
 7    1  0.1543346E-008  0.4614232E+02  0.7816164E-02  0.1320468E+00
        -11   -1    0    0    0    0  0.00000000000E+00  0.00000000000E+00  0.45593999997E+02  0.45594000000E+02  0.51100000000E-03 0.  1.
         11   -1    0    0    0    0 -0.00000000000E+00 -0.00000000000E+00 -0.45593999997E+02  0.45594000000E+02  0.51100000000E-03 0. -1.
    9900012    2    1    2    0    0  0.12163758221E+02 -0.72745224124E+01 -0.42757898309E+02  0.46142316986E+02  0.99999929337E+01 0.  0.
        -12    1    1    2    0    0 -0.12163758221E+02  0.72745224124E+01  0.42757898309E+02  0.45045683014E+02  0.00000000000E+00 0.  1.
         11    1    3    3    0    0  0.73684698086E+01 -0.25311356146E+01 -0.10141335306E+02  0.12788576030E+02  0.51100000000E-03 0.  1.
        -11    1    3    3    0    0  0.30582149415E+01 -0.29480202647E+01 -0.16174337662E+02  0.16722819773E+02  0.51100000000E-03 0. -1.
        -12    1    3    3    0    0  0.17370734706E+01 -0.17953665331E+01 -0.16442225341E+02  0.16630921183E+02  0.00000000000E+00 0.  1.
</event>
<event>
 7    1  0.1555175E-008  0.4614232E+02  0.7816164E-02  0.1320468E+00
        -11   -1    0    0    0    0  0.00000000000E+00  0.00000000000E+00  0.45593999997E+02  0.45594000000E+02  0.51100000000E-03 0.  1.
         11   -1    0    0    0    0 -0.00000000000E+00 -0.00000000000E+00 -0.45593999997E+02  0.45594000000E+02  0.51100000000E-03 0. -1.
    9900012    2    1    2    0    0  0.23522503823E+02  0.26915435556E+01 -0.38321807625E+02  0.46142317271E+02  0.99999955348E+01 0.  0.
        -12    1    1    2    0    0 -0.23522503823E+02 -0.26915435556E+01  0.38321807625E+02  0.45045682729E+02  0.00000000000E+00 0.  1.
         11    1    3    3    0    0  0.16404106459E+02  0.53255566901E+01 -0.29344312562E+02  0.34037405053E+02  0.51100000000E-03 0. -1.
        -11    1    3    3    0    0  0.11148489347E+01 -0.14440900192E+01 -0.11038705121E+01  0.21323260772E+01  0.51100000000E-03 0.  1.
         12    1    3    3    0    0  0.60035484291E+01 -0.11899231153E+01 -0.78736245514E+01  0.99725861409E+01  0.00000000000E+00 0. -1.
</event>
<event>
 7    1  0.1543346E-008  0.4614231E+02  0.7816164E-02  0.1320468E+00
        -11   -1    0    0    0    0  0.00000000000E+00  0.00000000000E+00  0.45593999997E+02  0.45594000000E+02  0.51100000000E-03 0.  1.
         11   -1    0    0    0    0 -0.00000000000E+00 -0.00000000000E+00 -0.45593999997E+02  0.45594000000E+02  0.51100000000E-03 0. -1.
    9900012    2    1    2    0    0  0.60826750923E+01  0.39154021486E+02  0.21426095235E+02  0.46142313283E+02  0.99999591625E+01 0.  0.
        -12    1    1    2    0    0 -0.60826750923E+01 -0.39154021486E+02 -0.21426095235E+02  0.45045686717E+02  0.00000000000E+00 0.  1.
         11    1    3    3    0    0 -0.10870031086E+01  0.21059968307E+02  0.11750766064E+02  0.24140926747E+02  0.51100000000E-03 0. -1.
        -11    1    3    3    0    0  0.19423802305E+01  0.64430819563E+01  0.16834748817E+01  0.69368749444E+01  0.51100000000E-03 0.  1.
         12    1    3    3    0    0  0.52272979703E+01  0.11650971222E+02  0.79918542894E+01  0.15064511591E+02  0.00000000000E+00 0. -1.
</event>
<event>
 7    1  0.1543346E-008  0.4614232E+02  0.7816164E-02  0.1320468E+00
        -11   -1    0    0    0    0  0.00000000000E+00  0.00000000000E+00  0.45593999997E+02  0.45594000000E+02  0.51100000000E-03 0.  1.
         11   -1    0    0    0    0 -0.00000000000E+00 -0.00000000000E+00 -0.45593999997E+02  0.45594000000E+02  0.51100000000E-03 0. -1.
    9900012    2    1    2    0    0 -0.25042133355E+02  0.14438332777E+02 -0.34547640867E+02  0.46142318899E+02  0.10000010374E+02 0.  0.
        -12    1    1    2    0    0  0.25042133355E+02 -0.14438332777E+02  0.34547640867E+02  0.45045681101E+02  0.00000000000E+00 0.  1.
         11    1    3    3    0    0 -0.16780909261E+02  0.89362603979E+01 -0.25572370958E+02  0.31865370266E+02  0.51100000000E-03 0. -1.
        -11    1    3    3    0    0 -0.92803101255E+00 -0.49200424490E+00  0.22343459127E+00  0.10738868725E+01  0.51100000000E-03 0.  1.
        -12    1    3    3    0    0 -0.73331930819E+01  0.59940766243E+01 -0.91987045004E+01  0.13203061760E+02  0.00000000000E+00 0.  1.
</event>
<event>
 7    1  0.1543346E-008  0.4614232E+02  0.7816164E-02  0.1320468E+00
        -11   -1    0    0    0    0  0.00000000000E+00  0.00000000000E+00  0.45593999997E+02  0.45594000000E+02  0.51100000000E-03 0.  1.
         11   -1    0    0    0    0 -0.00000000000E+00 -0.00000000000E+00 -0.45593999997E+02  0.45594000000E+02  0.51100000000E-03 0. -1.
    9900012    2    1    2    0    0  0.34660609534E+02  0.63445902432E+00 -0.28763749696E+02  0.46142315544E+02  0.99999797853E+01 0.  0.
        -12    1    1    2    0    0 -0.34660609534E+02 -0.63445902432E+00  0.28763749696E+02  0.45045684456E+02  0.00000000000E+00 0.  1.
         11    1    3    3    0    0  0.17574955335E+02  0.34483101908E+01 -0.16322493260E+02  0.24232079661E+02  0.51100000000E-03 0. -1.
        -11    1    3    3    0    0  0.46344789699E+01 -0.29762457286E+01 -0.47580725567E+01  0.72784399891E+01  0.51100000000E-03 0.  1.
         12    1    3    3    0    0  0.12451175228E+02  0.16239456219E+00 -0.76831838792E+01  0.14631795894E+02  0.00000000000E+00 0. -1.
</event>
<event>
 7    1  0.1543346E-008  0.4614232E+02  0.7816164E-02  0.1320468E+00
        -11   -1    0    0    0    0  0.00000000000E+00  0.00000000000E+00  0.45593999997E+02  0.45594000000E+02  0.51100000000E-03 0. -1.
         11   -1    0    0    0    0 -0.00000000000E+00 -0.00000000000E+00 -0.45593999997E+02  0.45594000000E+02  0.51100000000E-03 0.  1.
    9900012    2    1    2    0    0 -0.31483587390E+02  0.19757858730E+02  0.25446494734E+02  0.46142319288E+02  0.10000013924E+02 0.  0.
        -12    1    1    2    0    0  0.31483587390E+02 -0.19757858730E+02 -0.25446494734E+02  0.45045680712E+02  0.00000000000E+00 0.  1.
         11    1    3    3    0    0 -0.11264980142E+02  0.84576181047E+01  0.12184113735E+02  0.18624814345E+02  0.51100000000E-03 0. -1.
        -11    1    3    3    0    0 -0.11915045337E+02  0.89286552762E+01  0.53980523969E+01  0.15837555378E+02  0.51100000000E-03 0.  1.
        -12    1    3    3    0    0 -0.83035619111E+01  0.23715853493E+01  0.78643286024E+01  0.11679949565E+02  0.00000000000E+00 0.  1.
</event>
<event>
 7    1  0.1543346E-008  0.4614230E+02  0.7816164E-02  0.1320468E+00
        -11   -1    0    0    0    0  0.00000000000E+00  0.00000000000E+00  0.45593999997E+02  0.45594000000E+02  0.51100000000E-03 0. -1.
         11   -1    0    0    0    0 -0.00000000000E+00 -0.00000000000E+00 -0.45593999997E+02  0.45594000000E+02  0.51100000000E-03 0.  1.
    9900012    2    1    2    0    0  0.30250032728E+02 -0.27313236982E+02  0.19184298014E+02  0.46142304482E+02  0.99998789061E+01 0.  0.
        -12    1    1    2    0    0 -0.30250032728E+02  0.27313236982E+02 -0.19184298014E+02  0.45045695518E+02  0.00000000000E+00 0.  1.
         11    1    3    3    0    0  0.97568134064E+01 -0.12859815438E+02  0.90590848128E+01  0.18510464037E+02  0.51100000000E-03 0. -1.
        -11    1    3    3    0    0  0.13516058604E+02 -0.71452470356E+01  0.81907405902E+01  0.17344354329E+02  0.51100000000E-03 0.  1.
         12    1    3    3    0    0  0.69771607168E+01 -0.73081745080E+01  0.19344726109E+01  0.10287486116E+02  0.00000000000E+00 0. -1.
</event>
<event>
 7    1  0.1543346E-008  0.4614232E+02  0.7816164E-02  0.1320468E+00
        -11   -1    0    0    0    0  0.00000000000E+00  0.00000000000E+00  0.45593999997E+02  0.45594000000E+02  0.51100000000E-03 0.  1.
         11   -1    0    0    0    0 -0.00000000000E+00 -0.00000000000E+00 -0.45593999997E+02  0.45594000000E+02  0.51100000000E-03 0. -1.
    9900012    2    1    2    0    0 -0.37988944188E+02 -0.22297130453E+02 -0.94229247315E+01  0.46142318548E+02  0.10000007178E+02 0.  0.
        -12    1    1    2    0    0  0.37988944188E+02  0.22297130453E+02  0.94229247315E+01  0.45045681452E+02  0.00000000000E+00 0.  1.
         11    1    3    3    0    0 -0.16317115735E+02 -0.10152708303E+02 -0.21680175023E+01  0.19339753151E+02  0.51100000000E-03 0. -1.
        -11    1    3    3    0    0 -0.99902386236E+01 -0.38126465136E+01 -0.63258461951E+01  0.12424068236E+02  0.51100000000E-03 0.  1.
        -12    1    3    3    0    0 -0.11681589829E+02 -0.83317756366E+01 -0.92906103404E+00  0.14378497161E+02  0.00000000000E+00 0.  1.
</event>
<event>
 7    1  0.1543346E-008  0.4614232E+02  0.7816164E-02  0.1320468E+00
        -11   -1    0    0    0    0  0.00000000000E+00  0.00000000000E+00  0.45593999997E+02  0.45594000000E+02  0.51100000000E-03 0.  1.
         11   -1    0    0    0    0 -0.00000000000E+00 -0.00000000000E+00 -0.45593999997E+02  0.45594000000E+02  0.51100000000E-03 0. -1.
    9900012    2    1    2    0    0  0.41580665783E+02  0.16367901455E+02  0.56792177874E+01  0.46142317858E+02  0.10000000880E+02 0.  0.
        -12    1    1    2    0    0 -0.41580665783E+02 -0.16367901455E+02 -0.56792177874E+01  0.45045682142E+02  0.00000000000E+00 0.  1.
         11    1    3    3    0    0  0.24787544402E+02  0.12526646702E+02  0.54703423004E+01  0.28306604887E+02  0.51100000000E-03 0. -1.
        -11    1    3    3    0    0 -0.50339984242E-01  0.14454715895E+00 -0.55373634925E+00  0.57450169780E+00  0.51100000000E-03 0.  1.
        -12    1    3    3    0    0  0.16843461365E+02  0.36967075942E+01  0.76261183619E+00  0.17261211273E+02  0.00000000000E+00 0.  1.
</event>
<event>
 7    1  0.1543346E-008  0.4614232E+02  0.7816164E-02  0.1320468E+00
        -11   -1    0    0    0    0  0.00000000000E+00  0.00000000000E+00  0.45593999997E+02  0.45594000000E+02  0.51100000000E-03 0. -1.
         11   -1    0    0    0    0 -0.00000000000E+00 -0.00000000000E+00 -0.45593999997E+02  0.45594000000E+02  0.51100000000E-03 0.  1.
    9900012    2    1    2    0    0 -0.21178868012E+02 -0.21362817078E+02  0.33529075842E+02  0.46142319512E+02  0.10000015967E+02 0.  0.
        -12    1    1    2    0    0  0.21178868012E+02  0.21362817078E+02 -0.33529075842E+02  0.45045680488E+02  0.00000000000E+00 0.  1.
         11    1    3    3    0    0 -0.77529723043E+01 -0.65263903357E+01  0.61308065883E+01  0.11844371661E+02  0.51100000000E-03 0. -1.
        -11    1    3    3    0    0  0.26474023069E+00 -0.14854622817E+01  0.20622882452E+01  0.25553314163E+01  0.51100000000E-03 0.  1.
         12    1    3    3    0    0 -0.13690635938E+02 -0.13350964461E+02  0.25335981009E+02  0.31742616434E+02  0.00000000000E+00 0. -1.
</event>
<event>
 7    1  0.1543346E-008  0.4614231E+02  0.7816164E-02  0.1320468E+00
        -11   -1    0    0    0    0  0.00000000000E+00  0.00000000000E+00  0.45593999997E+02  0.45594000000E+02  0.51100000000E-03 0. -1.
         11   -1    0    0    0    0 -0.00000000000E+00 -0.00000000000E+00 -0.45593999997E+02  0.45594000000E+02  0.51100000000E-03 0.  1.
    9900012    2    1    2    0    0 -0.79547161507E+01  0.39776202943E+02  0.19588015345E+02  0.46142310142E+02  0.99999305262E+01 0.  0.
        -12    1    1    2    0    0  0.79547161507E+01 -0.39776202943E+02 -0.19588015345E+02  0.45045689858E+02  0.00000000000E+00 0.  1.
         11    1    3    3    0    0 -0.30788573710E+01  0.17721884391E+02  0.58535498416E+01  0.18915829220E+02  0.51100000000E-03 0. -1.
        -11    1    3    3    0    0 -0.16413988796E+01  0.49508091695E+01  0.27493179986E+00  0.52230536538E+01  0.51100000000E-03 0.  1.
         12    1    3    3    0    0 -0.32344599001E+01  0.17103509382E+02  0.13459533704E+02  0.22003427268E+02  0.00000000000E+00 0. -1.
</event>
<event>
 7    1  0.1543346E-008  0.4614232E+02  0.7816164E-02  0.1320468E+00
        -11   -1    0    0    0    0  0.00000000000E+00  0.00000000000E+00  0.45593999997E+02  0.45594000000E+02  0.51100000000E-03 0.  1.
         11   -1    0    0    0    0 -0.00000000000E+00 -0.00000000000E+00 -0.45593999997E+02  0.45594000000E+02  0.51100000000E-03 0. -1.
    9900012    2    1    2    0    0  0.84385233092E+01 -0.43309289601E+02 -0.90669853782E+01  0.46142318018E+02  0.10000002344E+02 0.  0.
        -12    1    1    2    0    0 -0.84385233092E+01  0.43309289601E+02  0.90669853782E+01  0.45045681982E+02  0.00000000000E+00 0.  1.
         11    1    3    3    0    0  0.37063331716E+01 -0.29494862873E+02 -0.32472763522E+01  0.29903656055E+02  0.51100000000E-03 0. -1.
        -11    1    3    3    0    0  0.10530233007E+01 -0.79461898188E+01 -0.44847275185E+01  0.91849644466E+01  0.51100000000E-03 0.  1.
        -12    1    3    3    0    0  0.36791668370E+01 -0.58682369087E+01 -0.13349815076E+01  0.70536975167E+01  0.00000000000E+00 0.  1.
</event>
<event>
 7    1  0.1543346E-008  0.4614232E+02  0.7816164E-02  0.1320468E+00
        -11   -1    0    0    0    0  0.00000000000E+00  0.00000000000E+00  0.45593999997E+02  0.45594000000E+02  0.51100000000E-03 0. -1.
         11   -1    0    0    0    0 -0.00000000000E+00 -0.00000000000E+00 -0.45593999997E+02  0.45594000000E+02  0.51100000000E-03 0.  1.
    9900012    2    1    2    0    0  0.29814769111E+02 -0.33374129779E+02 -0.51342136101E+01  0.46142321572E+02  0.10000034749E+02 0.  0.
        -12    1    1    2    0    0 -0.29814769111E+02  0.33374129779E+02  0.51342136101E+01  0.45045678428E+02  0.00000000000E+00 0.  1.
         11    1    3    3    0    0  0.14709825094E+02 -0.19959888104E+02  0.45684838765E+00  0.24798887035E+02  0.51100000000E-03 0. -1.
        -11    1    3    3    0    0  0.54467818358E+01 -0.28432580139E+01 -0.28136874662E+01  0.67578388498E+01  0.51100000000E-03 0.  1.
        -12    1    3    3    0    0  0.96581621808E+01 -0.10570983661E+02 -0.27773745316E+01  0.14585595687E+02  0.00000000000E+00 0.  1.
</event>
<event>
 7    1  0.1543346E-008  0.4614232E+02  0.7816164E-02  0.1320468E+00
        -11   -1    0    0    0    0  0.00000000000E+00  0.00000000000E+00  0.45593999997E+02  0.45594000000E+02  0.51100000000E-03 0. -1.
         11   -1    0    0    0    0 -0.00000000000E+00 -0.00000000000E+00 -0.45593999997E+02  0.45594000000E+02  0.51100000000E-03 0.  1.
    9900012    2    1    2    0    0 -0.28146248704E+02  0.73961808436E+01  0.34383115632E+02  0.46142318212E+02  0.10000004116E+02 0.  0.
        -12    1    1    2    0    0  0.28146248704E+02 -0.73961808436E+01 -0.34383115632E+02  0.45045681788E+02  0.00000000000E+00 0.  1.
         11    1    3    3    0    0 -0.92971875609E+01  0.31485031030E+01  0.18753237519E+02  0.21166829853E+02  0.51100000000E-03 0. -1.
        -11    1    3    3    0    0 -0.10765685310E+02  0.22693751305E+01  0.10444235109E+02  0.15170105172E+02  0.51100000000E-03 0.  1.
         12    1    3    3    0    0 -0.80833758333E+01  0.19783026101E+01  0.51856430040E+01  0.98053831870E+01  0.00000000000E+00 0. -1.
</event>
<event>
 7    1  0.1543346E-008  0.4614232E+02  0.7816164E-02  0.1320468E+00
        -11   -1    0    0    0    0  0.00000000000E+00  0.00000000000E+00  0.45593999997E+02  0.45594000000E+02  0.51100000000E-03 0. -1.
         11   -1    0    0    0    0 -0.00000000000E+00 -0.00000000000E+00 -0.45593999997E+02  0.45594000000E+02  0.51100000000E-03 0.  1.
    9900012    2    1    2    0    0 -0.28931257442E+01  0.26370277587E+02  0.36405381387E+02  0.46142317515E+02  0.99999977551E+01 0.  0.
        -12    1    1    2    0    0  0.28931257442E+01 -0.26370277587E+02 -0.36405381387E+02  0.45045682485E+02  0.00000000000E+00 0.  1.
         11    1    3    3    0    0  0.18321859447E+00  0.10667159595E+02  0.11015372929E+02  0.15334937363E+02  0.51100000000E-03 0. -1.
        -11    1    3    3    0    0  0.14790012967E+01  0.91275384274E+00  0.12826818969E+01  0.21600549814E+01  0.51100000000E-03 0.  1.
        -12    1    3    3    0    0 -0.45553456354E+01  0.14790364149E+02  0.24107326561E+02  0.28647325171E+02  0.00000000000E+00 0.  1.
</event>
<event>
 7    1  0.1543346E-008  0.4614232E+02  0.7816164E-02  0.1320468E+00
        -11   -1    0    0    0    0  0.00000000000E+00  0.00000000000E+00  0.45593999997E+02  0.45594000000E+02  0.51100000000E-03 0.  1.
         11   -1    0    0    0    0 -0.00000000000E+00 -0.00000000000E+00 -0.45593999997E+02  0.45594000000E+02  0.51100000000E-03 0. -1.
    9900012    2    1    2    0    0  0.24554008489E+02 -0.11838835905E+02 -0.35861624164E+02  0.46142318119E+02  0.10000003260E+02 0.  0.
        -12    1    1    2    0    0 -0.24554008489E+02  0.11838835905E+02  0.35861624164E+02  0.45045681881E+02  0.00000000000E+00 0.  1.
         11    1    3    3    0    0  0.11955079263E+02 -0.10101069905E+02 -0.18807163860E+02  0.24467630578E+02  0.51100000000E-03 0. -1.
        -11    1    3    3    0    0  0.80692615065E+00  0.86129577934E+00 -0.24907445608E+01  0.27562236775E+01  0.51100000000E-03 0.  1.
        -12    1    3    3    0    0  0.11792003076E+02 -0.25990617799E+01 -0.14563715744E+02  0.18918463863E+02  0.00000000000E+00 0.  1.
</event>
<event>
 7    1  0.1543346E-008  0.4614232E+02  0.7816164E-02  0.1320468E+00
        -11   -1    0    0    0    0  0.00000000000E+00  0.00000000000E+00  0.45593999997E+02  0.45594000000E+02  0.51100000000E-03 0. -1.
         11   -1    0    0    0    0 -0.00000000000E+00 -0.00000000000E+00 -0.45593999997E+02  0.45594000000E+02  0.51100000000E-03 0.  1.
    9900012    2    1    2    0    0 -0.43324639858E+02  0.28973625485E+01 -0.11987256755E+02  0.46142318152E+02  0.10000003567E+02 0.  0.
        -12    1    1    2    0    0  0.43324639858E+02 -0.28973625485E+01  0.11987256755E+02  0.45045681848E+02  0.00000000000E+00 0.  1.
         11    1    3    3    0    0 -0.84863845519E+01  0.22325909085E+01 -0.42925263233E+01  0.97687751241E+01  0.51100000000E-03 0. -1.
        -11    1    3    3    0    0 -0.41938123942E+01  0.21771589082E+01 -0.21643783530E+01  0.51973663740E+01  0.51100000000E-03 0.  1.
         12    1    3    3    0    0 -0.30644442912E+02 -0.15123872682E+01 -0.55303520791E+01  0.31176176654E+02  0.00000000000E+00 0. -1.
</event>
<event>
 7    1  0.1543346E-008  0.4614232E+02  0.7816164E-02  0.1320468E+00
        -11   -1    0    0    0    0  0.00000000000E+00  0.00000000000E+00  0.45593999997E+02  0.45594000000E+02  0.51100000000E-03 0. -1.
         11   -1    0    0    0    0 -0.00000000000E+00 -0.00000000000E+00 -0.45593999997E+02  0.45594000000E+02  0.51100000000E-03 0.  1.
    9900012    2    1    2    0    0  0.44128843731E+02 -0.90013691634E+01  0.85673467142E+00  0.46142317742E+02  0.99999998224E+01 0.  0.
        -12    1    1    2    0    0 -0.44128843731E+02  0.90013691634E+01 -0.85673467142E+00  0.45045682258E+02  0.00000000000E+00 0.  1.
         11    1    3    3    0    0  0.10726459043E+02 -0.23024486129E+01 -0.25819263144E+01  0.11270516269E+02  0.51100000000E-03 0. -1.
        -11    1    3    3    0    0  0.16174205034E+02 -0.19611979930E+01 -0.14223199357E+01  0.16354638495E+02  0.51100000000E-03 0.  1.
        -12    1    3    3    0    0  0.17228179654E+02 -0.47377225575E+01  0.48609809215E+01  0.18517162978E+02  0.00000000000E+00 0.  1.
</event>
<event>
 7    1  0.1543346E-008  0.4614232E+02  0.7816164E-02  0.1320468E+00
        -11   -1    0    0    0    0  0.00000000000E+00  0.00000000000E+00  0.45593999997E+02  0.45594000000E+02  0.51100000000E-03 0. -1.
         11   -1    0    0    0    0 -0.00000000000E+00 -0.00000000000E+00 -0.45593999997E+02  0.45594000000E+02  0.51100000000E-03 0.  1.
    9900012    2    1    2    0    0 -0.88219616302E+01 -0.19427981143E+02  0.39671653608E+02  0.46142316985E+02  0.99999929252E+01 0.  0.
        -12    1    1    2    0    0  0.88219616302E+01  0.19427981143E+02 -0.39671653608E+02  0.45045683015E+02  0.00000000000E+00 0.  1.
         11    1    3    3    0    0 -0.66397172069E+01 -0.83001494077E+01  0.18506645917E+02  0.21341843129E+02  0.51100000000E-03 0. -1.
        -11    1    3    3    0    0 -0.85038594308E+00  0.39906275373E+00  0.41615313869E+00  0.10274195976E+01  0.51100000000E-03 0.  1.
         12    1    3    3    0    0 -0.13318584802E+01 -0.11526894489E+02  0.20748854552E+02  0.23773054259E+02  0.00000000000E+00 0. -1.
</event>
<event>
 7    1  0.1543346E-008  0.4614232E+02  0.7816164E-02  0.1320468E+00
        -11   -1    0    0    0    0  0.00000000000E+00  0.00000000000E+00  0.45593999997E+02  0.45594000000E+02  0.51100000000E-03 0. -1.
         11   -1    0    0    0    0 -0.00000000000E+00 -0.00000000000E+00 -0.45593999997E+02  0.45594000000E+02  0.51100000000E-03 0.  1.
    9900012    2    1    2    0    0 -0.13522618883E+02 -0.42966185108E+02 -0.39896988144E+00  0.46142318063E+02  0.10000002752E+02 0.  0.
        -12    1    1    2    0    0  0.13522618883E+02  0.42966185108E+02  0.39896988144E+00  0.45045681937E+02  0.00000000000E+00 0.  1.
         11    1    3    3    0    0 -0.82460042074E+01 -0.24756433033E+02 -0.46686985689E+01  0.26508004611E+02  0.51100000000E-03 0. -1.
        -11    1    3    3    0    0 -0.44227200021E+01 -0.10942679846E+02  0.19817696943E+01  0.11967878083E+02  0.51100000000E-03 0.  1.
         12    1    3    3    0    0 -0.85389467364E+00 -0.72670722300E+01  0.22879589932E+01  0.76664353688E+01  0.00000000000E+00 0. -1.
</event>
<event>
 7    1  0.1543346E-008  0.4614232E+02  0.7816164E-02  0.1320468E+00
        -11   -1    0    0    0    0  0.00000000000E+00  0.00000000000E+00  0.45593999997E+02  0.45594000000E+02  0.51100000000E-03 0.  1.
         11   -1    0    0    0    0 -0.00000000000E+00 -0.00000000000E+00 -0.45593999997E+02  0.45594000000E+02  0.51100000000E-03 0. -1.
    9900012    2    1    2    0    0 -0.28768266964E+02  0.17117355088E+02 -0.30141275775E+02  0.46142317248E+02  0.99999953178E+01 0.  0.
        -12    1    1    2    0    0  0.28768266964E+02 -0.17117355088E+02  0.30141275775E+02  0.45045682752E+02  0.00000000000E+00 0.  1.
         11    1    3    3    0    0 -0.94058847420E+01  0.56143035955E+01 -0.41981777619E+01  0.11730974786E+02  0.51100000000E-03 0.  1.
        -11    1    3    3    0    0 -0.16777401214E+02  0.97060932302E+01 -0.21270584250E+02  0.28777199167E+02  0.51100000000E-03 0. -1.
        -12    1    3    3    0    0 -0.25849810080E+01  0.17969582621E+01 -0.46725137626E+01  0.56341432950E+01  0.00000000000E+00 0.  1.
</event>
<event>
 7    1  0.1543346E-008  0.4614233E+02  0.7816164E-02  0.1320468E+00
        -11   -1    0    0    0    0  0.00000000000E+00  0.00000000000E+00  0.45593999997E+02  0.45594000000E+02  0.51100000000E-03 0.  1.
         11   -1    0    0    0    0 -0.00000000000E+00 -0.00000000000E+00 -0.45593999997E+02  0.45594000000E+02  0.51100000000E-03 0. -1.
    9900012    2    1    2    0    0  0.14661145998E+02  0.23514769855E+02 -0.35513640400E+02  0.46142331421E+02  0.10000124562E+02 0.  0.
        -12    1    1    2    0    0 -0.14661145998E+02 -0.23514769855E+02  0.35513640400E+02  0.45045668579E+02  0.00000000000E+00 0.  1.
         11    1    3    3    0    0  0.38702349571E+01  0.49117045535E+01 -0.12075798772E+02  0.13598840998E+02  0.51100000000E-03 0. -1.
        -11    1    3    3    0    0  0.10020983506E+02  0.16048885804E+02 -0.16478595020E+02  0.25090455159E+02  0.51100000000E-03 0.  1.
        -12    1    3    3    0    0  0.76992753483E+00  0.25541794975E+01 -0.69592466074E+01  0.74530352647E+01  0.00000000000E+00 0.  1.
</event>
<event>
 7    1  0.1543346E-008  0.4614231E+02  0.7816164E-02  0.1320468E+00
        -11   -1    0    0    0    0  0.00000000000E+00  0.00000000000E+00  0.45593999997E+02  0.45594000000E+02  0.51100000000E-03 0. -1.
         11   -1    0    0    0    0 -0.00000000000E+00 -0.00000000000E+00 -0.45593999997E+02  0.45594000000E+02  0.51100000000E-03 0.  1.
    9900012    2    1    2    0    0  0.12614463037E+02  0.38530031595E+02  0.19632263766E+02  0.46142314380E+02  0.99999691672E+01 0.  0.
        -12    1    1    2    0    0 -0.12614463037E+02 -0.38530031595E+02 -0.19632263766E+02  0.45045685620E+02  0.00000000000E+00 0.  1.
         11    1    3    3    0    0  0.81530842752E+01  0.23041749590E+02  0.85604568388E+01  0.25897421280E+02  0.51100000000E-03 0. -1.
        -11    1    3    3    0    0  0.21422842248E+01  0.18826937951E+01  0.34576375079E+01  0.44820949369E+01  0.51100000000E-03 0.  1.
         12    1    3    3    0    0  0.23190945368E+01  0.13605588209E+02  0.76141694196E+01  0.15762798163E+02  0.00000000000E+00 0. -1.
</event>
<event>
 7    1  0.1543346E-008  0.4614232E+02  0.7816164E-02  0.1320468E+00
        -11   -1    0    0    0    0  0.00000000000E+00  0.00000000000E+00  0.45593999997E+02  0.45594000000E+02  0.51100000000E-03 0.  1.
         11   -1    0    0    0    0 -0.00000000000E+00 -0.00000000000E+00 -0.45593999997E+02  0.45594000000E+02  0.51100000000E-03 0. -1.
    9900012    2    1    2    0    0 -0.43995760486E+02 -0.77882554430E+01 -0.57296948786E+01  0.46142320219E+02  0.10000022409E+02 0.  0.
        -12    1    1    2    0    0  0.43995760486E+02  0.77882554430E+01  0.57296948786E+01  0.45045679781E+02  0.00000000000E+00 0.  1.
         11    1    3    3    0    0 -0.17680267312E+02 -0.39714574732E+01 -0.57166809847E+01  0.19001178080E+02  0.51100000000E-03 0. -1.
        -11    1    3    3    0    0 -0.59548690831E+01 -0.55853262507E+00 -0.22721873018E+01  0.63980668866E+01  0.51100000000E-03 0.  1.
        -12    1    3    3    0    0 -0.20360624091E+02 -0.32582653447E+01  0.22591734080E+01  0.20743075252E+02  0.00000000000E+00 0.  1.
</event>
<event>
 7    1  0.1543346E-008  0.4614232E+02  0.7816164E-02  0.1320468E+00
        -11   -1    0    0    0    0  0.00000000000E+00  0.00000000000E+00  0.45593999997E+02  0.45594000000E+02  0.51100000000E-03 0.  1.
         11   -1    0    0    0    0 -0.00000000000E+00 -0.00000000000E+00 -0.45593999997E+02  0.45594000000E+02  0.51100000000E-03 0. -1.
    9900012    2    1    2    0    0  0.16354388921E+02 -0.17376348799E+01 -0.41935998800E+02  0.46142318660E+02  0.10000008200E+02 0.  0.
        -12    1    1    2    0    0 -0.16354388921E+02  0.17376348799E+01  0.41935998800E+02  0.45045681340E+02  0.00000000000E+00 0.  1.
         11    1    3    3    0    0  0.53211781202E+01 -0.13708624752E+01 -0.16666285845E+02  0.17548768750E+02  0.51100000000E-03 0. -1.
        -11    1    3    3    0    0  0.10524209631E+02 -0.94956987140E+00 -0.25642665269E+02  0.27734580466E+02  0.51100000000E-03 0.  1.
        -12    1    3    3    0    0  0.50900116989E+00  0.58279746668E+00  0.37295231306E+00  0.85896944412E+00  0.00000000000E+00 0.  1.
</event>
<event>
 7    1  0.1543346E-008  0.4614232E+02  0.7816164E-02  0.1320468E+00
        -11   -1    0    0    0    0  0.00000000000E+00  0.00000000000E+00  0.45593999997E+02  0.45594000000E+02  0.51100000000E-03 0.  1.
         11   -1    0    0    0    0 -0.00000000000E+00 -0.00000000000E+00 -0.45593999997E+02  0.45594000000E+02  0.51100000000E-03 0. -1.
    9900012    2    1    2    0    0 -0.38360989027E+02  0.70352760188E+00 -0.23601972809E+02  0.46142317069E+02  0.99999936888E+01 0.  0.
        -12    1    1    2    0    0  0.38360989027E+02 -0.70352760188E+00  0.23601972809E+02  0.45045682931E+02  0.00000000000E+00 0.  1.
         11    1    3    3    0    0 -0.20642996150E+02  0.28912282941E+00 -0.11498621370E+02  0.23631233056E+02  0.51100000000E-03 0. -1.
        -11    1    3    3    0    0 -0.86704943731E+01  0.26728638016E+01 -0.87399281693E+01  0.12597937063E+02  0.51100000000E-03 0.  1.
        -12    1    3    3    0    0 -0.90474985036E+01 -0.22584590291E+01 -0.33634232699E+01  0.99131469499E+01  0.00000000000E+00 0.  1.
</event>
<event>
 7    1  0.1543346E-008  0.4614230E+02  0.7816164E-02  0.1320468E+00
        -11   -1    0    0    0    0  0.00000000000E+00  0.00000000000E+00  0.45593999997E+02  0.45594000000E+02  0.51100000000E-03 0. -1.
         11   -1    0    0    0    0 -0.00000000000E+00 -0.00000000000E+00 -0.45593999997E+02  0.45594000000E+02  0.51100000000E-03 0.  1.
    9900012    2    1    2    0    0 -0.23273751324E+02  0.29851827122E+02  0.24419578489E+02  0.46142302128E+02  0.99998574406E+01 0.  0.
        -12    1    1    2    0    0  0.23273751324E+02 -0.29851827122E+02 -0.24419578489E+02  0.45045697872E+02  0.00000000000E+00 0.  1.
         11    1    3    3    0    0 -0.93486646632E+01  0.14627762575E+02  0.79646514986E+01  0.19099859756E+02  0.51100000000E-03 0. -1.
        -11    1    3    3    0    0 -0.13436529209E+02  0.15774095856E+02  0.15803395596E+02  0.26059733880E+02  0.51100000000E-03 0.  1.
        -12    1    3    3    0    0 -0.48855745145E+00 -0.55003130801E+00  0.65153139448E+00  0.98270849246E+00  0.00000000000E+00 0.  1.
</event>
<event>
 7    1  0.1543346E-008  0.4614232E+02  0.7816164E-02  0.1320468E+00
        -11   -1    0    0    0    0  0.00000000000E+00  0.00000000000E+00  0.45593999997E+02  0.45594000000E+02  0.51100000000E-03 0. -1.
         11   -1    0    0    0    0 -0.00000000000E+00 -0.00000000000E+00 -0.45593999997E+02  0.45594000000E+02  0.51100000000E-03 0.  1.
    9900012    2    1    2    0    0 -0.33781274110E+02  0.27069619453E+02 -0.12456915641E+02  0.46142317353E+02  0.99999962794E+01 0.  0.
        -12    1    1    2    0    0  0.33781274110E+02 -0.27069619453E+02  0.12456915641E+02  0.45045682647E+02  0.00000000000E+00 0.  1.
         11    1    3    3    0    0 -0.51949276970E+01  0.57162511736E+01 -0.15870342093E+01  0.78855233878E+01  0.51100000000E-03 0. -1.
        -11    1    3    3    0    0 -0.16026065764E+02  0.71750695008E+01 -0.71199013094E+01  0.18947543406E+02  0.51100000000E-03 0.  1.
        -12    1    3    3    0    0 -0.12560280650E+02  0.14178298778E+02 -0.37499801225E+01  0.19309250559E+02  0.00000000000E+00 0.  1.
</event>
<event>
 7    1  0.1543346E-008  0.4614232E+02  0.7816164E-02  0.1320468E+00
        -11   -1    0    0    0    0  0.00000000000E+00  0.00000000000E+00  0.45593999997E+02  0.45594000000E+02  0.51100000000E-03 0.  1.
         11   -1    0    0    0    0 -0.00000000000E+00 -0.00000000000E+00 -0.45593999997E+02  0.45594000000E+02  0.51100000000E-03 0. -1.
    9900012    2    1    2    0    0 -0.25605114665E+02  0.10911508957E+02 -0.35417940602E+02  0.46142318285E+02  0.10000004774E+02 0.  0.
        -12    1    1    2    0    0  0.25605114665E+02 -0.10911508957E+02  0.35417940602E+02  0.45045681715E+02  0.00000000000E+00 0.  1.
         11    1    3    3    0    0 -0.13747554798E+01  0.16482726096E+01 -0.48079806947E+01  0.52653047249E+01  0.51100000000E-03 0.  1.
        -11    1    3    3    0    0 -0.21611003422E+02  0.91386939824E+01 -0.23117388523E+02  0.32938804608E+02  0.51100000000E-03 0. -1.
         12    1    3    3    0    0 -0.26193557633E+01  0.12454236462E+00 -0.74925713842E+01  0.79382089518E+01  0.00000000000E+00 0. -1.
</event>
<event>
 7    1  0.1543346E-008  0.4614232E+02  0.7816164E-02  0.1320468E+00
        -11   -1    0    0    0    0  0.00000000000E+00  0.00000000000E+00  0.45593999997E+02  0.45594000000E+02  0.51100000000E-03 0. -1.
         11   -1    0    0    0    0 -0.00000000000E+00 -0.00000000000E+00 -0.45593999997E+02  0.45594000000E+02  0.51100000000E-03 0.  1.
    9900012    2    1    2    0    0  0.43274398669E+02  0.61401807400E+01  0.10896698871E+02  0.46142318232E+02  0.10000004292E+02 0.  0.
        -12    1    1    2    0    0 -0.43274398669E+02 -0.61401807400E+01 -0.10896698871E+02  0.45045681768E+02  0.00000000000E+00 0.  1.
         11    1    3    3    0    0  0.28399379235E+02  0.34477742868E+01  0.10952730654E+02  0.30632894044E+02  0.51100000000E-03 0. -1.
        -11    1    3    3    0    0  0.14570467612E+02  0.30554922057E+01 -0.44843630227E+00  0.14894148329E+02  0.51100000000E-03 0.  1.
         12    1    3    3    0    0  0.30455182147E+00 -0.36308575253E+00  0.39240452001E+00  0.61527585925E+00  0.00000000000E+00 0. -1.
</event>
<event>
 7    1  0.1543346E-008  0.4614232E+02  0.7816164E-02  0.1320468E+00
        -11   -1    0    0    0    0  0.00000000000E+00  0.00000000000E+00  0.45593999997E+02  0.45594000000E+02  0.51100000000E-03 0. -1.
         11   -1    0    0    0    0 -0.00000000000E+00 -0.00000000000E+00 -0.45593999997E+02  0.45594000000E+02  0.51100000000E-03 0.  1.
    9900012    2    1    2    0    0  0.27650236954E+02  0.27243704795E+02  0.22855159471E+02  0.46142319086E+02  0.10000012080E+02 0.  0.
        -12    1    1    2    0    0 -0.27650236954E+02 -0.27243704795E+02 -0.22855159471E+02  0.45045680914E+02  0.00000000000E+00 0.  1.
         11    1    3    3    0    0  0.64610338506E+01  0.16245935451E+01  0.26411113729E+01  0.71665704594E+01  0.51100000000E-03 0. -1.
        -11    1    3    3    0    0  0.10547164323E+02  0.14336033801E+02  0.11408227522E+02  0.21140297913E+02  0.51100000000E-03 0.  1.
         12    1    3    3    0    0  0.10642038780E+02  0.11283077449E+02  0.88058205764E+01  0.17835450713E+02  0.00000000000E+00 0. -1.
</event>
<event>
 7    1  0.1543346E-008  0.4614232E+02  0.7816164E-02  0.1320468E+00
        -11   -1    0    0    0    0  0.00000000000E+00  0.00000000000E+00  0.45593999997E+02  0.45594000000E+02  0.51100000000E-03 0. -1.
         11   -1    0    0    0    0 -0.00000000000E+00 -0.00000000000E+00 -0.45593999997E+02  0.45594000000E+02  0.51100000000E-03 0.  1.
    9900012    2    1    2    0    0  0.23323791784E+02 -0.27404096797E+02  0.27094828204E+02  0.46142317634E+02  0.99999988412E+01 0.  0.
        -12    1    1    2    0    0 -0.23323791784E+02  0.27404096797E+02 -0.27094828204E+02  0.45045682366E+02  0.00000000000E+00 0.  1.
         11    1    3    3    0    0  0.14604004527E+02 -0.18985973235E+02  0.21481182623E+02  0.32174296186E+02  0.51100000000E-03 0. -1.
        -11    1    3    3    0    0  0.84364242637E+01 -0.64121877446E+01  0.38260065286E+01  0.11266220850E+02  0.51100000000E-03 0.  1.
        -12    1    3    3    0    0  0.28336299244E+00 -0.20059358176E+01  0.17876390519E+01  0.27018005977E+01  0.00000000000E+00 0.  1.
</event>
<event>
 7    1  0.1543346E-008  0.4614232E+02  0.7816164E-02  0.1320468E+00
        -11   -1    0    0    0    0  0.00000000000E+00  0.00000000000E+00  0.45593999997E+02  0.45594000000E+02  0.51100000000E-03 0.  1.
         11   -1    0    0    0    0 -0.00000000000E+00 -0.00000000000E+00 -0.45593999997E+02  0.45594000000E+02  0.51100000000E-03 0. -1.
    9900012    2    1    2    0    0  0.95045753760E+01 -0.89677305054E+01 -0.43108657540E+02  0.46142317649E+02  0.99999989805E+01 0.  0.
        -12    1    1    2    0    0 -0.95045753760E+01  0.89677305054E+01  0.43108657540E+02  0.45045682351E+02  0.00000000000E+00 0.  1.
         11    1    3    3    0    0  0.40954521202E+01 -0.79162165538E+01 -0.30809895612E+02  0.32073180081E+02  0.51100000000E-03 0. -1.
        -11    1    3    3    0    0  0.27810379547E+01  0.56685189622E+00 -0.24543617205E+01  0.37522506438E+01  0.51100000000E-03 0.  1.
         12    1    3    3    0    0  0.26280853011E+01 -0.16183658478E+01 -0.98444002077E+01  0.10316886925E+02  0.00000000000E+00 0. -1.
</event>
<event>
 7    1  0.1543346E-008  0.4614232E+02  0.7816164E-02  0.1320468E+00
        -11   -1    0    0    0    0  0.00000000000E+00  0.00000000000E+00  0.45593999997E+02  0.45594000000E+02  0.51100000000E-03 0.  1.
         11   -1    0    0    0    0 -0.00000000000E+00 -0.00000000000E+00 -0.45593999997E+02  0.45594000000E+02  0.51100000000E-03 0. -1.
    9900012    2    1    2    0    0 -0.18577136609E+02  0.10384812243E+02 -0.39700869913E+02  0.46142318722E+02  0.10000008766E+02 0.  0.
        -12    1    1    2    0    0  0.18577136609E+02 -0.10384812243E+02  0.39700869913E+02  0.45045681278E+02  0.00000000000E+00 0.  1.
         11    1    3    3    0    0 -0.11004026497E+02  0.64937073505E+01 -0.22438516482E+02  0.25821383706E+02  0.51100000000E-03 0. -1.
        -11    1    3    3    0    0 -0.23001039109E+01 -0.17859794441E+01 -0.37918298331E+01  0.47810223091E+01  0.51100000000E-03 0.  1.
        -12    1    3    3    0    0 -0.52730062008E+01  0.56770843368E+01 -0.13470523598E+02  0.15539912707E+02  0.00000000000E+00 0.  1.
</event>
<event>
 7    1  0.1543346E-008  0.4614232E+02  0.7816164E-02  0.1320468E+00
        -11   -1    0    0    0    0  0.00000000000E+00  0.00000000000E+00  0.45593999997E+02  0.45594000000E+02  0.51100000000E-03 0. -1.
         11   -1    0    0    0    0 -0.00000000000E+00 -0.00000000000E+00 -0.45593999997E+02  0.45594000000E+02  0.51100000000E-03 0.  1.
    9900012    2    1    2    0    0 -0.42150956714E+02  0.10035856129E+02 -0.12316328295E+02  0.46142317601E+02  0.99999985423E+01 0.  0.
        -12    1    1    2    0    0  0.42150956714E+02 -0.10035856129E+02  0.12316328295E+02  0.45045682399E+02  0.00000000000E+00 0.  1.
         11    1    3    3    0    0 -0.14807755578E+02  0.93284504928E+00 -0.12663173579E+01  0.14891050502E+02  0.51100000000E-03 0. -1.
        -11    1    3    3    0    0 -0.89980752259E+01  0.43300350359E+01 -0.17536258261E+01  0.10138528739E+02  0.51100000000E-03 0.  1.
         12    1    3    3    0    0 -0.18345125909E+02  0.47729760434E+01 -0.92963851110E+01  0.21112738360E+02  0.00000000000E+00 0. -1.
</event>
<event>
 7    1  0.1543346E-008  0.4614232E+02  0.7816164E-02  0.1320468E+00
        -11   -1    0    0    0    0  0.00000000000E+00  0.00000000000E+00  0.45593999997E+02  0.45594000000E+02  0.51100000000E-03 0.  1.
         11   -1    0    0    0    0 -0.00000000000E+00 -0.00000000000E+00 -0.45593999997E+02  0.45594000000E+02  0.51100000000E-03 0. -1.
    9900012    2    1    2    0    0  0.29728512628E+02 -0.10439688110E+02 -0.32192262587E+02  0.46142319615E+02  0.10000016907E+02 0.  0.
        -12    1    1    2    0    0 -0.29728512628E+02  0.10439688110E+02  0.32192262587E+02  0.45045680385E+02  0.00000000000E+00 0.  1.
         11    1    3    3    0    0  0.14076925617E+02 -0.23039917281E+01 -0.16147094605E+02  0.21545228640E+02  0.51100000000E-03 0. -1.
        -11    1    3    3    0    0  0.31866378253E+01 -0.15628718552E+01 -0.70107633666E+01  0.78579916206E+01  0.51100000000E-03 0.  1.
         12    1    3    3    0    0  0.12464949185E+02 -0.65728245271E+01 -0.90344046153E+01  0.16739099354E+02  0.00000000000E+00 0. -1.
</event>
<event>
 7    1  0.1543346E-008  0.4614232E+02  0.7816164E-02  0.1320468E+00
        -11   -1    0    0    0    0  0.00000000000E+00  0.00000000000E+00  0.45593999997E+02  0.45594000000E+02  0.51100000000E-03 0.  1.
         11   -1    0    0    0    0 -0.00000000000E+00 -0.00000000000E+00 -0.45593999997E+02  0.45594000000E+02  0.51100000000E-03 0. -1.
    9900012    2    1    2    0    0  0.14961979753E+02  0.11733843149E+02 -0.40835886228E+02  0.46142317441E+02  0.99999970845E+01 0.  0.
        -12    1    1    2    0    0 -0.14961979753E+02 -0.11733843149E+02  0.40835886228E+02  0.45045682559E+02  0.00000000000E+00 0.  1.
         11    1    3    3    0    0  0.12414178236E+02  0.80626522836E+01 -0.23930903298E+02  0.28139053218E+02  0.51100000000E-03 0. -1.
        -11    1    3    3    0    0 -0.45401790353E+00  0.22688304720E+01 -0.35057615364E+01  0.42004866598E+01  0.51100000000E-03 0.  1.
         12    1    3    3    0    0  0.30018194206E+01  0.14023603931E+01 -0.13399221394E+02  0.13802777563E+02  0.00000000000E+00 0. -1.
</event>
<event>
 7    1  0.1543346E-008  0.4614231E+02  0.7816164E-02  0.1320468E+00
        -11   -1    0    0    0    0  0.00000000000E+00  0.00000000000E+00  0.45593999997E+02  0.45594000000E+02  0.51100000000E-03 0. -1.
         11   -1    0    0    0    0 -0.00000000000E+00 -0.00000000000E+00 -0.45593999997E+02  0.45594000000E+02  0.51100000000E-03 0.  1.
    9900012    2    1    2    0    0 -0.23270416852E+02 -0.19070590587E+02  0.33524834417E+02  0.46142309324E+02  0.99999230639E+01 0.  0.
        -12    1    1    2    0    0  0.23270416852E+02  0.19070590587E+02 -0.33524834417E+02  0.45045690676E+02  0.00000000000E+00 0.  1.
         11    1    3    3    0    0 -0.18442602518E+01 -0.23442540941E+01  0.37586421666E+01  0.47983553778E+01  0.51100000000E-03 0. -1.
        -11    1    3    3    0    0 -0.15714613482E+02 -0.66577026815E+01  0.18930543296E+02  0.25488027613E+02  0.51100000000E-03 0.  1.
        -12    1    3    3    0    0 -0.57115431188E+01 -0.10068633811E+02  0.10835648954E+02  0.15855926333E+02  0.00000000000E+00 0.  1.
</event>
<event>
 7    1  0.1543346E-008  0.4614232E+02  0.7816164E-02  0.1320468E+00
        -11   -1    0    0    0    0  0.00000000000E+00  0.00000000000E+00  0.45593999997E+02  0.45594000000E+02  0.51100000000E-03 0. -1.
         11   -1    0    0    0    0 -0.00000000000E+00 -0.00000000000E+00 -0.45593999997E+02  0.45594000000E+02  0.51100000000E-03 0.  1.
    9900012    2    1    2    0    0 -0.25411380961E+01 -0.44923196229E+02  0.21359204616E+01  0.46142322089E+02  0.10000039465E+02 0.  0.
        -12    1    1    2    0    0  0.25411380961E+01  0.44923196229E+02 -0.21359204616E+01  0.45045677911E+02  0.00000000000E+00 0.  1.
         11    1    3    3    0    0  0.43459803200E+00 -0.26534128424E+02  0.27366949336E+01  0.26678424730E+02  0.51100000000E-03 0. -1.
        -11    1    3    3    0    0  0.64719587832E+00 -0.56156626016E+01 -0.22508981082E+01  0.60844943516E+01  0.51100000000E-03 0.  1.
        -12    1    3    3    0    0 -0.36229320064E+01 -0.12773405204E+02  0.16501236362E+01  0.13379403007E+02  0.00000000000E+00 0.  1.
</event>
<event>
 7    1  0.1543346E-008  0.4614232E+02  0.7816164E-02  0.1320468E+00
        -11   -1    0    0    0    0  0.00000000000E+00  0.00000000000E+00  0.45593999997E+02  0.45594000000E+02  0.51100000000E-03 0.  1.
         11   -1    0    0    0    0 -0.00000000000E+00 -0.00000000000E+00 -0.45593999997E+02  0.45594000000E+02  0.51100000000E-03 0. -1.
    9900012    2    1    2    0    0  0.15905069759E+02 -0.41876873920E+02 -0.47402159145E+01  0.46142318073E+02  0.10000002840E+02 0.  0.
        -12    1    1    2    0    0 -0.15905069759E+02  0.41876873920E+02  0.47402159145E+01  0.45045681927E+02  0.00000000000E+00 0.  1.
         11    1    3    3    0    0  0.11391995250E+02 -0.21557992721E+02 -0.35078560094E+00  0.24385398433E+02  0.51100000000E-03 0. -1.
        -11    1    3    3    0    0  0.31368169777E+01 -0.49524513302E+01 -0.16242209524E+01  0.60831315039E+01  0.51100000000E-03 0.  1.
        -12    1    3    3    0    0  0.13762575317E+01 -0.15366429869E+02 -0.27652093612E+01  0.15673788136E+02  0.00000000000E+00 0.  1.
</event>
<event>
 7    1  0.2098040E-008  0.4614232E+02  0.7816164E-02  0.1320468E+00
        -11   -1    0    0    0    0  0.00000000000E+00  0.00000000000E+00  0.45593999997E+02  0.45594000000E+02  0.51100000000E-03 0. -1.
         11   -1    0    0    0    0 -0.00000000000E+00 -0.00000000000E+00 -0.45593999997E+02  0.45594000000E+02  0.51100000000E-03 0.  1.
    9900012    2    1    2    0    0  0.31559402307E+02 -0.50931756913E+00  0.32138110510E+02  0.46142318459E+02  0.10000006363E+02 0.  0.
        -12    1    1    2    0    0 -0.31559402307E+02  0.50931756913E+00 -0.32138110510E+02  0.45045681541E+02  0.00000000000E+00 0.  1.
         11    1    3    3    0    0  0.20644498425E+02  0.22393030283E+01  0.24791060456E+02  0.32338931214E+02  0.51100000000E-03 0. -1.
        -11    1    3    3    0    0  0.96916121668E+01 -0.34026808736E+01  0.67639788225E+01  0.12298658191E+02  0.51100000000E-03 0.  1.
         12    1    3    3    0    0  0.12232917153E+01  0.65406027615E+00  0.58307123146E+00  0.15047290542E+01  0.00000000000E+00 0. -1.
</event>
<event>
 7    1  0.1543346E-008  0.4614232E+02  0.7816164E-02  0.1320468E+00
        -11   -1    0    0    0    0  0.00000000000E+00  0.00000000000E+00  0.45593999997E+02  0.45594000000E+02  0.51100000000E-03 0.  1.
         11   -1    0    0    0    0 -0.00000000000E+00 -0.00000000000E+00 -0.45593999997E+02  0.45594000000E+02  0.51100000000E-03 0. -1.
    9900012    2    1    2    0    0  0.63768943574E+01 -0.12781988535E+02 -0.42720830021E+02  0.46142319516E+02  0.10000016003E+02 0.  0.
        -12    1    1    2    0    0 -0.63768943574E+01  0.12781988535E+02  0.42720830021E+02  0.45045680484E+02  0.00000000000E+00 0.  1.
         11    1    3    3    0    0  0.99169033364E+00 -0.91182695396E+01 -0.27792143121E+02  0.29266525393E+02  0.51100000000E-03 0. -1.
        -11    1    3    3    0    0  0.57091553139E+00 -0.21160223666E+01 -0.19017361144E+01  0.29017401175E+01  0.51100000000E-03 0.  1.
         12    1    3    3    0    0  0.48142884924E+01 -0.15476966286E+01 -0.13026950786E+02  0.13974054005E+02  0.00000000000E+00 0. -1.
</event>
<event>
 7    1  0.1543346E-008  0.4614232E+02  0.7816164E-02  0.1320468E+00
        -11   -1    0    0    0    0  0.00000000000E+00  0.00000000000E+00  0.45593999997E+02  0.45594000000E+02  0.51100000000E-03 0.  1.
         11   -1    0    0    0    0 -0.00000000000E+00 -0.00000000000E+00 -0.45593999997E+02  0.45594000000E+02  0.51100000000E-03 0. -1.
    9900012    2    1    2    0    0 -0.27037409788E+02 -0.35469628870E+02 -0.63243556000E+01  0.46142316811E+02  0.99999913352E+01 0.  0.
        -12    1    1    2    0    0  0.27037409788E+02  0.35469628870E+02  0.63243556000E+01  0.45045683189E+02  0.00000000000E+00 0.  1.
         11    1    3    3    0    0 -0.12787260494E+02 -0.14594602502E+02 -0.42289680836E+01  0.19859522261E+02  0.51100000000E-03 0. -1.
        -11    1    3    3    0    0 -0.31049422496E+01 -0.10065752217E+02  0.47990052610E+00  0.10544682965E+02  0.51100000000E-03 0.  1.
        -12    1    3    3    0    0 -0.11145207044E+02 -0.10809274151E+02 -0.25752880424E+01  0.15738111584E+02  0.00000000000E+00 0.  1.
</event>
<event>
 7    1  0.1543346E-008  0.4614232E+02  0.7816164E-02  0.1320468E+00
        -11   -1    0    0    0    0  0.00000000000E+00  0.00000000000E+00  0.45593999997E+02  0.45594000000E+02  0.51100000000E-03 0. -1.
         11   -1    0    0    0    0 -0.00000000000E+00 -0.00000000000E+00 -0.45593999997E+02  0.45594000000E+02  0.51100000000E-03 0.  1.
    9900012    2    1    2    0    0  0.27495176137E+02  0.32141006648E+02  0.15494660398E+02  0.46142317410E+02  0.99999968005E+01 0.  0.
        -12    1    1    2    0    0 -0.27495176137E+02 -0.32141006648E+02 -0.15494660398E+02  0.45045682590E+02  0.00000000000E+00 0.  1.
         11    1    3    3    0    0  0.19550537737E+02  0.18668336027E+02  0.91198947949E+01  0.28528981355E+02  0.51100000000E-03 0. -1.
        -11    1    3    3    0    0 -0.23032526165E-01  0.39044237938E+01  0.21950901708E+01  0.44792272524E+01  0.51100000000E-03 0.  1.
         12    1    3    3    0    0  0.79676709256E+01  0.95682468271E+01  0.41796754321E+01  0.13134108803E+02  0.00000000000E+00 0. -1.
</event>
<event>
 7    1  0.1543346E-008  0.4614232E+02  0.7816164E-02  0.1320468E+00
        -11   -1    0    0    0    0  0.00000000000E+00  0.00000000000E+00  0.45593999997E+02  0.45594000000E+02  0.51100000000E-03 0.  1.
         11   -1    0    0    0    0 -0.00000000000E+00 -0.00000000000E+00 -0.45593999997E+02  0.45594000000E+02  0.51100000000E-03 0. -1.
    9900012    2    1    2    0    0 -0.11481587766E+02 -0.26859765156E+02 -0.34290516605E+02  0.46142319065E+02  0.10000011890E+02 0.  0.
        -12    1    1    2    0    0  0.11481587766E+02  0.26859765156E+02  0.34290516605E+02  0.45045680935E+02  0.00000000000E+00 0.  1.
         11    1    3    3    0    0 -0.51216689518E+01 -0.73345663694E+01 -0.13176681137E+02  0.15926464853E+02  0.51100000000E-03 0. -1.
        -11    1    3    3    0    0 -0.32054535584E+01 -0.24220845011E+01 -0.57205362062E+01  0.69904192001E+01  0.51100000000E-03 0.  1.
         12    1    3    3    0    0 -0.31544652561E+01 -0.17103114285E+02 -0.15393299262E+02  0.23225435012E+02  0.00000000000E+00 0. -1.
</event>
<event>
 7    1  0.1543346E-008  0.4614232E+02  0.7816164E-02  0.1320468E+00
        -11   -1    0    0    0    0  0.00000000000E+00  0.00000000000E+00  0.45593999997E+02  0.45594000000E+02  0.51100000000E-03 0. -1.
         11   -1    0    0    0    0 -0.00000000000E+00 -0.00000000000E+00 -0.45593999997E+02  0.45594000000E+02  0.51100000000E-03 0.  1.
    9900012    2    1    2    0    0 -0.17324268717E+02  0.33286867508E+02  0.24919222871E+02  0.46142317593E+02  0.99999984633E+01 0.  0.
        -12    1    1    2    0    0  0.17324268717E+02 -0.33286867508E+02 -0.24919222871E+02  0.45045682407E+02  0.00000000000E+00 0.  1.
         11    1    3    3    0    0 -0.12388916365E+02  0.24705078087E+02  0.18743877841E+02  0.33393997796E+02  0.51100000000E-03 0. -1.
        -11    1    3    3    0    0  0.42172994090E+00  0.30923887984E-01  0.16254830754E+01  0.16795856392E+01  0.51100000000E-03 0.  1.
         12    1    3    3    0    0 -0.53570822929E+01  0.85508655328E+01  0.45498619541E+01  0.11068734158E+02  0.00000000000E+00 0. -1.
</event>
<event>
 7    1  0.1543346E-008  0.4614232E+02  0.7816164E-02  0.1320468E+00
        -11   -1    0    0    0    0  0.00000000000E+00  0.00000000000E+00  0.45593999997E+02  0.45594000000E+02  0.51100000000E-03 0. -1.
         11   -1    0    0    0    0 -0.00000000000E+00 -0.00000000000E+00 -0.45593999997E+02  0.45594000000E+02  0.51100000000E-03 0.  1.
    9900012    2    1    2    0    0  0.19747395950E+02  0.37645466824E+02  0.14898746344E+02  0.46142318055E+02  0.10000002684E+02 0.  0.
        -12    1    1    2    0    0 -0.19747395950E+02 -0.37645466824E+02 -0.14898746344E+02  0.45045681945E+02  0.00000000000E+00 0.  1.
         11    1    3    3    0    0  0.38436002901E+01  0.92065394856E+01  0.43114407088E+01  0.10868401618E+02  0.51100000000E-03 0. -1.
        -11    1    3    3    0    0  0.30876236299E+01  0.40872213543E+01 -0.13202040923E+01  0.52897766669E+01  0.51100000000E-03 0.  1.
        -12    1    3    3    0    0  0.12816172030E+02  0.24351705985E+02  0.11907509727E+02  0.29984139770E+02  0.00000000000E+00 0.  1.
</event>
<event>
 7    1  0.1543346E-008  0.4614232E+02  0.7816164E-02  0.1320468E+00
        -11   -1    0    0    0    0  0.00000000000E+00  0.00000000000E+00  0.45593999997E+02  0.45594000000E+02  0.51100000000E-03 0.  1.
         11   -1    0    0    0    0 -0.00000000000E+00 -0.00000000000E+00 -0.45593999997E+02  0.45594000000E+02  0.51100000000E-03 0. -1.
    9900012    2    1    2    0    0  0.19853535580E+02 -0.25879977823E+02 -0.31067301665E+02  0.46142319187E+02  0.10000013003E+02 0.  0.
        -12    1    1    2    0    0 -0.19853535580E+02  0.25879977823E+02  0.31067301665E+02  0.45045680813E+02  0.00000000000E+00 0.  1.
         11    1    3    3    0    0  0.95244511563E+01 -0.16912203254E+02 -0.20227340824E+02  0.28033606722E+02  0.51100000000E-03 0. -1.
        -11    1    3    3    0    0  0.47440327412E+01 -0.62489299216E+01 -0.37917504483E+01  0.87139166589E+01  0.51100000000E-03 0.  1.
        -12    1    3    3    0    0  0.55850516823E+01 -0.27188446478E+01 -0.70482103923E+01  0.93947958066E+01  0.00000000000E+00 0.  1.
</event>
<event>
 7    1  0.1543346E-008  0.4614232E+02  0.7816164E-02  0.1320468E+00
        -11   -1    0    0    0    0  0.00000000000E+00  0.00000000000E+00  0.45593999997E+02  0.45594000000E+02  0.51100000000E-03 0. -1.
         11   -1    0    0    0    0 -0.00000000000E+00 -0.00000000000E+00 -0.45593999997E+02  0.45594000000E+02  0.51100000000E-03 0.  1.
    9900012    2    1    2    0    0 -0.22914457810E+02 -0.26162199803E+02  0.28628313309E+02  0.46142318762E+02  0.10000009129E+02 0.  0.
        -12    1    1    2    0    0  0.22914457810E+02  0.26162199803E+02 -0.28628313309E+02  0.45045681238E+02  0.00000000000E+00 0.  1.
         11    1    3    3    0    0 -0.85525480623E+01 -0.14893555158E+02  0.13421303167E+02  0.21796684210E+02  0.51100000000E-03 0. -1.
        -11    1    3    3    0    0 -0.55491753814E+01 -0.19674958337E+01  0.69220969405E+01  0.90873435933E+01  0.51100000000E-03 0.  1.
        -12    1    3    3    0    0 -0.88127343666E+01 -0.93011488112E+01  0.82849132015E+01  0.15258290959E+02  0.00000000000E+00 0.  1.
</event>
<event>
 7    1  0.1543346E-008  0.4614232E+02  0.7816164E-02  0.1320468E+00
        -11   -1    0    0    0    0  0.00000000000E+00  0.00000000000E+00  0.45593999997E+02  0.45594000000E+02  0.51100000000E-03 0.  1.
         11   -1    0    0    0    0 -0.00000000000E+00 -0.00000000000E+00 -0.45593999997E+02  0.45594000000E+02  0.51100000000E-03 0. -1.
    9900012    2    1    2    0    0 -0.73569554600E+01 -0.20508587865E+02 -0.39425709412E+02  0.46142317271E+02  0.99999955286E+01 0.  0.
        -12    1    1    2    0    0  0.73569554600E+01  0.20508587865E+02  0.39425709412E+02  0.45045682729E+02  0.00000000000E+00 0.  1.
         11    1    3    3    0    0 -0.27464031278E+01 -0.12503307830E+02 -0.21106584080E+02  0.24685285671E+02  0.51100000000E-03 0. -1.
        -11    1    3    3    0    0 -0.12258506001E+01 -0.72049979227E+00  0.34752400820E-01  0.14223352751E+01  0.51100000000E-03 0.  1.
        -12    1    3    3    0    0 -0.33847017322E+01 -0.72847802427E+01 -0.18353877733E+02  0.20034696325E+02  0.00000000000E+00 0.  1.
</event>
<event>
 7    1  0.1543346E-008  0.4614232E+02  0.7816164E-02  0.1320468E+00
        -11   -1    0    0    0    0  0.00000000000E+00  0.00000000000E+00  0.45593999997E+02  0.45594000000E+02  0.51100000000E-03 0.  1.
         11   -1    0    0    0    0 -0.00000000000E+00 -0.00000000000E+00 -0.45593999997E+02  0.45594000000E+02  0.51100000000E-03 0. -1.
    9900012    2    1    2    0    0 -0.36467618391E+02 -0.23601505156E+02 -0.11924559562E+02  0.46142319214E+02  0.10000013249E+02 0.  0.
        -12    1    1    2    0    0  0.36467618391E+02  0.23601505156E+02  0.11924559562E+02  0.45045680786E+02  0.00000000000E+00 0.  1.
         11    1    3    3    0    0 -0.16629659656E+02 -0.13553932510E+02 -0.10200678749E+02  0.23755178676E+02  0.51100000000E-03 0. -1.
        -11    1    3    3    0    0 -0.18053220027E+02 -0.88572190698E+01 -0.20658751761E+01  0.20214769934E+02  0.51100000000E-03 0.  1.
        -12    1    3    3    0    0 -0.17847387083E+01 -0.11903535768E+01  0.34199436373E+00  0.21723706036E+01  0.00000000000E+00 0.  1.
</event>
<event>
 7    1  0.1543346E-008  0.4614232E+02  0.7816164E-02  0.1320468E+00
        -11   -1    0    0    0    0  0.00000000000E+00  0.00000000000E+00  0.45593999997E+02  0.45594000000E+02  0.51100000000E-03 0.  1.
         11   -1    0    0    0    0 -0.00000000000E+00 -0.00000000000E+00 -0.45593999997E+02  0.45594000000E+02  0.51100000000E-03 0. -1.
    9900012    2    1    2    0    0  0.40541548838E+02 -0.87068817217E+01 -0.17597913253E+02  0.46142317384E+02  0.99999965592E+01 0.  0.
        -12    1    1    2    0    0 -0.40541548838E+02  0.87068817217E+01  0.17597913253E+02  0.45045682616E+02  0.00000000000E+00 0.  1.
         11    1    3    3    0    0  0.29687168949E+02 -0.63099928762E+01 -0.11602238235E+02  0.32492398228E+02  0.51100000000E-03 0. -1.
        -11    1    3    3    0    0  0.26435021986E+01  0.12124837636E+01 -0.30379879154E+01  0.42056618487E+01  0.51100000000E-03 0.  1.
         12    1    3    3    0    0  0.82108776908E+01 -0.36093726091E+01 -0.29576871025E+01  0.94442573070E+01  0.00000000000E+00 0. -1.
</event>
<event>
 7    1  0.1543346E-008  0.4614232E+02  0.7816164E-02  0.1320468E+00
        -11   -1    0    0    0    0  0.00000000000E+00  0.00000000000E+00  0.45593999997E+02  0.45594000000E+02  0.51100000000E-03 0.  1.
         11   -1    0    0    0    0 -0.00000000000E+00 -0.00000000000E+00 -0.45593999997E+02  0.45594000000E+02  0.51100000000E-03 0. -1.
    9900012    2    1    2    0    0  0.29489001942E+02 -0.25803518935E+02 -0.22219153456E+02  0.46142316464E+02  0.99999881712E+01 0.  0.
        -12    1    1    2    0    0 -0.29489001942E+02  0.25803518935E+02  0.22219153456E+02  0.45045683536E+02  0.00000000000E+00 0.  1.
         11    1    3    3    0    0  0.73144157460E+01 -0.44019674800E+01 -0.18215767828E+01  0.87290399035E+01  0.51100000000E-03 0.  1.
        -11    1    3    3    0    0  0.17686939010E+02 -0.15381056980E+02 -0.17924478263E+02  0.29507484587E+02  0.51100000000E-03 0. -1.
         12    1    3    3    0    0  0.44876471851E+01 -0.60204944753E+01 -0.24730984097E+01  0.79057919735E+01  0.00000000000E+00 0. -1.
</event>
<event>
 7    1  0.1543346E-008  0.4614232E+02  0.7816164E-02  0.1320468E+00
        -11   -1    0    0    0    0  0.00000000000E+00  0.00000000000E+00  0.45593999997E+02  0.45594000000E+02  0.51100000000E-03 0.  1.
         11   -1    0    0    0    0 -0.00000000000E+00 -0.00000000000E+00 -0.45593999997E+02  0.45594000000E+02  0.51100000000E-03 0. -1.
    9900012    2    1    2    0    0  0.30778817014E+02  0.31490016115E+02 -0.94950929162E+01  0.46142317841E+02  0.10000000729E+02 0.  0.
        -12    1    1    2    0    0 -0.30778817014E+02 -0.31490016115E+02  0.94950929162E+01  0.45045682159E+02  0.00000000000E+00 0.  1.
         11    1    3    3    0    0  0.70517342347E+01  0.74794104938E+01 -0.64560043459E+01  0.12138720255E+02  0.51100000000E-03 0.  1.
        -11    1    3    3    0    0  0.21010260658E+02  0.22315746289E+02 -0.24505457543E+01  0.30747825291E+02  0.51100000000E-03 0. -1.
         12    1    3    3    0    0  0.27168221210E+01  0.16948593317E+01 -0.58854281595E+00  0.32557722951E+01  0.00000000000E+00 0. -1.
</event>
<event>
 7    1  0.1543346E-008  0.4614232E+02  0.7816164E-02  0.1320468E+00
        -11   -1    0    0    0    0  0.00000000000E+00  0.00000000000E+00  0.45593999997E+02  0.45594000000E+02  0.51100000000E-03 0.  1.
         11   -1    0    0    0    0 -0.00000000000E+00 -0.00000000000E+00 -0.45593999997E+02  0.45594000000E+02  0.51100000000E-03 0. -1.
    9900012    2    1    2    0    0  0.21258200519E+02  0.19727296526E+02 -0.34467900493E+02  0.46142317832E+02  0.10000000650E+02 0.  0.
        -12    1    1    2    0    0 -0.21258200519E+02 -0.19727296526E+02  0.34467900493E+02  0.45045682168E+02  0.00000000000E+00 0.  1.
         11    1    3    3    0    0  0.14604857218E+02  0.14279312736E+02 -0.28853434191E+02  0.35351397306E+02  0.51100000000E-03 0. -1.
        -11    1    3    3    0    0  0.64707149552E+01  0.55509888934E+01 -0.59491645209E+01  0.10395969819E+02  0.51100000000E-03 0.  1.
         12    1    3    3    0    0  0.18262834523E+00 -0.10300510283E+00  0.33469821878E+00  0.39495070748E+00  0.00000000000E+00 0. -1.
</event>
<event>
 7    1  0.1543346E-008  0.4614232E+02  0.7816164E-02  0.1320468E+00
        -11   -1    0    0    0    0  0.00000000000E+00  0.00000000000E+00  0.45593999997E+02  0.45594000000E+02  0.51100000000E-03 0.  1.
         11   -1    0    0    0    0 -0.00000000000E+00 -0.00000000000E+00 -0.45593999997E+02  0.45594000000E+02  0.51100000000E-03 0. -1.
    9900012    2    1    2    0    0  0.22816899637E+02  0.33487408419E+02 -0.19674755818E+02  0.46142318207E+02  0.10000004070E+02 0.  0.
        -12    1    1    2    0    0 -0.22816899637E+02 -0.33487408419E+02  0.19674755818E+02  0.45045681793E+02  0.00000000000E+00 0.  1.
         11    1    3    3    0    0  0.14034277725E+01  0.48886371334E+01 -0.51596315720E+01  0.72450107491E+01  0.51100000000E-03 0. -1.
        -11    1    3    3    0    0  0.94633700482E-01  0.18750508454E+01 -0.10843596489E+01  0.21680884021E+01  0.51100000000E-03 0.  1.
         12    1    3    3    0    0  0.21318838164E+02  0.26723720440E+02 -0.13430764597E+02  0.36729219056E+02  0.00000000000E+00 0. -1.
</event>
<event>
 7    1  0.1649318E-008  0.4614232E+02  0.7816164E-02  0.1320468E+00
        -11   -1    0    0    0    0  0.00000000000E+00  0.00000000000E+00  0.45593999997E+02  0.45594000000E+02  0.51100000000E-03 0. -1.
         11   -1    0    0    0    0 -0.00000000000E+00 -0.00000000000E+00 -0.45593999997E+02  0.45594000000E+02  0.51100000000E-03 0.  1.
    9900012    2    1    2    0    0  0.34164366739E+02 -0.27532694573E+02 -0.10191180179E+02  0.46142318980E+02  0.10000011117E+02 0.  0.
        -12    1    1    2    0    0 -0.34164366739E+02  0.27532694573E+02  0.10191180179E+02  0.45045681020E+02  0.00000000000E+00 0.  1.
         11    1    3    3    0    0  0.12235752075E+02 -0.13025350245E+02 -0.77574810708E+01  0.19482091537E+02  0.51100000000E-03 0. -1.
        -11    1    3    3    0    0  0.38504254037E+01 -0.10022406208E+01 -0.18918359996E+00  0.39832214032E+01  0.51100000000E-03 0.  1.
         12    1    3    3    0    0  0.18078189260E+02 -0.13505103707E+02 -0.22445155088E+01  0.22677006040E+02  0.00000000000E+00 0. -1.
</event>
<event>
 7    1  0.1543346E-008  0.4614232E+02  0.7816164E-02  0.1320468E+00
        -11   -1    0    0    0    0  0.00000000000E+00  0.00000000000E+00  0.45593999997E+02  0.45594000000E+02  0.51100000000E-03 0.  1.
         11   -1    0    0    0    0 -0.00000000000E+00 -0.00000000000E+00 -0.45593999997E+02  0.45594000000E+02  0.51100000000E-03 0. -1.
    9900012    2    1    2    0    0 -0.30530539741E+01  0.37512895694E+02 -0.24750253766E+02  0.46142317151E+02  0.99999944325E+01 0.  0.
        -12    1    1    2    0    0  0.30530539741E+01 -0.37512895694E+02  0.24750253766E+02  0.45045682849E+02  0.00000000000E+00 0.  1.
         11    1    3    3    0    0 -0.83024702687E-01  0.16204516914E+02 -0.15873754182E+02  0.22684120737E+02  0.51100000000E-03 0. -1.
        -11    1    3    3    0    0 -0.13655704942E+01  0.17612011912E+02 -0.76094105596E+01  0.19234107093E+02  0.51100000000E-03 0.  1.
         12    1    3    3    0    0 -0.16044587773E+01  0.36963668683E+01 -0.12670890247E+01  0.42240893207E+01  0.00000000000E+00 0. -1.
</event>
<event>
 7    1  0.1543346E-008  0.4614232E+02  0.7816164E-02  0.1320468E+00
        -11   -1    0    0    0    0  0.00000000000E+00  0.00000000000E+00  0.45593999997E+02  0.45594000000E+02  0.51100000000E-03 0.  1.
         11   -1    0    0    0    0 -0.00000000000E+00 -0.00000000000E+00 -0.45593999997E+02  0.45594000000E+02  0.51100000000E-03 0. -1.
    9900012    2    1    2    0    0  0.10419677670E+02 -0.39741037249E+02 -0.18471432180E+02  0.46142317286E+02  0.99999956712E+01 0.  0.
        -12    1    1    2    0    0 -0.10419677670E+02  0.39741037249E+02  0.18471432180E+02  0.45045682714E+02  0.00000000000E+00 0.  1.
         11    1    3    3    0    0  0.40222572996E+00 -0.13846015426E+02 -0.46205356149E+01  0.14602166906E+02  0.51100000000E-03 0. -1.
        -11    1    3    3    0    0 -0.42223420473E+00 -0.42383027944E+00 -0.98928451054E+00  0.11561132874E+01  0.51100000000E-03 0.  1.
        -12    1    3    3    0    0  0.10439686145E+02 -0.25471191544E+02 -0.12861612054E+02  0.30384037093E+02  0.00000000000E+00 0.  1.
</event>
<event>
 7    1  0.1543346E-008  0.4614232E+02  0.7816164E-02  0.1320468E+00
        -11   -1    0    0    0    0  0.00000000000E+00  0.00000000000E+00  0.45593999997E+02  0.45594000000E+02  0.51100000000E-03 0. -1.
         11   -1    0    0    0    0 -0.00000000000E+00 -0.00000000000E+00 -0.45593999997E+02  0.45594000000E+02  0.51100000000E-03 0.  1.
    9900012    2    1    2    0    0 -0.36773919199E+01 -0.33140971934E+01  0.44772837733E+02  0.46142318184E+02  0.10000003859E+02 0.  0.
        -12    1    1    2    0    0  0.36773919199E+01  0.33140971934E+01 -0.44772837733E+02  0.45045681816E+02  0.00000000000E+00 0.  1.
         11    1    3    3    0    0 -0.40701789644E+01 -0.20719860093E+01  0.13546160865E+02  0.14295382376E+02  0.51100000000E-03 0. -1.
        -11    1    3    3    0    0 -0.20922928799E+01  0.51406599182E+00  0.50016941759E+01  0.54459983685E+01  0.51100000000E-03 0.  1.
         12    1    3    3    0    0  0.24850799244E+01 -0.17561771760E+01  0.26224982692E+02  0.26400937440E+02  0.00000000000E+00 0. -1.
</event>
<event>
 7    1  0.1543346E-008  0.4614232E+02  0.7816164E-02  0.1320468E+00
        -11   -1    0    0    0    0  0.00000000000E+00  0.00000000000E+00  0.45593999997E+02  0.45594000000E+02  0.51100000000E-03 0.  1.
         11   -1    0    0    0    0 -0.00000000000E+00 -0.00000000000E+00 -0.45593999997E+02  0.45594000000E+02  0.51100000000E-03 0. -1.
    9900012    2    1    2    0    0  0.30525773802E+02 -0.70621265862E+01 -0.32363817617E+02  0.46142321086E+02  0.10000030315E+02 0.  0.
        -12    1    1    2    0    0 -0.30525773802E+02  0.70621265862E+01  0.32363817617E+02  0.45045678914E+02  0.00000000000E+00 0.  1.
         11    1    3    3    0    0  0.24797148843E+02 -0.92354066622E+01 -0.27182814955E+02  0.37935428772E+02  0.51100000000E-03 0. -1.
        -11    1    3    3    0    0  0.46235667864E+01  0.17271743673E+01 -0.49553751548E+01  0.69940148920E+01  0.51100000000E-03 0.  1.
         12    1    3    3    0    0  0.11050581728E+01  0.44610570869E+00 -0.22562750695E+00  0.12128774219E+01  0.00000000000E+00 0. -1.
</event>
<event>
 7    1  0.1543346E-008  0.4614230E+02  0.7816164E-02  0.1320468E+00
        -11   -1    0    0    0    0  0.00000000000E+00  0.00000000000E+00  0.45593999997E+02  0.45594000000E+02  0.51100000000E-03 0. -1.
         11   -1    0    0    0    0 -0.00000000000E+00 -0.00000000000E+00 -0.45593999997E+02  0.45594000000E+02  0.51100000000E-03 0.  1.
    9900012    2    1    2    0    0  0.16916062948E+01  0.44990941431E+02 -0.14382431944E+01  0.46142302246E+02  0.99998585179E+01 0.  0.
        -12    1    1    2    0    0 -0.16916062948E+01 -0.44990941431E+02  0.14382431944E+01  0.45045697754E+02  0.00000000000E+00 0.  1.
         11    1    3    3    0    0 -0.63172520201E+00  0.14680980708E+02 -0.90245073110E+00  0.14722251487E+02  0.51100000000E-03 0. -1.
        -11    1    3    3    0    0  0.47947104379E+01  0.12958029565E+02  0.81770816448E+00  0.13840824589E+02  0.51100000000E-03 0.  1.
        -12    1    3    3    0    0 -0.24713789411E+01  0.17351931158E+02 -0.13535006278E+01  0.17579226170E+02  0.00000000000E+00 0.  1.
</event>
<event>
 7    1  0.1543346E-008  0.4614232E+02  0.7816164E-02  0.1320468E+00
        -11   -1    0    0    0    0  0.00000000000E+00  0.00000000000E+00  0.45593999997E+02  0.45594000000E+02  0.51100000000E-03 0. -1.
         11   -1    0    0    0    0 -0.00000000000E+00 -0.00000000000E+00 -0.45593999997E+02  0.45594000000E+02  0.51100000000E-03 0.  1.
    9900012    2    1    2    0    0 -0.30128935056E+02 -0.33158915540E+02 -0.46740835506E+01  0.46142318026E+02  0.10000002417E+02 0.  0.
        -12    1    1    2    0    0  0.30128935056E+02  0.33158915540E+02  0.46740835506E+01  0.45045681974E+02  0.00000000000E+00 0.  1.
         11    1    3    3    0    0 -0.24782513156E+02 -0.20562865690E+02 -0.28230942130E+01  0.32326061698E+02  0.51100000000E-03 0. -1.
        -11    1    3    3    0    0 -0.34795546718E+01 -0.86547182717E+01 -0.11356925130E+01  0.93968743113E+01  0.51100000000E-03 0.  1.
         12    1    3    3    0    0 -0.18668672286E+01 -0.39413315789E+01 -0.71529682461E+00  0.44193820169E+01  0.00000000000E+00 0. -1.
</event>
<event>
 7    1  0.1543346E-008  0.4614232E+02  0.7816164E-02  0.1320468E+00
        -11   -1    0    0    0    0  0.00000000000E+00  0.00000000000E+00  0.45593999997E+02  0.45594000000E+02  0.51100000000E-03 0. -1.
         11   -1    0    0    0    0 -0.00000000000E+00 -0.00000000000E+00 -0.45593999997E+02  0.45594000000E+02  0.51100000000E-03 0.  1.
    9900012    2    1    2    0    0 -0.86154533037E+01  0.86478979697E+01  0.43360135197E+02  0.46142317641E+02  0.99999989038E+01 0.  0.
        -12    1    1    2    0    0  0.86154533037E+01 -0.86478979697E+01 -0.43360135197E+02  0.45045682359E+02  0.00000000000E+00 0.  1.
         11    1    3    3    0    0 -0.54079533768E+01  0.80443892041E+01  0.32262738201E+02  0.33687422488E+02  0.51100000000E-03 0. -1.
        -11    1    3    3    0    0 -0.10528928574E+01 -0.18273818291E+01  0.25383078518E+01  0.33001385925E+01  0.51100000000E-03 0.  1.
        -12    1    3    3    0    0 -0.21546070695E+01  0.24308905947E+01  0.85590891438E+01  0.91547565604E+01  0.00000000000E+00 0.  1.
</event>
<event>
 7    1  0.1543346E-008  0.4614232E+02  0.7816164E-02  0.1320468E+00
        -11   -1    0    0    0    0  0.00000000000E+00  0.00000000000E+00  0.45593999997E+02  0.45594000000E+02  0.51100000000E-03 0.  1.
         11   -1    0    0    0    0 -0.00000000000E+00 -0.00000000000E+00 -0.45593999997E+02  0.45594000000E+02  0.51100000000E-03 0. -1.
    9900012    2    1    2    0    0 -0.10693037897E+02  0.16734116598E+02  0.40431940869E+02  0.46142316963E+02  0.99999927241E+01 0.  0.
        -12    1    1    2    0    0  0.10693037897E+02 -0.16734116598E+02 -0.40431940869E+02  0.45045683037E+02  0.00000000000E+00 0.  1.
         11    1    3    3    0    0 -0.61854685338E+01  0.73084419912E+01  0.16147862804E+02  0.18773034350E+02  0.51100000000E-03 0. -1.
        -11    1    3    3    0    0 -0.30698770848E+01  0.10371577155E+02  0.19721271643E+02  0.22492716899E+02  0.51100000000E-03 0.  1.
        -12    1    3    3    0    0 -0.14376922783E+01 -0.94590254816E+00  0.45628064224E+01  0.48765657143E+01  0.00000000000E+00 0.  1.
</event>
<event>
 7    1  0.1543346E-008  0.4614232E+02  0.7816164E-02  0.1320468E+00
        -11   -1    0    0    0    0  0.00000000000E+00  0.00000000000E+00  0.45593999997E+02  0.45594000000E+02  0.51100000000E-03 0. -1.
         11   -1    0    0    0    0 -0.00000000000E+00 -0.00000000000E+00 -0.45593999997E+02  0.45594000000E+02  0.51100000000E-03 0.  1.
    9900012    2    1    2    0    0  0.13487537759E+02 -0.66181613080E+01  0.42466448453E+02  0.46142323425E+02  0.10000051648E+02 0.  0.
        -12    1    1    2    0    0 -0.13487537759E+02  0.66181613080E+01 -0.42466448453E+02  0.45045676575E+02  0.00000000000E+00 0.  1.
         11    1    3    3    0    0  0.55893815133E+01 -0.70173838685E+01  0.17518164179E+02  0.19681741247E+02  0.51100000000E-03 0. -1.
        -11    1    3    3    0    0  0.65502059049E+01 -0.28577827528E+00  0.14628155979E+02  0.16030278046E+02  0.51100000000E-03 0.  1.
         12    1    3    3    0    0  0.13479503412E+01  0.68500083572E+00  0.10320128294E+02  0.10430304132E+02  0.00000000000E+00 0. -1.
</event>
<event>
 7    1  0.1543346E-008  0.4614232E+02  0.7816164E-02  0.1320468E+00
        -11   -1    0    0    0    0  0.00000000000E+00  0.00000000000E+00  0.45593999997E+02  0.45594000000E+02  0.51100000000E-03 0. -1.
         11   -1    0    0    0    0 -0.00000000000E+00 -0.00000000000E+00 -0.45593999997E+02  0.45594000000E+02  0.51100000000E-03 0.  1.
    9900012    2    1    2    0    0 -0.19289130815E+02 -0.32048563458E+02  0.25098456227E+02  0.46142317717E+02  0.99999996016E+01 0.  0.
        -12    1    1    2    0    0  0.19289130815E+02  0.32048563458E+02 -0.25098456227E+02  0.45045682283E+02  0.00000000000E+00 0.  1.
         11    1    3    3    0    0 -0.14185967245E+01 -0.15445811476E+01  0.10475083755E+01  0.23442315683E+01  0.51100000000E-03 0. -1.
        -11    1    3    3    0    0 -0.12085687399E+02 -0.11297479444E+02  0.10705275992E+02  0.19705324560E+02  0.51100000000E-03 0.  1.
        -12    1    3    3    0    0 -0.57848466921E+01 -0.19206502867E+02  0.13345671859E+02  0.24092761589E+02  0.00000000000E+00 0.  1.
</event>
<event>
 7    1  0.1543346E-008  0.4614232E+02  0.7816164E-02  0.1320468E+00
        -11   -1    0    0    0    0  0.00000000000E+00  0.00000000000E+00  0.45593999997E+02  0.45594000000E+02  0.51100000000E-03 0.  1.
         11   -1    0    0    0    0 -0.00000000000E+00 -0.00000000000E+00 -0.45593999997E+02  0.45594000000E+02  0.51100000000E-03 0. -1.
    9900012    2    1    2    0    0  0.38117448736E+02  0.75077371017E+00 -0.23991863664E+02  0.46142322279E+02  0.10000041195E+02 0.  0.
        -12    1    1    2    0    0 -0.38117448736E+02 -0.75077371017E+00  0.23991863664E+02  0.45045677721E+02  0.00000000000E+00 0.  1.
         11    1    3    3    0    0  0.19090549042E+02 -0.10995346955E+01 -0.13720918286E+02  0.23535539895E+02  0.51100000000E-03 0. -1.
        -11    1    3    3    0    0  0.10285535724E+02  0.32018684140E+01 -0.30708258298E+01  0.11201525700E+02  0.51100000000E-03 0.  1.
        -12    1    3    3    0    0  0.87413639693E+01 -0.13515600083E+01 -0.72001195488E+01  0.11405256684E+02  0.00000000000E+00 0.  1.
</event>
<event>
 7    1  0.1543346E-008  0.4614232E+02  0.7816164E-02  0.1320468E+00
        -11   -1    0    0    0    0  0.00000000000E+00  0.00000000000E+00  0.45593999997E+02  0.45594000000E+02  0.51100000000E-03 0. -1.
         11   -1    0    0    0    0 -0.00000000000E+00 -0.00000000000E+00 -0.45593999997E+02  0.45594000000E+02  0.51100000000E-03 0.  1.
    9900012    2    1    2    0    0 -0.38996318709E+02  0.15725537231E+02  0.16158839694E+02  0.46142317695E+02  0.99999993960E+01 0.  0.
        -12    1    1    2    0    0  0.38996318709E+02 -0.15725537231E+02 -0.16158839694E+02  0.45045682305E+02  0.00000000000E+00 0.  1.
         11    1    3    3    0    0 -0.18708664280E+02  0.58064167088E+01  0.65993249032E+01  0.20670744631E+02  0.51100000000E-03 0. -1.
        -11    1    3    3    0    0 -0.10788439122E+02  0.55430108645E+01  0.88002140707E+01  0.14985297998E+02  0.51100000000E-03 0.  1.
        -12    1    3    3    0    0 -0.94992153066E+01  0.43761096581E+01  0.75930072028E+00  0.10486275066E+02  0.00000000000E+00 0.  1.
</event>
<event>
 7    1  0.1543346E-008  0.4614232E+02  0.7816164E-02  0.1320468E+00
        -11   -1    0    0    0    0  0.00000000000E+00  0.00000000000E+00  0.45593999997E+02  0.45594000000E+02  0.51100000000E-03 0.  1.
         11   -1    0    0    0    0 -0.00000000000E+00 -0.00000000000E+00 -0.45593999997E+02  0.45594000000E+02  0.51100000000E-03 0. -1.
    9900012    2    1    2    0    0  0.28425615345E+02 -0.23789183947E+02 -0.25596341610E+02  0.46142316695E+02  0.99999902812E+01 0.  0.
        -12    1    1    2    0    0 -0.28425615345E+02  0.23789183947E+02  0.25596341610E+02  0.45045683305E+02  0.00000000000E+00 0.  1.
         11    1    3    3    0    0  0.14476358503E+02 -0.13414835873E+02 -0.97254064086E+01  0.22002415938E+02  0.51100000000E-03 0. -1.
        -11    1    3    3    0    0 -0.46977703423E+00 -0.48304879167E+00 -0.34926154123E+00  0.75895354425E+00  0.51100000000E-03 0.  1.
        -12    1    3    3    0    0  0.14419033875E+02 -0.98912992823E+01 -0.15521673660E+02  0.23380947213E+02  0.00000000000E+00 0.  1.
</event>
<event>
 7    1  0.1543346E-008  0.4614232E+02  0.7816164E-02  0.1320468E+00
        -11   -1    0    0    0    0  0.00000000000E+00  0.00000000000E+00  0.45593999997E+02  0.45594000000E+02  0.51100000000E-03 0.  1.
         11   -1    0    0    0    0 -0.00000000000E+00 -0.00000000000E+00 -0.45593999997E+02  0.45594000000E+02  0.51100000000E-03 0. -1.
    9900012    2    1    2    0    0 -0.10085197755E+02  0.10162400000E+02 -0.42709810301E+02  0.46142317816E+02  0.10000000499E+02 0.  0.
        -12    1    1    2    0    0  0.10085197755E+02 -0.10162400000E+02  0.42709810301E+02  0.45045682184E+02  0.00000000000E+00 0.  1.
         11    1    3    3    0    0 -0.60097033514E+01  0.59070208282E+01 -0.27070058479E+02  0.28351322645E+02  0.51100000000E-03 0. -1.
        -11    1    3    3    0    0 -0.74194470219E+00  0.45782013940E+01 -0.11894235076E+02  0.12766488877E+02  0.51100000000E-03 0.  1.
         12    1    3    3    0    0 -0.33335497011E+01 -0.32282222246E+00 -0.37455167459E+01  0.50245062933E+01  0.00000000000E+00 0. -1.
</event>
<event>
 7    1  0.1543346E-008  0.4614232E+02  0.7816164E-02  0.1320468E+00
        -11   -1    0    0    0    0  0.00000000000E+00  0.00000000000E+00  0.45593999997E+02  0.45594000000E+02  0.51100000000E-03 0.  1.
         11   -1    0    0    0    0 -0.00000000000E+00 -0.00000000000E+00 -0.45593999997E+02  0.45594000000E+02  0.51100000000E-03 0. -1.
    9900012    2    1    2    0    0 -0.20275163900E+02  0.38541850237E+02 -0.11513334031E+02  0.46142319282E+02  0.10000013867E+02 0.  0.
        -12    1    1    2    0    0  0.20275163900E+02 -0.38541850237E+02  0.11513334031E+02  0.45045680718E+02  0.00000000000E+00 0.  1.
         11    1    3    3    0    0 -0.10255744844E+02  0.18967200010E+02 -0.78882785335E+01  0.22959963350E+02  0.51100000000E-03 0. -1.
        -11    1    3    3    0    0 -0.44583421414E+00 -0.44183255995E+00  0.21681411477E+00  0.66407287176E+00  0.51100000000E-03 0.  1.
        -12    1    3    3    0    0 -0.95735848423E+01  0.20016482787E+02 -0.38418696120E+01  0.22518283061E+02  0.00000000000E+00 0.  1.
</event>
<event>
 7    1  0.1543346E-008  0.4614232E+02  0.7816164E-02  0.1320468E+00
        -11   -1    0    0    0    0  0.00000000000E+00  0.00000000000E+00  0.45593999997E+02  0.45594000000E+02  0.51100000000E-03 0.  1.
         11   -1    0    0    0    0 -0.00000000000E+00 -0.00000000000E+00 -0.45593999997E+02  0.45594000000E+02  0.51100000000E-03 0. -1.
    9900012    2    1    2    0    0  0.19822163777E+01 -0.11062311708E+02 -0.43621205504E+02  0.46142317724E+02  0.99999996648E+01 0.  0.
        -12    1    1    2    0    0 -0.19822163777E+01  0.11062311708E+02  0.43621205504E+02  0.45045682276E+02  0.00000000000E+00 0.  1.
         11    1    3    3    0    0  0.21617847682E+01 -0.52191236983E+01 -0.20262506692E+02  0.21035250016E+02  0.51100000000E-03 0. -1.
        -11    1    3    3    0    0 -0.15708366198E+01 -0.31105285718E+01 -0.20866872448E+02  0.21155833279E+02  0.51100000000E-03 0.  1.
        -12    1    3    3    0    0  0.13912682293E+01 -0.27326594376E+01 -0.24918263637E+01  0.39512344292E+01  0.00000000000E+00 0.  1.
</event>
<event>
 7    1  0.1543346E-008  0.4614232E+02  0.7816164E-02  0.1320468E+00
        -11   -1    0    0    0    0  0.00000000000E+00  0.00000000000E+00  0.45593999997E+02  0.45594000000E+02  0.51100000000E-03 0. -1.
         11   -1    0    0    0    0 -0.00000000000E+00 -0.00000000000E+00 -0.45593999997E+02  0.45594000000E+02  0.51100000000E-03 0.  1.
    9900012    2    1    2    0    0 -0.36169466596E+02  0.75619958461E+00  0.26838617066E+02  0.46142317436E+02  0.99999970344E+01 0.  0.
        -12    1    1    2    0    0  0.36169466596E+02 -0.75619958461E+00 -0.26838617066E+02  0.45045682564E+02  0.00000000000E+00 0.  1.
         11    1    3    3    0    0 -0.27443184930E+02 -0.15724833718E+01  0.16221039505E+02  0.31917443913E+02  0.51100000000E-03 0. -1.
        -11    1    3    3    0    0 -0.77361809864E+01  0.15092024595E+01  0.76189449987E+01  0.10962413579E+02  0.51100000000E-03 0.  1.
         12    1    3    3    0    0 -0.99010067915E+00  0.81948049694E+00  0.29986325626E+01  0.32624599439E+01  0.00000000000E+00 0. -1.
</event>
<event>
 7    1  0.1543346E-008  0.4614232E+02  0.7816164E-02  0.1320468E+00
        -11   -1    0    0    0    0  0.00000000000E+00  0.00000000000E+00  0.45593999997E+02  0.45594000000E+02  0.51100000000E-03 0. -1.
         11   -1    0    0    0    0 -0.00000000000E+00 -0.00000000000E+00 -0.45593999997E+02  0.45594000000E+02  0.51100000000E-03 0.  1.
    9900012    2    1    2    0    0 -0.22257422048E+02 -0.21664441730E+02  0.32624723813E+02  0.46142317903E+02  0.10000001297E+02 0.  0.
        -12    1    1    2    0    0  0.22257422048E+02  0.21664441730E+02 -0.32624723813E+02  0.45045682097E+02  0.00000000000E+00 0.  1.
         11    1    3    3    0    0 -0.72311234147E+01 -0.12042653102E+02  0.12077872238E+02  0.18525378205E+02  0.51100000000E-03 0. -1.
        -11    1    3    3    0    0 -0.14453097605E+02 -0.88813369725E+01  0.20591839862E+02  0.26679468622E+02  0.51100000000E-03 0.  1.
        -12    1    3    3    0    0 -0.57320102848E+00 -0.74045165545E+00 -0.44988286999E-01  0.93747107640E+00  0.00000000000E+00 0.  1.
</event>
<event>
 7    1  0.1543346E-008  0.4614232E+02  0.7816164E-02  0.1320468E+00
        -11   -1    0    0    0    0  0.00000000000E+00  0.00000000000E+00  0.45593999997E+02  0.45594000000E+02  0.51100000000E-03 0.  1.
         11   -1    0    0    0    0 -0.00000000000E+00 -0.00000000000E+00 -0.45593999997E+02  0.45594000000E+02  0.51100000000E-03 0. -1.
    9900012    2    1    2    0    0 -0.37753016827E+02  0.22683620844E+02 -0.94486274960E+01  0.46142317680E+02  0.99999992598E+01 0.  0.
        -12    1    1    2    0    0  0.37753016827E+02 -0.22683620844E+02  0.94486274960E+01  0.45045682320E+02  0.00000000000E+00 0.  1.
         11    1    3    3    0    0 -0.50446970723E+01  0.21582432447E+01 -0.97573326313E+00  0.55730636204E+01  0.51100000000E-03 0. -1.
        -11    1    3    3    0    0 -0.71948555304E+01  0.68149276896E+01 -0.57990892900E+01  0.11482100085E+02  0.51100000000E-03 0.  1.
        -12    1    3    3    0    0 -0.25513464224E+02  0.13710449910E+02 -0.26738049428E+01  0.29087153974E+02  0.00000000000E+00 0.  1.
</event>
<event>
 7    1  0.1543346E-008  0.4614232E+02  0.7816164E-02  0.1320468E+00
        -11   -1    0    0    0    0  0.00000000000E+00  0.00000000000E+00  0.45593999997E+02  0.45594000000E+02  0.51100000000E-03 0.  1.
         11   -1    0    0    0    0 -0.00000000000E+00 -0.00000000000E+00 -0.45593999997E+02  0.45594000000E+02  0.51100000000E-03 0. -1.
    9900012    2    1    2    0    0 -0.32600967482E+01  0.17498034527E+02 -0.41379994781E+02  0.46142318617E+02  0.10000007807E+02 0.  0.
        -12    1    1    2    0    0  0.32600967482E+01 -0.17498034527E+02  0.41379994781E+02  0.45045681383E+02  0.00000000000E+00 0.  1.
         11    1    3    3    0    0 -0.52933094226E+01  0.80663822013E+01 -0.28070159235E+02  0.29681972411E+02  0.51100000000E-03 0. -1.
        -11    1    3    3    0    0  0.17026467085E+01  0.70826866100E+01 -0.94816862552E+01  0.11956831935E+02  0.51100000000E-03 0.  1.
         12    1    3    3    0    0  0.33056596589E+00  0.23489657159E+01 -0.38281492909E+01  0.45035142707E+01  0.00000000000E+00 0. -1.
</event>
<event>
 7    1  0.1543346E-008  0.4614232E+02  0.7816164E-02  0.1320468E+00
        -11   -1    0    0    0    0  0.00000000000E+00  0.00000000000E+00  0.45593999997E+02  0.45594000000E+02  0.51100000000E-03 0.  1.
         11   -1    0    0    0    0 -0.00000000000E+00 -0.00000000000E+00 -0.45593999997E+02  0.45594000000E+02  0.51100000000E-03 0. -1.
    9900012    2    1    2    0    0 -0.19687759352E+02  0.26105228230E+02 -0.30984231524E+02  0.46142318605E+02  0.10000007698E+02 0.  0.
        -12    1    1    2    0    0  0.19687759352E+02 -0.26105228230E+02  0.30984231524E+02  0.45045681395E+02  0.00000000000E+00 0.  1.
         11    1    3    3    0    0 -0.11037644232E+02  0.98002926050E+01 -0.15388637755E+02  0.21323355682E+02  0.51100000000E-03 0. -1.
        -11    1    3    3    0    0 -0.17828769281E+01  0.30155433683E+01 -0.45075965490E+00  0.35320442345E+01  0.51100000000E-03 0.  1.
        -12    1    3    3    0    0 -0.68672381917E+01  0.13289392256E+02 -0.15144834113E+02  0.21286918688E+02  0.00000000000E+00 0.  1.
</event>
<event>
 7    1  0.1543346E-008  0.4614232E+02  0.7816164E-02  0.1320468E+00
        -11   -1    0    0    0    0  0.00000000000E+00  0.00000000000E+00  0.45593999997E+02  0.45594000000E+02  0.51100000000E-03 0.  1.
         11   -1    0    0    0    0 -0.00000000000E+00 -0.00000000000E+00 -0.45593999997E+02  0.45594000000E+02  0.51100000000E-03 0. -1.
    9900012    2    1    2    0    0 -0.35692452245E+01 -0.41123533339E+02 -0.18034111465E+02  0.46142315611E+02  0.99999803953E+01 0.  0.
        -12    1    1    2    0    0  0.35692452245E+01  0.41123533339E+02  0.18034111465E+02  0.45045684389E+02  0.00000000000E+00 0.  1.
         11    1    3    3    0    0  0.18947117259E+00 -0.20026474329E+01 -0.26821052392E+01  0.33526384895E+01  0.51100000000E-03 0. -1.
        -11    1    3    3    0    0  0.20071105095E+01 -0.15244912587E+02 -0.56980026009E+01  0.16398264734E+02  0.51100000000E-03 0.  1.
        -12    1    3    3    0    0 -0.57658269066E+01 -0.23875973319E+02 -0.96540036246E+01  0.26391412388E+02  0.00000000000E+00 0.  1.
</event>
<event>
 7    1  0.1543346E-008  0.4614232E+02  0.7816164E-02  0.1320468E+00
        -11   -1    0    0    0    0  0.00000000000E+00  0.00000000000E+00  0.45593999997E+02  0.45594000000E+02  0.51100000000E-03 0. -1.
         11   -1    0    0    0    0 -0.00000000000E+00 -0.00000000000E+00 -0.45593999997E+02  0.45594000000E+02  0.51100000000E-03 0.  1.
    9900012    2    1    2    0    0 -0.19514226103E+02 -0.11902727437E+02  0.38815376841E+02  0.46142318518E+02  0.10000006906E+02 0.  0.
        -12    1    1    2    0    0  0.19514226103E+02  0.11902727437E+02 -0.38815376841E+02  0.45045681482E+02  0.00000000000E+00 0.  1.
         11    1    3    3    0    0 -0.16916692485E+02 -0.79085860796E+01  0.34238402004E+02  0.38999851160E+02  0.51100000000E-03 0. -1.
        -11    1    3    3    0    0 -0.32916214273E+00 -0.24967411054E+01  0.11500740075E+01  0.27685256631E+01  0.51100000000E-03 0.  1.
        -12    1    3    3    0    0 -0.22683714754E+01 -0.14974002519E+01  0.34269008292E+01  0.43739416957E+01  0.00000000000E+00 0.  1.
</event>
<event>
 7    1  0.1543346E-008  0.4614232E+02  0.7816164E-02  0.1320468E+00
        -11   -1    0    0    0    0  0.00000000000E+00  0.00000000000E+00  0.45593999997E+02  0.45594000000E+02  0.51100000000E-03 0. -1.
         11   -1    0    0    0    0 -0.00000000000E+00 -0.00000000000E+00 -0.45593999997E+02  0.45594000000E+02  0.51100000000E-03 0.  1.
    9900012    2    1    2    0    0 -0.97403746314E+01  0.69910432129E+01  0.43420777877E+02  0.46142317248E+02  0.99999953173E+01 0.  0.
        -12    1    1    2    0    0  0.97403746314E+01 -0.69910432129E+01 -0.43420777877E+02  0.45045682752E+02  0.00000000000E+00 0.  1.
         11    1    3    3    0    0 -0.70644233876E+01  0.80539037072E+00  0.15876324012E+02  0.17395757984E+02  0.51100000000E-03 0. -1.
        -11    1    3    3    0    0  0.45787940766E+00  0.47581235509E+01  0.16343349006E+02  0.17028048927E+02  0.51100000000E-03 0.  1.
        -12    1    3    3    0    0 -0.31338306514E+01  0.14275292913E+01  0.11201104860E+02  0.11718510337E+02  0.00000000000E+00 0.  1.
</event>
<event>
 7    1  0.1543346E-008  0.4614232E+02  0.7816164E-02  0.1320468E+00
        -11   -1    0    0    0    0  0.00000000000E+00  0.00000000000E+00  0.45593999997E+02  0.45594000000E+02  0.51100000000E-03 0.  1.
         11   -1    0    0    0    0 -0.00000000000E+00 -0.00000000000E+00 -0.45593999997E+02  0.45594000000E+02  0.51100000000E-03 0. -1.
    9900012    2    1    2    0    0  0.28997417933E+02  0.22346649243E+02 -0.26246724852E+02  0.46142317137E+02  0.99999943098E+01 0.  0.
        -12    1    1    2    0    0 -0.28997417933E+02 -0.22346649243E+02  0.26246724852E+02  0.45045682863E+02  0.00000000000E+00 0.  1.
         11    1    3    3    0    0  0.62270404428E+01  0.58177968410E+01 -0.40317913388E+01  0.94275200567E+01  0.51100000000E-03 0. -1.
        -11    1    3    3    0    0  0.55324490091E+01  0.74721972603E+01 -0.42556489952E+01  0.10225080565E+02  0.51100000000E-03 0.  1.
         12    1    3    3    0    0  0.17237928481E+02  0.90566551414E+01 -0.17959284518E+02  0.26489716515E+02  0.00000000000E+00 0. -1.
</event>
<event>
 7    1  0.1543346E-008  0.4614232E+02  0.7816164E-02  0.1320468E+00
        -11   -1    0    0    0    0  0.00000000000E+00  0.00000000000E+00  0.45593999997E+02  0.45594000000E+02  0.51100000000E-03 0.  1.
         11   -1    0    0    0    0 -0.00000000000E+00 -0.00000000000E+00 -0.45593999997E+02  0.45594000000E+02  0.51100000000E-03 0. -1.
    9900012    2    1    2    0    0  0.16156663833E+02 -0.14030974948E+02 -0.39638458589E+02  0.46142318259E+02  0.10000004540E+02 0.  0.
        -12    1    1    2    0    0 -0.16156663833E+02  0.14030974948E+02  0.39638458589E+02  0.45045681741E+02  0.00000000000E+00 0.  1.
         11    1    3    3    0    0  0.67308779969E+01 -0.83196675787E+01 -0.20232832779E+02  0.22888624025E+02  0.51100000000E-03 0. -1.
        -11    1    3    3    0    0  0.55974104868E+01  0.34000766733E+00 -0.75755727021E+01  0.94252804413E+01  0.51100000000E-03 0.  1.
        -12    1    3    3    0    0  0.38283753495E+01 -0.60513150368E+01 -0.11830053108E+02  0.13828413793E+02  0.00000000000E+00 0.  1.
</event>
<event>
 7    1  0.1543346E-008  0.4614232E+02  0.7816164E-02  0.1320468E+00
        -11   -1    0    0    0    0  0.00000000000E+00  0.00000000000E+00  0.45593999997E+02  0.45594000000E+02  0.51100000000E-03 0.  1.
         11   -1    0    0    0    0 -0.00000000000E+00 -0.00000000000E+00 -0.45593999997E+02  0.45594000000E+02  0.51100000000E-03 0. -1.
    9900012    2    1    2    0    0  0.42788030765E+02  0.79464883946E+01 -0.11625456467E+02  0.46142317714E+02  0.99999995730E+01 0.  0.
        -12    1    1    2    0    0 -0.42788030765E+02 -0.79464883946E+01  0.11625456467E+02  0.45045682286E+02  0.00000000000E+00 0.  1.
         11    1    3    3    0    0  0.15533975566E+02  0.74213578107E+01 -0.38622861715E+01  0.17643644844E+02  0.51100000000E-03 0. -1.
        -11    1    3    3    0    0  0.11295578356E+02  0.10307884845E+01 -0.44974757654E+01  0.12201635293E+02  0.51100000000E-03 0.  1.
        -12    1    3    3    0    0  0.15958476843E+02 -0.50565790051E+00 -0.32656945302E+01  0.16297037578E+02  0.00000000000E+00 0.  1.
</event>
<event>
 7    1  0.1543346E-008  0.4614232E+02  0.7816164E-02  0.1320468E+00
        -11   -1    0    0    0    0  0.00000000000E+00  0.00000000000E+00  0.45593999997E+02  0.45594000000E+02  0.51100000000E-03 0.  1.
         11   -1    0    0    0    0 -0.00000000000E+00 -0.00000000000E+00 -0.45593999997E+02  0.45594000000E+02  0.51100000000E-03 0. -1.
    9900012    2    1    2    0    0 -0.15271777578E+02 -0.18036072224E+02 -0.38348225006E+02  0.46142318156E+02  0.10000003600E+02 0.  0.
        -12    1    1    2    0    0  0.15271777578E+02  0.18036072224E+02  0.38348225006E+02  0.45045681844E+02  0.00000000000E+00 0.  1.
         11    1    3    3    0    0 -0.34494796787E+01 -0.10120184905E+02 -0.15719986545E+02  0.19011444705E+02  0.51100000000E-03 0. -1.
        -11    1    3    3    0    0 -0.82272266132E+01 -0.27781103346E+01 -0.13713571977E+02  0.16231673093E+02  0.51100000000E-03 0.  1.
        -12    1    3    3    0    0 -0.35950712862E+01 -0.51377769846E+01 -0.89146664846E+01  0.10899200357E+02  0.00000000000E+00 0.  1.
</event>
<event>
 7    1  0.1543346E-008  0.4614231E+02  0.7816164E-02  0.1320468E+00
        -11   -1    0    0    0    0  0.00000000000E+00  0.00000000000E+00  0.45593999997E+02  0.45594000000E+02  0.51100000000E-03 0.  1.
         11   -1    0    0    0    0 -0.00000000000E+00 -0.00000000000E+00 -0.45593999997E+02  0.45594000000E+02  0.51100000000E-03 0. -1.
    9900012    2    1    2    0    0  0.44553446421E+02  0.66410492946E+01 -0.27536995117E-01  0.46142313392E+02  0.99999601579E+01 0.  0.
        -12    1    1    2    0    0 -0.44553446421E+02 -0.66410492946E+01  0.27536995117E-01  0.45045686608E+02  0.00000000000E+00 0.  1.
         11    1    3    3    0    0  0.20787786776E+02  0.67004433109E+01 -0.14312762706E+00  0.21841440094E+02  0.51100000000E-03 0. -1.
        -11    1    3    3    0    0  0.89222103673E+01  0.12426619064E+00  0.24984444488E+01  0.92662562478E+01  0.51100000000E-03 0.  1.
         12    1    3    3    0    0  0.14843449278E+02 -0.18366020701E+00 -0.23828538168E+01  0.15034617050E+02  0.00000000000E+00 0. -1.
</event>
<event>
 7    1  0.1543346E-008  0.4614232E+02  0.7816164E-02  0.1320468E+00
        -11   -1    0    0    0    0  0.00000000000E+00  0.00000000000E+00  0.45593999997E+02  0.45594000000E+02  0.51100000000E-03 0. -1.
         11   -1    0    0    0    0 -0.00000000000E+00 -0.00000000000E+00 -0.45593999997E+02  0.45594000000E+02  0.51100000000E-03 0.  1.
    9900012    2    1    2    0    0 -0.24160111915E+02  0.18098177805E+02  0.33434393050E+02  0.46142315565E+02  0.99999799741E+01 0.  0.
        -12    1    1    2    0    0  0.24160111915E+02 -0.18098177805E+02 -0.33434393050E+02  0.45045684435E+02  0.00000000000E+00 0.  1.
         11    1    3    3    0    0 -0.17628295909E+02  0.10018743006E+02  0.23204427962E+02  0.30815215485E+02  0.51100000000E-03 0. -1.
        -11    1    3    3    0    0 -0.26256434699E+01  0.65660981491E+01  0.51801955113E+01  0.87659611185E+01  0.51100000000E-03 0.  1.
        -12    1    3    3    0    0 -0.39061725356E+01  0.15133366499E+01  0.50497695767E+01  0.65611389614E+01  0.00000000000E+00 0.  1.
</event>
<event>
 7    1  0.1543346E-008  0.4614232E+02  0.7816164E-02  0.1320468E+00
        -11   -1    0    0    0    0  0.00000000000E+00  0.00000000000E+00  0.45593999997E+02  0.45594000000E+02  0.51100000000E-03 0.  1.
         11   -1    0    0    0    0 -0.00000000000E+00 -0.00000000000E+00 -0.45593999997E+02  0.45594000000E+02  0.51100000000E-03 0. -1.
    9900012    2    1    2    0    0 -0.32413194317E+02  0.31233221655E+02  0.17274971925E+01  0.46142317106E+02  0.99999940257E+01 0.  0.
        -12    1    1    2    0    0  0.32413194317E+02 -0.31233221655E+02 -0.17274971925E+01  0.45045682894E+02  0.00000000000E+00 0.  1.
         11    1    3    3    0    0 -0.28754017882E+01  0.34773408289E+01 -0.78973863676E+00  0.45807774514E+01  0.51100000000E-03 0. -1.
        -11    1    3    3    0    0 -0.11901820398E+02  0.10830542840E+02 -0.33190023373E+01  0.16430756641E+02  0.51100000000E-03 0.  1.
        -12    1    3    3    0    0 -0.17635972131E+02  0.16925337986E+02  0.58362381665E+01  0.25130783014E+02  0.00000000000E+00 0.  1.
</event>
<event>
 7    1  0.1543346E-008  0.4614232E+02  0.7816164E-02  0.1320468E+00
        -11   -1    0    0    0    0  0.00000000000E+00  0.00000000000E+00  0.45593999997E+02  0.45594000000E+02  0.51100000000E-03 0.  1.
         11   -1    0    0    0    0 -0.00000000000E+00 -0.00000000000E+00 -0.45593999997E+02  0.45594000000E+02  0.51100000000E-03 0. -1.
    9900012    2    1    2    0    0  0.11476926959E+02 -0.43454262719E+01 -0.43341792502E+02  0.46142316975E+02  0.99999928292E+01 0.  0.
        -12    1    1    2    0    0 -0.11476926959E+02  0.43454262719E+01  0.43341792502E+02  0.45045683025E+02  0.00000000000E+00 0.  1.
         11    1    3    3    0    0  0.18225282173E+01 -0.37387553523E+01 -0.13416307630E+02  0.14046252574E+02  0.51100000000E-03 0. -1.
        -11    1    3    3    0    0  0.52368954589E+01  0.72590218383E+00 -0.73506246252E+01  0.90544845612E+01  0.51100000000E-03 0.  1.
        -12    1    3    3    0    0  0.44175032829E+01 -0.13325731034E+01 -0.22574860247E+02  0.23041579840E+02  0.00000000000E+00 0.  1.
</event>
<event>
 7    1  0.1543346E-008  0.4614232E+02  0.7816164E-02  0.1320468E+00
        -11   -1    0    0    0    0  0.00000000000E+00  0.00000000000E+00  0.45593999997E+02  0.45594000000E+02  0.51100000000E-03 0.  1.
         11   -1    0    0    0    0 -0.00000000000E+00 -0.00000000000E+00 -0.45593999997E+02  0.45594000000E+02  0.51100000000E-03 0. -1.
    9900012    2    1    2    0    0  0.25743798811E+01 -0.42787883302E+02 -0.13844962225E+02  0.46142319095E+02  0.10000012161E+02 0.  0.
        -12    1    1    2    0    0 -0.25743798811E+01  0.42787883302E+02  0.13844962225E+02  0.45045680905E+02  0.00000000000E+00 0.  1.
         11    1    3    3    0    0  0.31773454799E+01 -0.77729964712E+01 -0.38045367254E+01  0.92189749102E+01  0.51100000000E-03 0. -1.
        -11    1    3    3    0    0  0.17890824763E+00 -0.11413008559E+00  0.42824710893E+00  0.47794318171E+00  0.51100000000E-03 0.  1.
         12    1    3    3    0    0 -0.78187384640E+00 -0.34900756745E+02 -0.10468672609E+02  0.36445401003E+02  0.00000000000E+00 0. -1.
</event>
<event>
 7    1  0.1543346E-008  0.4614232E+02  0.7816164E-02  0.1320468E+00
        -11   -1    0    0    0    0  0.00000000000E+00  0.00000000000E+00  0.45593999997E+02  0.45594000000E+02  0.51100000000E-03 0.  1.
         11   -1    0    0    0    0 -0.00000000000E+00 -0.00000000000E+00 -0.45593999997E+02  0.45594000000E+02  0.51100000000E-03 0. -1.
    9900012    2    1    2    0    0 -0.23128269927E+02  0.33954979923E+00 -0.38653346461E+02  0.46142319225E+02  0.10000013345E+02 0.  0.
        -12    1    1    2    0    0  0.23128269927E+02 -0.33954979923E+00  0.38653346461E+02  0.45045680775E+02  0.00000000000E+00 0.  1.
         11    1    3    3    0    0 -0.73539623512E+01 -0.30526560508E+01 -0.12467377413E+02  0.14793071724E+02  0.51100000000E-03 0. -1.
        -11    1    3    3    0    0 -0.56863966057E+01  0.12238318584E+01 -0.15212309752E+02  0.16286412712E+02  0.51100000000E-03 0.  1.
        -12    1    3    3    0    0 -0.10087910970E+02  0.21683739916E+01 -0.10973659296E+02  0.15062834788E+02  0.00000000000E+00 0.  1.
</event>
<event>
 7    1  0.1543346E-008  0.4614231E+02  0.7816164E-02  0.1320468E+00
        -11   -1    0    0    0    0  0.00000000000E+00  0.00000000000E+00  0.45593999997E+02  0.45594000000E+02  0.51100000000E-03 0.  1.
         11   -1    0    0    0    0 -0.00000000000E+00 -0.00000000000E+00 -0.45593999997E+02  0.45594000000E+02  0.51100000000E-03 0. -1.
    9900012    2    1    2    0    0  0.24720481737E+02  0.13992395697E+02 -0.34960328459E+02  0.46142312963E+02  0.99999562503E+01 0.  0.
        -12    1    1    2    0    0 -0.24720481737E+02 -0.13992395697E+02  0.34960328459E+02  0.45045687037E+02  0.00000000000E+00 0.  1.
         11    1    3    3    0    0  0.19162559410E+02  0.67210564733E+01 -0.25117771270E+02  0.32299825341E+02  0.51100000000E-03 0. -1.
        -11    1    3    3    0    0  0.37032808331E+01  0.55357902074E+01 -0.48437599003E+01  0.82353671674E+01  0.51100000000E-03 0.  1.
        -12    1    3    3    0    0  0.18546414939E+01  0.17355490164E+01 -0.49987972886E+01  0.56071204545E+01  0.00000000000E+00 0.  1.
</event>
<event>
 7    1  0.1543346E-008  0.4614231E+02  0.7816164E-02  0.1320468E+00
        -11   -1    0    0    0    0  0.00000000000E+00  0.00000000000E+00  0.45593999997E+02  0.45594000000E+02  0.51100000000E-03 0.  1.
         11   -1    0    0    0    0 -0.00000000000E+00 -0.00000000000E+00 -0.45593999997E+02  0.45594000000E+02  0.51100000000E-03 0. -1.
    9900012    2    1    2    0    0  0.31962249976E+02 -0.29073119623E+02 -0.12738999329E+02  0.46142314169E+02  0.99999672402E+01 0.  0.
        -12    1    1    2    0    0 -0.31962249976E+02  0.29073119623E+02  0.12738999329E+02  0.45045685831E+02  0.00000000000E+00 0.  1.
         11    1    3    3    0    0  0.16230681723E+02 -0.12594047571E+02 -0.33421730548E+01  0.20813821955E+02  0.51100000000E-03 0. -1.
        -11    1    3    3    0    0  0.61086542520E+01 -0.10537009807E+02 -0.42166294090E+01  0.12888917576E+02  0.51100000000E-03 0.  1.
        -12    1    3    3    0    0  0.96229140008E+01 -0.59420622452E+01 -0.51801968650E+01  0.12439574637E+02  0.00000000000E+00 0.  1.
</event>
<event>
 7    1  0.1543346E-008  0.4614232E+02  0.7816164E-02  0.1320468E+00
        -11   -1    0    0    0    0  0.00000000000E+00  0.00000000000E+00  0.45593999997E+02  0.45594000000E+02  0.51100000000E-03 0. -1.
         11   -1    0    0    0    0 -0.00000000000E+00 -0.00000000000E+00 -0.45593999997E+02  0.45594000000E+02  0.51100000000E-03 0.  1.
    9900012    2    1    2    0    0  0.43706124045E+02  0.65449585644E+01  0.87207601482E+01  0.46142318529E+02  0.10000007003E+02 0.  0.
        -12    1    1    2    0    0 -0.43706124045E+02 -0.65449585644E+01 -0.87207601482E+01  0.45045681471E+02  0.00000000000E+00 0.  1.
         11    1    3    3    0    0  0.69294032659E+01  0.27711627821E+01  0.37091375872E+01  0.83338871295E+01  0.51100000000E-03 0. -1.
        -11    1    3    3    0    0  0.30658488009E+02  0.33164197687E+01  0.64548602514E+01  0.31505662161E+02  0.51100000000E-03 0.  1.
        -12    1    3    3    0    0  0.61182327696E+01  0.45737601359E+00 -0.14432376904E+01  0.63027692383E+01  0.00000000000E+00 0.  1.
</event>
<event>
 7    1  0.1543346E-008  0.4614233E+02  0.7816164E-02  0.1320468E+00
        -11   -1    0    0    0    0  0.00000000000E+00  0.00000000000E+00  0.45593999997E+02  0.45594000000E+02  0.51100000000E-03 0. -1.
         11   -1    0    0    0    0 -0.00000000000E+00 -0.00000000000E+00 -0.45593999997E+02  0.45594000000E+02  0.51100000000E-03 0.  1.
    9900012    2    1    2    0    0  0.25238366687E+02 -0.26348941854E+02  0.26417242164E+02  0.46142327917E+02  0.10000092606E+02 0.  0.
        -12    1    1    2    0    0 -0.25238366687E+02  0.26348941854E+02 -0.26417242164E+02  0.45045672083E+02  0.00000000000E+00 0.  1.
         11    1    3    3    0    0  0.19605860808E+02 -0.14181282396E+02  0.15169639763E+02  0.28559000669E+02  0.51100000000E-03 0. -1.
        -11    1    3    3    0    0  0.17353783254E+01 -0.57576219007E+01  0.50451801556E+01  0.78495599206E+01  0.51100000000E-03 0.  1.
         12    1    3    3    0    0  0.38971275538E+01 -0.64100375580E+01  0.62024222458E+01  0.97337673273E+01  0.00000000000E+00 0. -1.
</event>
<event>
 7    1  0.1543346E-008  0.4614232E+02  0.7816164E-02  0.1320468E+00
        -11   -1    0    0    0    0  0.00000000000E+00  0.00000000000E+00  0.45593999997E+02  0.45594000000E+02  0.51100000000E-03 0.  1.
         11   -1    0    0    0    0 -0.00000000000E+00 -0.00000000000E+00 -0.45593999997E+02  0.45594000000E+02  0.51100000000E-03 0. -1.
    9900012    2    1    2    0    0 -0.23460744200E+02  0.13623692877E+02 -0.35959726570E+02  0.46142318065E+02  0.10000002768E+02 0.  0.
        -12    1    1    2    0    0  0.23460744200E+02 -0.13623692877E+02  0.35959726570E+02  0.45045681935E+02  0.00000000000E+00 0.  1.
         11    1    3    3    0    0 -0.14686915543E+02  0.76253318094E+01 -0.23195107932E+02  0.28493230874E+02  0.51100000000E-03 0. -1.
        -11    1    3    3    0    0 -0.75354614317E+00 -0.51588360839E+00 -0.39909632323E+01  0.40941122933E+01  0.51100000000E-03 0.  1.
         12    1    3    3    0    0 -0.80202825139E+01  0.65142446759E+01 -0.87736554053E+01  0.13554974898E+02  0.00000000000E+00 0. -1.
</event>
<event>
 7    1  0.1543346E-008  0.4614232E+02  0.7816164E-02  0.1320468E+00
        -11   -1    0    0    0    0  0.00000000000E+00  0.00000000000E+00  0.45593999997E+02  0.45594000000E+02  0.51100000000E-03 0. -1.
         11   -1    0    0    0    0 -0.00000000000E+00 -0.00000000000E+00 -0.45593999997E+02  0.45594000000E+02  0.51100000000E-03 0.  1.
    9900012    2    1    2    0    0  0.37392834408E+02 -0.61963252021E+01  0.24341218136E+02  0.46142318615E+02  0.10000007791E+02 0.  0.
        -12    1    1    2    0    0 -0.37392834408E+02  0.61963252021E+01 -0.24341218136E+02  0.45045681385E+02  0.00000000000E+00 0.  1.
         11    1    3    3    0    0  0.92396603473E+01 -0.51818968324E+01  0.72707093690E+01  0.12848602769E+02  0.51100000000E-03 0. -1.
        -11    1    3    3    0    0  0.24265328740E+02  0.77926734224E+00  0.14004295069E+02  0.28027374424E+02  0.51100000000E-03 0.  1.
        -12    1    3    3    0    0  0.38878453206E+01 -0.17936957120E+01  0.30662136982E+01  0.52663414233E+01  0.00000000000E+00 0.  1.
</event>
<event>
 7    1  0.1543346E-008  0.4614232E+02  0.7816164E-02  0.1320468E+00
        -11   -1    0    0    0    0  0.00000000000E+00  0.00000000000E+00  0.45593999997E+02  0.45594000000E+02  0.51100000000E-03 0.  1.
         11   -1    0    0    0    0 -0.00000000000E+00 -0.00000000000E+00 -0.45593999997E+02  0.45594000000E+02  0.51100000000E-03 0. -1.
    9900012    2    1    2    0    0  0.11809701869E+02 -0.24733648364E+02 -0.35747603178E+02  0.46142317048E+02  0.99999934951E+01 0.  0.
        -12    1    1    2    0    0 -0.11809701869E+02  0.24733648364E+02  0.35747603178E+02  0.45045682952E+02  0.00000000000E+00 0.  1.
         11    1    3    3    0    0 -0.47056796634E+00 -0.28481306894E+01 -0.99660812207E+00  0.30539336347E+01  0.51100000000E-03 0.  1.
        -11    1    3    3    0    0  0.43443826145E+01 -0.39908707164E+01 -0.79449928220E+01  0.98956364414E+01  0.51100000000E-03 0. -1.
         12    1    3    3    0    0  0.79358872210E+01 -0.17894646958E+02 -0.26806002234E+02  0.33192746972E+02  0.00000000000E+00 0. -1.
</event>
<event>
 7    1  0.1543346E-008  0.4614232E+02  0.7816164E-02  0.1320468E+00
        -11   -1    0    0    0    0  0.00000000000E+00  0.00000000000E+00  0.45593999997E+02  0.45594000000E+02  0.51100000000E-03 0.  1.
         11   -1    0    0    0    0 -0.00000000000E+00 -0.00000000000E+00 -0.45593999997E+02  0.45594000000E+02  0.51100000000E-03 0. -1.
    9900012    2    1    2    0    0  0.58895936232E+01 -0.18542396268E+02 -0.40627644324E+02  0.46142320344E+02  0.10000023551E+02 0.  0.
        -12    1    1    2    0    0 -0.58895936232E+01  0.18542396268E+02  0.40627644324E+02  0.45045679656E+02  0.00000000000E+00 0.  1.
         11    1    3    3    0    0 -0.14652754747E+01 -0.76834770815E+01 -0.20281430607E+02  0.21737508597E+02  0.51100000000E-03 0. -1.
        -11    1    3    3    0    0  0.47279855644E+01 -0.82666418618E+01 -0.12326888455E+02  0.15577014939E+02  0.51100000000E-03 0.  1.
         12    1    3    3    0    0  0.26268835335E+01 -0.25922773243E+01 -0.80193252617E+01  0.88277968077E+01  0.00000000000E+00 0. -1.
</event>
<event>
 7    1  0.1543346E-008  0.4614232E+02  0.7816164E-02  0.1320468E+00
        -11   -1    0    0    0    0  0.00000000000E+00  0.00000000000E+00  0.45593999997E+02  0.45594000000E+02  0.51100000000E-03 0.  1.
         11   -1    0    0    0    0 -0.00000000000E+00 -0.00000000000E+00 -0.45593999997E+02  0.45594000000E+02  0.51100000000E-03 0. -1.
    9900012    2    1    2    0    0  0.35696628170E+02  0.27460341536E+02 -0.89095716645E+00  0.46142318468E+02  0.10000006446E+02 0.  0.
        -12    1    1    2    0    0 -0.35696628170E+02 -0.27460341536E+02  0.89095716645E+00  0.45045681532E+02  0.00000000000E+00 0.  1.
         11    1    3    3    0    0  0.22615641794E+02  0.16557479974E+02 -0.22820696806E+01  0.28121615159E+02  0.51100000000E-03 0. -1.
        -11    1    3    3    0    0  0.79803677931E+01  0.85844190648E+01  0.31705410378E+01  0.12142110670E+02  0.51100000000E-03 0.  1.
        -12    1    3    3    0    0  0.51006185836E+01  0.23184424966E+01 -0.17794285236E+01  0.58785926390E+01  0.00000000000E+00 0.  1.
</event>
<event>
 7    1  0.1543346E-008  0.4614232E+02  0.7816164E-02  0.1320468E+00
        -11   -1    0    0    0    0  0.00000000000E+00  0.00000000000E+00  0.45593999997E+02  0.45594000000E+02  0.51100000000E-03 0.  1.
         11   -1    0    0    0    0 -0.00000000000E+00 -0.00000000000E+00 -0.45593999997E+02  0.45594000000E+02  0.51100000000E-03 0. -1.
    9900012    2    1    2    0    0  0.36263289279E+02  0.22954159793E+02 -0.13681876804E+02  0.46142319253E+02  0.10000013600E+02 0.  0.
        -12    1    1    2    0    0 -0.36263289279E+02 -0.22954159793E+02  0.13681876804E+02  0.45045680747E+02  0.00000000000E+00 0.  1.
         11    1    3    3    0    0  0.94364068978E+01  0.64878948505E+01 -0.59013568940E+01  0.12882723632E+02  0.51100000000E-03 0. -1.
        -11    1    3    3    0    0  0.16323578300E+02  0.13463728641E+02 -0.70815637855E+01  0.22313219027E+02  0.51100000000E-03 0.  1.
        -12    1    3    3    0    0  0.10503304081E+02  0.30025363015E+01 -0.69895612463E+00  0.10946376594E+02  0.00000000000E+00 0.  1.
</event>
<event>
 7    1  0.1543346E-008  0.4614232E+02  0.7816164E-02  0.1320468E+00
        -11   -1    0    0    0    0  0.00000000000E+00  0.00000000000E+00  0.45593999997E+02  0.45594000000E+02  0.51100000000E-03 0.  1.
         11   -1    0    0    0    0 -0.00000000000E+00 -0.00000000000E+00 -0.45593999997E+02  0.45594000000E+02  0.51100000000E-03 0. -1.
    9900012    2    1    2    0    0  0.44583709567E+02 -0.34585136402E+01 -0.54263320453E+01  0.46142317024E+02  0.99999932783E+01 0.  0.
        -12    1    1    2    0    0 -0.44583709567E+02  0.34585136402E+01  0.54263320453E+01  0.45045682976E+02  0.00000000000E+00 0.  1.
         11    1    3    3    0    0  0.34128137357E+02 -0.28881934976E+01 -0.27191554338E+01  0.34357899058E+02  0.51100000000E-03 0. -1.
        -11    1    3    3    0    0  0.30498487926E+01  0.10574752688E+01 -0.26899879813E+01  0.42018885281E+01  0.51100000000E-03 0.  1.
        -12    1    3    3    0    0  0.74057234172E+01 -0.16277954114E+01 -0.17188630227E-01  0.75825294383E+01  0.00000000000E+00 0.  1.
</event>
<event>
 7    1  0.1543346E-008  0.4614232E+02  0.7816164E-02  0.1320468E+00
        -11   -1    0    0    0    0  0.00000000000E+00  0.00000000000E+00  0.45593999997E+02  0.45594000000E+02  0.51100000000E-03 0.  1.
         11   -1    0    0    0    0 -0.00000000000E+00 -0.00000000000E+00 -0.45593999997E+02  0.45594000000E+02  0.51100000000E-03 0. -1.
    9900012    2    1    2    0    0 -0.86977558392E+01  0.40875081162E+02 -0.16813402489E+02  0.46142315191E+02  0.99999765661E+01 0.  0.
        -12    1    1    2    0    0  0.86977558392E+01 -0.40875081162E+02  0.16813402489E+02  0.45045684809E+02  0.00000000000E+00 0.  1.
         11    1    3    3    0    0 -0.17330429314E+01  0.64765601276E+01 -0.20571974621E+00  0.67075770412E+01  0.51100000000E-03 0. -1.
        -11    1    3    3    0    0 -0.39690911821E+01  0.61176135888E+01 -0.26901994062E+01  0.77727764628E+01  0.51100000000E-03 0.  1.
         12    1    3    3    0    0 -0.29956217258E+01  0.28280907445E+02 -0.13917483337E+02  0.31661961687E+02  0.00000000000E+00 0. -1.
</event>
<event>
 7    1  0.1543346E-008  0.4614232E+02  0.7816164E-02  0.1320468E+00
        -11   -1    0    0    0    0  0.00000000000E+00  0.00000000000E+00  0.45593999997E+02  0.45594000000E+02  0.51100000000E-03 0.  1.
         11   -1    0    0    0    0 -0.00000000000E+00 -0.00000000000E+00 -0.45593999997E+02  0.45594000000E+02  0.51100000000E-03 0. -1.
    9900012    2    1    2    0    0  0.35355365155E+02  0.25041396991E+02 -0.12330457681E+02  0.46142316575E+02  0.99999891881E+01 0.  0.
        -12    1    1    2    0    0 -0.35355365155E+02 -0.25041396991E+02  0.12330457681E+02  0.45045683425E+02  0.00000000000E+00 0.  1.
         11    1    3    3    0    0  0.81146837147E+01  0.51627408009E+01 -0.42786493670E+00  0.96273076731E+01  0.51100000000E-03 0. -1.
        -11    1    3    3    0    0  0.11809287431E+02  0.99361228076E+01 -0.17357466034E+01  0.15530570582E+02  0.51100000000E-03 0.  1.
        -12    1    3    3    0    0  0.15431394009E+02  0.99425333828E+01 -0.10166846141E+02  0.20984438320E+02  0.00000000000E+00 0.  1.
</event>
<event>
 7    1  0.1543346E-008  0.4614232E+02  0.7816164E-02  0.1320468E+00
        -11   -1    0    0    0    0  0.00000000000E+00  0.00000000000E+00  0.45593999997E+02  0.45594000000E+02  0.51100000000E-03 0. -1.
         11   -1    0    0    0    0 -0.00000000000E+00 -0.00000000000E+00 -0.45593999997E+02  0.45594000000E+02  0.51100000000E-03 0.  1.
    9900012    2    1    2    0    0 -0.42635431627E+02  0.86505339930E+01 -0.11683391726E+02  0.46142318625E+02  0.10000007874E+02 0.  0.
        -12    1    1    2    0    0  0.42635431627E+02 -0.86505339930E+01  0.11683391726E+02  0.45045681375E+02  0.00000000000E+00 0.  1.
         11    1    3    3    0    0 -0.96273440410E+01  0.72320549732E+00  0.82395906490E+00  0.96895659488E+01  0.51100000000E-03 0. -1.
        -11    1    3    3    0    0 -0.99308417559E+01  0.30216419580E+00 -0.35954080361E+01  0.10565977493E+02  0.51100000000E-03 0.  1.
         12    1    3    3    0    0 -0.23077245830E+02  0.76251642999E+01 -0.89119427547E+01  0.25886775182E+02  0.00000000000E+00 0. -1.
</event>
<event>
 7    1  0.1543346E-008  0.4614232E+02  0.7816164E-02  0.1320468E+00
        -11   -1    0    0    0    0  0.00000000000E+00  0.00000000000E+00  0.45593999997E+02  0.45594000000E+02  0.51100000000E-03 0.  1.
         11   -1    0    0    0    0 -0.00000000000E+00 -0.00000000000E+00 -0.45593999997E+02  0.45594000000E+02  0.51100000000E-03 0. -1.
    9900012    2    1    2    0    0  0.30643468286E+02 -0.26292947232E+02 -0.19969286434E+02  0.46142316262E+02  0.99999863282E+01 0.  0.
        -12    1    1    2    0    0 -0.30643468286E+02  0.26292947232E+02  0.19969286434E+02  0.45045683738E+02  0.00000000000E+00 0.  1.
         11    1    3    3    0    0  0.82886069624E+01 -0.11494152666E+02 -0.50687039848E+01  0.15050193063E+02  0.51100000000E-03 0. -1.
        -11    1    3    3    0    0  0.12392050438E+02 -0.98815541164E+01 -0.11099811053E+02  0.19349776006E+02  0.51100000000E-03 0.  1.
         12    1    3    3    0    0  0.99628108855E+01 -0.49172404497E+01 -0.38007713958E+01  0.11742347192E+02  0.00000000000E+00 0. -1.
</event>
<event>
 7    1  0.1543346E-008  0.4614232E+02  0.7816164E-02  0.1320468E+00
        -11   -1    0    0    0    0  0.00000000000E+00  0.00000000000E+00  0.45593999997E+02  0.45594000000E+02  0.51100000000E-03 0.  1.
         11   -1    0    0    0    0 -0.00000000000E+00 -0.00000000000E+00 -0.45593999997E+02  0.45594000000E+02  0.51100000000E-03 0. -1.
    9900012    2    1    2    0    0  0.15301167200E+02  0.40457559550E+02 -0.12576709069E+02  0.46142318149E+02  0.10000003537E+02 0.  0.
        -12    1    1    2    0    0 -0.15301167200E+02 -0.40457559550E+02  0.12576709069E+02  0.45045681851E+02  0.00000000000E+00 0.  1.
         11    1    3    3    0    0  0.66076179294E+01  0.21702947902E+02 -0.54305970343E+01  0.23327450498E+02  0.51100000000E-03 0. -1.
        -11    1    3    3    0    0 -0.94565531895E+00  0.21609113858E+01 -0.15605846180E+01  0.28282904042E+01  0.51100000000E-03 0.  1.
        -12    1    3    3    0    0  0.96392045899E+01  0.16593700262E+02 -0.55855274170E+01  0.19986577247E+02  0.00000000000E+00 0.  1.
</event>
<event>
 7    1  0.1543346E-008  0.4614232E+02  0.7816164E-02  0.1320468E+00
        -11   -1    0    0    0    0  0.00000000000E+00  0.00000000000E+00  0.45593999997E+02  0.45594000000E+02  0.51100000000E-03 0.  1.
         11   -1    0    0    0    0 -0.00000000000E+00 -0.00000000000E+00 -0.45593999997E+02  0.45594000000E+02  0.51100000000E-03 0. -1.
    9900012    2    1    2    0    0  0.31583768129E+02 -0.11980709960E+02  0.29800028126E+02  0.46142317669E+02  0.99999991555E+01 0.  0.
        -12    1    1    2    0    0 -0.31583768129E+02  0.11980709960E+02 -0.29800028126E+02  0.45045682331E+02  0.00000000000E+00 0.  1.
         11    1    3    3    0    0  0.12034310496E+02 -0.70879077653E-01  0.90817574288E+01  0.15076736093E+02  0.51100000000E-03 0. -1.
        -11    1    3    3    0    0  0.18508096102E+02 -0.10180393976E+02  0.18708659981E+02  0.28217087046E+02  0.51100000000E-03 0.  1.
        -12    1    3    3    0    0  0.10413615312E+01 -0.17294369066E+01  0.20096107164E+01  0.28484945294E+01  0.00000000000E+00 0.  1.
</event>
<event>
 7    1  0.1543346E-008  0.4614232E+02  0.7816164E-02  0.1320468E+00
        -11   -1    0    0    0    0  0.00000000000E+00  0.00000000000E+00  0.45593999997E+02  0.45594000000E+02  0.51100000000E-03 0.  1.
         11   -1    0    0    0    0 -0.00000000000E+00 -0.00000000000E+00 -0.45593999997E+02  0.45594000000E+02  0.51100000000E-03 0. -1.
    9900012    2    1    2    0    0 -0.13259936102E+02  0.54121524736E+01 -0.42708267553E+02  0.46142318551E+02  0.10000007199E+02 0.  0.
        -12    1    1    2    0    0  0.13259936102E+02 -0.54121524736E+01  0.42708267553E+02  0.45045681449E+02  0.00000000000E+00 0.  1.
         11    1    3    3    0    0 -0.82743966621E+01  0.32860345803E+01 -0.19804441724E+02  0.21713580443E+02  0.51100000000E-03 0. -1.
        -11    1    3    3    0    0  0.13977404169E+01  0.73091472404E+00 -0.21224309448E+01  0.26443577639E+01  0.51100000000E-03 0.  1.
        -12    1    3    3    0    0 -0.63832798573E+01  0.13952031693E+01 -0.20781394884E+02  0.21784380344E+02  0.00000000000E+00 0.  1.
</event>
<event>
 7    1  0.1543346E-008  0.4614232E+02  0.7816164E-02  0.1320468E+00
        -11   -1    0    0    0    0  0.00000000000E+00  0.00000000000E+00  0.45593999997E+02  0.45594000000E+02  0.51100000000E-03 0.  1.
         11   -1    0    0    0    0 -0.00000000000E+00 -0.00000000000E+00 -0.45593999997E+02  0.45594000000E+02  0.51100000000E-03 0. -1.
    9900012    2    1    2    0    0 -0.15998117135E+02 -0.32135527056E+02 -0.27211789570E+02  0.46142319379E+02  0.10000014752E+02 0.  0.
        -12    1    1    2    0    0  0.15998117135E+02  0.32135527056E+02  0.27211789570E+02  0.45045680621E+02  0.00000000000E+00 0.  1.
         11    1    3    3    0    0 -0.42586977258E+01 -0.10677776258E+02 -0.49763015502E+01  0.12526571339E+02  0.51100000000E-03 0.  1.
        -11    1    3    3    0    0 -0.68146383119E+00 -0.10008419171E+01 -0.36540488808E+01  0.38494351508E+01  0.51100000000E-03 0. -1.
        -12    1    3    3    0    0 -0.11057955578E+02 -0.20456908881E+02 -0.18581439139E+02  0.29766312889E+02  0.00000000000E+00 0.  1.
</event>
<event>
 7    1  0.1543346E-008  0.4614232E+02  0.7816164E-02  0.1320468E+00
        -11   -1    0    0    0    0  0.00000000000E+00  0.00000000000E+00  0.45593999997E+02  0.45594000000E+02  0.51100000000E-03 0.  1.
         11   -1    0    0    0    0 -0.00000000000E+00 -0.00000000000E+00 -0.45593999997E+02  0.45594000000E+02  0.51100000000E-03 0. -1.
    9900012    2    1    2    0    0 -0.32360380864E+02 -0.30883615559E+02 -0.53029746568E+01  0.46142317634E+02  0.99999988379E+01 0.  0.
        -12    1    1    2    0    0  0.32360380864E+02  0.30883615559E+02  0.53029746568E+01  0.45045682366E+02  0.00000000000E+00 0.  1.
         11    1    3    3    0    0 -0.13415818031E+02 -0.16617557139E+02  0.55699681768E+00  0.21364400867E+02  0.51100000000E-03 0. -1.
        -11    1    3    3    0    0 -0.19819126694E+01 -0.77135898819E+00  0.50713915050E+00  0.21863583642E+01  0.51100000000E-03 0.  1.
         12    1    3    3    0    0 -0.16962650164E+02 -0.13494699431E+02 -0.63671106250E+01  0.22591558402E+02  0.00000000000E+00 0. -1.
</event>
<event>
 7    1  0.1543346E-008  0.4614232E+02  0.7816164E-02  0.1320468E+00
        -11   -1    0    0    0    0  0.00000000000E+00  0.00000000000E+00  0.45593999997E+02  0.45594000000E+02  0.51100000000E-03 0.  1.
         11   -1    0    0    0    0 -0.00000000000E+00 -0.00000000000E+00 -0.45593999997E+02  0.45594000000E+02  0.51100000000E-03 0. -1.
    9900012    2    1    2    0    0  0.14931729821E+02  0.41377287473E+02  0.96993337058E+01  0.46142317095E+02  0.99999939216E+01 0.  0.
        -12    1    1    2    0    0 -0.14931729821E+02 -0.41377287473E+02 -0.96993337058E+01  0.45045682905E+02  0.00000000000E+00 0.  1.
         11    1    3    3    0    0  0.13116095589E+02  0.29484796798E+02  0.45397504273E+01  0.32588257700E+02  0.51100000000E-03 0. -1.
        -11    1    3    3    0    0  0.19838198058E+01  0.68098897230E+01  0.45627090284E+01  0.84337686120E+01  0.51100000000E-03 0.  1.
        -12    1    3    3    0    0 -0.16818557410E+00  0.50826009524E+01  0.59687425007E+00  0.51202907826E+01  0.00000000000E+00 0.  1.
</event>
<event>
 7    1  0.1543346E-008  0.4614232E+02  0.7816164E-02  0.1320468E+00
        -11   -1    0    0    0    0  0.00000000000E+00  0.00000000000E+00  0.45593999997E+02  0.45594000000E+02  0.51100000000E-03 0. -1.
         11   -1    0    0    0    0 -0.00000000000E+00 -0.00000000000E+00 -0.45593999997E+02  0.45594000000E+02  0.51100000000E-03 0.  1.
    9900012    2    1    2    0    0 -0.36871225164E+02 -0.11595790689E+02  0.23133609168E+02  0.46142317855E+02  0.10000000859E+02 0.  0.
        -12    1    1    2    0    0  0.36871225164E+02  0.11595790689E+02 -0.23133609168E+02  0.45045682145E+02  0.00000000000E+00 0.  1.
         11    1    3    3    0    0 -0.41044783401E-01 -0.12340939799E+01  0.12614721390E+01  0.17652152402E+01  0.51100000000E-03 0.  1.
        -11    1    3    3    0    0 -0.19353895256E+02 -0.65848009181E+01  0.89507373543E+01  0.22317001684E+02  0.51100000000E-03 0. -1.
        -12    1    3    3    0    0 -0.17476285124E+02 -0.37768957906E+01  0.12921399674E+02  0.22060100931E+02  0.00000000000E+00 0.  1.
</event>
<event>
 7    1  0.1543346E-008  0.4614232E+02  0.7816164E-02  0.1320468E+00
        -11   -1    0    0    0    0  0.00000000000E+00  0.00000000000E+00  0.45593999997E+02  0.45594000000E+02  0.51100000000E-03 0.  1.
         11   -1    0    0    0    0 -0.00000000000E+00 -0.00000000000E+00 -0.45593999997E+02  0.45594000000E+02  0.51100000000E-03 0. -1.
    9900012    2    1    2    0    0  0.20619058357E+02  0.14501421940E+01 -0.40023307012E+02  0.46142316699E+02  0.99999903110E+01 0.  0.
        -12    1    1    2    0    0 -0.20619058357E+02 -0.14501421940E+01  0.40023307012E+02  0.45045683301E+02  0.00000000000E+00 0.  1.
         11    1    3    3    0    0  0.18385618651E+02  0.21701759495E+00 -0.25748200143E+02  0.31639340712E+02  0.51100000000E-03 0. -1.
        -11    1    3    3    0    0  0.10016254642E+01  0.67048726222E+00 -0.64976411461E+01  0.66084905587E+01  0.51100000000E-03 0.  1.
         12    1    3    3    0    0  0.12318142415E+01  0.56263733678E+00 -0.77774657233E+01  0.78944854281E+01  0.00000000000E+00 0. -1.
</event>
<event>
 7    1  0.1543346E-008  0.4614231E+02  0.7816164E-02  0.1320468E+00
        -11   -1    0    0    0    0  0.00000000000E+00  0.00000000000E+00  0.45593999997E+02  0.45594000000E+02  0.51100000000E-03 0.  1.
         11   -1    0    0    0    0 -0.00000000000E+00 -0.00000000000E+00 -0.45593999997E+02  0.45594000000E+02  0.51100000000E-03 0. -1.
    9900012    2    1    2    0    0 -0.23843646483E+02  0.37972585059E+02 -0.43217185340E+01  0.46142312695E+02  0.99999538067E+01 0.  0.
        -12    1    1    2    0    0  0.23843646483E+02 -0.37972585059E+02  0.43217185340E+01  0.45045687305E+02  0.00000000000E+00 0.  1.
         11    1    3    3    0    0 -0.11104966060E+02  0.22662607756E+02  0.63445613392E+00  0.25245130151E+02  0.51100000000E-03 0. -1.
        -11    1    3    3    0    0 -0.11397504891E+02  0.12074404191E+02 -0.29602061697E+01  0.16865858269E+02  0.51100000000E-03 0.  1.
        -12    1    3    3    0    0 -0.13411755312E+01  0.32355731117E+01 -0.19959684982E+01  0.40313242753E+01  0.00000000000E+00 0.  1.
</event>
<event>
 7    1  0.1543346E-008  0.4614232E+02  0.7816164E-02  0.1320468E+00
        -11   -1    0    0    0    0  0.00000000000E+00  0.00000000000E+00  0.45593999997E+02  0.45594000000E+02  0.51100000000E-03 0. -1.
         11   -1    0    0    0    0 -0.00000000000E+00 -0.00000000000E+00 -0.45593999997E+02  0.45594000000E+02  0.51100000000E-03 0.  1.
    9900012    2    1    2    0    0 -0.82755060855E+01  0.67663374163E+01  0.43758957751E+02  0.46142315341E+02  0.99999779299E+01 0.  0.
        -12    1    1    2    0    0  0.82755060855E+01 -0.67663374163E+01 -0.43758957751E+02  0.45045684659E+02  0.00000000000E+00 0.  1.
         11    1    3    3    0    0 -0.87587013567E+01  0.16389394275E+01  0.23096225156E+02  0.24755536524E+02  0.51100000000E-03 0. -1.
        -11    1    3    3    0    0  0.10475130084E+01  0.28257767043E+01  0.13836474794E+02  0.14160873295E+02  0.51100000000E-03 0.  1.
         12    1    3    3    0    0 -0.56431773715E+00  0.23016212845E+01  0.68262578009E+01  0.72259055218E+01  0.00000000000E+00 0. -1.
</event>
<event>
 7    1  0.1543346E-008  0.4614232E+02  0.7816164E-02  0.1320468E+00
        -11   -1    0    0    0    0  0.00000000000E+00  0.00000000000E+00  0.45593999997E+02  0.45594000000E+02  0.51100000000E-03 0. -1.
         11   -1    0    0    0    0 -0.00000000000E+00 -0.00000000000E+00 -0.45593999997E+02  0.45594000000E+02  0.51100000000E-03 0.  1.
    9900012    2    1    2    0    0  0.23688095901E+02 -0.38302975882E+02  0.93260714565E+00  0.46142316467E+02  0.99999881998E+01 0.  0.
        -12    1    1    2    0    0 -0.23688095901E+02  0.38302975882E+02 -0.93260714565E+00  0.45045683533E+02  0.00000000000E+00 0.  1.
         11    1    3    3    0    0  0.19935599691E+01 -0.11362496676E+02 -0.85550242898E-01  0.11536374265E+02  0.51100000000E-03 0. -1.
        -11    1    3    3    0    0  0.18234537865E+02 -0.22768820461E+02  0.78081570404E+00  0.29180939494E+02  0.51100000000E-03 0.  1.
         12    1    3    3    0    0  0.34599980672E+01 -0.41716587444E+01  0.23734168451E+00  0.54250027079E+01  0.00000000000E+00 0. -1.
</event>
<event>
 7    1  0.1693268E-008  0.4614232E+02  0.7816164E-02  0.1320468E+00
        -11   -1    0    0    0    0  0.00000000000E+00  0.00000000000E+00  0.45593999997E+02  0.45594000000E+02  0.51100000000E-03 0. -1.
         11   -1    0    0    0    0 -0.00000000000E+00 -0.00000000000E+00 -0.45593999997E+02  0.45594000000E+02  0.51100000000E-03 0.  1.
    9900012    2    1    2    0    0 -0.34166695267E+02  0.28814382859E+02  0.56108543062E+01  0.46142318619E+02  0.10000007822E+02 0.  0.
        -12    1    1    2    0    0  0.34166695267E+02 -0.28814382859E+02 -0.56108543062E+01  0.45045681381E+02  0.00000000000E+00 0.  1.
         11    1    3    3    0    0 -0.26977696083E+02  0.24515121741E+02  0.21049794447E+01  0.36513260860E+02  0.51100000000E-03 0. -1.
        -11    1    3    3    0    0  0.11612543400E-01 -0.28742898945E+00 -0.16981417126E+00  0.33404698625E+00  0.51100000000E-03 0.  1.
         12    1    3    3    0    0 -0.72006117276E+01  0.45866901080E+01  0.36756890327E+01  0.92950107726E+01  0.00000000000E+00 0. -1.
</event>
<event>
 7    1  0.1543346E-008  0.4614232E+02  0.7816164E-02  0.1320468E+00
        -11   -1    0    0    0    0  0.00000000000E+00  0.00000000000E+00  0.45593999997E+02  0.45594000000E+02  0.51100000000E-03 0.  1.
         11   -1    0    0    0    0 -0.00000000000E+00 -0.00000000000E+00 -0.45593999997E+02  0.45594000000E+02  0.51100000000E-03 0. -1.
    9900012    2    1    2    0    0 -0.37844088181E+02 -0.14491089421E+02 -0.19670963628E+02  0.46142317711E+02  0.99999995385E+01 0.  0.
        -12    1    1    2    0    0  0.37844088181E+02  0.14491089421E+02  0.19670963628E+02  0.45045682289E+02  0.00000000000E+00 0.  1.
         11    1    3    3    0    0 -0.13837977320E+02 -0.80381632563E+01 -0.11340836712E+02  0.19614185235E+02  0.51100000000E-03 0.  1.
        -11    1    3    3    0    0 -0.22257990173E+02 -0.67129331700E+01 -0.68883485486E+01  0.24247287359E+02  0.51100000000E-03 0. -1.
        -12    1    3    3    0    0 -0.17481206877E+01  0.26000700550E+00 -0.14417783677E+01  0.22808451160E+01  0.00000000000E+00 0.  1.
</event>
<event>
 7    1  0.1599070E-008  0.4614231E+02  0.7816164E-02  0.1320468E+00
        -11   -1    0    0    0    0  0.00000000000E+00  0.00000000000E+00  0.45593999997E+02  0.45594000000E+02  0.51100000000E-03 0.  1.
         11   -1    0    0    0    0 -0.00000000000E+00 -0.00000000000E+00 -0.45593999997E+02  0.45594000000E+02  0.51100000000E-03 0. -1.
    9900012    2    1    2    0    0  0.23225371746E+02  0.35880503551E+02 -0.14222710038E+02  0.46142313096E+02  0.99999574609E+01 0.  0.
        -12    1    1    2    0    0 -0.23225371746E+02 -0.35880503551E+02  0.14222710038E+02  0.45045686904E+02  0.00000000000E+00 0.  1.
         11    1    3    3    0    0  0.15371991397E+02  0.25204696737E+02 -0.11644488529E+02  0.31735925549E+02  0.51100000000E-03 0. -1.
        -11    1    3    3    0    0 -0.24575893556E+00 -0.30867669496E+00 -0.44233168185E+00  0.59273631094E+00  0.51100000000E-03 0.  1.
         12    1    3    3    0    0  0.80991392850E+01  0.10984483509E+02 -0.21358898274E+01  0.13813651236E+02  0.00000000000E+00 0. -1.
</event>
<event>
 7    1  0.1543346E-008  0.4614232E+02  0.7816164E-02  0.1320468E+00
        -11   -1    0    0    0    0  0.00000000000E+00  0.00000000000E+00  0.45593999997E+02  0.45594000000E+02  0.51100000000E-03 0.  1.
         11   -1    0    0    0    0 -0.00000000000E+00 -0.00000000000E+00 -0.45593999997E+02  0.45594000000E+02  0.51100000000E-03 0. -1.
    9900012    2    1    2    0    0  0.44440935877E+02  0.38065303864E+01  0.62949993589E+01  0.46142317941E+02  0.10000001642E+02 0.  0.
        -12    1    1    2    0    0 -0.44440935877E+02 -0.38065303864E+01 -0.62949993589E+01  0.45045682059E+02  0.00000000000E+00 0.  1.
         11    1    3    3    0    0  0.10316442165E+02  0.23776036711E+01  0.28811181496E+00  0.10590797271E+02  0.51100000000E-03 0. -1.
        -11    1    3    3    0    0  0.10273202333E+01 -0.12238225966E+01 -0.58241676843E+00  0.17006875559E+01  0.51100000000E-03 0.  1.
         12    1    3    3    0    0  0.33097173479E+02  0.26527493119E+01  0.65893043124E+01  0.33850833114E+02  0.00000000000E+00 0. -1.
</event>
<event>
 7    1  0.1543346E-008  0.4614232E+02  0.7816164E-02  0.1320468E+00
        -11   -1    0    0    0    0  0.00000000000E+00  0.00000000000E+00  0.45593999997E+02  0.45594000000E+02  0.51100000000E-03 0. -1.
         11   -1    0    0    0    0 -0.00000000000E+00 -0.00000000000E+00 -0.45593999997E+02  0.45594000000E+02  0.51100000000E-03 0.  1.
    9900012    2    1    2    0    0 -0.17106968103E+02 -0.60533991555E+01  0.41228892032E+02  0.46142317219E+02  0.99999950557E+01 0.  0.
        -12    1    1    2    0    0  0.17106968103E+02  0.60533991555E+01 -0.41228892032E+02  0.45045682781E+02  0.00000000000E+00 0.  1.
         11    1    3    3    0    0 -0.77845472343E+01 -0.48335368387E+00  0.12269001801E+02  0.14538267156E+02  0.51100000000E-03 0. -1.
        -11    1    3    3    0    0 -0.82541431491E+01 -0.33095517980E+01  0.27001220057E+02  0.28427977365E+02  0.51100000000E-03 0.  1.
        -12    1    3    3    0    0 -0.10682777196E+01 -0.22604936736E+01  0.19586701735E+01  0.31760726980E+01  0.00000000000E+00 0.  1.
</event>
<event>
 7    1  0.1543346E-008  0.4614231E+02  0.7816164E-02  0.1320468E+00
        -11   -1    0    0    0    0  0.00000000000E+00  0.00000000000E+00  0.45593999997E+02  0.45594000000E+02  0.51100000000E-03 0. -1.
         11   -1    0    0    0    0 -0.00000000000E+00 -0.00000000000E+00 -0.45593999997E+02  0.45594000000E+02  0.51100000000E-03 0.  1.
    9900012    2    1    2    0    0 -0.84703355043E+01 -0.14733638369E+02  0.41716749464E+02  0.46142313536E+02  0.99999614746E+01 0.  0.
        -12    1    1    2    0    0  0.84703355043E+01  0.14733638369E+02 -0.41716749464E+02  0.45045686464E+02  0.00000000000E+00 0.  1.
         11    1    3    3    0    0 -0.24026123134E+01  0.36434987434E+00  0.78631219720E+01  0.82300658665E+01  0.51100000000E-03 0. -1.
        -11    1    3    3    0    0 -0.14388120264E+01 -0.12384797096E+01  0.15261803807E+01  0.24358240606E+01  0.51100000000E-03 0.  1.
         12    1    3    3    0    0 -0.46289111645E+01 -0.13859508534E+02  0.32327447111E+02  0.35476423609E+02  0.00000000000E+00 0. -1.
</event>
<event>
 7    1  0.1543346E-008  0.4614232E+02  0.7816164E-02  0.1320468E+00
        -11   -1    0    0    0    0  0.00000000000E+00  0.00000000000E+00  0.45593999997E+02  0.45594000000E+02  0.51100000000E-03 0.  1.
         11   -1    0    0    0    0 -0.00000000000E+00 -0.00000000000E+00 -0.45593999997E+02  0.45594000000E+02  0.51100000000E-03 0. -1.
    9900012    2    1    2    0    0 -0.44468406410E+02 -0.62556241719E+01 -0.35413928919E+01  0.46142318009E+02  0.10000002261E+02 0.  0.
        -12    1    1    2    0    0  0.44468406410E+02  0.62556241719E+01  0.35413928919E+01  0.45045681991E+02  0.00000000000E+00 0.  1.
         11    1    3    3    0    0 -0.10279188330E+02  0.94134468576E+00  0.56876272610E+00  0.10337859248E+02  0.51100000000E-03 0. -1.
        -11    1    3    3    0    0 -0.16812148172E+02 -0.53907529892E+01  0.74726839297E+00  0.17671076772E+02  0.51100000000E-03 0.  1.
        -12    1    3    3    0    0 -0.17377069908E+02 -0.18062158685E+01 -0.48574240110E+01  0.18133381989E+02  0.00000000000E+00 0.  1.
</event>
<event>
 7    1  0.1543346E-008  0.4614232E+02  0.7816164E-02  0.1320468E+00
        -11   -1    0    0    0    0  0.00000000000E+00  0.00000000000E+00  0.45593999997E+02  0.45594000000E+02  0.51100000000E-03 0. -1.
         11   -1    0    0    0    0 -0.00000000000E+00 -0.00000000000E+00 -0.45593999997E+02  0.45594000000E+02  0.51100000000E-03 0.  1.
    9900012    2    1    2    0    0 -0.21488536824E+02  0.37346409554E+02 -0.13137804832E+02  0.46142318329E+02  0.10000005178E+02 0.  0.
        -12    1    1    2    0    0  0.21488536824E+02 -0.37346409554E+02  0.13137804832E+02  0.45045681671E+02  0.00000000000E+00 0.  1.
         11    1    3    3    0    0 -0.52739179751E+01  0.17472232860E+02 -0.68049692402E+01  0.19478211893E+02  0.51100000000E-03 0. -1.
        -11    1    3    3    0    0 -0.67247934632E+01  0.60608401937E+01 -0.32826535282E+01  0.96297687108E+01  0.51100000000E-03 0.  1.
        -12    1    3    3    0    0 -0.94898253853E+01  0.13813336500E+02 -0.30501820636E+01  0.17034337725E+02  0.00000000000E+00 0.  1.
</event>
<event>
 7    1  0.1543346E-008  0.4614232E+02  0.7816164E-02  0.1320468E+00
        -11   -1    0    0    0    0  0.00000000000E+00  0.00000000000E+00  0.45593999997E+02  0.45594000000E+02  0.51100000000E-03 0.  1.
         11   -1    0    0    0    0 -0.00000000000E+00 -0.00000000000E+00 -0.45593999997E+02  0.45594000000E+02  0.51100000000E-03 0. -1.
    9900012    2    1    2    0    0  0.37103322333E+02 -0.15324645867E+02 -0.20435560584E+02  0.46142318348E+02  0.10000005349E+02 0.  0.
        -12    1    1    2    0    0 -0.37103322333E+02  0.15324645867E+02  0.20435560584E+02  0.45045681652E+02  0.00000000000E+00 0.  1.
         11    1    3    3    0    0  0.11562998826E+02 -0.34971140516E+01 -0.72205398722E+01  0.14073696915E+02  0.51100000000E-03 0.  1.
        -11    1    3    3    0    0  0.20555761760E+02 -0.12665507324E+02 -0.11372852960E+02  0.26688877871E+02  0.51100000000E-03 0. -1.
        -12    1    3    3    0    0  0.49845617474E+01  0.83797550818E+00 -0.18421677525E+01  0.53797435621E+01  0.00000000000E+00 0.  1.
</event>
<event>
 7    1  0.1543346E-008  0.4614231E+02  0.7816164E-02  0.1320468E+00
        -11   -1    0    0    0    0  0.00000000000E+00  0.00000000000E+00  0.45593999997E+02  0.45594000000E+02  0.51100000000E-03 0.  1.
         11   -1    0    0    0    0 -0.00000000000E+00 -0.00000000000E+00 -0.45593999997E+02  0.45594000000E+02  0.51100000000E-03 0. -1.
    9900012    2    1    2    0    0 -0.24676706586E+02 -0.68473887020E+01 -0.37057892195E+02  0.46142312594E+02  0.99999528784E+01 0.  0.
        -12    1    1    2    0    0  0.24676706586E+02  0.68473887020E+01  0.37057892195E+02  0.45045687406E+02  0.00000000000E+00 0.  1.
         11    1    3    3    0    0 -0.73017175954E+01  0.14536732311E+01 -0.65225974357E+01  0.98981070551E+01  0.51100000000E-03 0. -1.
        -11    1    3    3    0    0 -0.45864001217E+01 -0.38338897017E+01 -0.95348362071E+01  0.11253749512E+02  0.51100000000E-03 0.  1.
         12    1    3    3    0    0 -0.12788588869E+02 -0.44671722314E+01 -0.21000458552E+02  0.24990456026E+02  0.00000000000E+00 0. -1.
</event>
<event>
 7    1  0.1543346E-008  0.4614232E+02  0.7816164E-02  0.1320468E+00
        -11   -1    0    0    0    0  0.00000000000E+00  0.00000000000E+00  0.45593999997E+02  0.45594000000E+02  0.51100000000E-03 0.  1.
         11   -1    0    0    0    0 -0.00000000000E+00 -0.00000000000E+00 -0.45593999997E+02  0.45594000000E+02  0.51100000000E-03 0. -1.
    9900012    2    1    2    0    0  0.44057766903E+02  0.21636772111E+01 -0.91293582622E+01  0.46142317567E+02  0.99999982315E+01 0.  0.
        -12    1    1    2    0    0 -0.44057766903E+02 -0.21636772111E+01  0.91293582622E+01  0.45045682433E+02  0.00000000000E+00 0.  1.
         11    1    3    3    0    0  0.14952549443E+02  0.42402881219E+01 -0.50109775978E+01  0.16329993109E+02  0.51100000000E-03 0. -1.
        -11    1    3    3    0    0  0.10292610977E+02 -0.24631131514E+01 -0.28120778740E+01  0.10950458865E+02  0.51100000000E-03 0.  1.
        -12    1    3    3    0    0  0.18812606483E+02  0.38650224060E+00 -0.13063027904E+01  0.18861865593E+02  0.00000000000E+00 0.  1.
</event>
<event>
 7    1  0.1543346E-008  0.4614232E+02  0.7816164E-02  0.1320468E+00
        -11   -1    0    0    0    0  0.00000000000E+00  0.00000000000E+00  0.45593999997E+02  0.45594000000E+02  0.51100000000E-03 0. -1.
         11   -1    0    0    0    0 -0.00000000000E+00 -0.00000000000E+00 -0.45593999997E+02  0.45594000000E+02  0.51100000000E-03 0.  1.
    9900012    2    1    2    0    0 -0.28727459660E+01 -0.44318765085E+02 -0.75304649883E+01  0.46142317510E+02  0.99999977139E+01 0.  0.
        -12    1    1    2    0    0  0.28727459660E+01  0.44318765085E+02  0.75304649883E+01  0.45045682490E+02  0.00000000000E+00 0.  1.
         11    1    3    3    0    0 -0.51881615490E+01 -0.24736365580E+02 -0.64250203915E+01  0.26078452593E+02  0.51100000000E-03 0. -1.
        -11    1    3    3    0    0  0.86795432635E+00 -0.67564581142E+01  0.12982728672E+01  0.69345932585E+01  0.51100000000E-03 0.  1.
         12    1    3    3    0    0  0.14474612566E+01 -0.12825941391E+02 -0.24037174640E+01  0.13129271659E+02  0.00000000000E+00 0. -1.
</event>
<event>
 7    1  0.1543346E-008  0.4614232E+02  0.7816164E-02  0.1320468E+00
        -11   -1    0    0    0    0  0.00000000000E+00  0.00000000000E+00  0.45593999997E+02  0.45594000000E+02  0.51100000000E-03 0.  1.
         11   -1    0    0    0    0 -0.00000000000E+00 -0.00000000000E+00 -0.45593999997E+02  0.45594000000E+02  0.51100000000E-03 0. -1.
    9900012    2    1    2    0    0  0.39114904161E+02  0.15496886624E+02 -0.16092986136E+02  0.46142318461E+02  0.10000006382E+02 0.  0.
        -12    1    1    2    0    0 -0.39114904161E+02 -0.15496886624E+02  0.16092986136E+02  0.45045681539E+02  0.00000000000E+00 0.  1.
         11    1    3    3    0    0  0.28396107692E+02  0.12975007041E+02 -0.10753408811E+02  0.33020077848E+02  0.51100000000E-03 0. -1.
        -11    1    3    3    0    0  0.27155790467E+00  0.77997219063E+00  0.56066300105E+00  0.99822020397E+00  0.51100000000E-03 0.  1.
        -12    1    3    3    0    0  0.10447238564E+02  0.17419073924E+01 -0.59002403252E+01  0.12124020409E+02  0.00000000000E+00 0.  1.
</event>
<event>
 7    1  0.1543346E-008  0.4614232E+02  0.7816164E-02  0.1320468E+00
        -11   -1    0    0    0    0  0.00000000000E+00  0.00000000000E+00  0.45593999997E+02  0.45594000000E+02  0.51100000000E-03 0.  1.
         11   -1    0    0    0    0 -0.00000000000E+00 -0.00000000000E+00 -0.45593999997E+02  0.45594000000E+02  0.51100000000E-03 0. -1.
    9900012    2    1    2    0    0 -0.32646390284E+02  0.25239520994E+02 -0.18063588650E+02  0.46142318148E+02  0.10000003532E+02 0.  0.
        -12    1    1    2    0    0  0.32646390284E+02 -0.25239520994E+02  0.18063588650E+02  0.45045681852E+02  0.00000000000E+00 0.  1.
         11    1    3    3    0    0 -0.18693854950E+02  0.10526969707E+02 -0.82415014427E+01  0.22982594510E+02  0.51100000000E-03 0. -1.
        -11    1    3    3    0    0 -0.10426782350E+02  0.89712176848E+01 -0.41922385518E+01  0.14379687106E+02  0.51100000000E-03 0.  1.
         12    1    3    3    0    0 -0.35257529830E+01  0.57413336021E+01 -0.56298486555E+01  0.87800365324E+01  0.00000000000E+00 0. -1.
</event>
<event>
 7    1  0.1543346E-008  0.4614232E+02  0.7816164E-02  0.1320468E+00
        -11   -1    0    0    0    0  0.00000000000E+00  0.00000000000E+00  0.45593999997E+02  0.45594000000E+02  0.51100000000E-03 0. -1.
         11   -1    0    0    0    0 -0.00000000000E+00 -0.00000000000E+00 -0.45593999997E+02  0.45594000000E+02  0.51100000000E-03 0.  1.
    9900012    2    1    2    0    0  0.31498904195E+02  0.29725109582E+02 -0.12383470067E+02  0.46142318342E+02  0.10000005294E+02 0.  0.
        -12    1    1    2    0    0 -0.31498904195E+02 -0.29725109582E+02  0.12383470067E+02  0.45045681658E+02  0.00000000000E+00 0.  1.
         11    1    3    3    0    0  0.12711757059E+02  0.93204676531E+01 -0.63453693560E+01  0.16991868565E+02  0.51100000000E-03 0. -1.
        -11    1    3    3    0    0  0.11944180785E+02  0.16833441009E+02 -0.30092104631E+01  0.20858656206E+02  0.51100000000E-03 0.  1.
        -12    1    3    3    0    0  0.68429663514E+01  0.35712009196E+01 -0.30288902476E+01  0.82917935712E+01  0.00000000000E+00 0.  1.
</event>
<event>
 7    1  0.1543346E-008  0.4614232E+02  0.7816164E-02  0.1320468E+00
        -11   -1    0    0    0    0  0.00000000000E+00  0.00000000000E+00  0.45593999997E+02  0.45594000000E+02  0.51100000000E-03 0.  1.
         11   -1    0    0    0    0 -0.00000000000E+00 -0.00000000000E+00 -0.45593999997E+02  0.45594000000E+02  0.51100000000E-03 0. -1.
    9900012    2    1    2    0    0  0.23367403104E+02 -0.26769842264E+01 -0.38417595052E+02  0.46142318942E+02  0.10000010769E+02 0.  0.
        -12    1    1    2    0    0 -0.23367403104E+02  0.26769842264E+01  0.38417595052E+02  0.45045681058E+02  0.00000000000E+00 0.  1.
         11    1    3    3    0    0  0.91399344546E+01  0.25368161639E+01 -0.13729517397E+02  0.16687524870E+02  0.51100000000E-03 0. -1.
        -11    1    3    3    0    0  0.61636571574E+01 -0.20260305533E+01 -0.59310305687E+01  0.87904831053E+01  0.51100000000E-03 0.  1.
         12    1    3    3    0    0  0.80638114923E+01 -0.31877698371E+01 -0.18757047087E+02  0.20664310967E+02  0.00000000000E+00 0. -1.
</event>
<event>
 7    1  0.1543346E-008  0.4614232E+02  0.7816164E-02  0.1320468E+00
        -11   -1    0    0    0    0  0.00000000000E+00  0.00000000000E+00  0.45593999997E+02  0.45594000000E+02  0.51100000000E-03 0.  1.
         11   -1    0    0    0    0 -0.00000000000E+00 -0.00000000000E+00 -0.45593999997E+02  0.45594000000E+02  0.51100000000E-03 0. -1.
    9900012    2    1    2    0    0  0.76705670445E+01  0.74747252813E+01 -0.43753906517E+02  0.46142318162E+02  0.10000003653E+02 0.  0.
        -12    1    1    2    0    0 -0.76705670445E+01 -0.74747252813E+01  0.43753906517E+02  0.45045681838E+02  0.00000000000E+00 0.  1.
         11    1    3    3    0    0  0.25731930871E+01  0.19440808977E+01 -0.25139156803E+02  0.25345176627E+02  0.51100000000E-03 0.  1.
        -11    1    3    3    0    0  0.42666804638E+01  0.10066893140E+01 -0.65145653977E+01  0.78522320481E+01  0.51100000000E-03 0. -1.
        -12    1    3    3    0    0  0.83069349356E+00  0.45239550696E+01 -0.12100184316E+02  0.12944909487E+02  0.00000000000E+00 0.  1.
</event>
<event>
 7    1  0.1543346E-008  0.4614232E+02  0.7816164E-02  0.1320468E+00
        -11   -1    0    0    0    0  0.00000000000E+00  0.00000000000E+00  0.45593999997E+02  0.45594000000E+02  0.51100000000E-03 0.  1.
         11   -1    0    0    0    0 -0.00000000000E+00 -0.00000000000E+00 -0.45593999997E+02  0.45594000000E+02  0.51100000000E-03 0. -1.
    9900012    2    1    2    0    0  0.14551321560E+02 -0.14053472368E+02 -0.40247639738E+02  0.46142317086E+02  0.99999938455E+01 0.  0.
        -12    1    1    2    0    0 -0.14551321560E+02  0.14053472368E+02  0.40247639738E+02  0.45045682914E+02  0.00000000000E+00 0.  1.
         11    1    3    3    0    0  0.55448439764E+01 -0.56686979552E+01 -0.83608077916E+01  0.11523130582E+02  0.51100000000E-03 0. -1.
        -11    1    3    3    0    0  0.34891216261E+01 -0.27196744268E+00 -0.10989838240E+02  0.11533623924E+02  0.51100000000E-03 0.  1.
         12    1    3    3    0    0  0.55173559572E+01 -0.81128069698E+01 -0.20896993706E+02  0.23085562580E+02  0.00000000000E+00 0. -1.
</event>
<event>
 7    1  0.1543346E-008  0.4614232E+02  0.7816164E-02  0.1320468E+00
        -11   -1    0    0    0    0  0.00000000000E+00  0.00000000000E+00  0.45593999997E+02  0.45594000000E+02  0.51100000000E-03 0.  1.
         11   -1    0    0    0    0 -0.00000000000E+00 -0.00000000000E+00 -0.45593999997E+02  0.45594000000E+02  0.51100000000E-03 0. -1.
    9900012    2    1    2    0    0  0.27094145503E+02 -0.34675670627E+01 -0.35818942361E+02  0.46142319034E+02  0.10000011605E+02 0.  0.
        -12    1    1    2    0    0 -0.27094145503E+02  0.34675670627E+01  0.35818942361E+02  0.45045680966E+02  0.00000000000E+00 0.  1.
         11    1    3    3    0    0 -0.38111856898E+00 -0.52065731312E-01  0.15553937133E+00  0.41491560727E+00  0.51100000000E-03 0.  1.
        -11    1    3    3    0    0  0.62188131677E+01 -0.13324722884E+01 -0.49376689166E+01  0.80516889039E+01  0.51100000000E-03 0. -1.
         12    1    3    3    0    0  0.21256450904E+02 -0.20830290430E+01 -0.31036812815E+02  0.37675714523E+02  0.00000000000E+00 0. -1.
</event>
<event>
 7    1  0.1543346E-008  0.4614232E+02  0.7816164E-02  0.1320468E+00
        -11   -1    0    0    0    0  0.00000000000E+00  0.00000000000E+00  0.45593999997E+02  0.45594000000E+02  0.51100000000E-03 0. -1.
         11   -1    0    0    0    0 -0.00000000000E+00 -0.00000000000E+00 -0.45593999997E+02  0.45594000000E+02  0.51100000000E-03 0.  1.
    9900012    2    1    2    0    0 -0.39683831882E+02 -0.20611797051E+02  0.54277953447E+01  0.46142315936E+02  0.99999833573E+01 0.  0.
        -12    1    1    2    0    0  0.39683831882E+02  0.20611797051E+02 -0.54277953447E+01  0.45045684064E+02  0.00000000000E+00 0.  1.
         11    1    3    3    0    0 -0.12567916231E+02 -0.41014025182E+01  0.13591220329E+01  0.13289892173E+02  0.51100000000E-03 0. -1.
        -11    1    3    3    0    0 -0.19837632339E+01 -0.39795626550E+01 -0.17870072731E+00  0.44501876033E+01  0.51100000000E-03 0.  1.
         12    1    3    3    0    0 -0.25132152417E+02 -0.12530831878E+02  0.42473740391E+01  0.28402236160E+02  0.00000000000E+00 0. -1.
</event>
<event>
 7    1  0.1543346E-008  0.4614232E+02  0.7816164E-02  0.1320468E+00
        -11   -1    0    0    0    0  0.00000000000E+00  0.00000000000E+00  0.45593999997E+02  0.45594000000E+02  0.51100000000E-03 0.  1.
         11   -1    0    0    0    0 -0.00000000000E+00 -0.00000000000E+00 -0.45593999997E+02  0.45594000000E+02  0.51100000000E-03 0. -1.
    9900012    2    1    2    0    0 -0.21753016885E+02  0.35674575786E+02 -0.16829865585E+02  0.46142317890E+02  0.10000001177E+02 0.  0.
        -12    1    1    2    0    0  0.21753016885E+02 -0.35674575786E+02  0.16829865585E+02  0.45045682110E+02  0.00000000000E+00 0.  1.
         11    1    3    3    0    0 -0.63919119199E+00  0.19698863335E+01 -0.10370168991E+01  0.23161221594E+01  0.51100000000E-03 0. -1.
        -11    1    3    3    0    0 -0.59661563913E+01  0.17763200696E+02 -0.53830946376E+01  0.19496256800E+02  0.51100000000E-03 0.  1.
        -12    1    3    3    0    0 -0.15147669302E+02  0.15941488756E+02 -0.10409754048E+02  0.24329938931E+02  0.00000000000E+00 0.  1.
</event>
<event>
 7    1  0.1543346E-008  0.4614232E+02  0.7816164E-02  0.1320468E+00
        -11   -1    0    0    0    0  0.00000000000E+00  0.00000000000E+00  0.45593999997E+02  0.45594000000E+02  0.51100000000E-03 0.  1.
         11   -1    0    0    0    0 -0.00000000000E+00 -0.00000000000E+00 -0.45593999997E+02  0.45594000000E+02  0.51100000000E-03 0. -1.
    9900012    2    1    2    0    0  0.16322950017E+02  0.31754981973E+02 -0.27464447204E+02  0.46142318325E+02  0.10000005141E+02 0.  0.
        -12    1    1    2    0    0 -0.16322950017E+02 -0.31754981973E+02  0.27464447204E+02  0.45045681675E+02  0.00000000000E+00 0.  1.
         11    1    3    3    0    0  0.80508481459E+01  0.14499173550E+02 -0.17174452387E+02  0.23874756639E+02  0.51100000000E-03 0. -1.
        -11    1    3    3    0    0  0.29206483329E+01  0.76248501618E+01 -0.70382403701E+01  0.10779858739E+02  0.51100000000E-03 0.  1.
        -12    1    3    3    0    0  0.53514535379E+01  0.96309582619E+01 -0.32517544460E+01  0.11487702947E+02  0.00000000000E+00 0.  1.
</event>
<event>
 7    1  0.1543346E-008  0.4614232E+02  0.7816164E-02  0.1320468E+00
        -11   -1    0    0    0    0  0.00000000000E+00  0.00000000000E+00  0.45593999997E+02  0.45594000000E+02  0.51100000000E-03 0.  1.
         11   -1    0    0    0    0 -0.00000000000E+00 -0.00000000000E+00 -0.45593999997E+02  0.45594000000E+02  0.51100000000E-03 0. -1.
    9900012    2    1    2    0    0 -0.21892730248E+02 -0.36507639273E+02 -0.14731401864E+02  0.46142316923E+02  0.99999923598E+01 0.  0.
        -12    1    1    2    0    0  0.21892730248E+02  0.36507639273E+02  0.14731401864E+02  0.45045683077E+02  0.00000000000E+00 0.  1.
         11    1    3    3    0    0 -0.63226772696E+01 -0.81374189003E+01 -0.64864870235E+01  0.12176549116E+02  0.51100000000E-03 0. -1.
        -11    1    3    3    0    0 -0.20039417603E+01 -0.10303551017E+01 -0.15053820157E+01  0.27099058080E+01  0.51100000000E-03 0.  1.
        -12    1    3    3    0    0 -0.13566111218E+02 -0.27339865271E+02 -0.67395328247E+01  0.31255861999E+02  0.00000000000E+00 0.  1.
</event>
<event>
 7    1  0.1543346E-008  0.4614232E+02  0.7816164E-02  0.1320468E+00
        -11   -1    0    0    0    0  0.00000000000E+00  0.00000000000E+00  0.45593999997E+02  0.45594000000E+02  0.51100000000E-03 0.  1.
         11   -1    0    0    0    0 -0.00000000000E+00 -0.00000000000E+00 -0.45593999997E+02  0.45594000000E+02  0.51100000000E-03 0. -1.
    9900012    2    1    2    0    0  0.26229692846E+02 -0.15805309342E+02 -0.33034964178E+02  0.46142318205E+02  0.10000004045E+02 0.  0.
        -12    1    1    2    0    0 -0.26229692846E+02  0.15805309342E+02  0.33034964178E+02  0.45045681795E+02  0.00000000000E+00 0.  1.
         11    1    3    3    0    0 -0.53190259253E+00 -0.84183069544E+00 -0.47636981144E+00  0.11038694425E+01  0.51100000000E-03 0. -1.
        -11    1    3    3    0    0  0.53181987880E+01 -0.89295214903E+00 -0.44936796455E+01  0.70195269718E+01  0.51100000000E-03 0.  1.
         12    1    3    3    0    0  0.21443396651E+02 -0.14070526497E+02 -0.28064914721E+02  0.38018921790E+02  0.00000000000E+00 0. -1.
</event>
<event>
 7    1  0.1543346E-008  0.4614232E+02  0.7816164E-02  0.1320468E+00
        -11   -1    0    0    0    0  0.00000000000E+00  0.00000000000E+00  0.45593999997E+02  0.45594000000E+02  0.51100000000E-03 0. -1.
         11   -1    0    0    0    0 -0.00000000000E+00 -0.00000000000E+00 -0.45593999997E+02  0.45594000000E+02  0.51100000000E-03 0.  1.
    9900012    2    1    2    0    0  0.36113714357E+02 -0.26525622595E+02  0.46156746221E+01  0.46142317955E+02  0.10000001765E+02 0.  0.
        -12    1    1    2    0    0 -0.36113714357E+02  0.26525622595E+02 -0.46156746221E+01  0.45045682045E+02  0.00000000000E+00 0.  1.
         11    1    3    3    0    0  0.76679179205E+00 -0.12386089261E+01  0.15366632625E+01  0.21174172871E+01  0.51100000000E-03 0. -1.
        -11    1    3    3    0    0  0.31751101409E+02 -0.24684587876E+02  0.22186376901E+01  0.40278824123E+02  0.51100000000E-03 0.  1.
        -12    1    3    3    0    0  0.35958211567E+01 -0.60242579237E+00  0.86037366950E+00  0.37460765445E+01  0.00000000000E+00 0.  1.
</event>
<event>
 7    1  0.1543346E-008  0.4614232E+02  0.7816164E-02  0.1320468E+00
        -11   -1    0    0    0    0  0.00000000000E+00  0.00000000000E+00  0.45593999997E+02  0.45594000000E+02  0.51100000000E-03 0.  1.
         11   -1    0    0    0    0 -0.00000000000E+00 -0.00000000000E+00 -0.45593999997E+02  0.45594000000E+02  0.51100000000E-03 0. -1.
    9900012    2    1    2    0    0  0.36827944319E+00 -0.39786260617E+02 -0.21119452940E+02  0.46142318119E+02  0.10000003264E+02 0.  0.
        -12    1    1    2    0    0 -0.36827944319E+00  0.39786260617E+02  0.21119452940E+02  0.45045681881E+02  0.00000000000E+00 0.  1.
         11    1    3    3    0    0  0.37081579574E+01 -0.34846648297E+02 -0.18295268913E+02  0.39531711294E+02  0.51100000000E-03 0. -1.
        -11    1    3    3    0    0 -0.23450310352E+01 -0.35953525078E+01 -0.18409792532E+01  0.46706461099E+01  0.51100000000E-03 0.  1.
         12    1    3    3    0    0 -0.99484747900E+00 -0.13442598119E+01 -0.98320477459E+00  0.19399607154E+01  0.00000000000E+00 0. -1.
</event>
<event>
 7    1  0.1543346E-008  0.4614232E+02  0.7816164E-02  0.1320468E+00
        -11   -1    0    0    0    0  0.00000000000E+00  0.00000000000E+00  0.45593999997E+02  0.45594000000E+02  0.51100000000E-03 0.  1.
         11   -1    0    0    0    0 -0.00000000000E+00 -0.00000000000E+00 -0.45593999997E+02  0.45594000000E+02  0.51100000000E-03 0. -1.
    9900012    2    1    2    0    0 -0.59092073532E+01 -0.34536869119E+02 -0.28308997173E+02  0.46142318953E+02  0.10000010865E+02 0.  0.
        -12    1    1    2    0    0  0.59092073532E+01  0.34536869119E+02  0.28308997173E+02  0.45045681047E+02  0.00000000000E+00 0.  1.
         11    1    3    3    0    0 -0.45443224880E+01 -0.31809105068E+02 -0.21726856167E+02  0.38788223874E+02  0.51100000000E-03 0. -1.
        -11    1    3    3    0    0 -0.13594307121E+00 -0.16127346828E+01 -0.33819207048E+01  0.37492374678E+01  0.51100000000E-03 0.  1.
         12    1    3    3    0    0 -0.12289417940E+01 -0.11150293688E+01 -0.32002203003E+01  0.36048576112E+01  0.00000000000E+00 0. -1.
</event>
<event>
 7    1  0.1543346E-008  0.4614232E+02  0.7816164E-02  0.1320468E+00
        -11   -1    0    0    0    0  0.00000000000E+00  0.00000000000E+00  0.45593999997E+02  0.45594000000E+02  0.51100000000E-03 0.  1.
         11   -1    0    0    0    0 -0.00000000000E+00 -0.00000000000E+00 -0.45593999997E+02  0.45594000000E+02  0.51100000000E-03 0. -1.
    9900012    2    1    2    0    0  0.77124620900E+01 -0.41815535507E+02 -0.14869178738E+02  0.46142316993E+02  0.99999929925E+01 0.  0.
        -12    1    1    2    0    0 -0.77124620900E+01  0.41815535507E+02  0.14869178738E+02  0.45045683007E+02  0.00000000000E+00 0.  1.
         11    1    3    3    0    0  0.42320483146E+01 -0.12940140243E+02 -0.56996190976E+01  0.14759509496E+02  0.51100000000E-03 0. -1.
        -11    1    3    3    0    0  0.15659024236E+01 -0.24535068471E+02 -0.10046712927E+02  0.26558578203E+02  0.51100000000E-03 0.  1.
        -12    1    3    3    0    0  0.19145113518E+01 -0.43403267931E+01  0.87715328610E+00  0.48242292934E+01  0.00000000000E+00 0.  1.
</event>
<event>
 7    1  0.1543346E-008  0.4614232E+02  0.7816164E-02  0.1320468E+00
        -11   -1    0    0    0    0  0.00000000000E+00  0.00000000000E+00  0.45593999997E+02  0.45594000000E+02  0.51100000000E-03 0. -1.
         11   -1    0    0    0    0 -0.00000000000E+00 -0.00000000000E+00 -0.45593999997E+02  0.45594000000E+02  0.51100000000E-03 0.  1.
    9900012    2    1    2    0    0  0.24855880017E+02 -0.19022637237E+02  0.32395033097E+02  0.46142315765E+02  0.99999817958E+01 0.  0.
        -12    1    1    2    0    0 -0.24855880017E+02  0.19022637237E+02 -0.32395033097E+02  0.45045684235E+02  0.00000000000E+00 0.  1.
         11    1    3    3    0    0  0.10092658432E+01 -0.13571720268E+01  0.63356790373E+01  0.65575424190E+01  0.51100000000E-03 0. -1.
        -11    1    3    3    0    0  0.21257487717E+02 -0.14620120021E+02  0.22590540630E+02  0.34292290965E+02  0.51100000000E-03 0.  1.
         12    1    3    3    0    0  0.25891264571E+01 -0.30453451901E+01  0.34688134295E+01  0.52924823803E+01  0.00000000000E+00 0. -1.
</event>
<event>
 7    1  0.1543346E-008  0.4614232E+02  0.7816164E-02  0.1320468E+00
        -11   -1    0    0    0    0  0.00000000000E+00  0.00000000000E+00  0.45593999997E+02  0.45594000000E+02  0.51100000000E-03 0.  1.
         11   -1    0    0    0    0 -0.00000000000E+00 -0.00000000000E+00 -0.45593999997E+02  0.45594000000E+02  0.51100000000E-03 0. -1.
    9900012    2    1    2    0    0  0.38847600905E+02  0.20344755255E+02 -0.10298951128E+02  0.46142317001E+02  0.99999930714E+01 0.  0.
        -12    1    1    2    0    0 -0.38847600905E+02 -0.20344755255E+02  0.10298951128E+02  0.45045682999E+02  0.00000000000E+00 0.  1.
         11    1    3    3    0    0  0.88436059659E+01  0.74613526017E+01 -0.33495350359E+01  0.12045768317E+02  0.51100000000E-03 0. -1.
        -11    1    3    3    0    0  0.95355014517E+00  0.22332758254E+01 -0.73918108599E+00  0.25383395618E+01  0.51100000000E-03 0.  1.
        -12    1    3    3    0    0  0.29050444794E+02  0.10650126827E+02 -0.62102350062E+01  0.31558209123E+02  0.00000000000E+00 0.  1.
</event>
<event>
 7    1  0.1543346E-008  0.4614232E+02  0.7816164E-02  0.1320468E+00
        -11   -1    0    0    0    0  0.00000000000E+00  0.00000000000E+00  0.45593999997E+02  0.45594000000E+02  0.51100000000E-03 0.  1.
         11   -1    0    0    0    0 -0.00000000000E+00 -0.00000000000E+00 -0.45593999997E+02  0.45594000000E+02  0.51100000000E-03 0. -1.
    9900012    2    1    2    0    0 -0.28895927133E+02 -0.18663750198E+02 -0.29082697255E+02  0.46142318121E+02  0.10000003284E+02 0.  0.
        -12    1    1    2    0    0  0.28895927133E+02  0.18663750198E+02  0.29082697255E+02  0.45045681879E+02  0.00000000000E+00 0.  1.
         11    1    3    3    0    0 -0.20201547170E+02 -0.14340918776E+02 -0.21169155316E+02  0.32586770267E+02  0.51100000000E-03 0. -1.
        -11    1    3    3    0    0 -0.35057798716E+01  0.67409999615E+00 -0.39856063929E+01  0.53506973278E+01  0.51100000000E-03 0.  1.
        -12    1    3    3    0    0 -0.51886000911E+01 -0.49969314184E+01 -0.39279355457E+01  0.82048505262E+01  0.00000000000E+00 0.  1.
</event>
<event>
 7    1  0.1543346E-008  0.4614232E+02  0.7816164E-02  0.1320468E+00
        -11   -1    0    0    0    0  0.00000000000E+00  0.00000000000E+00  0.45593999997E+02  0.45594000000E+02  0.51100000000E-03 0.  1.
         11   -1    0    0    0    0 -0.00000000000E+00 -0.00000000000E+00 -0.45593999997E+02  0.45594000000E+02  0.51100000000E-03 0. -1.
    9900012    2    1    2    0    0 -0.34246711954E+01 -0.39248509287E+02 -0.21838944688E+02  0.46142319196E+02  0.10000013084E+02 0.  0.
        -12    1    1    2    0    0  0.34246711954E+01  0.39248509287E+02  0.21838944688E+02  0.45045680804E+02  0.00000000000E+00 0.  1.
         11    1    3    3    0    0  0.16710219119E+01 -0.10470004228E+02 -0.26495981092E+01  0.10928571415E+02  0.51100000000E-03 0. -1.
        -11    1    3    3    0    0 -0.41148723030E+00 -0.10578483533E+02 -0.86222713972E+01  0.13653468421E+02  0.51100000000E-03 0.  1.
        -12    1    3    3    0    0 -0.46842058770E+01 -0.18200021525E+02 -0.10567075181E+02  0.21560279361E+02  0.00000000000E+00 0.  1.
</event>
<event>
 7    1  0.1543346E-008  0.4614232E+02  0.7816164E-02  0.1320468E+00
        -11   -1    0    0    0    0  0.00000000000E+00  0.00000000000E+00  0.45593999997E+02  0.45594000000E+02  0.51100000000E-03 0.  1.
         11   -1    0    0    0    0 -0.00000000000E+00 -0.00000000000E+00 -0.45593999997E+02  0.45594000000E+02  0.51100000000E-03 0. -1.
    9900012    2    1    2    0    0  0.27861365458E+02  0.35294182856E+02  0.26792557953E+01  0.46142318295E+02  0.10000004872E+02 0.  0.
        -12    1    1    2    0    0 -0.27861365458E+02 -0.35294182856E+02 -0.26792557953E+01  0.45045681705E+02  0.00000000000E+00 0.  1.
         11    1    3    3    0    0  0.82346567218E+01  0.76239339923E+01 -0.19197196829E+01  0.11385045664E+02  0.51100000000E-03 0. -1.
        -11    1    3    3    0    0  0.17017757464E+02  0.22382191430E+02  0.58748045602E+01  0.28724203926E+02  0.51100000000E-03 0.  1.
        -12    1    3    3    0    0  0.26089512717E+01  0.52880574339E+01 -0.12758290819E+01  0.60330687058E+01  0.00000000000E+00 0.  1.
</event>
<event>
 7    1  0.1543346E-008  0.4614232E+02  0.7816164E-02  0.1320468E+00
        -11   -1    0    0    0    0  0.00000000000E+00  0.00000000000E+00  0.45593999997E+02  0.45594000000E+02  0.51100000000E-03 0. -1.
         11   -1    0    0    0    0 -0.00000000000E+00 -0.00000000000E+00 -0.45593999997E+02  0.45594000000E+02  0.51100000000E-03 0.  1.
    9900012    2    1    2    0    0  0.16780216292E+02  0.28656685235E+02  0.30435706553E+02  0.46142317623E+02  0.99999987387E+01 0.  0.
        -12    1    1    2    0    0 -0.16780216292E+02 -0.28656685235E+02 -0.30435706553E+02  0.45045682377E+02  0.00000000000E+00 0.  1.
         11    1    3    3    0    0  0.92631863491E+01  0.13606375588E+02  0.10581630986E+02  0.19568111625E+02  0.51100000000E-03 0. -1.
        -11    1    3    3    0    0  0.56800128501E+01  0.12306977043E+02  0.18659856184E+02  0.23063270865E+02  0.51100000000E-03 0.  1.
        -12    1    3    3    0    0  0.18370170923E+01  0.27433326045E+01  0.11942193830E+01  0.35109351334E+01  0.00000000000E+00 0.  1.
</event>
<event>
 7    1  0.1543346E-008  0.4614232E+02  0.7816164E-02  0.1320468E+00
        -11   -1    0    0    0    0  0.00000000000E+00  0.00000000000E+00  0.45593999997E+02  0.45594000000E+02  0.51100000000E-03 0.  1.
         11   -1    0    0    0    0 -0.00000000000E+00 -0.00000000000E+00 -0.45593999997E+02  0.45594000000E+02  0.51100000000E-03 0. -1.
    9900012    2    1    2    0    0  0.12425727090E+02  0.11375118732E+02 -0.41777044717E+02  0.46142317797E+02  0.10000000323E+02 0.  0.
        -12    1    1    2    0    0 -0.12425727090E+02 -0.11375118732E+02  0.41777044717E+02  0.45045682203E+02  0.00000000000E+00 0.  1.
         11    1    3    3    0    0  0.42020665463E+01  0.13776168472E+01 -0.45502553688E+01  0.63450780626E+01  0.51100000000E-03 0.  1.
        -11    1    3    3    0    0  0.23000426792E+01  0.18633690457E+01 -0.16423686991E+02  0.16688314330E+02  0.51100000000E-03 0. -1.
         12    1    3    3    0    0  0.59236178640E+01  0.81341328394E+01 -0.20803102357E+02  0.23108925404E+02  0.00000000000E+00 0. -1.
</event>
<event>
 7    1  0.1543346E-008  0.4614232E+02  0.7816164E-02  0.1320468E+00
        -11   -1    0    0    0    0  0.00000000000E+00  0.00000000000E+00  0.45593999997E+02  0.45594000000E+02  0.51100000000E-03 0.  1.
         11   -1    0    0    0    0 -0.00000000000E+00 -0.00000000000E+00 -0.45593999997E+02  0.45594000000E+02  0.51100000000E-03 0. -1.
    9900012    2    1    2    0    0 -0.29186391680E+02  0.11006664329E+02 -0.32498021413E+02  0.46142317468E+02  0.99999973294E+01 0.  0.
        -12    1    1    2    0    0  0.29186391680E+02 -0.11006664329E+02  0.32498021413E+02  0.45045682532E+02  0.00000000000E+00 0.  1.
         11    1    3    3    0    0 -0.31832824484E+01  0.16819697458E+01 -0.37642013942E+01  0.52087927362E+01  0.51100000000E-03 0. -1.
        -11    1    3    3    0    0 -0.41992266057E+01  0.56509619738E+01 -0.71361972348E+01  0.10024579121E+02  0.51100000000E-03 0.  1.
        -12    1    3    3    0    0 -0.21803882626E+02  0.36737326100E+01 -0.21597622785E+02  0.30908945611E+02  0.00000000000E+00 0.  1.
</event>
<event>
 7    1  0.1543346E-008  0.4614232E+02  0.7816164E-02  0.1320468E+00
        -11   -1    0    0    0    0  0.00000000000E+00  0.00000000000E+00  0.45593999997E+02  0.45594000000E+02  0.51100000000E-03 0.  1.
         11   -1    0    0    0    0 -0.00000000000E+00 -0.00000000000E+00 -0.45593999997E+02  0.45594000000E+02  0.51100000000E-03 0. -1.
    9900012    2    1    2    0    0  0.32708886374E+02  0.61082889311E+01 -0.30363315259E+02  0.46142319242E+02  0.10000013500E+02 0.  0.
        -12    1    1    2    0    0 -0.32708886374E+02 -0.61082889311E+01  0.30363315259E+02  0.45045680758E+02  0.00000000000E+00 0.  1.
         11    1    3    3    0    0  0.63029267562E+01  0.31822761369E+01 -0.44598746106E+01  0.83513022283E+01  0.51100000000E-03 0. -1.
        -11    1    3    3    0    0  0.39281804107E+01  0.31527935383E+01 -0.46231918617E+01  0.68370031216E+01  0.51100000000E-03 0.  1.
         12    1    3    3    0    0  0.22477779207E+02 -0.22678074415E+00 -0.21280248787E+02  0.30954013892E+02  0.00000000000E+00 0. -1.
</event>
<event>
 7    1  0.1543346E-008  0.4614232E+02  0.7816164E-02  0.1320468E+00
        -11   -1    0    0    0    0  0.00000000000E+00  0.00000000000E+00  0.45593999997E+02  0.45594000000E+02  0.51100000000E-03 0.  1.
         11   -1    0    0    0    0 -0.00000000000E+00 -0.00000000000E+00 -0.45593999997E+02  0.45594000000E+02  0.51100000000E-03 0. -1.
    9900012    2    1    2    0    0 -0.43073640906E+01  0.40853676345E+01 -0.44652769687E+02  0.46142318133E+02  0.10000003392E+02 0.  0.
        -12    1    1    2    0    0  0.43073640906E+01 -0.40853676345E+01  0.44652769687E+02  0.45045681867E+02  0.00000000000E+00 0.  1.
         11    1    3    3    0    0  0.15782596722E+01  0.30323339123E+01 -0.15537795282E+02  0.15909400838E+02  0.51100000000E-03 0. -1.
        -11    1    3    3    0    0 -0.64376507637E+01  0.19577837920E+01 -0.27422578350E+02  0.28236042009E+02  0.51100000000E-03 0.  1.
        -12    1    3    3    0    0  0.55202700083E+00 -0.90475006979E+00 -0.16923960560E+01  0.19968752863E+01  0.00000000000E+00 0.  1.
</event>
<event>
 7    1  0.1543346E-008  0.4614232E+02  0.7816164E-02  0.1320468E+00
        -11   -1    0    0    0    0  0.00000000000E+00  0.00000000000E+00  0.45593999997E+02  0.45594000000E+02  0.51100000000E-03 0.  1.
         11   -1    0    0    0    0 -0.00000000000E+00 -0.00000000000E+00 -0.45593999997E+02  0.45594000000E+02  0.51100000000E-03 0. -1.
    9900012    2    1    2    0    0  0.21938790419E+02  0.82212332148E+01 -0.38473553313E+02  0.46142317574E+02  0.99999982979E+01 0.  0.
        -12    1    1    2    0    0 -0.21938790419E+02 -0.82212332148E+01  0.38473553313E+02  0.45045682426E+02  0.00000000000E+00 0.  1.
         11    1    3    3    0    0  0.11197168520E+02  0.65720062472E+01 -0.23891989625E+02  0.27191818944E+02  0.51100000000E-03 0. -1.
        -11    1    3    3    0    0  0.29609681987E+01  0.29214917990E+01 -0.41612934850E+01  0.58837752111E+01  0.51100000000E-03 0.  1.
         12    1    3    3    0    0  0.77806537009E+01 -0.12722648313E+01 -0.10420270203E+02  0.13066723420E+02  0.00000000000E+00 0. -1.
</event>
<event>
 7    1  0.1543346E-008  0.4614232E+02  0.7816164E-02  0.1320468E+00
        -11   -1    0    0    0    0  0.00000000000E+00  0.00000000000E+00  0.45593999997E+02  0.45594000000E+02  0.51100000000E-03 0.  1.
         11   -1    0    0    0    0 -0.00000000000E+00 -0.00000000000E+00 -0.45593999997E+02  0.45594000000E+02  0.51100000000E-03 0. -1.
    9900012    2    1    2    0    0  0.39294871670E+02  0.20807975603E+02 -0.72148981256E+01  0.46142317153E+02  0.99999944511E+01 0.  0.
        -12    1    1    2    0    0 -0.39294871670E+02 -0.20807975603E+02  0.72148981256E+01  0.45045682847E+02  0.00000000000E+00 0.  1.
         11    1    3    3    0    0  0.18804881803E+02  0.78998443732E+01 -0.28680156196E+01  0.20597490978E+02  0.51100000000E-03 0. -1.
        -11    1    3    3    0    0  0.20594196092E+01  0.16721662692E+01 -0.28709835171E+01  0.39089507256E+01  0.51100000000E-03 0.  1.
        -12    1    3    3    0    0  0.18430570258E+02  0.11235964960E+02 -0.14758989890E+01  0.21635875449E+02  0.00000000000E+00 0.  1.
</event>
<event>
 7    1  0.1543346E-008  0.4614232E+02  0.7816164E-02  0.1320468E+00
        -11   -1    0    0    0    0  0.00000000000E+00  0.00000000000E+00  0.45593999997E+02  0.45594000000E+02  0.51100000000E-03 0.  1.
         11   -1    0    0    0    0 -0.00000000000E+00 -0.00000000000E+00 -0.45593999997E+02  0.45594000000E+02  0.51100000000E-03 0. -1.
    9900012    2    1    2    0    0 -0.19679023995E+02  0.11357632115E+02 -0.38895421397E+02  0.46142316541E+02  0.99999888719E+01 0.  0.
        -12    1    1    2    0    0  0.19679023995E+02 -0.11357632115E+02  0.38895421397E+02  0.45045683459E+02  0.00000000000E+00 0.  1.
         11    1    3    3    0    0 -0.97342620002E+01  0.23188298366E+01 -0.12641290027E+02  0.16122501118E+02  0.51100000000E-03 0.  1.
        -11    1    3    3    0    0 -0.18202967513E+01 -0.19724626778E+00 -0.64638764149E+01  0.67181905988E+01  0.51100000000E-03 0. -1.
        -12    1    3    3    0    0 -0.81244652435E+01  0.92360485459E+01 -0.19790254955E+02  0.23301624824E+02  0.00000000000E+00 0.  1.
</event>
<event>
 7    1  0.1543346E-008  0.4614232E+02  0.7816164E-02  0.1320468E+00
        -11   -1    0    0    0    0  0.00000000000E+00  0.00000000000E+00  0.45593999997E+02  0.45594000000E+02  0.51100000000E-03 0.  1.
         11   -1    0    0    0    0 -0.00000000000E+00 -0.00000000000E+00 -0.45593999997E+02  0.45594000000E+02  0.51100000000E-03 0. -1.
    9900012    2    1    2    0    0 -0.16579735558E+02  0.36099991316E+02  0.21237148888E+02  0.46142317664E+02  0.99999991166E+01 0.  0.
        -12    1    1    2    0    0  0.16579735558E+02 -0.36099991316E+02 -0.21237148888E+02  0.45045682336E+02  0.00000000000E+00 0.  1.
         11    1    3    3    0    0 -0.41388382059E+01  0.49243771965E+01  0.47203956634E+01  0.79788224663E+01  0.51100000000E-03 0. -1.
        -11    1    3    3    0    0 -0.12273319326E+02  0.31296159061E+02  0.16976059058E+02  0.37659932564E+02  0.51100000000E-03 0.  1.
        -12    1    3    3    0    0 -0.16757802613E+00 -0.12054494190E+00 -0.45930583369E+00  0.50356263436E+00  0.00000000000E+00 0.  1.
</event>
<event>
 7    1  0.1543346E-008  0.4614232E+02  0.7816164E-02  0.1320468E+00
        -11   -1    0    0    0    0  0.00000000000E+00  0.00000000000E+00  0.45593999997E+02  0.45594000000E+02  0.51100000000E-03 0.  1.
         11   -1    0    0    0    0 -0.00000000000E+00 -0.00000000000E+00 -0.45593999997E+02  0.45594000000E+02  0.51100000000E-03 0. -1.
    9900012    2    1    2    0    0  0.25777961930E+01  0.17953155576E+02 -0.41232907923E+02  0.46142317364E+02  0.99999963791E+01 0.  0.
        -12    1    1    2    0    0 -0.25777961930E+01 -0.17953155576E+02  0.41232907923E+02  0.45045682636E+02  0.00000000000E+00 0.  1.
         11    1    3    3    0    0  0.20788372941E+01  0.12549958587E+02 -0.21209004948E+02  0.24731456005E+02  0.51100000000E-03 0. -1.
        -11    1    3    3    0    0 -0.17315317507E+01  0.48265340433E+01 -0.11706541334E+02  0.12780326417E+02  0.51100000000E-03 0.  1.
         12    1    3    3    0    0  0.22304906496E+01  0.57666294591E+00 -0.83173616417E+01  0.86305349412E+01  0.00000000000E+00 0. -1.
</event>
<event>
 7    1  0.1543346E-008  0.4614232E+02  0.7816164E-02  0.1320468E+00
        -11   -1    0    0    0    0  0.00000000000E+00  0.00000000000E+00  0.45593999997E+02  0.45594000000E+02  0.51100000000E-03 0. -1.
         11   -1    0    0    0    0 -0.00000000000E+00 -0.00000000000E+00 -0.45593999997E+02  0.45594000000E+02  0.51100000000E-03 0.  1.
    9900012    2    1    2    0    0  0.11281620837E+02 -0.43067723066E+02  0.68563699538E+01  0.46142317102E+02  0.99999939904E+01 0.  0.
        -12    1    1    2    0    0 -0.11281620837E+02  0.43067723066E+02 -0.68563699538E+01  0.45045682898E+02  0.00000000000E+00 0.  1.
         11    1    3    3    0    0  0.89823393250E+00 -0.13260545012E+02 -0.88110922788E-01  0.13291224248E+02  0.51100000000E-03 0. -1.
        -11    1    3    3    0    0  0.10286516553E+02 -0.25113866586E+02  0.43431562404E+01  0.27484208631E+02  0.51100000000E-03 0.  1.
         12    1    3    3    0    0  0.96870351749E-01 -0.46933114674E+01  0.26013246361E+01  0.53668842225E+01  0.00000000000E+00 0. -1.
</event>
<event>
 7    1  0.1543346E-008  0.4614232E+02  0.7816164E-02  0.1320468E+00
        -11   -1    0    0    0    0  0.00000000000E+00  0.00000000000E+00  0.45593999997E+02  0.45594000000E+02  0.51100000000E-03 0.  1.
         11   -1    0    0    0    0 -0.00000000000E+00 -0.00000000000E+00 -0.45593999997E+02  0.45594000000E+02  0.51100000000E-03 0. -1.
    9900012    2    1    2    0    0  0.16676987698E+02  0.41053114060E+02 -0.81014423376E+01  0.46142318069E+02  0.10000002809E+02 0.  0.
        -12    1    1    2    0    0 -0.16676987698E+02 -0.41053114060E+02  0.81014423376E+01  0.45045681931E+02  0.00000000000E+00 0.  1.
         11    1    3    3    0    0  0.15851800100E+02  0.33889579702E+02 -0.53509783373E+01  0.37794393079E+02  0.51100000000E-03 0. -1.
        -11    1    3    3    0    0 -0.21216703141E+00  0.80846446259E+00 -0.16022677836E+01  0.18071778960E+01  0.51100000000E-03 0.  1.
         12    1    3    3    0    0  0.10373546294E+01  0.63550698952E+01 -0.11481962167E+01  0.65407470944E+01  0.00000000000E+00 0. -1.
</event>
<event>
 7    1  0.1543346E-008  0.4614232E+02  0.7816164E-02  0.1320468E+00
        -11   -1    0    0    0    0  0.00000000000E+00  0.00000000000E+00  0.45593999997E+02  0.45594000000E+02  0.51100000000E-03 0.  1.
         11   -1    0    0    0    0 -0.00000000000E+00 -0.00000000000E+00 -0.45593999997E+02  0.45594000000E+02  0.51100000000E-03 0. -1.
    9900012    2    1    2    0    0  0.32119594745E+02 -0.21568229067E+02 -0.23070687837E+02  0.46142317533E+02  0.99999979172E+01 0.  0.
        -12    1    1    2    0    0 -0.32119594745E+02  0.21568229067E+02  0.23070687837E+02  0.45045682467E+02  0.00000000000E+00 0.  1.
         11    1    3    3    0    0  0.20602581045E+02 -0.14702352844E+02 -0.11135956389E+02  0.27652035184E+02  0.51100000000E-03 0. -1.
        -11    1    3    3    0    0  0.87534583633E+01 -0.68798483827E+01 -0.10773298636E+02  0.15492556628E+02  0.51100000000E-03 0.  1.
        -12    1    3    3    0    0  0.27635553373E+01  0.13972160168E-01 -0.11614328116E+01  0.29977257212E+01  0.00000000000E+00 0.  1.
</event>
<event>
 7    1  0.1543346E-008  0.4614232E+02  0.7816164E-02  0.1320468E+00
        -11   -1    0    0    0    0  0.00000000000E+00  0.00000000000E+00  0.45593999997E+02  0.45594000000E+02  0.51100000000E-03 0.  1.
         11   -1    0    0    0    0 -0.00000000000E+00 -0.00000000000E+00 -0.45593999997E+02  0.45594000000E+02  0.51100000000E-03 0. -1.
    9900012    2    1    2    0    0 -0.35162212433E+01 -0.11458948671E+02 -0.43421678622E+02  0.46142317734E+02  0.99999997499E+01 0.  0.
        -12    1    1    2    0    0  0.35162212433E+01  0.11458948671E+02  0.43421678622E+02  0.45045682266E+02  0.00000000000E+00 0.  1.
         11    1    3    3    0    0  0.19035751058E+01 -0.16314046351E+00 -0.11434226804E+02  0.11592745829E+02  0.51100000000E-03 0. -1.
        -11    1    3    3    0    0 -0.52005411317E+01 -0.10709399598E+02 -0.26811209172E+02  0.29335606442E+02  0.51100000000E-03 0.  1.
        -12    1    3    3    0    0 -0.21925521733E+00 -0.58640860874E+00 -0.51762426466E+01  0.52139654624E+01  0.00000000000E+00 0.  1.
</event>
<event>
 7    1  0.1543346E-008  0.4614232E+02  0.7816164E-02  0.1320468E+00
        -11   -1    0    0    0    0  0.00000000000E+00  0.00000000000E+00  0.45593999997E+02  0.45594000000E+02  0.51100000000E-03 0.  1.
         11   -1    0    0    0    0 -0.00000000000E+00 -0.00000000000E+00 -0.45593999997E+02  0.45594000000E+02  0.51100000000E-03 0. -1.
    9900012    2    1    2    0    0  0.18079359906E+02  0.40229013068E+02 -0.91584273353E+01  0.46142317207E+02  0.99999949458E+01 0.  0.
        -12    1    1    2    0    0 -0.18079359906E+02 -0.40229013068E+02  0.91584273353E+01  0.45045682793E+02  0.00000000000E+00 0.  1.
         11    1    3    3    0    0  0.10966782385E+02  0.26131497437E+02 -0.79743563621E+01  0.29440037939E+02  0.51100000000E-03 0. -1.
        -11    1    3    3    0    0  0.30062425251E+01  0.37501320013E+01 -0.26259099177E+01  0.54768957726E+01  0.51100000000E-03 0.  1.
        -12    1    3    3    0    0  0.41063349960E+01  0.10347383629E+02  0.14418389445E+01  0.11225383495E+02  0.00000000000E+00 0.  1.
</event>
<event>
 7    1  0.1543346E-008  0.4614232E+02  0.7816164E-02  0.1320468E+00
        -11   -1    0    0    0    0  0.00000000000E+00  0.00000000000E+00  0.45593999997E+02  0.45594000000E+02  0.51100000000E-03 0.  1.
         11   -1    0    0    0    0 -0.00000000000E+00 -0.00000000000E+00 -0.45593999997E+02  0.45594000000E+02  0.51100000000E-03 0. -1.
    9900012    2    1    2    0    0 -0.39665714003E+02 -0.11405141942E+02 -0.18046256045E+02  0.46142317772E+02  0.10000000102E+02 0.  0.
        -12    1    1    2    0    0  0.39665714003E+02  0.11405141942E+02  0.18046256045E+02  0.45045682228E+02  0.00000000000E+00 0.  1.
         11    1    3    3    0    0 -0.23930694599E+01 -0.12412092057E+01 -0.27712982235E+01  0.38661965595E+01  0.51100000000E-03 0. -1.
        -11    1    3    3    0    0 -0.23124935946E+01 -0.75696040839E+00 -0.33874670886E+01  0.41707971926E+01  0.51100000000E-03 0.  1.
        -12    1    3    3    0    0 -0.34960150949E+02 -0.94069723275E+01 -0.11887490733E+02  0.38105324020E+02  0.00000000000E+00 0.  1.
</event>
<event>
 7    1  0.1543346E-008  0.4614232E+02  0.7816164E-02  0.1320468E+00
        -11   -1    0    0    0    0  0.00000000000E+00  0.00000000000E+00  0.45593999997E+02  0.45594000000E+02  0.51100000000E-03 0.  1.
         11   -1    0    0    0    0 -0.00000000000E+00 -0.00000000000E+00 -0.45593999997E+02  0.45594000000E+02  0.51100000000E-03 0. -1.
    9900012    2    1    2    0    0 -0.13764084575E+02 -0.19828670132E+02  0.38032715183E+02  0.46142316438E+02  0.99999879316E+01 0.  0.
        -12    1    1    2    0    0  0.13764084575E+02  0.19828670132E+02 -0.38032715183E+02  0.45045683562E+02  0.00000000000E+00 0.  1.
         11    1    3    3    0    0 -0.74023760457E+01 -0.55684975505E+01  0.13045364366E+02  0.15999527111E+02  0.51100000000E-03 0.  1.
        -11    1    3    3    0    0 -0.51762463856E+01 -0.14609278043E+02  0.23958394064E+02  0.28534701294E+02  0.51100000000E-03 0. -1.
         12    1    3    3    0    0 -0.11854621439E+01  0.34910546139E+00  0.10289567537E+01  0.16080880320E+01  0.00000000000E+00 0. -1.
</event>
<event>
 7    1  0.1543346E-008  0.4614232E+02  0.7816164E-02  0.1320468E+00
        -11   -1    0    0    0    0  0.00000000000E+00  0.00000000000E+00  0.45593999997E+02  0.45594000000E+02  0.51100000000E-03 0. -1.
         11   -1    0    0    0    0 -0.00000000000E+00 -0.00000000000E+00 -0.45593999997E+02  0.45594000000E+02  0.51100000000E-03 0.  1.
    9900012    2    1    2    0    0  0.15103122606E+02  0.73204044847E+01  0.41802164069E+02  0.46142317020E+02  0.99999932433E+01 0.  0.
        -12    1    1    2    0    0 -0.15103122606E+02 -0.73204044847E+01 -0.41802164069E+02  0.45045682980E+02  0.00000000000E+00 0.  1.
         11    1    3    3    0    0  0.73021701653E+01 -0.47152254413E+00  0.13718854382E+02  0.15548343592E+02  0.51100000000E-03 0. -1.
        -11    1    3    3    0    0  0.28129182014E+01  0.61327415225E+01  0.17993732845E+02  0.19217113450E+02  0.51100000000E-03 0.  1.
        -12    1    3    3    0    0  0.49880342396E+01  0.16591855063E+01  0.10089576842E+02  0.11376859978E+02  0.00000000000E+00 0.  1.
</event>
<event>
 7    1  0.1543346E-008  0.4614232E+02  0.7816164E-02  0.1320468E+00
        -11   -1    0    0    0    0  0.00000000000E+00  0.00000000000E+00  0.45593999997E+02  0.45594000000E+02  0.51100000000E-03 0.  1.
         11   -1    0    0    0    0 -0.00000000000E+00 -0.00000000000E+00 -0.45593999997E+02  0.45594000000E+02  0.51100000000E-03 0. -1.
    9900012    2    1    2    0    0 -0.43195068061E+01 -0.56550432192E+01 -0.44480061349E+02  0.46142317516E+02  0.99999977611E+01 0.  0.
        -12    1    1    2    0    0  0.43195068061E+01  0.56550432192E+01  0.44480061349E+02  0.45045682484E+02  0.00000000000E+00 0.  1.
         11    1    3    3    0    0 -0.53799537132E+01 -0.48040650638E+01 -0.18084169348E+02  0.19469466463E+02  0.51100000000E-03 0. -1.
        -11    1    3    3    0    0  0.16538597482E+01  0.49134676349E+00 -0.65715949593E+01  0.67943016035E+01  0.51100000000E-03 0.  1.
        -12    1    3    3    0    0 -0.59341284115E+00 -0.13423249190E+01 -0.19824297042E+02  0.19878549449E+02  0.00000000000E+00 0.  1.
</event>
<event>
 7    1  0.1543346E-008  0.4614232E+02  0.7816164E-02  0.1320468E+00
        -11   -1    0    0    0    0  0.00000000000E+00  0.00000000000E+00  0.45593999997E+02  0.45594000000E+02  0.51100000000E-03 0.  1.
         11   -1    0    0    0    0 -0.00000000000E+00 -0.00000000000E+00 -0.45593999997E+02  0.45594000000E+02  0.51100000000E-03 0. -1.
    9900012    2    1    2    0    0  0.19881620294E+02  0.36906106476E+02 -0.16485567710E+02  0.46142318038E+02  0.10000002524E+02 0.  0.
        -12    1    1    2    0    0 -0.19881620294E+02 -0.36906106476E+02  0.16485567710E+02  0.45045681962E+02  0.00000000000E+00 0.  1.
         11    1    3    3    0    0  0.55614706380E+01  0.14050080071E+02 -0.75773328845E+01  0.16904161605E+02  0.51100000000E-03 0. -1.
        -11    1    3    3    0    0  0.63068331013E+01  0.13872452965E+02 -0.78813760774E+01  0.17156257872E+02  0.51100000000E-03 0.  1.
        -12    1    3    3    0    0  0.80133165543E+01  0.89835734403E+01 -0.10268587479E+01  0.12081898561E+02  0.00000000000E+00 0.  1.
</event>
<event>
 7    1  0.1543346E-008  0.4614232E+02  0.7816164E-02  0.1320468E+00
        -11   -1    0    0    0    0  0.00000000000E+00  0.00000000000E+00  0.45593999997E+02  0.45594000000E+02  0.51100000000E-03 0.  1.
         11   -1    0    0    0    0 -0.00000000000E+00 -0.00000000000E+00 -0.45593999997E+02  0.45594000000E+02  0.51100000000E-03 0. -1.
    9900012    2    1    2    0    0  0.10438852731E+02  0.19032693085E+02 -0.39470247618E+02  0.46142317638E+02  0.99999988784E+01 0.  0.
        -12    1    1    2    0    0 -0.10438852731E+02 -0.19032693085E+02  0.39470247618E+02  0.45045682362E+02  0.00000000000E+00 0.  1.
         11    1    3    3    0    0  0.60741292056E+01  0.42663280748E+01 -0.12904114023E+02  0.14886663825E+02  0.51100000000E-03 0. -1.
        -11    1    3    3    0    0  0.21938347545E+01  0.25348670326E+01 -0.25329430992E+01  0.42016976102E+01  0.51100000000E-03 0.  1.
         12    1    3    3    0    0  0.21708887711E+01  0.12231497978E+02 -0.24033190496E+02  0.27053956203E+02  0.00000000000E+00 0. -1.
</event>
<event>
 7    1  0.1543346E-008  0.4614231E+02  0.7816164E-02  0.1320468E+00
        -11   -1    0    0    0    0  0.00000000000E+00  0.00000000000E+00  0.45593999997E+02  0.45594000000E+02  0.51100000000E-03 0. -1.
         11   -1    0    0    0    0 -0.00000000000E+00 -0.00000000000E+00 -0.45593999997E+02  0.45594000000E+02  0.51100000000E-03 0.  1.
    9900012    2    1    2    0    0  0.40161705228E+02  0.16579935469E+02  0.11885166849E+02  0.46142311882E+02  0.99999463925E+01 0.  0.
        -12    1    1    2    0    0 -0.40161705228E+02 -0.16579935469E+02 -0.11885166849E+02  0.45045688118E+02  0.00000000000E+00 0.  1.
         11    1    3    3    0    0  0.27800280794E+01  0.20521259632E+01  0.31682079028E+01  0.46879972982E+01  0.51100000000E-03 0. -1.
        -11    1    3    3    0    0  0.20654941243E+02  0.49180374978E+01  0.42630339271E+01  0.21656111126E+02  0.51100000000E-03 0.  1.
        -12    1    3    3    0    0  0.16726735906E+02  0.96097720076E+01  0.44539250189E+01  0.19798203458E+02  0.00000000000E+00 0.  1.
</event>
<event>
 7    1  0.1543346E-008  0.4614232E+02  0.7816164E-02  0.1320468E+00
        -11   -1    0    0    0    0  0.00000000000E+00  0.00000000000E+00  0.45593999997E+02  0.45594000000E+02  0.51100000000E-03 0. -1.
         11   -1    0    0    0    0 -0.00000000000E+00 -0.00000000000E+00 -0.45593999997E+02  0.45594000000E+02  0.51100000000E-03 0.  1.
    9900012    2    1    2    0    0  0.18057772489E+02  0.31024220899E+02  0.27212644972E+02  0.46142317899E+02  0.10000001253E+02 0.  0.
        -12    1    1    2    0    0 -0.18057772489E+02 -0.31024220899E+02 -0.27212644972E+02  0.45045682101E+02  0.00000000000E+00 0.  1.
         11    1    3    3    0    0  0.56821856770E+01  0.15042785323E+02  0.15748721003E+02  0.22507661758E+02  0.51100000000E-03 0. -1.
        -11    1    3    3    0    0  0.12408710303E+02  0.14086318802E+02  0.10459033987E+02  0.21489342963E+02  0.51100000000E-03 0.  1.
         12    1    3    3    0    0 -0.33123491922E-01  0.18951167736E+01  0.10048899824E+01  0.21453131771E+01  0.00000000000E+00 0. -1.
</event>
<event>
 7    1  0.1543346E-008  0.4614232E+02  0.7816164E-02  0.1320468E+00
        -11   -1    0    0    0    0  0.00000000000E+00  0.00000000000E+00  0.45593999997E+02  0.45594000000E+02  0.51100000000E-03 0.  1.
         11   -1    0    0    0    0 -0.00000000000E+00 -0.00000000000E+00 -0.45593999997E+02  0.45594000000E+02  0.51100000000E-03 0. -1.
    9900012    2    1    2    0    0  0.29412744212E+02 -0.16211130523E+02 -0.30020046363E+02  0.46142318092E+02  0.10000003020E+02 0.  0.
        -12    1    1    2    0    0 -0.29412744212E+02  0.16211130523E+02  0.30020046363E+02  0.45045681908E+02  0.00000000000E+00 0.  1.
         11    1    3    3    0    0  0.13057816621E+02 -0.35260117360E+01 -0.13841922848E+02  0.19352988453E+02  0.51100000000E-03 0. -1.
        -11    1    3    3    0    0  0.10242223658E+02 -0.53839575016E+01 -0.67839404604E+01  0.13413127609E+02  0.51100000000E-03 0.  1.
        -12    1    3    3    0    0  0.61127039329E+01 -0.73011612849E+01 -0.93941830545E+01  0.13376202030E+02  0.00000000000E+00 0.  1.
</event>
<event>
 7    1  0.1543346E-008  0.4614232E+02  0.7816164E-02  0.1320468E+00
        -11   -1    0    0    0    0  0.00000000000E+00  0.00000000000E+00  0.45593999997E+02  0.45594000000E+02  0.51100000000E-03 0.  1.
         11   -1    0    0    0    0 -0.00000000000E+00 -0.00000000000E+00 -0.45593999997E+02  0.45594000000E+02  0.51100000000E-03 0. -1.
    9900012    2    1    2    0    0 -0.70407805742E+01 -0.31487348364E+02 -0.31433862663E+02  0.46142318520E+02  0.10000006924E+02 0.  0.
        -12    1    1    2    0    0  0.70407805742E+01  0.31487348364E+02  0.31433862663E+02  0.45045681480E+02  0.00000000000E+00 0.  1.
         11    1    3    3    0    0 -0.45351382739E+00 -0.10601126330E+02 -0.16016684284E+02  0.19212593005E+02  0.51100000000E-03 0. -1.
        -11    1    3    3    0    0 -0.27895341523E+01 -0.13343605894E+02 -0.97368952974E+01  0.16752326684E+02  0.51100000000E-03 0.  1.
         12    1    3    3    0    0 -0.37977325945E+01 -0.75426161400E+01 -0.56802830812E+01  0.10177398832E+02  0.00000000000E+00 0. -1.
</event>
<event>
 7    1  0.1543346E-008  0.4614232E+02  0.7816164E-02  0.1320468E+00
        -11   -1    0    0    0    0  0.00000000000E+00  0.00000000000E+00  0.45593999997E+02  0.45594000000E+02  0.51100000000E-03 0. -1.
         11   -1    0    0    0    0 -0.00000000000E+00 -0.00000000000E+00 -0.45593999997E+02  0.45594000000E+02  0.51100000000E-03 0.  1.
    9900012    2    1    2    0    0 -0.36250243077E+02  0.40941634733E+01  0.26424820106E+02  0.46142318572E+02  0.10000007392E+02 0.  0.
        -12    1    1    2    0    0  0.36250243077E+02 -0.40941634733E+01 -0.26424820106E+02  0.45045681428E+02  0.00000000000E+00 0.  1.
         11    1    3    3    0    0 -0.27467208368E+01 -0.20800995154E+01  0.22016691504E+01  0.40888429486E+01  0.51100000000E-03 0. -1.
        -11    1    3    3    0    0 -0.18226603886E+02  0.23909091877E+01  0.10486648295E+02  0.21163537717E+02  0.51100000000E-03 0.  1.
         12    1    3    3    0    0 -0.15276918354E+02  0.37833538010E+01  0.13736502661E+02  0.20889937907E+02  0.00000000000E+00 0. -1.
</event>
<event>
 7    1  0.1543346E-008  0.4614232E+02  0.7816164E-02  0.1320468E+00
        -11   -1    0    0    0    0  0.00000000000E+00  0.00000000000E+00  0.45593999997E+02  0.45594000000E+02  0.51100000000E-03 0.  1.
         11   -1    0    0    0    0 -0.00000000000E+00 -0.00000000000E+00 -0.45593999997E+02  0.45594000000E+02  0.51100000000E-03 0. -1.
    9900012    2    1    2    0    0  0.38248456631E+01 -0.35302934391E+02 -0.27716179009E+02  0.46142320963E+02  0.10000029201E+02 0.  0.
        -12    1    1    2    0    0 -0.38248456631E+01  0.35302934391E+02  0.27716179009E+02  0.45045679037E+02  0.00000000000E+00 0.  1.
         11    1    3    3    0    0 -0.73981292262E+00 -0.39983245887E+00 -0.16183035083E+01  0.18237586632E+01  0.51100000000E-03 0. -1.
        -11    1    3    3    0    0 -0.30158637426E+00 -0.23681820666E+01 -0.41002950029E+01  0.47446454044E+01  0.51100000000E-03 0.  1.
         12    1    3    3    0    0  0.48662449600E+01 -0.32534919866E+02 -0.21997580498E+02  0.39573916896E+02  0.00000000000E+00 0. -1.
</event>
<event>
 7    1  0.1543346E-008  0.4614232E+02  0.7816164E-02  0.1320468E+00
        -11   -1    0    0    0    0  0.00000000000E+00  0.00000000000E+00  0.45593999997E+02  0.45594000000E+02  0.51100000000E-03 0. -1.
         11   -1    0    0    0    0 -0.00000000000E+00 -0.00000000000E+00 -0.45593999997E+02  0.45594000000E+02  0.51100000000E-03 0.  1.
    9900012    2    1    2    0    0  0.19851035408E+02  0.34993117807E+02  0.20261574508E+02  0.46142319828E+02  0.10000018847E+02 0.  0.
        -12    1    1    2    0    0 -0.19851035408E+02 -0.34993117807E+02 -0.20261574508E+02  0.45045680172E+02  0.00000000000E+00 0.  1.
         11    1    3    3    0    0  0.57898909353E+01  0.65159425008E+01  0.45428862356E+01  0.98294536637E+01  0.51100000000E-03 0. -1.
        -11    1    3    3    0    0  0.37597017466E+01  0.27055262320E+01  0.49711412372E+00  0.46585783377E+01  0.51100000000E-03 0.  1.
        -12    1    3    3    0    0  0.10301442726E+02  0.25771649075E+02  0.15221574148E+02  0.31654287827E+02  0.00000000000E+00 0.  1.
</event>
<event>
 7    1  0.1543346E-008  0.4614232E+02  0.7816164E-02  0.1320468E+00
        -11   -1    0    0    0    0  0.00000000000E+00  0.00000000000E+00  0.45593999997E+02  0.45594000000E+02  0.51100000000E-03 0. -1.
         11   -1    0    0    0    0 -0.00000000000E+00 -0.00000000000E+00 -0.45593999997E+02  0.45594000000E+02  0.51100000000E-03 0.  1.
    9900012    2    1    2    0    0 -0.38590699417E+02  0.20758963226E+02 -0.10437281011E+02  0.46142317958E+02  0.10000001799E+02 0.  0.
        -12    1    1    2    0    0  0.38590699417E+02 -0.20758963226E+02  0.10437281011E+02  0.45045682042E+02  0.00000000000E+00 0.  1.
         11    1    3    3    0    0 -0.62787935752E+01  0.49581672788E+01  0.55402821689E+00  0.80195772364E+01  0.51100000000E-03 0. -1.
        -11    1    3    3    0    0 -0.24808732018E+02  0.98819202707E+01 -0.99975675627E+01  0.28514503152E+02  0.51100000000E-03 0.  1.
        -12    1    3    3    0    0 -0.75031738230E+01  0.59188756769E+01 -0.99374166498E+00  0.96082375695E+01  0.00000000000E+00 0.  1.
</event>
<event>
 7    1  0.1543346E-008  0.4614232E+02  0.7816164E-02  0.1320468E+00
        -11   -1    0    0    0    0  0.00000000000E+00  0.00000000000E+00  0.45593999997E+02  0.45594000000E+02  0.51100000000E-03 0.  1.
         11   -1    0    0    0    0 -0.00000000000E+00 -0.00000000000E+00 -0.45593999997E+02  0.45594000000E+02  0.51100000000E-03 0. -1.
    9900012    2    1    2    0    0 -0.60606177096E+01 -0.83992213236E+01 -0.43838745985E+02  0.46142315907E+02  0.99999830900E+01 0.  0.
        -12    1    1    2    0    0  0.60606177096E+01  0.83992213236E+01  0.43838745985E+02  0.45045684093E+02  0.00000000000E+00 0.  1.
         11    1    3    3    0    0  0.25098287660E+00 -0.31754605854E+00  0.70602065513E-01  0.41086836873E+00  0.51100000000E-03 0.  1.
        -11    1    3    3    0    0 -0.22501902596E+01 -0.14906656878E+01 -0.26994033335E+02  0.27128643098E+02  0.51100000000E-03 0. -1.
         12    1    3    3    0    0 -0.40614103266E+01 -0.65910095772E+01 -0.16915314716E+02  0.18602804440E+02  0.00000000000E+00 0. -1.
</event>
<event>
 7    1  0.1543346E-008  0.4614232E+02  0.7816164E-02  0.1320468E+00
        -11   -1    0    0    0    0  0.00000000000E+00  0.00000000000E+00  0.45593999997E+02  0.45594000000E+02  0.51100000000E-03 0.  1.
         11   -1    0    0    0    0 -0.00000000000E+00 -0.00000000000E+00 -0.45593999997E+02  0.45594000000E+02  0.51100000000E-03 0. -1.
    9900012    2    1    2    0    0 -0.99189809866E+01 -0.17257323953E+02 -0.40409307647E+02  0.46142316985E+02  0.99999929203E+01 0.  0.
        -12    1    1    2    0    0  0.99189809866E+01  0.17257323953E+02  0.40409307647E+02  0.45045683015E+02  0.00000000000E+00 0.  1.
         11    1    3    3    0    0 -0.51341662659E+01 -0.76808734438E+01 -0.13600181000E+02  0.16441423406E+02  0.51100000000E-03 0. -1.
        -11    1    3    3    0    0  0.10624003482E+01 -0.25425870755E+01 -0.24730308869E+01  0.37026106419E+01  0.51100000000E-03 0.  1.
         12    1    3    3    0    0 -0.58472150689E+01 -0.70338634336E+01 -0.24336095759E+02  0.25998282937E+02  0.00000000000E+00 0. -1.
</event>
<event>
 7    1  0.1543346E-008  0.4614232E+02  0.7816164E-02  0.1320468E+00
        -11   -1    0    0    0    0  0.00000000000E+00  0.00000000000E+00  0.45593999997E+02  0.45594000000E+02  0.51100000000E-03 0.  1.
         11   -1    0    0    0    0 -0.00000000000E+00 -0.00000000000E+00 -0.45593999997E+02  0.45594000000E+02  0.51100000000E-03 0. -1.
    9900012    2    1    2    0    0  0.27458607433E+02 -0.35666584583E+02  0.17415710734E+01  0.46142318212E+02  0.10000004109E+02 0.  0.
        -12    1    1    2    0    0 -0.27458607433E+02  0.35666584583E+02 -0.17415710734E+01  0.45045681788E+02  0.00000000000E+00 0.  1.
         11    1    3    3    0    0  0.35403860127E+01 -0.72533030763E+01 -0.67225835845E+00  0.80991771309E+01  0.51100000000E-03 0. -1.
        -11    1    3    3    0    0  0.20327851907E+01 -0.50482103087E+01  0.25937043338E+01  0.60285939807E+01  0.51100000000E-03 0.  1.
        -12    1    3    3    0    0  0.21885436230E+02 -0.23365071198E+02 -0.17987490190E+00  0.32014547100E+02  0.00000000000E+00 0.  1.
</event>
<event>
 7    1  0.1543346E-008  0.4614232E+02  0.7816164E-02  0.1320468E+00
        -11   -1    0    0    0    0  0.00000000000E+00  0.00000000000E+00  0.45593999997E+02  0.45594000000E+02  0.51100000000E-03 0.  1.
         11   -1    0    0    0    0 -0.00000000000E+00 -0.00000000000E+00 -0.45593999997E+02  0.45594000000E+02  0.51100000000E-03 0. -1.
    9900012    2    1    2    0    0  0.17147273463E+02  0.21458883932E+02 -0.35701552523E+02  0.46142317195E+02  0.99999948336E+01 0.  0.
        -12    1    1    2    0    0 -0.17147273463E+02 -0.21458883932E+02  0.35701552523E+02  0.45045682805E+02  0.00000000000E+00 0.  1.
         11    1    3    3    0    0  0.10100177787E+02  0.12407395783E+02 -0.24220911426E+02  0.29027738665E+02  0.51100000000E-03 0. -1.
        -11    1    3    3    0    0  0.72916192762E+00  0.49367764335E+01 -0.32645181938E+01  0.59632640366E+01  0.51100000000E-03 0.  1.
        -12    1    3    3    0    0  0.63179337485E+01  0.41147117159E+01 -0.82161229039E+01  0.11151314493E+02  0.00000000000E+00 0.  1.
</event>
<event>
 7    1  0.1543346E-008  0.4614232E+02  0.7816164E-02  0.1320468E+00
        -11   -1    0    0    0    0  0.00000000000E+00  0.00000000000E+00  0.45593999997E+02  0.45594000000E+02  0.51100000000E-03 0.  1.
         11   -1    0    0    0    0 -0.00000000000E+00 -0.00000000000E+00 -0.45593999997E+02  0.45594000000E+02  0.51100000000E-03 0. -1.
    9900012    2    1    2    0    0  0.28587082565E+01  0.34457676357E+02 -0.28872303694E+02  0.46142316595E+02  0.99999893648E+01 0.  0.
        -12    1    1    2    0    0 -0.28587082565E+01 -0.34457676357E+02  0.28872303694E+02  0.45045683405E+02  0.00000000000E+00 0.  1.
         11    1    3    3    0    0  0.21388580293E+01  0.60929999868E+01 -0.89219272403E+01  0.11013634661E+02  0.51100000000E-03 0. -1.
        -11    1    3    3    0    0 -0.55204961530E-01  0.15995378590E+02 -0.78901057940E+01  0.17835609144E+02  0.51100000000E-03 0.  1.
        -12    1    3    3    0    0  0.77505518874E+00  0.12369297780E+02 -0.12060270660E+02  0.17293072790E+02  0.00000000000E+00 0.  1.
</event>
<event>
 7    1  0.1543346E-008  0.4614232E+02  0.7816164E-02  0.1320468E+00
        -11   -1    0    0    0    0  0.00000000000E+00  0.00000000000E+00  0.45593999997E+02  0.45594000000E+02  0.51100000000E-03 0. -1.
         11   -1    0    0    0    0 -0.00000000000E+00 -0.00000000000E+00 -0.45593999997E+02  0.45594000000E+02  0.51100000000E-03 0.  1.
    9900012    2    1    2    0    0  0.26469336915E+02  0.21678098903E+02  0.29300984620E+02  0.46142317982E+02  0.10000002017E+02 0.  0.
        -12    1    1    2    0    0 -0.26469336915E+02 -0.21678098903E+02 -0.29300984620E+02  0.45045682018E+02  0.00000000000E+00 0.  1.
         11    1    3    3    0    0  0.13842190736E+02  0.14339373763E+02  0.12582242158E+02  0.23569826098E+02  0.51100000000E-03 0. -1.
        -11    1    3    3    0    0  0.27823870190E+01  0.63590401091E+00  0.14301475130E+01  0.31923930842E+01  0.51100000000E-03 0.  1.
         12    1    3    3    0    0  0.98447591593E+01  0.67028211291E+01  0.15288594949E+02  0.19380098800E+02  0.00000000000E+00 0. -1.
</event>
<event>
 7    1  0.1543346E-008  0.4614232E+02  0.7816164E-02  0.1320468E+00
        -11   -1    0    0    0    0  0.00000000000E+00  0.00000000000E+00  0.45593999997E+02  0.45594000000E+02  0.51100000000E-03 0. -1.
         11   -1    0    0    0    0 -0.00000000000E+00 -0.00000000000E+00 -0.45593999997E+02  0.45594000000E+02  0.51100000000E-03 0.  1.
    9900012    2    1    2    0    0 -0.36978345071E+02  0.14123878668E+02  0.21499569509E+02  0.46142318277E+02  0.10000004705E+02 0.  0.
        -12    1    1    2    0    0  0.36978345071E+02 -0.14123878668E+02 -0.21499569509E+02  0.45045681723E+02  0.00000000000E+00 0.  1.
         11    1    3    3    0    0 -0.16232502907E+02  0.44038907428E+01  0.13613300002E+02  0.21638168627E+02  0.51100000000E-03 0. -1.
        -11    1    3    3    0    0 -0.19519811467E+02  0.98206402081E+01  0.68613253139E+01  0.22902964854E+02  0.51100000000E-03 0.  1.
        -12    1    3    3    0    0 -0.12260306970E+01 -0.10065228337E+00  0.10249441929E+01  0.16011847959E+01  0.00000000000E+00 0.  1.
</event>
<event>
 7    1  0.1543346E-008  0.4614232E+02  0.7816164E-02  0.1320468E+00
        -11   -1    0    0    0    0  0.00000000000E+00  0.00000000000E+00  0.45593999997E+02  0.45594000000E+02  0.51100000000E-03 0.  1.
         11   -1    0    0    0    0 -0.00000000000E+00 -0.00000000000E+00 -0.45593999997E+02  0.45594000000E+02  0.51100000000E-03 0. -1.
    9900012    2    1    2    0    0 -0.10562844914E+02  0.17448837257E+02 -0.40163141703E+02  0.46142316902E+02  0.99999921687E+01 0.  0.
        -12    1    1    2    0    0  0.10562844914E+02 -0.17448837257E+02  0.40163141703E+02  0.45045683098E+02  0.00000000000E+00 0.  1.
         11    1    3    3    0    0  0.13380048843E+01  0.10729569352E+01 -0.23764058101E+01  0.29306651959E+01  0.51100000000E-03 0.  1.
        -11    1    3    3    0    0 -0.66166912281E+01  0.73994039381E+01 -0.23677063346E+02  0.25673626748E+02  0.51100000000E-03 0. -1.
        -12    1    3    3    0    0 -0.52841585700E+01  0.89764763841E+01 -0.14109672547E+02  0.17538024958E+02  0.00000000000E+00 0.  1.
</event>
<event>
 7    1  0.1543346E-008  0.4614232E+02  0.7816164E-02  0.1320468E+00
        -11   -1    0    0    0    0  0.00000000000E+00  0.00000000000E+00  0.45593999997E+02  0.45594000000E+02  0.51100000000E-03 0. -1.
         11   -1    0    0    0    0 -0.00000000000E+00 -0.00000000000E+00 -0.45593999997E+02  0.45594000000E+02  0.51100000000E-03 0.  1.
    9900012    2    1    2    0    0  0.17776853026E+02 -0.23397438266E+02  0.34141717234E+02  0.46142317891E+02  0.10000001189E+02 0.  0.
        -12    1    1    2    0    0 -0.17776853026E+02  0.23397438266E+02 -0.34141717234E+02  0.45045682109E+02  0.00000000000E+00 0.  1.
         11    1    3    3    0    0  0.32667504894E+01 -0.66649401410E+01  0.95988399436E+01  0.12133870543E+02  0.51100000000E-03 0. -1.
        -11    1    3    3    0    0  0.11685515277E+02 -0.86974430433E+01  0.12138415527E+02  0.18961485030E+02  0.51100000000E-03 0.  1.
        -12    1    3    3    0    0  0.28245872601E+01 -0.80350550813E+01  0.12404461764E+02  0.15046962318E+02  0.00000000000E+00 0.  1.
</event>
<event>
 7    1  0.1543346E-008  0.4614232E+02  0.7816164E-02  0.1320468E+00
        -11   -1    0    0    0    0  0.00000000000E+00  0.00000000000E+00  0.45593999997E+02  0.45594000000E+02  0.51100000000E-03 0.  1.
         11   -1    0    0    0    0 -0.00000000000E+00 -0.00000000000E+00 -0.45593999997E+02  0.45594000000E+02  0.51100000000E-03 0. -1.
    9900012    2    1    2    0    0 -0.27256135971E+02 -0.88282904348E+01 -0.34760291358E+02  0.46142317461E+02  0.99999972631E+01 0.  0.
        -12    1    1    2    0    0  0.27256135971E+02  0.88282904348E+01  0.34760291358E+02  0.45045682539E+02  0.00000000000E+00 0.  1.
         11    1    3    3    0    0 -0.24171734458E+02 -0.87678947071E+01 -0.31237997697E+02  0.40459377463E+02  0.51100000000E-03 0. -1.
        -11    1    3    3    0    0 -0.21162586503E+01  0.13704747330E+01 -0.29093237113E+01  0.38497943305E+01  0.51100000000E-03 0.  1.
         12    1    3    3    0    0 -0.96814286273E+00 -0.14308704607E+01 -0.61296994979E+00  0.18331456673E+01  0.00000000000E+00 0. -1.
</event>
<event>
 7    1  0.1543346E-008  0.4614232E+02  0.7816164E-02  0.1320468E+00
        -11   -1    0    0    0    0  0.00000000000E+00  0.00000000000E+00  0.45593999997E+02  0.45594000000E+02  0.51100000000E-03 0. -1.
         11   -1    0    0    0    0 -0.00000000000E+00 -0.00000000000E+00 -0.45593999997E+02  0.45594000000E+02  0.51100000000E-03 0.  1.
    9900012    2    1    2    0    0 -0.44271128439E+02  0.11400293694E+01  0.82389913786E+01  0.46142318085E+02  0.10000002954E+02 0.  0.
        -12    1    1    2    0    0  0.44271128439E+02 -0.11400293694E+01 -0.82389913786E+01  0.45045681915E+02  0.00000000000E+00 0.  1.
         11    1    3    3    0    0 -0.17477074237E+02 -0.14877867375E+01  0.35573264179E+01  0.17897379829E+02  0.51100000000E-03 0. -1.
        -11    1    3    3    0    0 -0.93211323117E+01 -0.58850947892E+00 -0.14469632844E+01  0.94511139019E+01  0.51100000000E-03 0.  1.
        -12    1    3    3    0    0 -0.17472921891E+02  0.32163255858E+01  0.61286282452E+01  0.18793824354E+02  0.00000000000E+00 0.  1.
</event>
<event>
 7    1  0.1543346E-008  0.4614232E+02  0.7816164E-02  0.1320468E+00
        -11   -1    0    0    0    0  0.00000000000E+00  0.00000000000E+00  0.45593999997E+02  0.45594000000E+02  0.51100000000E-03 0.  1.
         11   -1    0    0    0    0 -0.00000000000E+00 -0.00000000000E+00 -0.45593999997E+02  0.45594000000E+02  0.51100000000E-03 0. -1.
    9900012    2    1    2    0    0  0.11544468725E+02 -0.43225474384E+02 -0.52342233486E+01  0.46142317766E+02  0.10000000047E+02 0.  0.
        -12    1    1    2    0    0 -0.11544468725E+02  0.43225474384E+02  0.52342233486E+01  0.45045682234E+02  0.00000000000E+00 0.  1.
         11    1    3    3    0    0  0.11164722517E+02 -0.35583913968E+02 -0.40816030313E+01  0.37517002089E+02  0.51100000000E-03 0. -1.
        -11    1    3    3    0    0 -0.11186783056E+01 -0.65077253166E+01 -0.13372048232E+01  0.67372135893E+01  0.51100000000E-03 0.  1.
        -12    1    3    3    0    0  0.14984245140E+01 -0.11338350993E+01  0.18458450588E+00  0.18881020885E+01  0.00000000000E+00 0.  1.
</event>
<event>
 7    1  0.1543346E-008  0.4614232E+02  0.7816164E-02  0.1320468E+00
        -11   -1    0    0    0    0  0.00000000000E+00  0.00000000000E+00  0.45593999997E+02  0.45594000000E+02  0.51100000000E-03 0.  1.
         11   -1    0    0    0    0 -0.00000000000E+00 -0.00000000000E+00 -0.45593999997E+02  0.45594000000E+02  0.51100000000E-03 0. -1.
    9900012    2    1    2    0    0 -0.12125292783E+02  0.56283635925E+01 -0.43016418217E+02  0.46142318320E+02  0.10000005097E+02 0.  0.
        -12    1    1    2    0    0  0.12125292783E+02 -0.56283635925E+01  0.43016418217E+02  0.45045681680E+02  0.00000000000E+00 0.  1.
         11    1    3    3    0    0 -0.67634366793E+01  0.29537323538E+01 -0.33000558053E+02  0.33815757313E+02  0.51100000000E-03 0. -1.
        -11    1    3    3    0    0  0.22428988823E+00  0.13877168391E+01 -0.25737312462E+01  0.29326023884E+01  0.51100000000E-03 0.  1.
         12    1    3    3    0    0 -0.55861459919E+01  0.12869143996E+01 -0.74421289174E+01  0.93939586192E+01  0.00000000000E+00 0. -1.
</event>
<event>
 7    1  0.1543346E-008  0.4614232E+02  0.7816164E-02  0.1320468E+00
        -11   -1    0    0    0    0  0.00000000000E+00  0.00000000000E+00  0.45593999997E+02  0.45594000000E+02  0.51100000000E-03 0.  1.
         11   -1    0    0    0    0 -0.00000000000E+00 -0.00000000000E+00 -0.45593999997E+02  0.45594000000E+02  0.51100000000E-03 0. -1.
    9900012    2    1    2    0    0  0.30496684011E+02 -0.31096953675E+02 -0.11491095070E+02  0.46142317305E+02  0.99999958412E+01 0.  0.
        -12    1    1    2    0    0 -0.30496684011E+02  0.31096953675E+02  0.11491095070E+02  0.45045682695E+02  0.00000000000E+00 0.  1.
         11    1    3    3    0    0  0.17194739095E+02 -0.15150036239E+02 -0.77799535077E+01  0.24201453002E+02  0.51100000000E-03 0. -1.
        -11    1    3    3    0    0  0.49743005395E+01 -0.40150188794E+01 -0.37083700955E+01  0.73902673487E+01  0.51100000000E-03 0.  1.
         12    1    3    3    0    0  0.83276443764E+01 -0.11931898557E+02 -0.27714671665E-02  0.14550596954E+02  0.00000000000E+00 0. -1.
</event>
<event>
 7    1  0.1543346E-008  0.4614232E+02  0.7816164E-02  0.1320468E+00
        -11   -1    0    0    0    0  0.00000000000E+00  0.00000000000E+00  0.45593999997E+02  0.45594000000E+02  0.51100000000E-03 0. -1.
         11   -1    0    0    0    0 -0.00000000000E+00 -0.00000000000E+00 -0.45593999997E+02  0.45594000000E+02  0.51100000000E-03 0.  1.
    9900012    2    1    2    0    0  0.19043656730E+02  0.20172445893E+02  0.35489788009E+02  0.46142317767E+02  0.10000000051E+02 0.  0.
        -12    1    1    2    0    0 -0.19043656730E+02 -0.20172445893E+02 -0.35489788009E+02  0.45045682233E+02  0.00000000000E+00 0.  1.
         11    1    3    3    0    0  0.10187025036E+02  0.13981937496E+02  0.25345028558E+02  0.30686161834E+02  0.51100000000E-03 0. -1.
        -11    1    3    3    0    0  0.38463197787E+01  0.51363790298E+01  0.45134598636E+01  0.78452460497E+01  0.51100000000E-03 0.  1.
         12    1    3    3    0    0  0.50103119149E+01  0.10541293672E+01  0.56312995875E+01  0.76109098833E+01  0.00000000000E+00 0. -1.
</event>
<event>
 7    1  0.1543346E-008  0.4614232E+02  0.7816164E-02  0.1320468E+00
        -11   -1    0    0    0    0  0.00000000000E+00  0.00000000000E+00  0.45593999997E+02  0.45594000000E+02  0.51100000000E-03 0.  1.
         11   -1    0    0    0    0 -0.00000000000E+00 -0.00000000000E+00 -0.45593999997E+02  0.45594000000E+02  0.51100000000E-03 0. -1.
    9900012    2    1    2    0    0 -0.24507618014E+02  0.11688409159E+02 -0.35942611459E+02  0.46142316878E+02  0.99999919498E+01 0.  0.
        -12    1    1    2    0    0  0.24507618014E+02 -0.11688409159E+02  0.35942611459E+02  0.45045683122E+02  0.00000000000E+00 0.  1.
         11    1    3    3    0    0 -0.18203267173E+01  0.31753720424E+01 -0.37859343311E+01  0.52659164431E+01  0.51100000000E-03 0. -1.
        -11    1    3    3    0    0 -0.21295990204E+02  0.60173923561E+01 -0.30083287890E+02  0.37346116532E+02  0.51100000000E-03 0.  1.
        -12    1    3    3    0    0 -0.13913010932E+01  0.24956447602E+01 -0.20733892382E+01  0.35302839028E+01  0.00000000000E+00 0.  1.
</event>
<event>
 7    1  0.1543346E-008  0.4614232E+02  0.7816164E-02  0.1320468E+00
        -11   -1    0    0    0    0  0.00000000000E+00  0.00000000000E+00  0.45593999997E+02  0.45594000000E+02  0.51100000000E-03 0.  1.
         11   -1    0    0    0    0 -0.00000000000E+00 -0.00000000000E+00 -0.45593999997E+02  0.45594000000E+02  0.51100000000E-03 0. -1.
    9900012    2    1    2    0    0 -0.34164163294E+02  0.29291262339E+02 -0.19862952429E+01  0.46142317945E+02  0.10000001675E+02 0.  0.
        -12    1    1    2    0    0  0.34164163294E+02 -0.29291262339E+02  0.19862952429E+01  0.45045682055E+02  0.00000000000E+00 0.  1.
         11    1    3    3    0    0 -0.17286161133E+02  0.18386277401E+02 -0.45492432979E+01  0.25642975222E+02  0.51100000000E-03 0. -1.
        -11    1    3    3    0    0 -0.11290412876E+02  0.54939814811E+01  0.13812473474E+01  0.12631908008E+02  0.51100000000E-03 0.  1.
        -12    1    3    3    0    0 -0.55875892848E+01  0.54110034573E+01  0.11817007076E+01  0.78674347149E+01  0.00000000000E+00 0.  1.
</event>
<event>
 7    1  0.1543346E-008  0.4614232E+02  0.7816164E-02  0.1320468E+00
        -11   -1    0    0    0    0  0.00000000000E+00  0.00000000000E+00  0.45593999997E+02  0.45594000000E+02  0.51100000000E-03 0.  1.
         11   -1    0    0    0    0 -0.00000000000E+00 -0.00000000000E+00 -0.45593999997E+02  0.45594000000E+02  0.51100000000E-03 0. -1.
    9900012    2    1    2    0    0  0.14424175350E+02  0.33972663294E+02 -0.25824692947E+02  0.46142318170E+02  0.10000003725E+02 0.  0.
        -12    1    1    2    0    0 -0.14424175350E+02 -0.33972663294E+02  0.25824692947E+02  0.45045681830E+02  0.00000000000E+00 0.  1.
         11    1    3    3    0    0  0.11856809411E+02  0.18409423624E+02 -0.11273655575E+02  0.24628969079E+02  0.51100000000E-03 0. -1.
        -11    1    3    3    0    0  0.14829959427E+01  0.11468781114E+02 -0.99045971762E+01  0.15226071807E+02  0.51100000000E-03 0.  1.
         12    1    3    3    0    0  0.10843699955E+01  0.40944585558E+01 -0.46464401950E+01  0.62872772834E+01  0.00000000000E+00 0. -1.
</event>
<event>
 7    1  0.1543346E-008  0.4614232E+02  0.7816164E-02  0.1320468E+00
        -11   -1    0    0    0    0  0.00000000000E+00  0.00000000000E+00  0.45593999997E+02  0.45594000000E+02  0.51100000000E-03 0.  1.
         11   -1    0    0    0    0 -0.00000000000E+00 -0.00000000000E+00 -0.45593999997E+02  0.45594000000E+02  0.51100000000E-03 0. -1.
    9900012    2    1    2    0    0 -0.10674011801E+02  0.40580837038E+02 -0.16382143201E+02  0.46142317871E+02  0.10000000999E+02 0.  0.
        -12    1    1    2    0    0  0.10674011801E+02 -0.40580837038E+02  0.16382143201E+02  0.45045682129E+02  0.00000000000E+00 0.  1.
         11    1    3    3    0    0 -0.51902405666E+01  0.30859366853E+02 -0.12093051039E+02  0.33548189272E+02  0.51100000000E-03 0. -1.
        -11    1    3    3    0    0 -0.24813936286E+01  0.12073812045E+01 -0.15230042070E+01  0.31519241407E+01  0.51100000000E-03 0.  1.
        -12    1    3    3    0    0 -0.30023776062E+01  0.85140889803E+01 -0.27660879550E+01  0.94422044581E+01  0.00000000000E+00 0.  1.
</event>
<event>
 7    1  0.1543346E-008  0.4614233E+02  0.7816164E-02  0.1320468E+00
        -11   -1    0    0    0    0  0.00000000000E+00  0.00000000000E+00  0.45593999997E+02  0.45594000000E+02  0.51100000000E-03 0.  1.
         11   -1    0    0    0    0 -0.00000000000E+00 -0.00000000000E+00 -0.45593999997E+02  0.45594000000E+02  0.51100000000E-03 0. -1.
    9900012    2    1    2    0    0  0.30677120118E+02 -0.48798809243E+01 -0.32622280010E+02  0.46142333287E+02  0.10000141581E+02 0.  0.
        -12    1    1    2    0    0 -0.30677120118E+02  0.48798809243E+01  0.32622280010E+02  0.45045666713E+02  0.00000000000E+00 0.  1.
         11    1    3    3    0    0  0.14162662747E+02 -0.10797714656E+01 -0.81561363518E+01  0.16378934121E+02  0.51100000000E-03 0. -1.
        -11    1    3    3    0    0  0.95788412894E+01 -0.23615828000E+01 -0.14287698155E+02  0.17362879732E+02  0.51100000000E-03 0.  1.
         12    1    3    3    0    0  0.69356160815E+01 -0.14385266587E+01 -0.10178445503E+02  0.12400519434E+02  0.00000000000E+00 0. -1.
</event>
<event>
 7    1  0.1543346E-008  0.4614232E+02  0.7816164E-02  0.1320468E+00
        -11   -1    0    0    0    0  0.00000000000E+00  0.00000000000E+00  0.45593999997E+02  0.45594000000E+02  0.51100000000E-03 0. -1.
         11   -1    0    0    0    0 -0.00000000000E+00 -0.00000000000E+00 -0.45593999997E+02  0.45594000000E+02  0.51100000000E-03 0.  1.
    9900012    2    1    2    0    0 -0.30688437767E+02 -0.15042269040E+02 -0.29343877548E+02  0.46142320740E+02  0.10000027167E+02 0.  0.
        -12    1    1    2    0    0  0.30688437767E+02  0.15042269040E+02  0.29343877548E+02  0.45045679260E+02  0.00000000000E+00 0.  1.
         11    1    3    3    0    0 -0.20691817989E+02 -0.82239319392E+01 -0.15923958711E+02  0.27374383089E+02  0.51100000000E-03 0. -1.
        -11    1    3    3    0    0 -0.27378037251E+01 -0.38777185155E+01 -0.26038027767E+01  0.54140612560E+01  0.51100000000E-03 0.  1.
        -12    1    3    3    0    0 -0.72588160524E+01 -0.29406185850E+01 -0.10816116060E+02  0.13353876395E+02  0.00000000000E+00 0.  1.
</event>
<event>
 7    1  0.1543346E-008  0.4614232E+02  0.7816164E-02  0.1320468E+00
        -11   -1    0    0    0    0  0.00000000000E+00  0.00000000000E+00  0.45593999997E+02  0.45594000000E+02  0.51100000000E-03 0.  1.
         11   -1    0    0    0    0 -0.00000000000E+00 -0.00000000000E+00 -0.45593999997E+02  0.45594000000E+02  0.51100000000E-03 0. -1.
    9900012    2    1    2    0    0 -0.34003389956E+00  0.29167686063E+02 -0.34325557041E+02  0.46142318747E+02  0.10000008991E+02 0.  0.
        -12    1    1    2    0    0  0.34003389956E+00 -0.29167686063E+02  0.34325557041E+02  0.45045681253E+02  0.00000000000E+00 0.  1.
         11    1    3    3    0    0  0.76072757219E+00  0.11160073059E+02 -0.15077729013E+02  0.18774020603E+02  0.51100000000E-03 0. -1.
        -11    1    3    3    0    0  0.20646460856E+01  0.13556045425E+01 -0.19179025656E+01  0.31271037154E+01  0.51100000000E-03 0.  1.
        -12    1    3    3    0    0 -0.31654075574E+01  0.16652008462E+02 -0.17329925462E+02  0.24241194429E+02  0.00000000000E+00 0.  1.
</event>
<event>
 7    1  0.1543346E-008  0.4614232E+02  0.7816164E-02  0.1320468E+00
        -11   -1    0    0    0    0  0.00000000000E+00  0.00000000000E+00  0.45593999997E+02  0.45594000000E+02  0.51100000000E-03 0.  1.
         11   -1    0    0    0    0 -0.00000000000E+00 -0.00000000000E+00 -0.45593999997E+02  0.45594000000E+02  0.51100000000E-03 0. -1.
    9900012    2    1    2    0    0 -0.98490584484E+01 -0.28080613556E+02 -0.33816989349E+02  0.46142316759E+02  0.99999908638E+01 0.  0.
        -12    1    1    2    0    0  0.98490584484E+01  0.28080613556E+02  0.33816989349E+02  0.45045683241E+02  0.00000000000E+00 0.  1.
         11    1    3    3    0    0 -0.23355523383E+01 -0.61142678217E+01 -0.13374604345E+02  0.14890235638E+02  0.51100000000E-03 0. -1.
        -11    1    3    3    0    0 -0.48489582649E+01 -0.12874312663E+02 -0.92004851371E+01  0.16550203921E+02  0.51100000000E-03 0.  1.
         12    1    3    3    0    0 -0.26645478452E+01 -0.90920330712E+01 -0.11241899867E+02  0.14701877200E+02  0.00000000000E+00 0. -1.
</event>
<event>
 7    1  0.1543346E-008  0.4614232E+02  0.7816164E-02  0.1320468E+00
        -11   -1    0    0    0    0  0.00000000000E+00  0.00000000000E+00  0.45593999997E+02  0.45594000000E+02  0.51100000000E-03 0. -1.
         11   -1    0    0    0    0 -0.00000000000E+00 -0.00000000000E+00 -0.45593999997E+02  0.45594000000E+02  0.51100000000E-03 0.  1.
    9900012    2    1    2    0    0  0.24775709431E+02 -0.17882485862E+02  0.33098253625E+02  0.46142317949E+02  0.10000001715E+02 0.  0.
        -12    1    1    2    0    0 -0.24775709431E+02  0.17882485862E+02 -0.33098253625E+02  0.45045682051E+02  0.00000000000E+00 0.  1.
         11    1    3    3    0    0  0.81841549258E+00 -0.12478059247E+01  0.23703856829E+01  0.28009912694E+01  0.51100000000E-03 0. -1.
        -11    1    3    3    0    0  0.36427250330E+01  0.11280910342E-01  0.12275754638E+01  0.38440232447E+01  0.51100000000E-03 0.  1.
        -12    1    3    3    0    0  0.20314568905E+02 -0.16645960848E+02  0.29500292478E+02  0.39497303435E+02  0.00000000000E+00 0.  1.
</event>
<event>
 7    1  0.1543346E-008  0.4614232E+02  0.7816164E-02  0.1320468E+00
        -11   -1    0    0    0    0  0.00000000000E+00  0.00000000000E+00  0.45593999997E+02  0.45594000000E+02  0.51100000000E-03 0.  1.
         11   -1    0    0    0    0 -0.00000000000E+00 -0.00000000000E+00 -0.45593999997E+02  0.45594000000E+02  0.51100000000E-03 0. -1.
    9900012    2    1    2    0    0  0.80663652907E+01  0.47382540954E+01 -0.44063547475E+02  0.46142317444E+02  0.99999971062E+01 0.  0.
        -12    1    1    2    0    0 -0.80663652907E+01 -0.47382540954E+01  0.44063547475E+02  0.45045682556E+02  0.00000000000E+00 0.  1.
         11    1    3    3    0    0  0.14614742069E+01  0.30415380817E+01 -0.16665642292E+02  0.17003837627E+02  0.51100000000E-03 0. -1.
        -11    1    3    3    0    0  0.22449078383E+01  0.69640922436E+00 -0.22012250191E+02  0.22137383670E+02  0.51100000000E-03 0.  1.
         12    1    3    3    0    0  0.43599832455E+01  0.10003067893E+01 -0.53856549917E+01  0.70010961472E+01  0.00000000000E+00 0. -1.
</event>
<event>
 7    1  0.1543346E-008  0.4614232E+02  0.7816164E-02  0.1320468E+00
        -11   -1    0    0    0    0  0.00000000000E+00  0.00000000000E+00  0.45593999997E+02  0.45594000000E+02  0.51100000000E-03 0. -1.
         11   -1    0    0    0    0 -0.00000000000E+00 -0.00000000000E+00 -0.45593999997E+02  0.45594000000E+02  0.51100000000E-03 0.  1.
    9900012    2    1    2    0    0  0.15718429893E+01  0.31030216982E+02  0.32615461339E+02  0.46142319022E+02  0.10000011502E+02 0.  0.
        -12    1    1    2    0    0 -0.15718429893E+01 -0.31030216982E+02 -0.32615461339E+02  0.45045680978E+02  0.00000000000E+00 0.  1.
         11    1    3    3    0    0  0.27625403761E+01  0.66821193538E+01  0.86022271407E+01  0.11237466815E+02  0.51100000000E-03 0. -1.
        -11    1    3    3    0    0 -0.21622869618E+01  0.58161726771E+01  0.30707342447E+01  0.69233487979E+01  0.51100000000E-03 0.  1.
         12    1    3    3    0    0  0.97158957493E+00  0.18531924951E+02  0.20942499954E+02  0.27981503409E+02  0.00000000000E+00 0. -1.
</event>
<event>
 7    1  0.1543346E-008  0.4614232E+02  0.7816164E-02  0.1320468E+00
        -11   -1    0    0    0    0  0.00000000000E+00  0.00000000000E+00  0.45593999997E+02  0.45594000000E+02  0.51100000000E-03 0.  1.
         11   -1    0    0    0    0 -0.00000000000E+00 -0.00000000000E+00 -0.45593999997E+02  0.45594000000E+02  0.51100000000E-03 0. -1.
    9900012    2    1    2    0    0 -0.35440252741E+02 -0.27394220911E+02 -0.47601198899E+01  0.46142316577E+02  0.99999892041E+01 0.  0.
        -12    1    1    2    0    0  0.35440252741E+02  0.27394220911E+02  0.47601198899E+01  0.45045683423E+02  0.00000000000E+00 0.  1.
         11    1    3    3    0    0 -0.14785699113E+02 -0.73958044134E+01 -0.43746103130E+01  0.17101229103E+02  0.51100000000E-03 0. -1.
        -11    1    3    3    0    0 -0.69408770596E+01 -0.83538382085E+01  0.14487081040E+01  0.10957241560E+02  0.51100000000E-03 0.  1.
         12    1    3    3    0    0 -0.13713676569E+02 -0.11644578289E+02 -0.18342176810E+01  0.18083845915E+02  0.00000000000E+00 0. -1.
</event>
<event>
 7    1  0.1543346E-008  0.4614232E+02  0.7816164E-02  0.1320468E+00
        -11   -1    0    0    0    0  0.00000000000E+00  0.00000000000E+00  0.45593999997E+02  0.45594000000E+02  0.51100000000E-03 0. -1.
         11   -1    0    0    0    0 -0.00000000000E+00 -0.00000000000E+00 -0.45593999997E+02  0.45594000000E+02  0.51100000000E-03 0.  1.
    9900012    2    1    2    0    0 -0.13628690210E+02  0.12218140884E+02  0.41159316436E+02  0.46142317710E+02  0.99999995370E+01 0.  0.
        -12    1    1    2    0    0  0.13628690210E+02 -0.12218140884E+02 -0.41159316436E+02  0.45045682290E+02  0.00000000000E+00 0.  1.
         11    1    3    3    0    0 -0.18467223813E+01  0.13458023240E+01  0.14828751589E+02  0.15003780904E+02  0.51100000000E-03 0. -1.
        -11    1    3    3    0    0 -0.35887628911E+01  0.35154485895E+01  0.47635615651E+01  0.69230857946E+01  0.51100000000E-03 0.  1.
        -12    1    3    3    0    0 -0.81932049376E+01  0.73568899706E+01  0.21567003281E+02  0.24215451012E+02  0.00000000000E+00 0.  1.
</event>
<event>
 7    1  0.1543346E-008  0.4614232E+02  0.7816164E-02  0.1320468E+00
        -11   -1    0    0    0    0  0.00000000000E+00  0.00000000000E+00  0.45593999997E+02  0.45594000000E+02  0.51100000000E-03 0. -1.
         11   -1    0    0    0    0 -0.00000000000E+00 -0.00000000000E+00 -0.45593999997E+02  0.45594000000E+02  0.51100000000E-03 0.  1.
    9900012    2    1    2    0    0  0.25226086823E+02  0.27129659650E+02 -0.25626930924E+02  0.46142317879E+02  0.10000001078E+02 0.  0.
        -12    1    1    2    0    0 -0.25226086823E+02 -0.27129659650E+02  0.25626930924E+02  0.45045682121E+02  0.00000000000E+00 0.  1.
         11    1    3    3    0    0  0.40253495971E+01  0.26985378153E+01 -0.14548152316E+01  0.50598451892E+01  0.51100000000E-03 0. -1.
        -11    1    3    3    0    0 -0.61605390030E+00  0.11098617404E+01 -0.11638150199E+01  0.17221443472E+01  0.51100000000E-03 0.  1.
         12    1    3    3    0    0  0.21816791126E+02  0.23321260095E+02 -0.23008300672E+02  0.39360328343E+02  0.00000000000E+00 0. -1.
</event>
<event>
 7    1  0.1543346E-008  0.4614232E+02  0.7816164E-02  0.1320468E+00
        -11   -1    0    0    0    0  0.00000000000E+00  0.00000000000E+00  0.45593999997E+02  0.45594000000E+02  0.51100000000E-03 0.  1.
         11   -1    0    0    0    0 -0.00000000000E+00 -0.00000000000E+00 -0.45593999997E+02  0.45594000000E+02  0.51100000000E-03 0. -1.
    9900012    2    1    2    0    0 -0.19295507733E+02  0.17151921594E+02 -0.36913528705E+02  0.46142316140E+02  0.99999852151E+01 0.  0.
        -12    1    1    2    0    0  0.19295507733E+02 -0.17151921594E+02  0.36913528705E+02  0.45045683860E+02  0.00000000000E+00 0.  1.
         11    1    3    3    0    0 -0.17775572377E+02  0.13161310430E+02 -0.33500534821E+02  0.40143204894E+02  0.51100000000E-03 0. -1.
        -11    1    3    3    0    0 -0.57755493580E+00  0.36543219338E+01 -0.33590305695E+01  0.49970716553E+01  0.51100000000E-03 0.  1.
         12    1    3    3    0    0 -0.94238041999E+00  0.33628922990E+00 -0.53963313595E-01  0.10020395907E+01  0.00000000000E+00 0. -1.
</event>
<event>
 7    1  0.1543346E-008  0.4614232E+02  0.7816164E-02  0.1320468E+00
        -11   -1    0    0    0    0  0.00000000000E+00  0.00000000000E+00  0.45593999997E+02  0.45594000000E+02  0.51100000000E-03 0.  1.
         11   -1    0    0    0    0 -0.00000000000E+00 -0.00000000000E+00 -0.45593999997E+02  0.45594000000E+02  0.51100000000E-03 0. -1.
    9900012    2    1    2    0    0  0.11911776846E+02 -0.39907716312E+02 -0.17163832082E+02  0.46142318957E+02  0.10000010906E+02 0.  0.
        -12    1    1    2    0    0 -0.11911776846E+02  0.39907716312E+02  0.17163832082E+02  0.45045681043E+02  0.00000000000E+00 0.  1.
         11    1    3    3    0    0  0.46649197790E+00 -0.12468217586E+02 -0.75650369438E+01  0.14591225060E+02  0.51100000000E-03 0. -1.
        -11    1    3    3    0    0  0.92514968098E+01 -0.21749448232E+02 -0.94398126409E+01  0.25450712260E+02  0.51100000000E-03 0.  1.
        -12    1    3    3    0    0  0.21937880580E+01 -0.56900504949E+01 -0.15898249692E+00  0.61003816366E+01  0.00000000000E+00 0.  1.
</event>
<event>
 7    1  0.1543346E-008  0.4614232E+02  0.7816164E-02  0.1320468E+00
        -11   -1    0    0    0    0  0.00000000000E+00  0.00000000000E+00  0.45593999997E+02  0.45594000000E+02  0.51100000000E-03 0.  1.
         11   -1    0    0    0    0 -0.00000000000E+00 -0.00000000000E+00 -0.45593999997E+02  0.45594000000E+02  0.51100000000E-03 0. -1.
    9900012    2    1    2    0    0  0.14973086456E+02  0.25820753948E+02 -0.33737350585E+02  0.46142317888E+02  0.10000001155E+02 0.  0.
        -12    1    1    2    0    0 -0.14973086456E+02 -0.25820753948E+02  0.33737350585E+02  0.45045682112E+02  0.00000000000E+00 0.  1.
         11    1    3    3    0    0  0.56205633391E+01  0.37639634591E+01 -0.10262582669E+02  0.12291409865E+02  0.51100000000E-03 0. -1.
        -11    1    3    3    0    0  0.89821042757E+01  0.18418271302E+02 -0.18046036781E+02  0.27305134293E+02  0.51100000000E-03 0.  1.
        -12    1    3    3    0    0  0.37041884165E+00  0.36385191867E+01 -0.54287311348E+01  0.65457737300E+01  0.00000000000E+00 0.  1.
</event>
<event>
 7    1  0.1543346E-008  0.4614231E+02  0.7816164E-02  0.1320468E+00
        -11   -1    0    0    0    0  0.00000000000E+00  0.00000000000E+00  0.45593999997E+02  0.45594000000E+02  0.51100000000E-03 0.  1.
         11   -1    0    0    0    0 -0.00000000000E+00 -0.00000000000E+00 -0.45593999997E+02  0.45594000000E+02  0.51100000000E-03 0. -1.
    9900012    2    1    2    0    0 -0.42338223569E+02  0.15278374747E+02  0.17776685755E+01  0.46142311911E+02  0.99999466494E+01 0.  0.
        -12    1    1    2    0    0  0.42338223569E+02 -0.15278374747E+02 -0.17776685755E+01  0.45045688089E+02  0.00000000000E+00 0.  1.
         11    1    3    3    0    0 -0.14911648984E+02  0.12313123870E+01  0.22416755057E+01  0.15129392418E+02  0.51100000000E-03 0. -1.
        -11    1    3    3    0    0 -0.93654487441E+01  0.51199220677E+01  0.14659616518E+01  0.10773777238E+02  0.51100000000E-03 0.  1.
        -12    1    3    3    0    0 -0.18061125842E+02  0.89271402919E+01 -0.19299685820E+01  0.20239142254E+02  0.00000000000E+00 0.  1.
</event>
<event>
 7    1  0.1543346E-008  0.4614232E+02  0.7816164E-02  0.1320468E+00
        -11   -1    0    0    0    0  0.00000000000E+00  0.00000000000E+00  0.45593999997E+02  0.45594000000E+02  0.51100000000E-03 0.  1.
         11   -1    0    0    0    0 -0.00000000000E+00 -0.00000000000E+00 -0.45593999997E+02  0.45594000000E+02  0.51100000000E-03 0. -1.
    9900012    2    1    2    0    0  0.37170556299E+02  0.17446754571E+01 -0.25385415722E+02  0.46142317860E+02  0.10000000905E+02 0.  0.
        -12    1    1    2    0    0 -0.37170556299E+02 -0.17446754571E+01  0.25385415722E+02  0.45045682140E+02  0.00000000000E+00 0.  1.
         11    1    3    3    0    0  0.20598007944E+02  0.53165197995E+01 -0.15217430200E+02  0.26155563389E+02  0.51100000000E-03 0. -1.
        -11    1    3    3    0    0  0.25856265339E+01 -0.15297582949E+01 -0.11334524777E+01  0.32109717834E+01  0.51100000000E-03 0.  1.
         12    1    3    3    0    0  0.13986921822E+02 -0.20420860475E+01 -0.90345330444E+01  0.16775782688E+02  0.00000000000E+00 0. -1.
</event>
<event>
 7    1  0.1543346E-008  0.4614232E+02  0.7816164E-02  0.1320468E+00
        -11   -1    0    0    0    0  0.00000000000E+00  0.00000000000E+00  0.45593999997E+02  0.45594000000E+02  0.51100000000E-03 0.  1.
         11   -1    0    0    0    0 -0.00000000000E+00 -0.00000000000E+00 -0.45593999997E+02  0.45594000000E+02  0.51100000000E-03 0. -1.
    9900012    2    1    2    0    0  0.67466237351E+00  0.25477240870E+02 -0.37142543634E+02  0.46142317418E+02  0.99999968744E+01 0.  0.
        -12    1    1    2    0    0 -0.67466237351E+00 -0.25477240870E+02  0.37142543634E+02  0.45045682582E+02  0.00000000000E+00 0.  1.
         11    1    3    3    0    0 -0.40489067877E+01  0.88404190032E+01 -0.12001666901E+02  0.15446250774E+02  0.51100000000E-03 0. -1.
        -11    1    3    3    0    0  0.42509585174E+01  0.10975684363E+02 -0.18820244466E+02  0.22197700276E+02  0.51100000000E-03 0.  1.
        -12    1    3    3    0    0  0.47261064382E+00  0.56611375043E+01 -0.63206322674E+01  0.84983663679E+01  0.00000000000E+00 0.  1.
</event>
<event>
 7    1  0.1543346E-008  0.4614232E+02  0.7816164E-02  0.1320468E+00
        -11   -1    0    0    0    0  0.00000000000E+00  0.00000000000E+00  0.45593999997E+02  0.45594000000E+02  0.51100000000E-03 0.  1.
         11   -1    0    0    0    0 -0.00000000000E+00 -0.00000000000E+00 -0.45593999997E+02  0.45594000000E+02  0.51100000000E-03 0. -1.
    9900012    2    1    2    0    0 -0.63090287371E+01 -0.21587823227E+02 -0.39029164258E+02  0.46142316323E+02  0.99999868865E+01 0.  0.
        -12    1    1    2    0    0  0.63090287371E+01  0.21587823227E+02  0.39029164258E+02  0.45045683677E+02  0.00000000000E+00 0.  1.
         11    1    3    3    0    0 -0.34411268046E+01 -0.57800214900E+01 -0.16554829347E+02  0.17869313839E+02  0.51100000000E-03 0. -1.
        -11    1    3    3    0    0  0.10198161068E+01 -0.98032994937E+01 -0.14802862536E+02  0.17783965963E+02  0.51100000000E-03 0.  1.
        -12    1    3    3    0    0 -0.38877180393E+01 -0.60045022432E+01 -0.76714723745E+01  0.10489036521E+02  0.00000000000E+00 0.  1.
</event>
<event>
 7    1  0.1604089E-008  0.4614232E+02  0.7816164E-02  0.1320468E+00
        -11   -1    0    0    0    0  0.00000000000E+00  0.00000000000E+00  0.45593999997E+02  0.45594000000E+02  0.51100000000E-03 0.  1.
         11   -1    0    0    0    0 -0.00000000000E+00 -0.00000000000E+00 -0.45593999997E+02  0.45594000000E+02  0.51100000000E-03 0. -1.
    9900012    2    1    2    0    0  0.32510190156E+02  0.24063184237E+02 -0.19828369723E+02  0.46142317127E+02  0.99999942200E+01 0.  0.
        -12    1    1    2    0    0 -0.32510190156E+02 -0.24063184237E+02  0.19828369723E+02  0.45045682873E+02  0.00000000000E+00 0.  1.
         11    1    3    3    0    0  0.24379265397E+02  0.21466458241E+02 -0.18407673844E+02  0.37336307629E+02  0.51100000000E-03 0. -1.
        -11    1    3    3    0    0  0.41024881370E+01  0.14815099375E+01  0.86420623229E-01  0.43626539394E+01  0.51100000000E-03 0.  1.
         12    1    3    3    0    0  0.40284366225E+01  0.11152160580E+01 -0.15071165015E+01  0.44433555593E+01  0.00000000000E+00 0. -1.
</event>
<event>
 7    1  0.1543346E-008  0.4614231E+02  0.7816164E-02  0.1320468E+00
        -11   -1    0    0    0    0  0.00000000000E+00  0.00000000000E+00  0.45593999997E+02  0.45594000000E+02  0.51100000000E-03 0.  1.
         11   -1    0    0    0    0 -0.00000000000E+00 -0.00000000000E+00 -0.45593999997E+02  0.45594000000E+02  0.51100000000E-03 0. -1.
    9900012    2    1    2    0    0  0.23162419613E+02  0.21004749155E+02 -0.32425554658E+02  0.46142314699E+02  0.99999720733E+01 0.  0.
        -12    1    1    2    0    0 -0.23162419613E+02 -0.21004749155E+02  0.32425554658E+02  0.45045685301E+02  0.00000000000E+00 0.  1.
         11    1    3    3    0    0  0.86662048959E+00  0.43130475498E+00 -0.37278845337E+01  0.38515163537E+01  0.51100000000E-03 0. -1.
        -11    1    3    3    0    0  0.16208924100E+02  0.17700510822E+02 -0.19677416281E+02  0.31036076034E+02  0.51100000000E-03 0.  1.
        -12    1    3    3    0    0  0.60868750240E+01  0.28729335781E+01 -0.90202538436E+01  0.11254722311E+02  0.00000000000E+00 0.  1.
</event>
<event>
 7    1  0.1543346E-008  0.4614232E+02  0.7816164E-02  0.1320468E+00
        -11   -1    0    0    0    0  0.00000000000E+00  0.00000000000E+00  0.45593999997E+02  0.45594000000E+02  0.51100000000E-03 0. -1.
         11   -1    0    0    0    0 -0.00000000000E+00 -0.00000000000E+00 -0.45593999997E+02  0.45594000000E+02  0.51100000000E-03 0.  1.
    9900012    2    1    2    0    0  0.89682557966E+01 -0.52180226270E+01  0.43834417402E+02  0.46142317397E+02  0.99999966798E+01 0.  0.
        -12    1    1    2    0    0 -0.89682557966E+01  0.52180226270E+01 -0.43834417402E+02  0.45045682603E+02  0.00000000000E+00 0.  1.
         11    1    3    3    0    0  0.10185842720E+01 -0.16600855319E+01  0.59372535712E+01  0.62485500816E+01  0.51100000000E-03 0. -1.
        -11    1    3    3    0    0 -0.14749837075E+01  0.46459349778E+00  0.18136256995E+01  0.23834140418E+01  0.51100000000E-03 0.  1.
        -12    1    3    3    0    0  0.94246552322E+01 -0.40225305929E+01  0.36083538132E+02  0.37510353274E+02  0.00000000000E+00 0.  1.
</event>
<event>
 7    1  0.1543346E-008  0.4614232E+02  0.7816164E-02  0.1320468E+00
        -11   -1    0    0    0    0  0.00000000000E+00  0.00000000000E+00  0.45593999997E+02  0.45594000000E+02  0.51100000000E-03 0.  1.
         11   -1    0    0    0    0 -0.00000000000E+00 -0.00000000000E+00 -0.45593999997E+02  0.45594000000E+02  0.51100000000E-03 0. -1.
    9900012    2    1    2    0    0  0.21401766091E+02  0.71857943865E+01 -0.38980024089E+02  0.46142317512E+02  0.99999977323E+01 0.  0.
        -12    1    1    2    0    0 -0.21401766091E+02 -0.71857943865E+01  0.38980024089E+02  0.45045682488E+02  0.00000000000E+00 0.  1.
         11    1    3    3    0    0  0.80002459261E+01  0.54111094245E+01 -0.17441144212E+02  0.19936839062E+02  0.51100000000E-03 0. -1.
        -11    1    3    3    0    0  0.11466498443E+02  0.25566930694E+01 -0.13480922005E+02  0.17881625328E+02  0.51100000000E-03 0.  1.
         12    1    3    3    0    0  0.19350217213E+01 -0.78200810743E+00 -0.80579578717E+01  0.83238531224E+01  0.00000000000E+00 0. -1.
</event>
<event>
 7    1  0.1543346E-008  0.4614232E+02  0.7816164E-02  0.1320468E+00
        -11   -1    0    0    0    0  0.00000000000E+00  0.00000000000E+00  0.45593999997E+02  0.45594000000E+02  0.51100000000E-03 0.  1.
         11   -1    0    0    0    0 -0.00000000000E+00 -0.00000000000E+00 -0.45593999997E+02  0.45594000000E+02  0.51100000000E-03 0. -1.
    9900012    2    1    2    0    0  0.35126484421E+02 -0.27916682681E+02 -0.39877870900E+01  0.46142317348E+02  0.99999962352E+01 0.  0.
        -12    1    1    2    0    0 -0.35126484421E+02  0.27916682681E+02  0.39877870900E+01  0.45045682652E+02  0.00000000000E+00 0.  1.
         11    1    3    3    0    0  0.16712318588E+01  0.71598290575E-02  0.39823285593E+00  0.17180386660E+01  0.51100000000E-03 0. -1.
        -11    1    3    3    0    0  0.22117908176E+01 -0.48175833552E+01  0.13498435307E+00  0.53027680547E+01  0.51100000000E-03 0.  1.
         12    1    3    3    0    0  0.31243461744E+02 -0.23106259155E+02 -0.45210042990E+01  0.39121510628E+02  0.00000000000E+00 0. -1.
</event>
<event>
 7    1  0.1543346E-008  0.4614232E+02  0.7816164E-02  0.1320468E+00
        -11   -1    0    0    0    0  0.00000000000E+00  0.00000000000E+00  0.45593999997E+02  0.45594000000E+02  0.51100000000E-03 0.  1.
         11   -1    0    0    0    0 -0.00000000000E+00 -0.00000000000E+00 -0.45593999997E+02  0.45594000000E+02  0.51100000000E-03 0. -1.
    9900012    2    1    2    0    0  0.34487300610E+02  0.13582318189E+02 -0.25598049947E+02  0.46142318388E+02  0.10000005720E+02 0.  0.
        -12    1    1    2    0    0 -0.34487300610E+02 -0.13582318189E+02  0.25598049947E+02  0.45045681612E+02  0.00000000000E+00 0.  1.
         11    1    3    3    0    0  0.17150575181E+02  0.31683961353E+01 -0.11735611639E+02  0.21021549513E+02  0.51100000000E-03 0. -1.
        -11    1    3    3    0    0  0.12227738502E+02  0.83840863528E+01 -0.71963126029E+01  0.16480212625E+02  0.51100000000E-03 0.  1.
        -12    1    3    3    0    0  0.51089869273E+01  0.20298357006E+01 -0.66661257056E+01  0.86405562504E+01  0.00000000000E+00 0.  1.
</event>
<event>
 7    1  0.1543346E-008  0.4614232E+02  0.7816164E-02  0.1320468E+00
        -11   -1    0    0    0    0  0.00000000000E+00  0.00000000000E+00  0.45593999997E+02  0.45594000000E+02  0.51100000000E-03 0.  1.
         11   -1    0    0    0    0 -0.00000000000E+00 -0.00000000000E+00 -0.45593999997E+02  0.45594000000E+02  0.51100000000E-03 0. -1.
    9900012    2    1    2    0    0  0.10891410287E+02 -0.36205673846E+02 -0.24487543984E+02  0.46142318219E+02  0.10000004177E+02 0.  0.
        -12    1    1    2    0    0 -0.10891410287E+02  0.36205673846E+02  0.24487543984E+02  0.45045681781E+02  0.00000000000E+00 0.  1.
         11    1    3    3    0    0  0.92748164362E+00 -0.13298347622E+02 -0.11220316698E+02  0.17424172254E+02  0.51100000000E-03 0. -1.
        -11    1    3    3    0    0  0.85735028314E+01 -0.20477255585E+02 -0.13373011042E+02  0.25916411243E+02  0.51100000000E-03 0.  1.
         12    1    3    3    0    0  0.13904258121E+01 -0.24300706395E+01  0.10578375611E+00  0.28017347225E+01  0.00000000000E+00 0. -1.
</event>
<event>
 7    1  0.1543346E-008  0.4614231E+02  0.7816164E-02  0.1320468E+00
        -11   -1    0    0    0    0  0.00000000000E+00  0.00000000000E+00  0.45593999997E+02  0.45594000000E+02  0.51100000000E-03 0.  1.
         11   -1    0    0    0    0 -0.00000000000E+00 -0.00000000000E+00 -0.45593999997E+02  0.45594000000E+02  0.51100000000E-03 0. -1.
    9900012    2    1    2    0    0  0.27051790145E+02 -0.21371233033E+02 -0.28992843325E+02  0.46142313020E+02  0.99999567663E+01 0.  0.
        -12    1    1    2    0    0 -0.27051790145E+02  0.21371233033E+02  0.28992843325E+02  0.45045686980E+02  0.00000000000E+00 0.  1.
         11    1    3    3    0    0  0.22180245714E+02 -0.16725967731E+02 -0.26516970072E+02  0.38404049246E+02  0.51100000000E-03 0. -1.
        -11    1    3    3    0    0  0.32343856530E+01 -0.44309754986E+01 -0.11137251402E+01  0.55977833444E+01  0.51100000000E-03 0.  1.
         12    1    3    3    0    0  0.16371587781E+01 -0.21428980355E+00 -0.13621481133E+01  0.21404804291E+01  0.00000000000E+00 0. -1.
</event>
<event>
 7    1  0.1543346E-008  0.4614232E+02  0.7816164E-02  0.1320468E+00
        -11   -1    0    0    0    0  0.00000000000E+00  0.00000000000E+00  0.45593999997E+02  0.45594000000E+02  0.51100000000E-03 0.  1.
         11   -1    0    0    0    0 -0.00000000000E+00 -0.00000000000E+00 -0.45593999997E+02  0.45594000000E+02  0.51100000000E-03 0. -1.
    9900012    2    1    2    0    0 -0.11663154518E+02  0.22130642354E+02 -0.37460897340E+02  0.46142319476E+02  0.10000015642E+02 0.  0.
        -12    1    1    2    0    0  0.11663154518E+02 -0.22130642354E+02  0.37460897340E+02  0.45045680524E+02  0.00000000000E+00 0.  1.
         11    1    3    3    0    0 -0.82589750726E+01  0.15794299293E+02 -0.30371776973E+02  0.35215272200E+02  0.51100000000E-03 0. -1.
        -11    1    3    3    0    0 -0.45948044764E+00  0.20938458741E+01  0.15576696567E-01  0.21437247307E+01  0.51100000000E-03 0.  1.
         12    1    3    3    0    0 -0.29446989977E+01  0.42424971874E+01 -0.71046970640E+01  0.87833225458E+01  0.00000000000E+00 0. -1.
</event>
<event>
 7    1  0.1543346E-008  0.4614232E+02  0.7816164E-02  0.1320468E+00
        -11   -1    0    0    0    0  0.00000000000E+00  0.00000000000E+00  0.45593999997E+02  0.45594000000E+02  0.51100000000E-03 0.  1.
         11   -1    0    0    0    0 -0.00000000000E+00 -0.00000000000E+00 -0.45593999997E+02  0.45594000000E+02  0.51100000000E-03 0. -1.
    9900012    2    1    2    0    0  0.32206282941E+02 -0.16299964665E+02 -0.26947725675E+02  0.46142318431E+02  0.10000006108E+02 0.  0.
        -12    1    1    2    0    0 -0.32206282941E+02  0.16299964665E+02  0.26947725675E+02  0.45045681569E+02  0.00000000000E+00 0.  1.
         11    1    3    3    0    0  0.98834056045E+01 -0.54381911957E+01 -0.62215179629E+01  0.12882659502E+02  0.51100000000E-03 0. -1.
        -11    1    3    3    0    0  0.10849860238E+02 -0.30604405896E+01 -0.51304001099E+01  0.12385748639E+02  0.51100000000E-03 0.  1.
         12    1    3    3    0    0  0.11473017099E+02 -0.78013328797E+01 -0.15595807602E+02  0.20873910290E+02  0.00000000000E+00 0. -1.
</event>
<event>
 7    1  0.1543346E-008  0.4614232E+02  0.7816164E-02  0.1320468E+00
        -11   -1    0    0    0    0  0.00000000000E+00  0.00000000000E+00  0.45593999997E+02  0.45594000000E+02  0.51100000000E-03 0.  1.
         11   -1    0    0    0    0 -0.00000000000E+00 -0.00000000000E+00 -0.45593999997E+02  0.45594000000E+02  0.51100000000E-03 0. -1.
    9900012    2    1    2    0    0  0.22888094936E+02  0.37991218569E+02 -0.78686687655E+01  0.46142317340E+02  0.99999961583E+01 0.  0.
        -12    1    1    2    0    0 -0.22888094936E+02 -0.37991218569E+02  0.78686687655E+01  0.45045682660E+02  0.00000000000E+00 0.  1.
         11    1    3    3    0    0  0.90088772912E+01  0.14274581796E+02 -0.68858823628E+00  0.16893718049E+02  0.51100000000E-03 0. -1.
        -11    1    3    3    0    0  0.29119382682E+00  0.48235130916E+01  0.19425595265E+00  0.48361976827E+01  0.51100000000E-03 0.  1.
         12    1    3    3    0    0  0.13588023818E+02  0.18893123682E+02 -0.73743364819E+01  0.24412401608E+02  0.00000000000E+00 0. -1.
</event>
<event>
 7    1  0.1543346E-008  0.4614231E+02  0.7816164E-02  0.1320468E+00
        -11   -1    0    0    0    0  0.00000000000E+00  0.00000000000E+00  0.45593999997E+02  0.45594000000E+02  0.51100000000E-03 0.  1.
         11   -1    0    0    0    0 -0.00000000000E+00 -0.00000000000E+00 -0.45593999997E+02  0.45594000000E+02  0.51100000000E-03 0. -1.
    9900012    2    1    2    0    0 -0.39538258880E+02 -0.98181024813E+01 -0.19220945176E+02  0.46142314468E+02  0.99999699683E+01 0.  0.
        -12    1    1    2    0    0  0.39538258880E+02  0.98181024813E+01  0.19220945176E+02  0.45045685532E+02  0.00000000000E+00 0.  1.
         11    1    3    3    0    0 -0.28977729710E+02 -0.76119113057E+01 -0.16844236428E+02  0.34371184355E+02  0.51100000000E-03 0. -1.
        -11    1    3    3    0    0 -0.83167453606E+01 -0.33770731398E+01 -0.21496344801E+01  0.92300490271E+01  0.51100000000E-03 0.  1.
         12    1    3    3    0    0 -0.22437838095E+01  0.11708819643E+01 -0.22707426741E+00  0.25410810851E+01  0.00000000000E+00 0. -1.
</event>
<event>
 7    1  0.1543346E-008  0.4614232E+02  0.7816164E-02  0.1320468E+00
        -11   -1    0    0    0    0  0.00000000000E+00  0.00000000000E+00  0.45593999997E+02  0.45594000000E+02  0.51100000000E-03 0.  1.
         11   -1    0    0    0    0 -0.00000000000E+00 -0.00000000000E+00 -0.45593999997E+02  0.45594000000E+02  0.51100000000E-03 0. -1.
    9900012    2    1    2    0    0  0.39920634291E+02  0.19257498147E+02 -0.80377355276E+01  0.46142317971E+02  0.10000001911E+02 0.  0.
        -12    1    1    2    0    0 -0.39920634291E+02 -0.19257498147E+02  0.80377355276E+01  0.45045682029E+02  0.00000000000E+00 0.  1.
         11    1    3    3    0    0 -0.21889153540E+00  0.57498574174E+00 -0.33342223069E+00  0.69978050309E+00  0.51100000000E-03 0.  1.
        -11    1    3    3    0    0  0.27284015184E+02  0.96694617005E+01 -0.66882261821E+01  0.29709398242E+02  0.51100000000E-03 0. -1.
         12    1    3    3    0    0  0.12855510642E+02  0.90130507051E+01 -0.10160871148E+01  0.15733139226E+02  0.00000000000E+00 0. -1.
</event>
<event>
 7    1  0.1543346E-008  0.4614232E+02  0.7816164E-02  0.1320468E+00
        -11   -1    0    0    0    0  0.00000000000E+00  0.00000000000E+00  0.45593999997E+02  0.45594000000E+02  0.51100000000E-03 0.  1.
         11   -1    0    0    0    0 -0.00000000000E+00 -0.00000000000E+00 -0.45593999997E+02  0.45594000000E+02  0.51100000000E-03 0. -1.
    9900012    2    1    2    0    0 -0.21379024997E+02  0.39603337690E+01 -0.39450812269E+02  0.46142317165E+02  0.99999945658E+01 0.  0.
        -12    1    1    2    0    0  0.21379024997E+02 -0.39603337690E+01  0.39450812269E+02  0.45045682835E+02  0.00000000000E+00 0.  1.
         11    1    3    3    0    0 -0.71704523462E+01  0.47788922642E+01 -0.17012415948E+02  0.19070277784E+02  0.51100000000E-03 0. -1.
        -11    1    3    3    0    0 -0.73162879210E+01 -0.29564493979E+01 -0.10746534809E+02  0.13332541867E+02  0.51100000000E-03 0.  1.
        -12    1    3    3    0    0 -0.68922847295E+01  0.21378909028E+01 -0.11691861513E+02  0.13739497514E+02  0.00000000000E+00 0.  1.
</event>
<event>
 7    1  0.1543346E-008  0.4614232E+02  0.7816164E-02  0.1320468E+00
        -11   -1    0    0    0    0  0.00000000000E+00  0.00000000000E+00  0.45593999997E+02  0.45594000000E+02  0.51100000000E-03 0. -1.
         11   -1    0    0    0    0 -0.00000000000E+00 -0.00000000000E+00 -0.45593999997E+02  0.45594000000E+02  0.51100000000E-03 0.  1.
    9900012    2    1    2    0    0  0.16853562916E+02 -0.44375225262E+01  0.41537686944E+02  0.46142316236E+02  0.99999860920E+01 0.  0.
        -12    1    1    2    0    0 -0.16853562916E+02  0.44375225262E+01 -0.41537686944E+02  0.45045683764E+02  0.00000000000E+00 0.  1.
         11    1    3    3    0    0  0.29533257689E+01 -0.26289488419E+01  0.18067038518E+02  0.18494631280E+02  0.51100000000E-03 0. -1.
        -11    1    3    3    0    0  0.36609297252E+01  0.13395747777E+01  0.60730605542E+01  0.72165734109E+01  0.51100000000E-03 0.  1.
         12    1    3    3    0    0  0.10239307422E+02 -0.31481484620E+01  0.17397587872E+02  0.20431111545E+02  0.00000000000E+00 0. -1.
</event>
<event>
 7    1  0.1543346E-008  0.4614232E+02  0.7816164E-02  0.1320468E+00
        -11   -1    0    0    0    0  0.00000000000E+00  0.00000000000E+00  0.45593999997E+02  0.45594000000E+02  0.51100000000E-03 0.  1.
         11   -1    0    0    0    0 -0.00000000000E+00 -0.00000000000E+00 -0.45593999997E+02  0.45594000000E+02  0.51100000000E-03 0. -1.
    9900012    2    1    2    0    0 -0.11922576974E+01  0.36132661486E+02 -0.26872341974E+02  0.46142317990E+02  0.10000002092E+02 0.  0.
        -12    1    1    2    0    0  0.11922576974E+01 -0.36132661486E+02  0.26872341974E+02  0.45045682010E+02  0.00000000000E+00 0.  1.
         11    1    3    3    0    0  0.35411835432E+00  0.12933591539E+02 -0.13525938185E+02  0.18717750772E+02  0.51100000000E-03 0. -1.
        -11    1    3    3    0    0 -0.33810377654E+01  0.10078421135E+02 -0.48393202796E+01  0.11680111728E+02  0.51100000000E-03 0.  1.
        -12    1    3    3    0    0  0.18346617136E+01  0.13120648812E+02 -0.85070835094E+01  0.15744455491E+02  0.00000000000E+00 0.  1.
</event>
<event>
 7    1  0.1543346E-008  0.4614232E+02  0.7816164E-02  0.1320468E+00
        -11   -1    0    0    0    0  0.00000000000E+00  0.00000000000E+00  0.45593999997E+02  0.45594000000E+02  0.51100000000E-03 0. -1.
         11   -1    0    0    0    0 -0.00000000000E+00 -0.00000000000E+00 -0.45593999997E+02  0.45594000000E+02  0.51100000000E-03 0.  1.
    9900012    2    1    2    0    0  0.38271135383E+02 -0.23382472580E+02  0.42063769844E+01  0.46142318355E+02  0.10000005420E+02 0.  0.
        -12    1    1    2    0    0 -0.38271135383E+02  0.23382472580E+02 -0.42063769844E+01  0.45045681645E+02  0.00000000000E+00 0.  1.
         11    1    3    3    0    0  0.17760254647E+02 -0.88140102050E+01  0.52031311622E+00  0.19833914062E+02  0.51100000000E-03 0. -1.
        -11    1    3    3    0    0  0.11291766405E+02 -0.44948533237E+01  0.35163022064E+01  0.12651959390E+02  0.51100000000E-03 0.  1.
         12    1    3    3    0    0  0.92191143316E+01 -0.10073609051E+02  0.16976166182E+00  0.13656444903E+02  0.00000000000E+00 0. -1.
</event>
<event>
 7    1  0.1543346E-008  0.4614232E+02  0.7816164E-02  0.1320468E+00
        -11   -1    0    0    0    0  0.00000000000E+00  0.00000000000E+00  0.45593999997E+02  0.45594000000E+02  0.51100000000E-03 0.  1.
         11   -1    0    0    0    0 -0.00000000000E+00 -0.00000000000E+00 -0.45593999997E+02  0.45594000000E+02  0.51100000000E-03 0. -1.
    9900012    2    1    2    0    0 -0.25726487264E+02  0.40785592115E+01 -0.36750873785E+02  0.46142317452E+02  0.99999971856E+01 0.  0.
        -12    1    1    2    0    0  0.25726487264E+02 -0.40785592115E+01  0.36750873785E+02  0.45045682548E+02  0.00000000000E+00 0.  1.
         11    1    3    3    0    0 -0.20320880705E+02  0.32238484211E+00 -0.25256385006E+02  0.32418005929E+02  0.51100000000E-03 0. -1.
        -11    1    3    3    0    0 -0.46792511618E+01  0.27252244719E+01 -0.59796882612E+01  0.80671501672E+01  0.51100000000E-03 0.  1.
         12    1    3    3    0    0 -0.72635539786E+00  0.10309498975E+01 -0.55148005180E+01  0.56571613560E+01  0.00000000000E+00 0. -1.
</event>
<event>
 7    1  0.1543346E-008  0.4614232E+02  0.7816164E-02  0.1320468E+00
        -11   -1    0    0    0    0  0.00000000000E+00  0.00000000000E+00  0.45593999997E+02  0.45594000000E+02  0.51100000000E-03 0.  1.
         11   -1    0    0    0    0 -0.00000000000E+00 -0.00000000000E+00 -0.45593999997E+02  0.45594000000E+02  0.51100000000E-03 0. -1.
    9900012    2    1    2    0    0  0.47831789729E+01  0.88743082795E+01 -0.43903087483E+02  0.46142320528E+02  0.10000025231E+02 0.  0.
        -12    1    1    2    0    0 -0.47831789729E+01 -0.88743082795E+01  0.43903087483E+02  0.45045679472E+02  0.00000000000E+00 0.  1.
         11    1    3    3    0    0 -0.12890238662E+01 -0.89895810192E+00 -0.12247620280E+02  0.12348032676E+02  0.51100000000E-03 0. -1.
        -11    1    3    3    0    0  0.16959823215E+01  0.87680148006E+00 -0.55760864819E+01  0.58938847618E+01  0.51100000000E-03 0.  1.
         12    1    3    3    0    0  0.43762205176E+01  0.88964649013E+01 -0.26079380722E+02  0.27900403090E+02  0.00000000000E+00 0. -1.
</event>
<event>
 7    1  0.1543346E-008  0.4614232E+02  0.7816164E-02  0.1320468E+00
        -11   -1    0    0    0    0  0.00000000000E+00  0.00000000000E+00  0.45593999997E+02  0.45594000000E+02  0.51100000000E-03 0. -1.
         11   -1    0    0    0    0 -0.00000000000E+00 -0.00000000000E+00 -0.45593999997E+02  0.45594000000E+02  0.51100000000E-03 0.  1.
    9900012    2    1    2    0    0  0.32147442201E+02  0.57669618078E+01  0.31022531540E+02  0.46142319278E+02  0.10000013833E+02 0.  0.
        -12    1    1    2    0    0 -0.32147442201E+02 -0.57669618078E+01 -0.31022531540E+02  0.45045680722E+02  0.00000000000E+00 0.  1.
         11    1    3    3    0    0  0.13722784196E+02  0.36449067023E+01  0.14005372244E+02  0.19943685791E+02  0.51100000000E-03 0. -1.
        -11    1    3    3    0    0  0.78580220399E+01  0.86034338627E+00  0.26867610276E+01  0.83490949332E+01  0.51100000000E-03 0.  1.
        -12    1    3    3    0    0  0.10566635965E+02  0.12617117192E+01  0.14330398268E+02  0.17849538554E+02  0.00000000000E+00 0.  1.
</event>
<event>
 7    1  0.1543346E-008  0.4614232E+02  0.7816164E-02  0.1320468E+00
        -11   -1    0    0    0    0  0.00000000000E+00  0.00000000000E+00  0.45593999997E+02  0.45594000000E+02  0.51100000000E-03 0.  1.
         11   -1    0    0    0    0 -0.00000000000E+00 -0.00000000000E+00 -0.45593999997E+02  0.45594000000E+02  0.51100000000E-03 0. -1.
    9900012    2    1    2    0    0 -0.25756679160E+02 -0.22262182942E+02 -0.29497493796E+02  0.46142318176E+02  0.10000003788E+02 0.  0.
        -12    1    1    2    0    0  0.25756679160E+02  0.22262182942E+02  0.29497493796E+02  0.45045681824E+02  0.00000000000E+00 0.  1.
         11    1    3    3    0    0 -0.16854719612E+02 -0.13348184200E+02 -0.15951732327E+02  0.26771502743E+02  0.51100000000E-03 0. -1.
        -11    1    3    3    0    0 -0.18054778142E+01 -0.18438575873E+01 -0.68546419316E+01  0.73243209386E+01  0.51100000000E-03 0.  1.
        -12    1    3    3    0    0 -0.70964817342E+01 -0.70701411544E+01 -0.66911195374E+01  0.12046494495E+02  0.00000000000E+00 0.  1.
</event>
<event>
 7    1  0.1543346E-008  0.4614232E+02  0.7816164E-02  0.1320468E+00
        -11   -1    0    0    0    0  0.00000000000E+00  0.00000000000E+00  0.45593999997E+02  0.45594000000E+02  0.51100000000E-03 0. -1.
         11   -1    0    0    0    0 -0.00000000000E+00 -0.00000000000E+00 -0.45593999997E+02  0.45594000000E+02  0.51100000000E-03 0.  1.
    9900012    2    1    2    0    0  0.35735805197E+01 -0.44577491058E+02  0.54027992555E+01  0.46142318447E+02  0.10000006256E+02 0.  0.
        -12    1    1    2    0    0 -0.35735805197E+01  0.44577491058E+02 -0.54027992555E+01  0.45045681553E+02  0.00000000000E+00 0.  1.
         11    1    3    3    0    0 -0.95808087843E+00 -0.16694001403E+01  0.10807640017E+01  0.22074571087E+01  0.51100000000E-03 0. -1.
        -11    1    3    3    0    0  0.24440839554E+01 -0.17612826219E+02 -0.16577335760E+01  0.17858703052E+02  0.51100000000E-03 0.  1.
        -12    1    3    3    0    0  0.20875774428E+01 -0.25295264698E+02  0.59797688297E+01  0.26076158287E+02  0.00000000000E+00 0.  1.
</event>
<event>
 7    1  0.1543346E-008  0.4614232E+02  0.7816164E-02  0.1320468E+00
        -11   -1    0    0    0    0  0.00000000000E+00  0.00000000000E+00  0.45593999997E+02  0.45594000000E+02  0.51100000000E-03 0. -1.
         11   -1    0    0    0    0 -0.00000000000E+00 -0.00000000000E+00 -0.45593999997E+02  0.45594000000E+02  0.51100000000E-03 0.  1.
    9900012    2    1    2    0    0  0.10096512955E+02 -0.39859259715E+02 -0.18396014038E+02  0.46142317727E+02  0.99999996923E+01 0.  0.
        -12    1    1    2    0    0 -0.10096512955E+02  0.39859259715E+02  0.18396014038E+02  0.45045682273E+02  0.00000000000E+00 0.  1.
         11    1    3    3    0    0  0.84553106488E+01 -0.22355192179E+02 -0.68648407977E+01  0.24867105480E+02  0.51100000000E-03 0. -1.
        -11    1    3    3    0    0 -0.93246857494E+00 -0.36696604404E+01 -0.20293064748E+01  0.42958107990E+01  0.51100000000E-03 0.  1.
         12    1    3    3    0    0  0.25736708814E+01 -0.13834407096E+02 -0.95018667658E+01  0.16979401448E+02  0.00000000000E+00 0. -1.
</event>
<event>
 7    1  0.1543346E-008  0.4614232E+02  0.7816164E-02  0.1320468E+00
        -11   -1    0    0    0    0  0.00000000000E+00  0.00000000000E+00  0.45593999997E+02  0.45594000000E+02  0.51100000000E-03 0.  1.
         11   -1    0    0    0    0 -0.00000000000E+00 -0.00000000000E+00 -0.45593999997E+02  0.45594000000E+02  0.51100000000E-03 0. -1.
    9900012    2    1    2    0    0 -0.23597925265E+02 -0.12068269116E+02 -0.36422633771E+02  0.46142318219E+02  0.10000004177E+02 0.  0.
        -12    1    1    2    0    0  0.23597925265E+02  0.12068269116E+02  0.36422633771E+02  0.45045681781E+02  0.00000000000E+00 0.  1.
         11    1    3    3    0    0 -0.18753796394E+02 -0.99638803760E+01 -0.32646135404E+02  0.38945525396E+02  0.51100000000E-03 0. -1.
        -11    1    3    3    0    0  0.27538155286E+00 -0.24234867828E+00  0.23135456321E+00  0.43369698702E+00  0.51100000000E-03 0.  1.
         12    1    3    3    0    0 -0.51195104239E+01 -0.18620400616E+01 -0.40078529307E+01  0.67630958359E+01  0.00000000000E+00 0. -1.
</event>
<event>
 7    1  0.1543346E-008  0.4614232E+02  0.7816164E-02  0.1320468E+00
        -11   -1    0    0    0    0  0.00000000000E+00  0.00000000000E+00  0.45593999997E+02  0.45594000000E+02  0.51100000000E-03 0.  1.
         11   -1    0    0    0    0 -0.00000000000E+00 -0.00000000000E+00 -0.45593999997E+02  0.45594000000E+02  0.51100000000E-03 0. -1.
    9900012    2    1    2    0    0  0.10280298225E+02 -0.27669273681E+02 -0.34027051325E+02  0.46142318082E+02  0.10000002923E+02 0.  0.
        -12    1    1    2    0    0 -0.10280298225E+02  0.27669273681E+02  0.34027051325E+02  0.45045681918E+02  0.00000000000E+00 0.  1.
         11    1    3    3    0    0  0.53260407492E+00 -0.33115470375E+00 -0.22498223090E+01  0.23356008267E+01  0.51100000000E-03 0. -1.
        -11    1    3    3    0    0  0.98797580215E+01 -0.21070724462E+02 -0.28294138478E+02  0.36635274264E+02  0.51100000000E-03 0.  1.
        -12    1    3    3    0    0 -0.13206387098E+00 -0.62673945159E+01 -0.34830905375E+01  0.71714429912E+01  0.00000000000E+00 0.  1.
</event>
<event>
 7    1  0.1543346E-008  0.4614232E+02  0.7816164E-02  0.1320468E+00
        -11   -1    0    0    0    0  0.00000000000E+00  0.00000000000E+00  0.45593999997E+02  0.45594000000E+02  0.51100000000E-03 0.  1.
         11   -1    0    0    0    0 -0.00000000000E+00 -0.00000000000E+00 -0.45593999997E+02  0.45594000000E+02  0.51100000000E-03 0. -1.
    9900012    2    1    2    0    0  0.35933437857E+02 -0.16553779654E+02 -0.21537727244E+02  0.46142320164E+02  0.10000021912E+02 0.  0.
        -12    1    1    2    0    0 -0.35933437857E+02  0.16553779654E+02  0.21537727244E+02  0.45045679836E+02  0.00000000000E+00 0.  1.
         11    1    3    3    0    0  0.59411968345E+01 -0.73195153293E-01 -0.53727361912E+01  0.80105849848E+01  0.51100000000E-03 0. -1.
        -11    1    3    3    0    0  0.14471660167E+02 -0.57404492044E+01 -0.59198114973E+01  0.16656106192E+02  0.51100000000E-03 0.  1.
         12    1    3    3    0    0  0.15520580856E+02 -0.10740135297E+02 -0.10245179555E+02  0.21475628988E+02  0.00000000000E+00 0. -1.
</event>
<event>
 7    1  0.1543346E-008  0.4614232E+02  0.7816164E-02  0.1320468E+00
        -11   -1    0    0    0    0  0.00000000000E+00  0.00000000000E+00  0.45593999997E+02  0.45594000000E+02  0.51100000000E-03 0. -1.
         11   -1    0    0    0    0 -0.00000000000E+00 -0.00000000000E+00 -0.45593999997E+02  0.45594000000E+02  0.51100000000E-03 0.  1.
    9900012    2    1    2    0    0 -0.35794546003E+02  0.83203532250E+01  0.26050637020E+02  0.46142317738E+02  0.99999997852E+01 0.  0.
        -12    1    1    2    0    0  0.35794546003E+02 -0.83203532250E+01 -0.26050637020E+02  0.45045682262E+02  0.00000000000E+00 0.  1.
         11    1    3    3    0    0 -0.12202468364E+02  0.69273368529E+01  0.10574023456E+02  0.17569809401E+02  0.51100000000E-03 0. -1.
        -11    1    3    3    0    0 -0.21053437939E+02  0.72763429512E+00  0.12092490343E+02  0.24290019013E+02  0.51100000000E-03 0.  1.
        -12    1    3    3    0    0 -0.25386396996E+01  0.66538207699E+00  0.33841232210E+01  0.42824893237E+01  0.00000000000E+00 0.  1.
</event>
<event>
 7    1  0.1543346E-008  0.4614233E+02  0.7816164E-02  0.1320468E+00
        -11   -1    0    0    0    0  0.00000000000E+00  0.00000000000E+00  0.45593999997E+02  0.45594000000E+02  0.51100000000E-03 0. -1.
         11   -1    0    0    0    0 -0.00000000000E+00 -0.00000000000E+00 -0.45593999997E+02  0.45594000000E+02  0.51100000000E-03 0.  1.
    9900012    2    1    2    0    0  0.24076377858E+02  0.28420408307E+02  0.25332217203E+02  0.46142325319E+02  0.10000068916E+02 0.  0.
        -12    1    1    2    0    0 -0.24076377858E+02 -0.28420408307E+02 -0.25332217203E+02  0.45045674681E+02  0.00000000000E+00 0.  1.
         11    1    3    3    0    0  0.99189026289E+01  0.74823246146E+01  0.12378304162E+02  0.17538307364E+02  0.51100000000E-03 0. -1.
        -11    1    3    3    0    0  0.12129018699E+02  0.17683202944E+02  0.12278690348E+02  0.24709815821E+02  0.51100000000E-03 0.  1.
        -12    1    3    3    0    0  0.20284565295E+01  0.32548807479E+01  0.67522269287E+00  0.38942021340E+01  0.00000000000E+00 0.  1.
</event>
<event>
 7    1  0.1543346E-008  0.4614232E+02  0.7816164E-02  0.1320468E+00
        -11   -1    0    0    0    0  0.00000000000E+00  0.00000000000E+00  0.45593999997E+02  0.45594000000E+02  0.51100000000E-03 0.  1.
         11   -1    0    0    0    0 -0.00000000000E+00 -0.00000000000E+00 -0.45593999997E+02  0.45594000000E+02  0.51100000000E-03 0. -1.
    9900012    2    1    2    0    0  0.10198010773E+02 -0.37557233610E+02 -0.22684102467E+02  0.46142315135E+02  0.99999760550E+01 0.  0.
        -12    1    1    2    0    0 -0.10198010773E+02  0.37557233610E+02  0.22684102467E+02  0.45045684865E+02  0.00000000000E+00 0.  1.
         11    1    3    3    0    0  0.43315826716E+00 -0.15379822013E+02 -0.54854095264E+01  0.16334511599E+02  0.51100000000E-03 0. -1.
        -11    1    3    3    0    0  0.90577777980E+01 -0.21306812829E+02 -0.15870885861E+02  0.28069710185E+02  0.51100000000E-03 0.  1.
        -12    1    3    3    0    0  0.70707470826E+00 -0.87059876769E+00 -0.13278070795E+01  0.17380933512E+01  0.00000000000E+00 0.  1.
</event>
<event>
 7    1  0.1543346E-008  0.4614232E+02  0.7816164E-02  0.1320468E+00
        -11   -1    0    0    0    0  0.00000000000E+00  0.00000000000E+00  0.45593999997E+02  0.45594000000E+02  0.51100000000E-03 0.  1.
         11   -1    0    0    0    0 -0.00000000000E+00 -0.00000000000E+00 -0.45593999997E+02  0.45594000000E+02  0.51100000000E-03 0. -1.
    9900012    2    1    2    0    0  0.31386607956E+02  0.31299809254E+02  0.80197367064E+01  0.46142318796E+02  0.10000009434E+02 0.  0.
        -12    1    1    2    0    0 -0.31386607956E+02 -0.31299809254E+02 -0.80197367064E+01  0.45045681204E+02  0.00000000000E+00 0.  1.
         11    1    3    3    0    0  0.77509246520E+01  0.12293638306E+02  0.92965356641E+00  0.14562782419E+02  0.51100000000E-03 0. -1.
        -11    1    3    3    0    0  0.23777503313E+02  0.19040737065E+02  0.72996149283E+01  0.31324171340E+02  0.51100000000E-03 0.  1.
        -12    1    3    3    0    0 -0.14182000984E+00 -0.34566116619E-01 -0.20953178834E+00  0.25536503663E+00  0.00000000000E+00 0.  1.
</event>
<event>
 7    1  0.1543346E-008  0.4614232E+02  0.7816164E-02  0.1320468E+00
        -11   -1    0    0    0    0  0.00000000000E+00  0.00000000000E+00  0.45593999997E+02  0.45594000000E+02  0.51100000000E-03 0.  1.
         11   -1    0    0    0    0 -0.00000000000E+00 -0.00000000000E+00 -0.45593999997E+02  0.45594000000E+02  0.51100000000E-03 0. -1.
    9900012    2    1    2    0    0 -0.34895269753E+02 -0.16895697431E+02 -0.22934015314E+02  0.46142317618E+02  0.99999986911E+01 0.  0.
        -12    1    1    2    0    0  0.34895269753E+02  0.16895697431E+02  0.22934015314E+02  0.45045682382E+02  0.00000000000E+00 0.  1.
         11    1    3    3    0    0 -0.14665227309E+02 -0.44368442941E+01 -0.13220828739E+02  0.20237213052E+02  0.51100000000E-03 0. -1.
        -11    1    3    3    0    0 -0.53810297496E+01 -0.42883128606E+01 -0.13759588746E+01  0.70170058744E+01  0.51100000000E-03 0.  1.
         12    1    3    3    0    0 -0.14849012695E+02 -0.81705402766E+01 -0.83372277011E+01  0.18888098691E+02  0.00000000000E+00 0. -1.
</event>
<event>
 7    1  0.1543346E-008  0.4614231E+02  0.7816164E-02  0.1320468E+00
        -11   -1    0    0    0    0  0.00000000000E+00  0.00000000000E+00  0.45593999997E+02  0.45594000000E+02  0.51100000000E-03 0.  1.
         11   -1    0    0    0    0 -0.00000000000E+00 -0.00000000000E+00 -0.45593999997E+02  0.45594000000E+02  0.51100000000E-03 0. -1.
    9900012    2    1    2    0    0  0.90518633113E+01  0.11356192280E+02 -0.42640527601E+02  0.46142312897E+02  0.99999556475E+01 0.  0.
        -12    1    1    2    0    0 -0.90518633113E+01 -0.11356192280E+02  0.42640527601E+02  0.45045687103E+02  0.00000000000E+00 0.  1.
         11    1    3    3    0    0  0.61123141443E+01  0.20901226241E+01 -0.14703833674E+02  0.16060252854E+02  0.51100000000E-03 0. -1.
        -11    1    3    3    0    0  0.19738806221E+01  0.74165213924E+01 -0.26394122277E+02  0.27487282247E+02  0.51100000000E-03 0.  1.
        -12    1    3    3    0    0  0.96566854489E+00  0.18495482631E+01 -0.15425716498E+01  0.25947777960E+01  0.00000000000E+00 0.  1.
</event>
<event>
 7    1  0.1543346E-008  0.4614232E+02  0.7816164E-02  0.1320468E+00
        -11   -1    0    0    0    0  0.00000000000E+00  0.00000000000E+00  0.45593999997E+02  0.45594000000E+02  0.51100000000E-03 0. -1.
         11   -1    0    0    0    0 -0.00000000000E+00 -0.00000000000E+00 -0.45593999997E+02  0.45594000000E+02  0.51100000000E-03 0.  1.
    9900012    2    1    2    0    0  0.93393759318E+00  0.45029610087E+02 -0.75869743788E+00  0.46142316013E+02  0.99999840607E+01 0.  0.
        -12    1    1    2    0    0 -0.93393759318E+00 -0.45029610087E+02  0.75869743788E+00  0.45045683987E+02  0.00000000000E+00 0.  1.
         11    1    3    3    0    0 -0.13996265352E+01  0.29553749833E+02 -0.10570182250E+01  0.29605748959E+02  0.51100000000E-03 0. -1.
        -11    1    3    3    0    0  0.12659377987E+01  0.23271093761E+01 -0.17662433549E+01  0.31839680288E+01  0.51100000000E-03 0.  1.
         12    1    3    3    0    0  0.10676263296E+01  0.13148750878E+02  0.20645641420E+01  0.13352599025E+02  0.00000000000E+00 0. -1.
</event>
<event>
 7    1  0.1543346E-008  0.4614232E+02  0.7816164E-02  0.1320468E+00
        -11   -1    0    0    0    0  0.00000000000E+00  0.00000000000E+00  0.45593999997E+02  0.45594000000E+02  0.51100000000E-03 0. -1.
         11   -1    0    0    0    0 -0.00000000000E+00 -0.00000000000E+00 -0.45593999997E+02  0.45594000000E+02  0.51100000000E-03 0.  1.
    9900012    2    1    2    0    0  0.19005484261E+02  0.40590111437E+02  0.45108645425E+01  0.46142317884E+02  0.10000001116E+02 0.  0.
        -12    1    1    2    0    0 -0.19005484261E+02 -0.40590111437E+02 -0.45108645425E+01  0.45045682116E+02  0.00000000000E+00 0.  1.
         11    1    3    3    0    0  0.64859167964E+01  0.20678383920E+02  0.33179575961E+00  0.21674242015E+02  0.51100000000E-03 0. -1.
        -11    1    3    3    0    0  0.66832532761E+01  0.59494821357E+01  0.21220346483E+01  0.91959362408E+01  0.51100000000E-03 0.  1.
        -12    1    3    3    0    0  0.58363141881E+01  0.13962245381E+02  0.20570341346E+01  0.15272139628E+02  0.00000000000E+00 0.  1.
</event>
<event>
 7    1  0.1543346E-008  0.4614232E+02  0.7816164E-02  0.1320468E+00
        -11   -1    0    0    0    0  0.00000000000E+00  0.00000000000E+00  0.45593999997E+02  0.45594000000E+02  0.51100000000E-03 0. -1.
         11   -1    0    0    0    0 -0.00000000000E+00 -0.00000000000E+00 -0.45593999997E+02  0.45594000000E+02  0.51100000000E-03 0.  1.
    9900012    2    1    2    0    0  0.16297461082E+02 -0.27082286614E+02  0.32094485316E+02  0.46142317924E+02  0.10000001486E+02 0.  0.
        -12    1    1    2    0    0 -0.16297461082E+02  0.27082286614E+02 -0.32094485316E+02  0.45045682076E+02  0.00000000000E+00 0.  1.
         11    1    3    3    0    0  0.13148492853E+02 -0.13313975747E+02  0.18171943755E+02  0.26083794865E+02  0.51100000000E-03 0. -1.
        -11    1    3    3    0    0  0.28529781288E+01 -0.13070760337E+02  0.13911595244E+02  0.19300692798E+02  0.51100000000E-03 0.  1.
         12    1    3    3    0    0  0.29599010031E+00 -0.69755053023E+00  0.10946317340E-01  0.75783026039E+00  0.00000000000E+00 0. -1.
</event>
<event>
 7    1  0.1543346E-008  0.4614232E+02  0.7816164E-02  0.1320468E+00
        -11   -1    0    0    0    0  0.00000000000E+00  0.00000000000E+00  0.45593999997E+02  0.45594000000E+02  0.51100000000E-03 0.  1.
         11   -1    0    0    0    0 -0.00000000000E+00 -0.00000000000E+00 -0.45593999997E+02  0.45594000000E+02  0.51100000000E-03 0. -1.
    9900012    2    1    2    0    0  0.40717643440E+02 -0.58909311331E+01 -0.18343496219E+02  0.46142318626E+02  0.10000007888E+02 0.  0.
        -12    1    1    2    0    0 -0.40717643440E+02  0.58909311331E+01  0.18343496219E+02  0.45045681374E+02  0.00000000000E+00 0.  1.
         11    1    3    3    0    0  0.95036790037E+01 -0.40949571702E+00 -0.39538174200E+01  0.10301469497E+02  0.51100000000E-03 0. -1.
        -11    1    3    3    0    0  0.29072094752E+02 -0.55955488663E+01 -0.10525074087E+02  0.31420917319E+02  0.51100000000E-03 0.  1.
        -12    1    3    3    0    0  0.21418696838E+01  0.11411345023E+00 -0.38646047120E+01  0.44199318097E+01  0.00000000000E+00 0.  1.
</event>
<event>
 7    1  0.1543346E-008  0.4614232E+02  0.7816164E-02  0.1320468E+00
        -11   -1    0    0    0    0  0.00000000000E+00  0.00000000000E+00  0.45593999997E+02  0.45594000000E+02  0.51100000000E-03 0.  1.
         11   -1    0    0    0    0 -0.00000000000E+00 -0.00000000000E+00 -0.45593999997E+02  0.45594000000E+02  0.51100000000E-03 0. -1.
    9900012    2    1    2    0    0 -0.33643716343E+02  0.26999835906E+02 -0.12970072078E+02  0.46142316988E+02  0.99999929484E+01 0.  0.
        -12    1    1    2    0    0  0.33643716343E+02 -0.26999835906E+02  0.12970072078E+02  0.45045683012E+02  0.00000000000E+00 0.  1.
         11    1    3    3    0    0 -0.26165282677E+02  0.19042358523E+02 -0.95366492519E+01  0.33736939916E+02  0.51100000000E-03 0. -1.
        -11    1    3    3    0    0  0.26717272467E+00  0.22852545579E+01 -0.94770006547E+00  0.24883539407E+01  0.51100000000E-03 0.  1.
        -12    1    3    3    0    0 -0.77456063904E+01  0.56722228258E+01 -0.24857227609E+01  0.99170231312E+01  0.00000000000E+00 0.  1.
</event>
<event>
 7    1  0.1543346E-008  0.4614232E+02  0.7816164E-02  0.1320468E+00
        -11   -1    0    0    0    0  0.00000000000E+00  0.00000000000E+00  0.45593999997E+02  0.45594000000E+02  0.51100000000E-03 0.  1.
         11   -1    0    0    0    0 -0.00000000000E+00 -0.00000000000E+00 -0.45593999997E+02  0.45594000000E+02  0.51100000000E-03 0. -1.
    9900012    2    1    2    0    0  0.14687777412E+02 -0.31474145633E+02 -0.28683801607E+02  0.46142321814E+02  0.10000036960E+02 0.  0.
        -12    1    1    2    0    0 -0.14687777412E+02  0.31474145633E+02  0.28683801607E+02  0.45045678186E+02  0.00000000000E+00 0.  1.
         11    1    3    3    0    0  0.12954326666E+01 -0.19562454377E+01 -0.12021533090E+01  0.26363260128E+01  0.51100000000E-03 0. -1.
        -11    1    3    3    0    0  0.47872513038E+01 -0.18979015961E+02 -0.12288523562E+02  0.23111223107E+02  0.51100000000E-03 0.  1.
        -12    1    3    3    0    0  0.86050934411E+01 -0.10538884233E+02 -0.15193124736E+02  0.20394772695E+02  0.00000000000E+00 0.  1.
</event>
<event>
 7    1  0.1543346E-008  0.4614232E+02  0.7816164E-02  0.1320468E+00
        -11   -1    0    0    0    0  0.00000000000E+00  0.00000000000E+00  0.45593999997E+02  0.45594000000E+02  0.51100000000E-03 0.  1.
         11   -1    0    0    0    0 -0.00000000000E+00 -0.00000000000E+00 -0.45593999997E+02  0.45594000000E+02  0.51100000000E-03 0. -1.
    9900012    2    1    2    0    0  0.18837137856E+02 -0.24866289627E+02 -0.32495276688E+02  0.46142321745E+02  0.10000036326E+02 0.  0.
        -12    1    1    2    0    0 -0.18837137856E+02  0.24866289627E+02  0.32495276688E+02  0.45045678255E+02  0.00000000000E+00 0.  1.
         11    1    3    3    0    0  0.13430859381E+01 -0.58108050883E+01 -0.41855919456E+01  0.72861866437E+01  0.51100000000E-03 0. -1.
        -11    1    3    3    0    0  0.10149252706E+02 -0.83847300103E+01 -0.10531239617E+02  0.16858767332E+02  0.51100000000E-03 0.  1.
         12    1    3    3    0    0  0.73447992125E+01 -0.10670754529E+02 -0.17778445125E+02  0.21997367769E+02  0.00000000000E+00 0. -1.
</event>
<event>
 7    1  0.1543346E-008  0.4614232E+02  0.7816164E-02  0.1320468E+00
        -11   -1    0    0    0    0  0.00000000000E+00  0.00000000000E+00  0.45593999997E+02  0.45594000000E+02  0.51100000000E-03 0. -1.
         11   -1    0    0    0    0 -0.00000000000E+00 -0.00000000000E+00 -0.45593999997E+02  0.45594000000E+02  0.51100000000E-03 0.  1.
    9900012    2    1    2    0    0  0.18171826375E+02  0.38310570362E+02 -0.15205212424E+02  0.46142316965E+02  0.99999927378E+01 0.  0.
        -12    1    1    2    0    0 -0.18171826375E+02 -0.38310570362E+02  0.15205212424E+02  0.45045683035E+02  0.00000000000E+00 0.  1.
         11    1    3    3    0    0  0.17823943444E+02  0.28041165868E+02 -0.11829857650E+02  0.35269611217E+02  0.51100000000E-03 0. -1.
        -11    1    3    3    0    0 -0.19873400382E+00  0.79470709727E+01 -0.26213108035E+01  0.83705855732E+01  0.51100000000E-03 0.  1.
         12    1    3    3    0    0  0.54661693514E+00  0.23223335218E+01 -0.75404396993E+00  0.25021201747E+01  0.00000000000E+00 0. -1.
</event>
<event>
 7    1  0.1543346E-008  0.4614232E+02  0.7816164E-02  0.1320468E+00
        -11   -1    0    0    0    0  0.00000000000E+00  0.00000000000E+00  0.45593999997E+02  0.45594000000E+02  0.51100000000E-03 0.  1.
         11   -1    0    0    0    0 -0.00000000000E+00 -0.00000000000E+00 -0.45593999997E+02  0.45594000000E+02  0.51100000000E-03 0. -1.
    9900012    2    1    2    0    0  0.24743008774E+02  0.34354975871E+02 -0.15382867559E+02  0.46142318025E+02  0.10000002402E+02 0.  0.
        -12    1    1    2    0    0 -0.24743008774E+02 -0.34354975871E+02  0.15382867559E+02  0.45045681975E+02  0.00000000000E+00 0.  1.
         11    1    3    3    0    0  0.78948928755E+01  0.18995643604E+02 -0.56584888895E+01  0.21335001904E+02  0.51100000000E-03 0. -1.
        -11    1    3    3    0    0  0.10893719527E+02  0.95360928550E+01 -0.66104834759E+01  0.15915674164E+02  0.51100000000E-03 0.  1.
         12    1    3    3    0    0  0.59543963721E+01  0.58232394115E+01 -0.31138951940E+01  0.88916419563E+01  0.00000000000E+00 0. -1.
</event>
<event>
 7    1  0.1543346E-008  0.4614232E+02  0.7816164E-02  0.1320468E+00
        -11   -1    0    0    0    0  0.00000000000E+00  0.00000000000E+00  0.45593999997E+02  0.45594000000E+02  0.51100000000E-03 0.  1.
         11   -1    0    0    0    0 -0.00000000000E+00 -0.00000000000E+00 -0.45593999997E+02  0.45594000000E+02  0.51100000000E-03 0. -1.
    9900012    2    1    2    0    0 -0.13769663596E+02 -0.42135766841E+02 -0.80054375413E+01  0.46142317487E+02  0.99999975040E+01 0.  0.
        -12    1    1    2    0    0  0.13769663596E+02  0.42135766841E+02  0.80054375413E+01  0.45045682513E+02  0.00000000000E+00 0.  1.
         11    1    3    3    0    0 -0.51606795743E+01 -0.17967909278E+02 -0.38933450754E+01  0.19095457932E+02  0.51100000000E-03 0. -1.
        -11    1    3    3    0    0 -0.11853436684E+01 -0.88131542558E+01  0.16507382899E+01  0.90444272739E+01  0.51100000000E-03 0.  1.
        -12    1    3    3    0    0 -0.74236403529E+01 -0.15354703307E+02 -0.57628307558E+01  0.18002432281E+02  0.00000000000E+00 0.  1.
</event>
<event>
 7    1  0.1543346E-008  0.4614232E+02  0.7816164E-02  0.1320468E+00
        -11   -1    0    0    0    0  0.00000000000E+00  0.00000000000E+00  0.45593999997E+02  0.45594000000E+02  0.51100000000E-03 0. -1.
         11   -1    0    0    0    0 -0.00000000000E+00 -0.00000000000E+00 -0.45593999997E+02  0.45594000000E+02  0.51100000000E-03 0.  1.
    9900012    2    1    2    0    0 -0.37029623353E+02 -0.77109630460E+01  0.24463471784E+02  0.46142318648E+02  0.10000008083E+02 0.  0.
        -12    1    1    2    0    0  0.37029623353E+02  0.77109630460E+01 -0.24463471784E+02  0.45045681352E+02  0.00000000000E+00 0.  1.
         11    1    3    3    0    0 -0.19255721107E+02 -0.46662846264E+01  0.15868038026E+02  0.25384082387E+02  0.51100000000E-03 0. -1.
        -11    1    3    3    0    0 -0.85266368171E+00 -0.16904219009E+01  0.54160889321E+00  0.19692389422E+01  0.51100000000E-03 0.  1.
        -12    1    3    3    0    0 -0.16921238565E+02 -0.13542565186E+01  0.80538248642E+01  0.18788997319E+02  0.00000000000E+00 0.  1.
</event>
<event>
 7    1  0.1543346E-008  0.4614232E+02  0.7816164E-02  0.1320468E+00
        -11   -1    0    0    0    0  0.00000000000E+00  0.00000000000E+00  0.45593999997E+02  0.45594000000E+02  0.51100000000E-03 0. -1.
         11   -1    0    0    0    0 -0.00000000000E+00 -0.00000000000E+00 -0.45593999997E+02  0.45594000000E+02  0.51100000000E-03 0.  1.
    9900012    2    1    2    0    0  0.16137215031E+02 -0.11111668755E+02  0.40561491748E+02  0.46142317584E+02  0.99999983891E+01 0.  0.
        -12    1    1    2    0    0 -0.16137215031E+02  0.11111668755E+02 -0.40561491748E+02  0.45045682416E+02  0.00000000000E+00 0.  1.
         11    1    3    3    0    0  0.68134126473E+01 -0.90449723599E+01  0.22291322505E+02  0.25002743373E+02  0.51100000000E-03 0. -1.
        -11    1    3    3    0    0  0.45478447340E+01 -0.13187856756E+01  0.13668233850E+02  0.14465223960E+02  0.51100000000E-03 0.  1.
         12    1    3    3    0    0  0.47759576493E+01 -0.74791071940E+00  0.46019353924E+01  0.66743502507E+01  0.00000000000E+00 0. -1.
</event>
<event>
 7    1  0.1543346E-008  0.4614232E+02  0.7816164E-02  0.1320468E+00
        -11   -1    0    0    0    0  0.00000000000E+00  0.00000000000E+00  0.45593999997E+02  0.45594000000E+02  0.51100000000E-03 0.  1.
         11   -1    0    0    0    0 -0.00000000000E+00 -0.00000000000E+00 -0.45593999997E+02  0.45594000000E+02  0.51100000000E-03 0. -1.
    9900012    2    1    2    0    0  0.11826643367E+02 -0.10443377136E+02 -0.42192177108E+02  0.46142318426E+02  0.10000006065E+02 0.  0.
        -12    1    1    2    0    0 -0.11826643367E+02  0.10443377136E+02  0.42192177108E+02  0.45045681574E+02  0.00000000000E+00 0.  1.
         11    1    3    3    0    0  0.64320919894E+01 -0.90286163496E+01 -0.21712982485E+02  0.24379116662E+02  0.51100000000E-03 0. -1.
        -11    1    3    3    0    0  0.55470306843E+01 -0.21673546847E+01 -0.19976699485E+02  0.20845515065E+02  0.51100000000E-03 0.  1.
        -12    1    3    3    0    0 -0.15247930677E+00  0.75259389831E+00 -0.50249513757E+00  0.91768669928E+00  0.00000000000E+00 0.  1.
</event>
<event>
 7    1  0.1543346E-008  0.4614232E+02  0.7816164E-02  0.1320468E+00
        -11   -1    0    0    0    0  0.00000000000E+00  0.00000000000E+00  0.45593999997E+02  0.45594000000E+02  0.51100000000E-03 0.  1.
         11   -1    0    0    0    0 -0.00000000000E+00 -0.00000000000E+00 -0.45593999997E+02  0.45594000000E+02  0.51100000000E-03 0. -1.
    9900012    2    1    2    0    0  0.12306881093E+02 -0.18544818199E+02 -0.39163043192E+02  0.46142317007E+02  0.99999931214E+01 0.  0.
        -12    1    1    2    0    0 -0.12306881093E+02  0.18544818199E+02  0.39163043192E+02  0.45045682993E+02  0.00000000000E+00 0.  1.
         11    1    3    3    0    0  0.97760766704E+01 -0.13111712052E+02 -0.33185370184E+02  0.36996722321E+02  0.51100000000E-03 0. -1.
        -11    1    3    3    0    0  0.32274041900E+01 -0.32432148755E+01 -0.44741610700E+01  0.63994295117E+01  0.51100000000E-03 0.  1.
         12    1    3    3    0    0 -0.69659976750E+00 -0.21898912706E+01 -0.15035119383E+01  0.27461651738E+01  0.00000000000E+00 0. -1.
</event>
<event>
 7    1  0.1543346E-008  0.4614232E+02  0.7816164E-02  0.1320468E+00
        -11   -1    0    0    0    0  0.00000000000E+00  0.00000000000E+00  0.45593999997E+02  0.45594000000E+02  0.51100000000E-03 0.  1.
         11   -1    0    0    0    0 -0.00000000000E+00 -0.00000000000E+00 -0.45593999997E+02  0.45594000000E+02  0.51100000000E-03 0. -1.
    9900012    2    1    2    0    0  0.92145570047E+01 -0.41764972927E+02 -0.14138333462E+02  0.46142317660E+02  0.99999990801E+01 0.  0.
        -12    1    1    2    0    0 -0.92145570047E+01  0.41764972927E+02  0.14138333462E+02  0.45045682340E+02  0.00000000000E+00 0.  1.
         11    1    3    3    0    0  0.10285274348E+02 -0.27835468281E+02 -0.84045072148E+01  0.30842112518E+02  0.51100000000E-03 0. -1.
        -11    1    3    3    0    0 -0.10466169201E+00 -0.11682791868E+02 -0.52433176131E+01  0.12805895507E+02  0.51100000000E-03 0.  1.
         12    1    3    3    0    0 -0.96605565163E+00 -0.22467127789E+01 -0.49050863366E+00  0.24943096345E+01  0.00000000000E+00 0. -1.
</event>
<event>
 7    1  0.1543346E-008  0.4614230E+02  0.7816164E-02  0.1320468E+00
        -11   -1    0    0    0    0  0.00000000000E+00  0.00000000000E+00  0.45593999997E+02  0.45594000000E+02  0.51100000000E-03 0. -1.
         11   -1    0    0    0    0 -0.00000000000E+00 -0.00000000000E+00 -0.45593999997E+02  0.45594000000E+02  0.51100000000E-03 0.  1.
    9900012    2    1    2    0    0  0.23402372374E+02 -0.34279692110E+02  0.17502757216E+02  0.46142302825E+02  0.99998637960E+01 0.  0.
        -12    1    1    2    0    0 -0.23402372374E+02  0.34279692110E+02 -0.17502757216E+02  0.45045697175E+02  0.00000000000E+00 0.  1.
         11    1    3    3    0    0  0.10983618063E+02 -0.14221303192E+02  0.45345025155E+01  0.18532324289E+02  0.51100000000E-03 0. -1.
        -11    1    3    3    0    0 -0.62277609075E+00 -0.16009816806E+01  0.14292795190E+01  0.22346884806E+01  0.51100000000E-03 0.  1.
        -12    1    3    3    0    0  0.13041530401E+02 -0.18457407237E+02  0.11538975181E+02  0.25375290055E+02  0.00000000000E+00 0.  1.
</event>
<event>
 7    1  0.1543346E-008  0.4614232E+02  0.7816164E-02  0.1320468E+00
        -11   -1    0    0    0    0  0.00000000000E+00  0.00000000000E+00  0.45593999997E+02  0.45594000000E+02  0.51100000000E-03 0.  1.
         11   -1    0    0    0    0 -0.00000000000E+00 -0.00000000000E+00 -0.45593999997E+02  0.45594000000E+02  0.51100000000E-03 0. -1.
    9900012    2    1    2    0    0 -0.17113999665E+02 -0.30105075888E+02 -0.28808139595E+02  0.46142317791E+02  0.10000000274E+02 0.  0.
        -12    1    1    2    0    0  0.17113999665E+02  0.30105075888E+02  0.28808139595E+02  0.45045682209E+02  0.00000000000E+00 0.  1.
         11    1    3    3    0    0 -0.88328663032E+01 -0.21620799736E+02 -0.21240576007E+02  0.31569614786E+02  0.51100000000E-03 0. -1.
        -11    1    3    3    0    0 -0.17845624943E+01 -0.22248218820E-01 -0.10270495140E+01  0.20591234166E+01  0.51100000000E-03 0.  1.
         12    1    3    3    0    0 -0.64965708671E+01 -0.84620279324E+01 -0.65405140738E+01  0.12513579588E+02  0.00000000000E+00 0. -1.
</event>
<event>
 7    1  0.1543346E-008  0.4614232E+02  0.7816164E-02  0.1320468E+00
        -11   -1    0    0    0    0  0.00000000000E+00  0.00000000000E+00  0.45593999997E+02  0.45594000000E+02  0.51100000000E-03 0.  1.
         11   -1    0    0    0    0 -0.00000000000E+00 -0.00000000000E+00 -0.45593999997E+02  0.45594000000E+02  0.51100000000E-03 0. -1.
    9900012    2    1    2    0    0  0.16929375737E+02  0.10640319380E+02 -0.40364505169E+02  0.46142318333E+02  0.10000005211E+02 0.  0.
        -12    1    1    2    0    0 -0.16929375737E+02 -0.10640319380E+02  0.40364505169E+02  0.45045681667E+02  0.00000000000E+00 0.  1.
         11    1    3    3    0    0 -0.44211986060E+00 -0.23695008934E+00 -0.45299953913E+01  0.45576829445E+01  0.51100000000E-03 0.  1.
        -11    1    3    3    0    0  0.13583393265E+02  0.59906067648E+01 -0.23702386804E+02  0.27967822269E+02  0.51100000000E-03 0. -1.
         12    1    3    3    0    0  0.37881023321E+01  0.48866627042E+01 -0.12132122974E+02  0.13616813119E+02  0.00000000000E+00 0. -1.
</event>
<event>
 7    1  0.1543346E-008  0.4614231E+02  0.7816164E-02  0.1320468E+00
        -11   -1    0    0    0    0  0.00000000000E+00  0.00000000000E+00  0.45593999997E+02  0.45594000000E+02  0.51100000000E-03 0.  1.
         11   -1    0    0    0    0 -0.00000000000E+00 -0.00000000000E+00 -0.45593999997E+02  0.45594000000E+02  0.51100000000E-03 0. -1.
    9900012    2    1    2    0    0 -0.27352389610E+02 -0.24937781380E+02 -0.25672313536E+02  0.46142313860E+02  0.99999644245E+01 0.  0.
        -12    1    1    2    0    0  0.27352389610E+02  0.24937781380E+02  0.25672313536E+02  0.45045686140E+02  0.00000000000E+00 0.  1.
         11    1    3    3    0    0 -0.27438537911E+01 -0.43482456452E+01 -0.58186324435E+01  0.77648218004E+01  0.51100000000E-03 0.  1.
        -11    1    3    3    0    0 -0.13070790024E+02 -0.12380768829E+02 -0.72081463479E+01  0.19392946210E+02  0.51100000000E-03 0. -1.
         12    1    3    3    0    0 -0.11537745795E+02 -0.82087669056E+01 -0.12645534745E+02  0.18984545850E+02  0.00000000000E+00 0. -1.
</event>
<event>
 7    1  0.1543346E-008  0.4614232E+02  0.7816164E-02  0.1320468E+00
        -11   -1    0    0    0    0  0.00000000000E+00  0.00000000000E+00  0.45593999997E+02  0.45594000000E+02  0.51100000000E-03 0. -1.
         11   -1    0    0    0    0 -0.00000000000E+00 -0.00000000000E+00 -0.45593999997E+02  0.45594000000E+02  0.51100000000E-03 0.  1.
    9900012    2    1    2    0    0  0.11986203347E+01 -0.10417930518E+02  0.43808030572E+02  0.46142317526E+02  0.99999978538E+01 0.  0.
        -12    1    1    2    0    0 -0.11986203347E+01  0.10417930518E+02 -0.43808030572E+02  0.45045682474E+02  0.00000000000E+00 0.  1.
         11    1    3    3    0    0  0.24205100176E+01 -0.36549932164E+01  0.83665189459E+01  0.94454477761E+01  0.51100000000E-03 0. -1.
        -11    1    3    3    0    0  0.16083423700E+01 -0.63551176436E+01  0.26990908488E+02  0.27775590483E+02  0.51100000000E-03 0.  1.
        -12    1    3    3    0    0 -0.28302320530E+01 -0.40781965777E+00  0.84506031384E+01  0.89212792665E+01  0.00000000000E+00 0.  1.
</event>
<event>
 7    1  0.1543346E-008  0.4614232E+02  0.7816164E-02  0.1320468E+00
        -11   -1    0    0    0    0  0.00000000000E+00  0.00000000000E+00  0.45593999997E+02  0.45594000000E+02  0.51100000000E-03 0.  1.
         11   -1    0    0    0    0 -0.00000000000E+00 -0.00000000000E+00 -0.45593999997E+02  0.45594000000E+02  0.51100000000E-03 0. -1.
    9900012    2    1    2    0    0 -0.34968483101E+02  0.23219219169E+02 -0.16345844392E+02  0.46142316766E+02  0.99999909238E+01 0.  0.
        -12    1    1    2    0    0  0.34968483101E+02 -0.23219219169E+02  0.16345844392E+02  0.45045683234E+02  0.00000000000E+00 0.  1.
         11    1    3    3    0    0 -0.34926636662E+02  0.22499538323E+02 -0.16017887951E+02  0.44527204134E+02  0.51100000000E-03 0. -1.
        -11    1    3    3    0    0 -0.40666886278E+00 -0.22742274738E+00 -0.37645581161E+00  0.59901578376E+00  0.51100000000E-03 0.  1.
         12    1    3    3    0    0  0.36482242425E+00  0.94710359247E+00  0.48499370836E-01  0.10160968483E+01  0.00000000000E+00 0. -1.
</event>
<event>
 7    1  0.1543346E-008  0.4614232E+02  0.7816164E-02  0.1320468E+00
        -11   -1    0    0    0    0  0.00000000000E+00  0.00000000000E+00  0.45593999997E+02  0.45594000000E+02  0.51100000000E-03 0. -1.
         11   -1    0    0    0    0 -0.00000000000E+00 -0.00000000000E+00 -0.45593999997E+02  0.45594000000E+02  0.51100000000E-03 0.  1.
    9900012    2    1    2    0    0 -0.40228067978E+02  0.20236045402E+02  0.11482266476E+01  0.46142318617E+02  0.10000007808E+02 0.  0.
        -12    1    1    2    0    0  0.40228067978E+02 -0.20236045402E+02 -0.11482266476E+01  0.45045681383E+02  0.00000000000E+00 0.  1.
         11    1    3    3    0    0 -0.15077696326E+02  0.11787096192E+02  0.13725367499E+01  0.19187402652E+02  0.51100000000E-03 0. -1.
        -11    1    3    3    0    0 -0.86134618823E+01  0.65608594602E+00  0.56433672682E+00  0.86568268187E+01  0.51100000000E-03 0.  1.
        -12    1    3    3    0    0 -0.16536909770E+02  0.77928632643E+01 -0.78864682911E+00  0.18298089147E+02  0.00000000000E+00 0.  1.
</event>
<event>
 7    1  0.1543346E-008  0.4614231E+02  0.7816164E-02  0.1320468E+00
        -11   -1    0    0    0    0  0.00000000000E+00  0.00000000000E+00  0.45593999997E+02  0.45594000000E+02  0.51100000000E-03 0.  1.
         11   -1    0    0    0    0 -0.00000000000E+00 -0.00000000000E+00 -0.45593999997E+02  0.45594000000E+02  0.51100000000E-03 0. -1.
    9900012    2    1    2    0    0  0.53853215858E+01 -0.47898389259E+01 -0.44465374112E+02  0.46142314963E+02  0.99999744819E+01 0.  0.
        -12    1    1    2    0    0 -0.53853215858E+01  0.47898389259E+01  0.44465374112E+02  0.45045685037E+02  0.00000000000E+00 0.  1.
         11    1    3    3    0    0  0.28595672734E+00 -0.23497364690E+00 -0.65531120866E+01  0.65635556023E+01  0.51100000000E-03 0. -1.
        -11    1    3    3    0    0  0.14213877308E+00  0.25622470499E+01 -0.64180600388E+01  0.69120769888E+01  0.51100000000E-03 0.  1.
        -12    1    3    3    0    0  0.49572260854E+01 -0.71171123290E+01 -0.31494201987E+02  0.32666682372E+02  0.00000000000E+00 0.  1.
</event>
<event>
 7    1  0.1543346E-008  0.4614232E+02  0.7816164E-02  0.1320468E+00
        -11   -1    0    0    0    0  0.00000000000E+00  0.00000000000E+00  0.45593999997E+02  0.45594000000E+02  0.51100000000E-03 0.  1.
         11   -1    0    0    0    0 -0.00000000000E+00 -0.00000000000E+00 -0.45593999997E+02  0.45594000000E+02  0.51100000000E-03 0. -1.
    9900012    2    1    2    0    0  0.34028841548E+02  0.15558930532E+02  0.25081291174E+02  0.46142317151E+02  0.99999944336E+01 0.  0.
        -12    1    1    2    0    0 -0.34028841548E+02 -0.15558930532E+02 -0.25081291174E+02  0.45045682849E+02  0.00000000000E+00 0.  1.
         11    1    3    3    0    0  0.12194012423E+02  0.13700391417E+01  0.89925573534E+01  0.15213054731E+02  0.51100000000E-03 0. -1.
        -11    1    3    3    0    0  0.37044004508E+01  0.32946479846E+01  0.13153684179E+01  0.51290820210E+01  0.51100000000E-03 0.  1.
         12    1    3    3    0    0  0.18130428674E+02  0.10894243406E+02  0.14773365403E+02  0.25800180399E+02  0.00000000000E+00 0. -1.
</event>
<event>
 7    1  0.1543346E-008  0.4614232E+02  0.7816164E-02  0.1320468E+00
        -11   -1    0    0    0    0  0.00000000000E+00  0.00000000000E+00  0.45593999997E+02  0.45594000000E+02  0.51100000000E-03 0. -1.
         11   -1    0    0    0    0 -0.00000000000E+00 -0.00000000000E+00 -0.45593999997E+02  0.45594000000E+02  0.51100000000E-03 0.  1.
    9900012    2    1    2    0    0  0.17915834359E+02 -0.28165275341E+02  0.30246547622E+02  0.46142317645E+02  0.99999989388E+01 0.  0.
        -12    1    1    2    0    0 -0.17915834359E+02  0.28165275341E+02 -0.30246547622E+02  0.45045682355E+02  0.00000000000E+00 0.  1.
         11    1    3    3    0    0  0.56570843284E+01 -0.88365413637E+01  0.15635144563E+02  0.18829360375E+02  0.51100000000E-03 0. -1.
        -11    1    3    3    0    0  0.29137686095E+01 -0.28131469239E+01  0.32741166377E+01  0.52080402402E+01  0.51100000000E-03 0.  1.
         12    1    3    3    0    0  0.93449814209E+01 -0.16515587054E+02  0.11337286421E+02  0.22104917029E+02  0.00000000000E+00 0. -1.
</event>
<event>
 7    1  0.1543346E-008  0.4614232E+02  0.7816164E-02  0.1320468E+00
        -11   -1    0    0    0    0  0.00000000000E+00  0.00000000000E+00  0.45593999997E+02  0.45594000000E+02  0.51100000000E-03 0.  1.
         11   -1    0    0    0    0 -0.00000000000E+00 -0.00000000000E+00 -0.45593999997E+02  0.45594000000E+02  0.51100000000E-03 0. -1.
    9900012    2    1    2    0    0 -0.30566435626E+02 -0.16530784875E+02  0.28662511962E+02  0.46142318437E+02  0.10000006165E+02 0.  0.
        -12    1    1    2    0    0  0.30566435626E+02  0.16530784875E+02 -0.28662511962E+02  0.45045681563E+02  0.00000000000E+00 0.  1.
         11    1    3    3    0    0 -0.15857107206E+02 -0.12564373144E+02  0.17742073677E+02  0.26908966909E+02  0.51100000000E-03 0. -1.
        -11    1    3    3    0    0 -0.34645274642E+01 -0.14345424590E+01  0.67145782975E+00  0.38094249560E+01  0.51100000000E-03 0.  1.
         12    1    3    3    0    0 -0.11244800956E+02 -0.25318692719E+01  0.10248980455E+02  0.15423926572E+02  0.00000000000E+00 0. -1.
</event>
<event>
 7    1  0.1543346E-008  0.4614232E+02  0.7816164E-02  0.1320468E+00
        -11   -1    0    0    0    0  0.00000000000E+00  0.00000000000E+00  0.45593999997E+02  0.45594000000E+02  0.51100000000E-03 0.  1.
         11   -1    0    0    0    0 -0.00000000000E+00 -0.00000000000E+00 -0.45593999997E+02  0.45594000000E+02  0.51100000000E-03 0. -1.
    9900012    2    1    2    0    0  0.43066061687E+02 -0.10738806453E+02 -0.76880356058E+01  0.46142317357E+02  0.99999963171E+01 0.  0.
        -12    1    1    2    0    0 -0.43066061687E+02  0.10738806453E+02  0.76880356058E+01  0.45045682643E+02  0.00000000000E+00 0.  1.
         11    1    3    3    0    0  0.27080821330E+02 -0.69177989581E+01 -0.48957187114E+01  0.28375956165E+02  0.51100000000E-03 0. -1.
        -11    1    3    3    0    0  0.11180782220E+02 -0.45235425645E+01 -0.40979260828E+01  0.12738340819E+02  0.51100000000E-03 0.  1.
         12    1    3    3    0    0  0.48044581371E+01  0.70253506972E+00  0.13056091885E+01  0.50280203728E+01  0.00000000000E+00 0. -1.
</event>
<event>
 7    1  0.1543346E-008  0.4614232E+02  0.7816164E-02  0.1320468E+00
        -11   -1    0    0    0    0  0.00000000000E+00  0.00000000000E+00  0.45593999997E+02  0.45594000000E+02  0.51100000000E-03 0. -1.
         11   -1    0    0    0    0 -0.00000000000E+00 -0.00000000000E+00 -0.45593999997E+02  0.45594000000E+02  0.51100000000E-03 0.  1.
    9900012    2    1    2    0    0 -0.33084033926E+02  0.27609815075E+02  0.13124717302E+02  0.46142318814E+02  0.10000009600E+02 0.  0.
        -12    1    1    2    0    0  0.33084033926E+02 -0.27609815075E+02 -0.13124717302E+02  0.45045681186E+02  0.00000000000E+00 0.  1.
         11    1    3    3    0    0 -0.97273175529E+01  0.35286358484E+01  0.13516251598E+01  0.10435462067E+02  0.51100000000E-03 0. -1.
        -11    1    3    3    0    0 -0.21784416109E+02  0.21061742873E+02  0.10402076398E+02  0.32036869256E+02  0.51100000000E-03 0.  1.
         12    1    3    3    0    0 -0.15723002641E+01  0.30194363533E+01  0.13710157438E+01  0.36699874907E+01  0.00000000000E+00 0. -1.
</event>
<event>
 7    1  0.1543346E-008  0.4614232E+02  0.7816164E-02  0.1320468E+00
        -11   -1    0    0    0    0  0.00000000000E+00  0.00000000000E+00  0.45593999997E+02  0.45594000000E+02  0.51100000000E-03 0.  1.
         11   -1    0    0    0    0 -0.00000000000E+00 -0.00000000000E+00 -0.45593999997E+02  0.45594000000E+02  0.51100000000E-03 0. -1.
    9900012    2    1    2    0    0  0.29706768791E+02  0.19797662649E+02 -0.27471329341E+02  0.46142317697E+02  0.99999994137E+01 0.  0.
        -12    1    1    2    0    0 -0.29706768791E+02 -0.19797662649E+02  0.27471329341E+02  0.45045682303E+02  0.00000000000E+00 0.  1.
         11    1    3    3    0    0  0.15898089288E+02  0.87403498392E+01 -0.12225678615E+02  0.21877161063E+02  0.51100000000E-03 0. -1.
        -11    1    3    3    0    0  0.49023318218E+01  0.28887076102E+01 -0.13473769284E+01  0.58474707179E+01  0.51100000000E-03 0.  1.
         12    1    3    3    0    0  0.89063476809E+01  0.81686051999E+01 -0.13898273798E+02  0.18417685916E+02  0.00000000000E+00 0. -1.
</event>
<event>
 7    1  0.1543346E-008  0.4614232E+02  0.7816164E-02  0.1320468E+00
        -11   -1    0    0    0    0  0.00000000000E+00  0.00000000000E+00  0.45593999997E+02  0.45594000000E+02  0.51100000000E-03 0. -1.
         11   -1    0    0    0    0 -0.00000000000E+00 -0.00000000000E+00 -0.45593999997E+02  0.45594000000E+02  0.51100000000E-03 0.  1.
    9900012    2    1    2    0    0  0.44094652951E+02  0.43955187576E+01  0.80903954772E+01  0.46142317599E+02  0.99999985196E+01 0.  0.
        -12    1    1    2    0    0 -0.44094652951E+02 -0.43955187576E+01 -0.80903954772E+01  0.45045682401E+02  0.00000000000E+00 0.  1.
         11    1    3    3    0    0  0.29341521627E+02  0.67732723600E+00  0.30351887476E+01  0.29505864410E+02  0.51100000000E-03 0. -1.
        -11    1    3    3    0    0  0.13324646326E+01 -0.84118858133E-01  0.19216215940E+01  0.23399076458E+01  0.51100000000E-03 0.  1.
        -12    1    3    3    0    0  0.13420666691E+02  0.38023103798E+01  0.31335851356E+01  0.14296545543E+02  0.00000000000E+00 0.  1.
</event>
<event>
 7    1  0.1543346E-008  0.4614232E+02  0.7816164E-02  0.1320468E+00
        -11   -1    0    0    0    0  0.00000000000E+00  0.00000000000E+00  0.45593999997E+02  0.45594000000E+02  0.51100000000E-03 0.  1.
         11   -1    0    0    0    0 -0.00000000000E+00 -0.00000000000E+00 -0.45593999997E+02  0.45594000000E+02  0.51100000000E-03 0. -1.
    9900012    2    1    2    0    0  0.44087174459E+02  0.56065934417E+01 -0.73485118419E+01  0.46142317986E+02  0.10000002053E+02 0.  0.
        -12    1    1    2    0    0 -0.44087174459E+02 -0.56065934417E+01  0.73485118419E+01  0.45045682014E+02  0.00000000000E+00 0.  1.
         11    1    3    3    0    0  0.10966688381E+02  0.17637998578E+01 -0.62875900685E+01  0.12763738994E+02  0.51100000000E-03 0. -1.
        -11    1    3    3    0    0  0.17196512257E+02  0.20678351977E+01  0.76743684595E-02  0.17320393626E+02  0.51100000000E-03 0.  1.
         12    1    3    3    0    0  0.15923973822E+02  0.17749583861E+01 -0.10685961419E+01  0.16058185366E+02  0.00000000000E+00 0. -1.
</event>
<event>
 7    1  0.1543346E-008  0.4614232E+02  0.7816164E-02  0.1320468E+00
        -11   -1    0    0    0    0  0.00000000000E+00  0.00000000000E+00  0.45593999997E+02  0.45594000000E+02  0.51100000000E-03 0.  1.
         11   -1    0    0    0    0 -0.00000000000E+00 -0.00000000000E+00 -0.45593999997E+02  0.45594000000E+02  0.51100000000E-03 0. -1.
    9900012    2    1    2    0    0 -0.12040535226E+02 -0.86242091297E+00 -0.43398102122E+02  0.46142317341E+02  0.99999961710E+01 0.  0.
        -12    1    1    2    0    0  0.12040535226E+02  0.86242091297E+00  0.43398102122E+02  0.45045682659E+02  0.00000000000E+00 0.  1.
         11    1    3    3    0    0 -0.39267782938E-01  0.20533952714E+01 -0.39861860236E+01  0.44841558153E+01  0.51100000000E-03 0. -1.
        -11    1    3    3    0    0  0.96971823889E-01 -0.54747736670E+00 -0.26481530260E+00  0.61584284301E+00  0.51100000000E-03 0.  1.
         12    1    3    3    0    0 -0.12098239267E+02 -0.23683388177E+01 -0.39147100796E+02  0.41042318683E+02  0.00000000000E+00 0. -1.
</event>
<event>
 7    1  0.1543346E-008  0.4614232E+02  0.7816164E-02  0.1320468E+00
        -11   -1    0    0    0    0  0.00000000000E+00  0.00000000000E+00  0.45593999997E+02  0.45594000000E+02  0.51100000000E-03 0.  1.
         11   -1    0    0    0    0 -0.00000000000E+00 -0.00000000000E+00 -0.45593999997E+02  0.45594000000E+02  0.51100000000E-03 0. -1.
    9900012    2    1    2    0    0  0.11489546468E+02  0.35986514877E+02 -0.24537208828E+02  0.46142317098E+02  0.99999939526E+01 0.  0.
        -12    1    1    2    0    0 -0.11489546468E+02 -0.35986514877E+02  0.24537208828E+02  0.45045682902E+02  0.00000000000E+00 0.  1.
         11    1    3    3    0    0  0.94038421385E+01  0.24262690512E+02 -0.18919438960E+02  0.32172279507E+02  0.51100000000E-03 0. -1.
        -11    1    3    3    0    0  0.30042397933E+01  0.39516535419E+01 -0.22399997035E+01  0.54459729510E+01  0.51100000000E-03 0.  1.
        -12    1    3    3    0    0 -0.91853546355E+00  0.77721708230E+01 -0.33777701644E+01  0.85240646398E+01  0.00000000000E+00 0.  1.
</event>
<event>
 7    1  0.1543346E-008  0.4614232E+02  0.7816164E-02  0.1320468E+00
        -11   -1    0    0    0    0  0.00000000000E+00  0.00000000000E+00  0.45593999997E+02  0.45594000000E+02  0.51100000000E-03 0.  1.
         11   -1    0    0    0    0 -0.00000000000E+00 -0.00000000000E+00 -0.45593999997E+02  0.45594000000E+02  0.51100000000E-03 0. -1.
    9900012    2    1    2    0    0  0.15869119272E+02 -0.36898963021E+02  0.20389972446E+02  0.46142318799E+02  0.10000009466E+02 0.  0.
        -12    1    1    2    0    0 -0.15869119272E+02  0.36898963021E+02 -0.20389972446E+02  0.45045681201E+02  0.00000000000E+00 0.  1.
         11    1    3    3    0    0  0.11035141708E+02 -0.16598335721E+02  0.13666620416E+02  0.24167242604E+02  0.51100000000E-03 0. -1.
        -11    1    3    3    0    0  0.12841771612E+01 -0.57987456771E+01  0.12213535963E+01  0.60635193805E+01  0.51100000000E-03 0.  1.
         12    1    3    3    0    0  0.35498004028E+01 -0.14501881623E+02  0.55019984344E+01  0.15911556815E+02  0.00000000000E+00 0. -1.
</event>
<event>
 7    1  0.1543346E-008  0.4614232E+02  0.7816164E-02  0.1320468E+00
        -11   -1    0    0    0    0  0.00000000000E+00  0.00000000000E+00  0.45593999997E+02  0.45594000000E+02  0.51100000000E-03 0.  1.
         11   -1    0    0    0    0 -0.00000000000E+00 -0.00000000000E+00 -0.45593999997E+02  0.45594000000E+02  0.51100000000E-03 0. -1.
    9900012    2    1    2    0    0 -0.28317553548E+02  0.44418558474E+01 -0.34749093374E+02  0.46142318601E+02  0.10000007662E+02 0.  0.
        -12    1    1    2    0    0  0.28317553548E+02 -0.44418558474E+01  0.34749093374E+02  0.45045681399E+02  0.00000000000E+00 0.  1.
         11    1    3    3    0    0 -0.91672692212E+01  0.24601745145E+01 -0.56848429796E+01  0.11063847594E+02  0.51100000000E-03 0. -1.
        -11    1    3    3    0    0 -0.79461401257E+01 -0.10508581175E+01 -0.12622685479E+02  0.14952512653E+02  0.51100000000E-03 0.  1.
         12    1    3    3    0    0 -0.11204144201E+02  0.30325394504E+01 -0.16441564916E+02  0.20125958354E+02  0.00000000000E+00 0. -1.
</event>
<event>
 7    1  0.1543346E-008  0.4614232E+02  0.7816164E-02  0.1320468E+00
        -11   -1    0    0    0    0  0.00000000000E+00  0.00000000000E+00  0.45593999997E+02  0.45594000000E+02  0.51100000000E-03 0. -1.
         11   -1    0    0    0    0 -0.00000000000E+00 -0.00000000000E+00 -0.45593999997E+02  0.45594000000E+02  0.51100000000E-03 0.  1.
    9900012    2    1    2    0    0  0.42946147848E+02 -0.11595909250E+02 -0.70906083950E+01  0.46142318146E+02  0.10000003507E+02 0.  0.
        -12    1    1    2    0    0 -0.42946147848E+02  0.11595909250E+02  0.70906083950E+01  0.45045681854E+02  0.00000000000E+00 0.  1.
         11    1    3    3    0    0  0.11243700687E+02 -0.69018769126E+00  0.12363766436E+01  0.11332510387E+02  0.51100000000E-03 0. -1.
        -11    1    3    3    0    0  0.23061210709E+02 -0.98644487209E+01 -0.57576621556E+01  0.25734752023E+02  0.51100000000E-03 0.  1.
         12    1    3    3    0    0  0.86412364513E+01 -0.10412728373E+01 -0.25693228830E+01  0.90750557357E+01  0.00000000000E+00 0. -1.
</event>
<event>
 7    1  0.1543346E-008  0.4614232E+02  0.7816164E-02  0.1320468E+00
        -11   -1    0    0    0    0  0.00000000000E+00  0.00000000000E+00  0.45593999997E+02  0.45594000000E+02  0.51100000000E-03 0.  1.
         11   -1    0    0    0    0 -0.00000000000E+00 -0.00000000000E+00 -0.45593999997E+02  0.45594000000E+02  0.51100000000E-03 0. -1.
    9900012    2    1    2    0    0  0.37340486076E+01 -0.20479419347E+02 -0.39947008342E+02  0.46142320837E+02  0.10000028048E+02 0.  0.
        -12    1    1    2    0    0 -0.37340486076E+01  0.20479419347E+02  0.39947008342E+02  0.45045679163E+02  0.00000000000E+00 0.  1.
         11    1    3    3    0    0  0.14296176731E+01 -0.15620089658E+02 -0.23482840645E+02  0.28239596538E+02  0.51100000000E-03 0. -1.
        -11    1    3    3    0    0  0.35850605874E+01 -0.32690100425E+01 -0.13073444241E+02  0.13944677503E+02  0.51100000000E-03 0.  1.
        -12    1    3    3    0    0 -0.12806296529E+01 -0.15903196468E+01 -0.33907234553E+01  0.39580467957E+01  0.00000000000E+00 0.  1.
</event>
<event>
 7    1  0.1543346E-008  0.4614232E+02  0.7816164E-02  0.1320468E+00
        -11   -1    0    0    0    0  0.00000000000E+00  0.00000000000E+00  0.45593999997E+02  0.45594000000E+02  0.51100000000E-03 0.  1.
         11   -1    0    0    0    0 -0.00000000000E+00 -0.00000000000E+00 -0.45593999997E+02  0.45594000000E+02  0.51100000000E-03 0. -1.
    9900012    2    1    2    0    0 -0.13331924218E+02  0.37316540300E+02 -0.21420765882E+02  0.46142316586E+02  0.99999892820E+01 0.  0.
        -12    1    1    2    0    0  0.13331924218E+02 -0.37316540300E+02  0.21420765882E+02  0.45045683414E+02  0.00000000000E+00 0.  1.
         11    1    3    3    0    0 -0.50893685608E+01  0.94770005128E+01 -0.23468895418E+01  0.11010136323E+02  0.51100000000E-03 0. -1.
        -11    1    3    3    0    0 -0.22467118114E+01  0.10250697865E+02 -0.40972061447E+01  0.11265505720E+02  0.51100000000E-03 0.  1.
         12    1    3    3    0    0 -0.59958438455E+01  0.17588841922E+02 -0.14976670195E+02  0.23866674543E+02  0.00000000000E+00 0. -1.
</event>
<event>
 7    1  0.1543346E-008  0.4614232E+02  0.7816164E-02  0.1320468E+00
        -11   -1    0    0    0    0  0.00000000000E+00  0.00000000000E+00  0.45593999997E+02  0.45594000000E+02  0.51100000000E-03 0.  1.
         11   -1    0    0    0    0 -0.00000000000E+00 -0.00000000000E+00 -0.45593999997E+02  0.45594000000E+02  0.51100000000E-03 0. -1.
    9900012    2    1    2    0    0 -0.17434590353E+02  0.39181416335E+02 -0.13782785908E+02  0.46142317475E+02  0.99999973896E+01 0.  0.
        -12    1    1    2    0    0  0.17434590353E+02 -0.39181416335E+02  0.13782785908E+02  0.45045682525E+02  0.00000000000E+00 0.  1.
         11    1    3    3    0    0 -0.22584133202E+01  0.49564430056E+01  0.92398575822E+00  0.55245368978E+01  0.51100000000E-03 0. -1.
        -11    1    3    3    0    0 -0.85989932936E+01  0.16054900668E+02 -0.97945498624E+01  0.20679355125E+02  0.51100000000E-03 0.  1.
         12    1    3    3    0    0 -0.65771837392E+01  0.18170072661E+02 -0.49122218038E+01  0.19938425452E+02  0.00000000000E+00 0. -1.
</event>
<event>
 7    1  0.1543346E-008  0.4614232E+02  0.7816164E-02  0.1320468E+00
        -11   -1    0    0    0    0  0.00000000000E+00  0.00000000000E+00  0.45593999997E+02  0.45594000000E+02  0.51100000000E-03 0.  1.
         11   -1    0    0    0    0 -0.00000000000E+00 -0.00000000000E+00 -0.45593999997E+02  0.45594000000E+02  0.51100000000E-03 0. -1.
    9900012    2    1    2    0    0 -0.20083702405E+02  0.38220151105E+02 -0.12844402442E+02  0.46142315114E+02  0.99999758572E+01 0.  0.
        -12    1    1    2    0    0  0.20083702405E+02 -0.38220151105E+02  0.12844402442E+02  0.45045684886E+02  0.00000000000E+00 0.  1.
         11    1    3    3    0    0 -0.52232701845E+01  0.10877822793E+02 -0.10893951170E+01  0.12115954858E+02  0.51100000000E-03 0. -1.
        -11    1    3    3    0    0 -0.11482043605E+02  0.24643491146E+02 -0.11950975787E+02  0.29697892245E+02  0.51100000000E-03 0.  1.
        -12    1    3    3    0    0 -0.33783886155E+01  0.26988371656E+01  0.19596846257E+00  0.43284680110E+01  0.00000000000E+00 0.  1.
</event>
<event>
 7    1  0.1543346E-008  0.4614232E+02  0.7816164E-02  0.1320468E+00
        -11   -1    0    0    0    0  0.00000000000E+00  0.00000000000E+00  0.45593999997E+02  0.45594000000E+02  0.51100000000E-03 0.  1.
         11   -1    0    0    0    0 -0.00000000000E+00 -0.00000000000E+00 -0.45593999997E+02  0.45594000000E+02  0.51100000000E-03 0. -1.
    9900012    2    1    2    0    0  0.18311205600E+02 -0.42344852257E+00 -0.41153783092E+02  0.46142318498E+02  0.10000006721E+02 0.  0.
        -12    1    1    2    0    0 -0.18311205600E+02  0.42344852257E+00  0.41153783092E+02  0.45045681502E+02  0.00000000000E+00 0.  1.
         11    1    3    3    0    0  0.99494268550E+01  0.29280085233E+01 -0.18497401138E+02  0.21206559782E+02  0.51100000000E-03 0. -1.
        -11    1    3    3    0    0  0.61780255995E+00 -0.25072380912E+01 -0.66713155569E+01  0.71536266585E+01  0.51100000000E-03 0.  1.
        -12    1    3    3    0    0  0.77439761851E+01 -0.84421895462E+00 -0.15985066397E+02  0.17782132058E+02  0.00000000000E+00 0.  1.
</event>
<event>
 7    1  0.1543346E-008  0.4614232E+02  0.7816164E-02  0.1320468E+00
        -11   -1    0    0    0    0  0.00000000000E+00  0.00000000000E+00  0.45593999997E+02  0.45594000000E+02  0.51100000000E-03 0.  1.
         11   -1    0    0    0    0 -0.00000000000E+00 -0.00000000000E+00 -0.45593999997E+02  0.45594000000E+02  0.51100000000E-03 0. -1.
    9900012    2    1    2    0    0  0.11042864043E+02 -0.19361978627E+02 -0.39144377868E+02  0.46142318950E+02  0.10000010839E+02 0.  0.
        -12    1    1    2    0    0 -0.11042864043E+02  0.19361978627E+02  0.39144377868E+02  0.45045681050E+02  0.00000000000E+00 0.  1.
         11    1    3    3    0    0  0.11888706931E+01 -0.86508946000E+01 -0.20261508281E+02  0.22063093822E+02  0.51100000000E-03 0. -1.
        -11    1    3    3    0    0  0.25697589264E+01 -0.48739810067E+01 -0.57160471440E+01  0.79393039372E+01  0.51100000000E-03 0.  1.
         12    1    3    3    0    0  0.72842344236E+01 -0.58371030203E+01 -0.13166822443E+02  0.16139921191E+02  0.00000000000E+00 0. -1.
</event>
<event>
 7    1  0.1543346E-008  0.4614232E+02  0.7816164E-02  0.1320468E+00
        -11   -1    0    0    0    0  0.00000000000E+00  0.00000000000E+00  0.45593999997E+02  0.45594000000E+02  0.51100000000E-03 0.  1.
         11   -1    0    0    0    0 -0.00000000000E+00 -0.00000000000E+00 -0.45593999997E+02  0.45594000000E+02  0.51100000000E-03 0. -1.
    9900012    2    1    2    0    0  0.14010078161E+02 -0.32513587999E+02 -0.27851351626E+02  0.46142317832E+02  0.10000000644E+02 0.  0.
        -12    1    1    2    0    0 -0.14010078161E+02  0.32513587999E+02  0.27851351626E+02  0.45045682168E+02  0.00000000000E+00 0.  1.
         11    1    3    3    0    0  0.29027076481E+01 -0.57697112372E+01 -0.26772744588E+01  0.69916434577E+01  0.51100000000E-03 0. -1.
        -11    1    3    3    0    0  0.45028679778E+00 -0.72742491901E+01 -0.33436172629E+01  0.80185557391E+01  0.51100000000E-03 0.  1.
        -12    1    3    3    0    0  0.10657083715E+02 -0.19469627571E+02 -0.21830459904E+02  0.31132118635E+02  0.00000000000E+00 0.  1.
</event>
<event>
 7    1  0.1543346E-008  0.4614232E+02  0.7816164E-02  0.1320468E+00
        -11   -1    0    0    0    0  0.00000000000E+00  0.00000000000E+00  0.45593999997E+02  0.45594000000E+02  0.51100000000E-03 0.  1.
         11   -1    0    0    0    0 -0.00000000000E+00 -0.00000000000E+00 -0.45593999997E+02  0.45594000000E+02  0.51100000000E-03 0. -1.
    9900012    2    1    2    0    0 -0.45704380760E+01  0.35391009820E+01 -0.44673252686E+02  0.46142316017E+02  0.99999840978E+01 0.  0.
        -12    1    1    2    0    0  0.45704380760E+01 -0.35391009820E+01  0.44673252686E+02  0.45045683983E+02  0.00000000000E+00 0.  1.
         11    1    3    3    0    0 -0.12731805603E+01  0.32572790176E+01 -0.98433602907E+01  0.10446176210E+02  0.51100000000E-03 0. -1.
        -11    1    3    3    0    0 -0.43068344702E+01 -0.34053232987E+00 -0.10730168442E+02  0.11567251206E+02  0.51100000000E-03 0.  1.
        -12    1    3    3    0    0  0.10095769545E+01  0.62235429429E+00 -0.24099723953E+02  0.24128888601E+02  0.00000000000E+00 0.  1.
</event>
<event>
 7    1  0.1543346E-008  0.4614232E+02  0.7816164E-02  0.1320468E+00
        -11   -1    0    0    0    0  0.00000000000E+00  0.00000000000E+00  0.45593999997E+02  0.45594000000E+02  0.51100000000E-03 0.  1.
         11   -1    0    0    0    0 -0.00000000000E+00 -0.00000000000E+00 -0.45593999997E+02  0.45594000000E+02  0.51100000000E-03 0. -1.
    9900012    2    1    2    0    0  0.14775345844E+02  0.27965597731E+02 -0.32073790233E+02  0.46142317397E+02  0.99999966809E+01 0.  0.
        -12    1    1    2    0    0 -0.14775345844E+02 -0.27965597731E+02  0.32073790233E+02  0.45045682603E+02  0.00000000000E+00 0.  1.
         11    1    3    3    0    0  0.12842164511E+02  0.15377973618E+02 -0.19002712848E+02  0.27613517664E+02  0.51100000000E-03 0. -1.
        -11    1    3    3    0    0  0.17747945877E-02  0.93159834145E+01 -0.97093038796E+01  0.13455784340E+02  0.51100000000E-03 0.  1.
        -12    1    3    3    0    0  0.19314065376E+01  0.32716406981E+01 -0.33617735056E+01  0.50730153926E+01  0.00000000000E+00 0.  1.
</event>
<event>
 7    1  0.1543346E-008  0.4614232E+02  0.7816164E-02  0.1320468E+00
        -11   -1    0    0    0    0  0.00000000000E+00  0.00000000000E+00  0.45593999997E+02  0.45594000000E+02  0.51100000000E-03 0. -1.
         11   -1    0    0    0    0 -0.00000000000E+00 -0.00000000000E+00 -0.45593999997E+02  0.45594000000E+02  0.51100000000E-03 0.  1.
    9900012    2    1    2    0    0  0.32075778558E+02 -0.29247238054E+02  0.12035653849E+02  0.46142317993E+02  0.10000002117E+02 0.  0.
        -12    1    1    2    0    0 -0.32075778558E+02  0.29247238054E+02 -0.12035653849E+02  0.45045682007E+02  0.00000000000E+00 0.  1.
         11    1    3    3    0    0  0.29522006428E+02 -0.27488021714E+02  0.12347592402E+02  0.42185343896E+02  0.51100000000E-03 0. -1.
        -11    1    3    3    0    0  0.30339946091E+01 -0.16411206950E+01 -0.29788112027E+00  0.34622440478E+01  0.51100000000E-03 0.  1.
         12    1    3    3    0    0 -0.48022247843E+00 -0.11809564474E+00 -0.14057433424E-01  0.49473004915E+00  0.00000000000E+00 0. -1.
</event>
<event>
 7    1  0.1543346E-008  0.4614232E+02  0.7816164E-02  0.1320468E+00
        -11   -1    0    0    0    0  0.00000000000E+00  0.00000000000E+00  0.45593999997E+02  0.45594000000E+02  0.51100000000E-03 0. -1.
         11   -1    0    0    0    0 -0.00000000000E+00 -0.00000000000E+00 -0.45593999997E+02  0.45594000000E+02  0.51100000000E-03 0.  1.
    9900012    2    1    2    0    0  0.32951585317E+02  0.65272710407E+01  0.30011684819E+02  0.46142317989E+02  0.10000002079E+02 0.  0.
        -12    1    1    2    0    0 -0.32951585317E+02 -0.65272710407E+01 -0.30011684819E+02  0.45045682011E+02  0.00000000000E+00 0.  1.
         11    1    3    3    0    0  0.99251914983E+01 -0.79446012747E+00  0.68544506042E+01  0.12088179620E+02  0.51100000000E-03 0. -1.
        -11    1    3    3    0    0  0.13812235215E+02  0.24636313284E+01  0.97928462728E+01  0.17109855620E+02  0.51100000000E-03 0.  1.
        -12    1    3    3    0    0  0.92141586043E+01  0.48580998397E+01  0.13364387942E+02  0.16944282750E+02  0.00000000000E+00 0.  1.
</event>
<event>
 7    1  0.1543346E-008  0.4614232E+02  0.7816164E-02  0.1320468E+00
        -11   -1    0    0    0    0  0.00000000000E+00  0.00000000000E+00  0.45593999997E+02  0.45594000000E+02  0.51100000000E-03 0. -1.
         11   -1    0    0    0    0 -0.00000000000E+00 -0.00000000000E+00 -0.45593999997E+02  0.45594000000E+02  0.51100000000E-03 0.  1.
    9900012    2    1    2    0    0  0.33805098594E+02 -0.25582125575E+02  0.15227727984E+02  0.46142317195E+02  0.99999948353E+01 0.  0.
        -12    1    1    2    0    0 -0.33805098594E+02  0.25582125575E+02 -0.15227727984E+02  0.45045682805E+02  0.00000000000E+00 0.  1.
         11    1    3    3    0    0  0.78392229926E+01 -0.18190527600E+01  0.36231169446E+01  0.88254941350E+01  0.51100000000E-03 0. -1.
        -11    1    3    3    0    0  0.20170690470E+02 -0.16117638084E+02  0.93656288236E+01  0.27465433093E+02  0.51100000000E-03 0.  1.
        -12    1    3    3    0    0  0.57951851309E+01 -0.76454347303E+01  0.22389822160E+01  0.98513899669E+01  0.00000000000E+00 0.  1.
</event>
<event>
 7    1  0.1543346E-008  0.4614232E+02  0.7816164E-02  0.1320468E+00
        -11   -1    0    0    0    0  0.00000000000E+00  0.00000000000E+00  0.45593999997E+02  0.45594000000E+02  0.51100000000E-03 0.  1.
         11   -1    0    0    0    0 -0.00000000000E+00 -0.00000000000E+00 -0.45593999997E+02  0.45594000000E+02  0.51100000000E-03 0. -1.
    9900012    2    1    2    0    0 -0.11518025836E+02  0.96396954504E+01 -0.42467924707E+02  0.46142320113E+02  0.10000021445E+02 0.  0.
        -12    1    1    2    0    0  0.11518025836E+02 -0.96396954504E+01  0.42467924707E+02  0.45045679887E+02  0.00000000000E+00 0.  1.
         11    1    3    3    0    0 -0.43304732565E+01  0.16444021826E+01 -0.47425431870E+01  0.66293870987E+01  0.51100000000E-03 0.  1.
        -11    1    3    3    0    0 -0.74340982042E+01  0.66755910847E+01 -0.35782920765E+02  0.37151672253E+02  0.51100000000E-03 0. -1.
         12    1    3    3    0    0  0.24654562438E+00  0.13197021831E+01 -0.19424607555E+01  0.23612607615E+01  0.00000000000E+00 0. -1.
</event>
<event>
 7    1  0.1613532E-008  0.4614232E+02  0.7816164E-02  0.1320468E+00
        -11   -1    0    0    0    0  0.00000000000E+00  0.00000000000E+00  0.45593999997E+02  0.45594000000E+02  0.51100000000E-03 0. -1.
         11   -1    0    0    0    0 -0.00000000000E+00 -0.00000000000E+00 -0.45593999997E+02  0.45594000000E+02  0.51100000000E-03 0.  1.
    9900012    2    1    2    0    0  0.29925828897E+02  0.23543431541E+02  0.24067926732E+02  0.46142317620E+02  0.99999987139E+01 0.  0.
        -12    1    1    2    0    0 -0.29925828897E+02 -0.23543431541E+02 -0.24067926732E+02  0.45045682380E+02  0.00000000000E+00 0.  1.
         11    1    3    3    0    0  0.17121498619E+02  0.80541764573E+01  0.10103754546E+02  0.21449972716E+02  0.51100000000E-03 0. -1.
        -11    1    3    3    0    0  0.24520427276E+01  0.51382949589E+01  0.33007285454E+01  0.65809876017E+01  0.51100000000E-03 0.  1.
         12    1    3    3    0    0  0.10352287551E+02  0.10350960125E+02  0.10663443641E+02  0.18111357302E+02  0.00000000000E+00 0. -1.
</event>
<event>
 7    1  0.1543346E-008  0.4614232E+02  0.7816164E-02  0.1320468E+00
        -11   -1    0    0    0    0  0.00000000000E+00  0.00000000000E+00  0.45593999997E+02  0.45594000000E+02  0.51100000000E-03 0.  1.
         11   -1    0    0    0    0 -0.00000000000E+00 -0.00000000000E+00 -0.45593999997E+02  0.45594000000E+02  0.51100000000E-03 0. -1.
    9900012    2    1    2    0    0 -0.17833495813E+02 -0.35985370782E+02 -0.20399339002E+02  0.46142317467E+02  0.99999973139E+01 0.  0.
        -12    1    1    2    0    0  0.17833495813E+02  0.35985370782E+02  0.20399339002E+02  0.45045682533E+02  0.00000000000E+00 0.  1.
         11    1    3    3    0    0 -0.93543305636E+01 -0.20610859665E+02 -0.99298841196E+01  0.24716667156E+02  0.51100000000E-03 0. -1.
        -11    1    3    3    0    0  0.44086764227E+00 -0.13418073661E+01  0.50814327730E+00  0.15010067079E+01  0.51100000000E-03 0.  1.
         12    1    3    3    0    0 -0.89200328913E+01 -0.14032703751E+02 -0.10977598159E+02  0.19924643603E+02  0.00000000000E+00 0. -1.
</event>
<event>
 7    1  0.1543346E-008  0.4614232E+02  0.7816164E-02  0.1320468E+00
        -11   -1    0    0    0    0  0.00000000000E+00  0.00000000000E+00  0.45593999997E+02  0.45594000000E+02  0.51100000000E-03 0. -1.
         11   -1    0    0    0    0 -0.00000000000E+00 -0.00000000000E+00 -0.45593999997E+02  0.45594000000E+02  0.51100000000E-03 0.  1.
    9900012    2    1    2    0    0 -0.12696265344E+02  0.39774606224E+02 -0.16908552920E+02  0.46142316347E+02  0.99999871053E+01 0.  0.
        -12    1    1    2    0    0  0.12696265344E+02 -0.39774606224E+02  0.16908552920E+02  0.45045683653E+02  0.00000000000E+00 0.  1.
         11    1    3    3    0    0  0.33515803529E+00  0.17851448237E+01 -0.23898023692E+01  0.30017042785E+01  0.51100000000E-03 0.  1.
        -11    1    3    3    0    0 -0.11802369800E+02  0.35794840290E+02 -0.11935589872E+02  0.39535108829E+02  0.51100000000E-03 0. -1.
         12    1    3    3    0    0 -0.12290535789E+01  0.21946211098E+01 -0.25831606791E+01  0.36055032394E+01  0.00000000000E+00 0. -1.
</event>
<event>
 7    1  0.1543346E-008  0.4614232E+02  0.7816164E-02  0.1320468E+00
        -11   -1    0    0    0    0  0.00000000000E+00  0.00000000000E+00  0.45593999997E+02  0.45594000000E+02  0.51100000000E-03 0. -1.
         11   -1    0    0    0    0 -0.00000000000E+00 -0.00000000000E+00 -0.45593999997E+02  0.45594000000E+02  0.51100000000E-03 0.  1.
    9900012    2    1    2    0    0  0.73064971181E+01  0.15656971679E+02  0.41600336208E+02  0.46142316135E+02  0.99999851703E+01 0.  0.
        -12    1    1    2    0    0 -0.73064971181E+01 -0.15656971679E+02 -0.41600336208E+02  0.45045683865E+02  0.00000000000E+00 0.  1.
         11    1    3    3    0    0  0.24328564286E+01  0.28776134977E+01  0.70812882997E+01  0.80214770515E+01  0.51100000000E-03 0. -1.
        -11    1    3    3    0    0  0.45151728068E+01  0.13819460333E+02  0.33832792699E+02  0.36824205781E+02  0.51100000000E-03 0.  1.
        -12    1    3    3    0    0  0.35846788276E+00 -0.10401021512E+01  0.68625520899E+00  0.12966333019E+01  0.00000000000E+00 0.  1.
</event>
<event>
 7    1  0.1543346E-008  0.4614232E+02  0.7816164E-02  0.1320468E+00
        -11   -1    0    0    0    0  0.00000000000E+00  0.00000000000E+00  0.45593999997E+02  0.45594000000E+02  0.51100000000E-03 0.  1.
         11   -1    0    0    0    0 -0.00000000000E+00 -0.00000000000E+00 -0.45593999997E+02  0.45594000000E+02  0.51100000000E-03 0. -1.
    9900012    2    1    2    0    0 -0.16496246811E+02  0.23121331050E+02 -0.34962714946E+02  0.46142317135E+02  0.99999942914E+01 0.  0.
        -12    1    1    2    0    0  0.16496246811E+02 -0.23121331050E+02  0.34962714946E+02  0.45045682865E+02  0.00000000000E+00 0.  1.
         11    1    3    3    0    0 -0.23038017588E+01  0.41885741653E+01 -0.82581990935E+01  0.95419866176E+01  0.51100000000E-03 0. -1.
        -11    1    3    3    0    0 -0.45665374092E+01  0.88868249565E+01 -0.59977547387E+01  0.11653410826E+02  0.51100000000E-03 0.  1.
        -12    1    3    3    0    0 -0.96259076430E+01  0.10045931928E+02 -0.20706761114E+02  0.24946919691E+02  0.00000000000E+00 0.  1.
</event>
<event>
 7    1  0.1543346E-008  0.4614232E+02  0.7816164E-02  0.1320468E+00
        -11   -1    0    0    0    0  0.00000000000E+00  0.00000000000E+00  0.45593999997E+02  0.45594000000E+02  0.51100000000E-03 0.  1.
         11   -1    0    0    0    0 -0.00000000000E+00 -0.00000000000E+00 -0.45593999997E+02  0.45594000000E+02  0.51100000000E-03 0. -1.
    9900012    2    1    2    0    0 -0.15518996297E+02  0.41686916525E+02  0.71045873217E+01  0.46142318560E+02  0.10000007281E+02 0.  0.
        -12    1    1    2    0    0  0.15518996297E+02 -0.41686916525E+02 -0.71045873217E+01  0.45045681440E+02  0.00000000000E+00 0.  1.
         11    1    3    3    0    0 -0.40660117112E+01  0.95495930634E+01  0.42492222839E+01  0.11215305131E+02  0.51100000000E-03 0. -1.
        -11    1    3    3    0    0 -0.10879909535E+02  0.27222521114E+02  0.21164724969E+00  0.29316938484E+02  0.51100000000E-03 0.  1.
         12    1    3    3    0    0 -0.57307505052E+00  0.49148023478E+01  0.26437177882E+01  0.56100749438E+01  0.00000000000E+00 0. -1.
</event>
<event>
 7    1  0.1543346E-008  0.4614232E+02  0.7816164E-02  0.1320468E+00
        -11   -1    0    0    0    0  0.00000000000E+00  0.00000000000E+00  0.45593999997E+02  0.45594000000E+02  0.51100000000E-03 0.  1.
         11   -1    0    0    0    0 -0.00000000000E+00 -0.00000000000E+00 -0.45593999997E+02  0.45594000000E+02  0.51100000000E-03 0. -1.
    9900012    2    1    2    0    0 -0.20797203381E+02 -0.33184824743E+02 -0.22256622082E+02  0.46142317763E+02  0.10000000019E+02 0.  0.
        -12    1    1    2    0    0  0.20797203381E+02  0.33184824743E+02  0.22256622082E+02  0.45045682237E+02  0.00000000000E+00 0.  1.
         11    1    3    3    0    0 -0.11138133114E+02 -0.16515797648E+02 -0.14509440405E+02  0.24644541837E+02  0.51100000000E-03 0. -1.
        -11    1    3    3    0    0 -0.18695300080E+01 -0.46185023410E+01 -0.46565486464E+01  0.68197618640E+01  0.51100000000E-03 0.  1.
        -12    1    3    3    0    0 -0.77895402589E+01 -0.12050524754E+02 -0.30906330308E+01  0.14678014062E+02  0.00000000000E+00 0.  1.
</event>
<event>
 7    1  0.1543346E-008  0.4614232E+02  0.7816164E-02  0.1320468E+00
        -11   -1    0    0    0    0  0.00000000000E+00  0.00000000000E+00  0.45593999997E+02  0.45594000000E+02  0.51100000000E-03 0.  1.
         11   -1    0    0    0    0 -0.00000000000E+00 -0.00000000000E+00 -0.45593999997E+02  0.45594000000E+02  0.51100000000E-03 0. -1.
    9900012    2    1    2    0    0  0.25983729697E+01 -0.20793014479E+02 -0.39874957284E+02  0.46142320833E+02  0.10000028012E+02 0.  0.
        -12    1    1    2    0    0 -0.25983729697E+01  0.20793014479E+02  0.39874957284E+02  0.45045679167E+02  0.00000000000E+00 0.  1.
         11    1    3    3    0    0 -0.26448284803E+01 -0.93855433314E+01 -0.16002470951E+02  0.18739333449E+02  0.51100000000E-03 0. -1.
        -11    1    3    3    0    0  0.34086347522E+01 -0.48276206086E+01 -0.67682938477E+01  0.89852386437E+01  0.51100000000E-03 0.  1.
         12    1    3    3    0    0  0.18345666978E+01 -0.65798505390E+01 -0.17104192485E+02  0.18417748740E+02  0.00000000000E+00 0. -1.
</event>
<event>
 7    1  0.1543346E-008  0.4614232E+02  0.7816164E-02  0.1320468E+00
        -11   -1    0    0    0    0  0.00000000000E+00  0.00000000000E+00  0.45593999997E+02  0.45594000000E+02  0.51100000000E-03 0.  1.
         11   -1    0    0    0    0 -0.00000000000E+00 -0.00000000000E+00 -0.45593999997E+02  0.45594000000E+02  0.51100000000E-03 0. -1.
    9900012    2    1    2    0    0  0.22347681415E+02 -0.27122412941E+01 -0.39017155877E+02  0.46142316853E+02  0.99999917200E+01 0.  0.
        -12    1    1    2    0    0 -0.22347681415E+02  0.27122412941E+01  0.39017155877E+02  0.45045683147E+02  0.00000000000E+00 0.  1.
         11    1    3    3    0    0  0.13741717078E+01  0.25725856929E+00 -0.49543625707E+00  0.14832353825E+01  0.51100000000E-03 0. -1.
        -11    1    3    3    0    0  0.14079038170E+02 -0.45484917516E+01 -0.20355844429E+02  0.25164826557E+02  0.51100000000E-03 0.  1.
         12    1    3    3    0    0  0.68944715372E+01  0.15789918882E+01 -0.18165875191E+02  0.19494254913E+02  0.00000000000E+00 0. -1.
</event>
<event>
 7    1  0.1543346E-008  0.4614232E+02  0.7816164E-02  0.1320468E+00
        -11   -1    0    0    0    0  0.00000000000E+00  0.00000000000E+00  0.45593999997E+02  0.45594000000E+02  0.51100000000E-03 0. -1.
         11   -1    0    0    0    0 -0.00000000000E+00 -0.00000000000E+00 -0.45593999997E+02  0.45594000000E+02  0.51100000000E-03 0.  1.
    9900012    2    1    2    0    0 -0.24476958886E+02  0.35599479580E+02 -0.12754178526E+02  0.46142317271E+02  0.99999955301E+01 0.  0.
        -12    1    1    2    0    0  0.24476958886E+02 -0.35599479580E+02  0.12754178526E+02  0.45045682729E+02  0.00000000000E+00 0.  1.
         11    1    3    3    0    0 -0.55399025111E+01  0.48129687883E+01 -0.52584016577E+01  0.90280660523E+01  0.51100000000E-03 0.  1.
        -11    1    3    3    0    0 -0.17237784532E+02  0.26119969491E+02 -0.73450486884E+01  0.32145664751E+02  0.51100000000E-03 0. -1.
         12    1    3    3    0    0 -0.16992718435E+01  0.46665412999E+01 -0.15072817983E+00  0.49685864676E+01  0.00000000000E+00 0. -1.
</event>
<event>
 7    1  0.1543346E-008  0.4614232E+02  0.7816164E-02  0.1320468E+00
        -11   -1    0    0    0    0  0.00000000000E+00  0.00000000000E+00  0.45593999997E+02  0.45594000000E+02  0.51100000000E-03 0.  1.
         11   -1    0    0    0    0 -0.00000000000E+00 -0.00000000000E+00 -0.45593999997E+02  0.45594000000E+02  0.51100000000E-03 0. -1.
    9900012    2    1    2    0    0  0.21887266312E+02  0.22313252513E+02 -0.32437320954E+02  0.46142318132E+02  0.10000003382E+02 0.  0.
        -12    1    1    2    0    0 -0.21887266312E+02 -0.22313252513E+02  0.32437320954E+02  0.45045681868E+02  0.00000000000E+00 0.  1.
         11    1    3    3    0    0  0.54238088994E+01  0.22358328141E+01 -0.94011227657E+01  0.11081415111E+02  0.51100000000E-03 0. -1.
        -11    1    3    3    0    0  0.46328706035E-01  0.43948258666E+00  0.20526871810E+00  0.48726461059E+00  0.51100000000E-03 0.  1.
         12    1    3    3    0    0  0.16417128706E+02  0.19637937112E+02 -0.23241466906E+02  0.34573638410E+02  0.00000000000E+00 0. -1.
</event>
<event>
 7    1  0.1543346E-008  0.4614232E+02  0.7816164E-02  0.1320468E+00
        -11   -1    0    0    0    0  0.00000000000E+00  0.00000000000E+00  0.45593999997E+02  0.45594000000E+02  0.51100000000E-03 0. -1.
         11   -1    0    0    0    0 -0.00000000000E+00 -0.00000000000E+00 -0.45593999997E+02  0.45594000000E+02  0.51100000000E-03 0.  1.
    9900012    2    1    2    0    0  0.39187332459E+02 -0.22209991195E+02  0.42744027541E+00  0.46142318305E+02  0.10000004962E+02 0.  0.
        -12    1    1    2    0    0 -0.39187332459E+02  0.22209991195E+02 -0.42744027541E+00  0.45045681695E+02  0.00000000000E+00 0.  1.
         11    1    3    3    0    0  0.33500279635E+01  0.10275519799E+00  0.22285717291E+00  0.33590045501E+01  0.51100000000E-03 0. -1.
        -11    1    3    3    0    0  0.25496463224E+02 -0.14906314349E+02 -0.29418229294E+01  0.29680332997E+02  0.51100000000E-03 0.  1.
        -12    1    3    3    0    0  0.10340841272E+02 -0.74064320439E+01  0.31464060319E+01  0.13102980758E+02  0.00000000000E+00 0.  1.
</event>
<event>
 7    1  0.1543346E-008  0.4614232E+02  0.7816164E-02  0.1320468E+00
        -11   -1    0    0    0    0  0.00000000000E+00  0.00000000000E+00  0.45593999997E+02  0.45594000000E+02  0.51100000000E-03 0. -1.
         11   -1    0    0    0    0 -0.00000000000E+00 -0.00000000000E+00 -0.45593999997E+02  0.45594000000E+02  0.51100000000E-03 0.  1.
    9900012    2    1    2    0    0  0.16270309434E+02  0.18147437312E+02  0.37882200118E+02  0.46142317234E+02  0.99999951940E+01 0.  0.
        -12    1    1    2    0    0 -0.16270309434E+02 -0.18147437312E+02 -0.37882200118E+02  0.45045682766E+02  0.00000000000E+00 0.  1.
         11    1    3    3    0    0  0.62419698579E+01  0.38974133008E+01  0.11232185296E+02  0.13428105038E+02  0.51100000000E-03 0. -1.
        -11    1    3    3    0    0  0.11090872374E+02  0.13868548443E+02  0.24197939257E+02  0.30014735555E+02  0.51100000000E-03 0.  1.
        -12    1    3    3    0    0 -0.10625327972E+01  0.38147556888E+00  0.24520755654E+01  0.26994766406E+01  0.00000000000E+00 0.  1.
</event>
<event>
 7    1  0.1543346E-008  0.4614232E+02  0.7816164E-02  0.1320468E+00
        -11   -1    0    0    0    0  0.00000000000E+00  0.00000000000E+00  0.45593999997E+02  0.45594000000E+02  0.51100000000E-03 0.  1.
         11   -1    0    0    0    0 -0.00000000000E+00 -0.00000000000E+00 -0.45593999997E+02  0.45594000000E+02  0.51100000000E-03 0. -1.
    9900012    2    1    2    0    0  0.17468514671E+02  0.16175642892E+01 -0.41489130350E+02  0.46142318118E+02  0.10000003253E+02 0.  0.
        -12    1    1    2    0    0 -0.17468514671E+02 -0.16175642892E+01  0.41489130350E+02  0.45045681882E+02  0.00000000000E+00 0.  1.
         11    1    3    3    0    0  0.64888622451E+01  0.30008684521E+01 -0.19598997280E+02  0.20862196417E+02  0.51100000000E-03 0. -1.
        -11    1    3    3    0    0 -0.16086930788E+00 -0.14690102237E+01 -0.31293451195E+01  0.34607327417E+01  0.51100000000E-03 0.  1.
         12    1    3    3    0    0  0.11140521734E+02  0.85706060794E-01 -0.18760787950E+02  0.21819388959E+02  0.00000000000E+00 0. -1.
</event>
<event>
 7    1  0.1543346E-008  0.4614232E+02  0.7816164E-02  0.1320468E+00
        -11   -1    0    0    0    0  0.00000000000E+00  0.00000000000E+00  0.45593999997E+02  0.45594000000E+02  0.51100000000E-03 0. -1.
         11   -1    0    0    0    0 -0.00000000000E+00 -0.00000000000E+00 -0.45593999997E+02  0.45594000000E+02  0.51100000000E-03 0.  1.
    9900012    2    1    2    0    0 -0.42562345404E+02 -0.12230544464E+02  0.82446334332E+01  0.46142318247E+02  0.10000004427E+02 0.  0.
        -12    1    1    2    0    0  0.42562345404E+02  0.12230544464E+02 -0.82446334332E+01  0.45045681753E+02  0.00000000000E+00 0.  1.
         11    1    3    3    0    0 -0.12438703354E+02 -0.45762597917E+01 -0.46206577983E+00  0.13261862609E+02  0.51100000000E-03 0. -1.
        -11    1    3    3    0    0 -0.12240966533E+02 -0.33111499088E+00  0.48751405716E+01  0.13180208445E+02  0.51100000000E-03 0.  1.
         12    1    3    3    0    0 -0.17882675517E+02 -0.73231696815E+01  0.38315586414E+01  0.19700247192E+02  0.00000000000E+00 0. -1.
</event>
<event>
 7    1  0.1543346E-008  0.4614232E+02  0.7816164E-02  0.1320468E+00
        -11   -1    0    0    0    0  0.00000000000E+00  0.00000000000E+00  0.45593999997E+02  0.45594000000E+02  0.51100000000E-03 0.  1.
         11   -1    0    0    0    0 -0.00000000000E+00 -0.00000000000E+00 -0.45593999997E+02  0.45594000000E+02  0.51100000000E-03 0. -1.
    9900012    2    1    2    0    0 -0.40144741622E+02  0.57334638082E+01 -0.19612255824E+02  0.46142318013E+02  0.10000002300E+02 0.  0.
        -12    1    1    2    0    0  0.40144741622E+02 -0.57334638082E+01  0.19612255824E+02  0.45045681987E+02  0.00000000000E+00 0.  1.
         11    1    3    3    0    0 -0.13241692205E+02  0.46023655765E+01 -0.62576930208E+01  0.15351967417E+02  0.51100000000E-03 0. -1.
        -11    1    3    3    0    0 -0.10413797743E+02 -0.24911920774E+01 -0.67757036208E+01  0.12671360669E+02  0.51100000000E-03 0.  1.
        -12    1    3    3    0    0 -0.16489251674E+02  0.36222903091E+01 -0.65788591827E+01  0.18118989927E+02  0.00000000000E+00 0.  1.
</event>
<event>
 7    1  0.1543346E-008  0.4614232E+02  0.7816164E-02  0.1320468E+00
        -11   -1    0    0    0    0  0.00000000000E+00  0.00000000000E+00  0.45593999997E+02  0.45594000000E+02  0.51100000000E-03 0.  1.
         11   -1    0    0    0    0 -0.00000000000E+00 -0.00000000000E+00 -0.45593999997E+02  0.45594000000E+02  0.51100000000E-03 0. -1.
    9900012    2    1    2    0    0 -0.29273242912E+02 -0.32885282391E+02 -0.95262235440E+01  0.46142317814E+02  0.10000000485E+02 0.  0.
        -12    1    1    2    0    0  0.29273242912E+02  0.32885282391E+02  0.95262235440E+01  0.45045682186E+02  0.00000000000E+00 0.  1.
         11    1    3    3    0    0 -0.19600326710E+02 -0.26993332925E+02 -0.65015906304E+01  0.33986519541E+02  0.51100000000E-03 0. -1.
        -11    1    3    3    0    0 -0.28591536942E+01 -0.22007486917E+00 -0.31187111381E+00  0.28845201764E+01  0.51100000000E-03 0.  1.
         12    1    3    3    0    0 -0.68137625079E+01 -0.56718745973E+01 -0.27127617998E+01  0.92712780966E+01  0.00000000000E+00 0. -1.
</event>
<event>
 7    1  0.1543346E-008  0.4614232E+02  0.7816164E-02  0.1320468E+00
        -11   -1    0    0    0    0  0.00000000000E+00  0.00000000000E+00  0.45593999997E+02  0.45594000000E+02  0.51100000000E-03 0.  1.
         11   -1    0    0    0    0 -0.00000000000E+00 -0.00000000000E+00 -0.45593999997E+02  0.45594000000E+02  0.51100000000E-03 0. -1.
    9900012    2    1    2    0    0 -0.17671204159E+02 -0.38201524754E+02 -0.16046355932E+02  0.46142317758E+02  0.99999999723E+01 0.  0.
        -12    1    1    2    0    0  0.17671204159E+02  0.38201524754E+02  0.16046355932E+02  0.45045682242E+02  0.00000000000E+00 0.  1.
         11    1    3    3    0    0 -0.10163000211E+02 -0.26809401633E+02 -0.13654791809E+02  0.31756635981E+02  0.51100000000E-03 0. -1.
        -11    1    3    3    0    0 -0.77384964319E+01 -0.10966663719E+02 -0.16822391811E+01  0.13527082800E+02  0.51100000000E-03 0.  1.
         12    1    3    3    0    0  0.23029248339E+00 -0.42545940137E+00 -0.70932494228E+00  0.85859897732E+00  0.00000000000E+00 0. -1.
</event>
<event>
 7    1  0.1543346E-008  0.4614232E+02  0.7816164E-02  0.1320468E+00
        -11   -1    0    0    0    0  0.00000000000E+00  0.00000000000E+00  0.45593999997E+02  0.45594000000E+02  0.51100000000E-03 0.  1.
         11   -1    0    0    0    0 -0.00000000000E+00 -0.00000000000E+00 -0.45593999997E+02  0.45594000000E+02  0.51100000000E-03 0. -1.
    9900012    2    1    2    0    0  0.43425418332E+02  0.14739966660E+01 -0.11881656372E+02  0.46142318946E+02  0.10000010803E+02 0.  0.
        -12    1    1    2    0    0 -0.43425418332E+02 -0.14739966660E+01  0.11881656372E+02  0.45045681054E+02  0.00000000000E+00 0.  1.
         11    1    3    3    0    0  0.56578441158E+01  0.26711592136E+01 -0.15347276925E+01  0.64421798278E+01  0.51100000000E-03 0. -1.
        -11    1    3    3    0    0  0.30263418301E+01 -0.19920197787E+00 -0.28147001365E+01  0.41377485932E+01  0.51100000000E-03 0.  1.
         12    1    3    3    0    0  0.34741232386E+02 -0.99796056971E+00 -0.75322285433E+01  0.35562390525E+02  0.00000000000E+00 0. -1.
</event>
<event>
 7    1  0.1543346E-008  0.4614232E+02  0.7816164E-02  0.1320468E+00
        -11   -1    0    0    0    0  0.00000000000E+00  0.00000000000E+00  0.45593999997E+02  0.45594000000E+02  0.51100000000E-03 0.  1.
         11   -1    0    0    0    0 -0.00000000000E+00 -0.00000000000E+00 -0.45593999997E+02  0.45594000000E+02  0.51100000000E-03 0. -1.
    9900012    2    1    2    0    0  0.31771212917E+02  0.31131397372E+02 -0.71091224126E+01  0.46142317698E+02  0.99999994259E+01 0.  0.
        -12    1    1    2    0    0 -0.31771212917E+02 -0.31131397372E+02  0.71091224126E+01  0.45045682302E+02  0.00000000000E+00 0.  1.
         11    1    3    3    0    0  0.26051018781E+02  0.25846036462E+02 -0.85912235746E+01  0.37689286317E+02  0.51100000000E-03 0. -1.
        -11    1    3    3    0    0  0.54012737948E+01  0.36049615990E+01  0.17410350770E+01  0.67231473387E+01  0.51100000000E-03 0.  1.
         12    1    3    3    0    0  0.31892034158E+00  0.16803993106E+01 -0.25893391508E+00  0.17298840422E+01  0.00000000000E+00 0. -1.
</event>
<event>
 7    1  0.1543346E-008  0.4614232E+02  0.7816164E-02  0.1320468E+00
        -11   -1    0    0    0    0  0.00000000000E+00  0.00000000000E+00  0.45593999997E+02  0.45594000000E+02  0.51100000000E-03 0.  1.
         11   -1    0    0    0    0 -0.00000000000E+00 -0.00000000000E+00 -0.45593999997E+02  0.45594000000E+02  0.51100000000E-03 0. -1.
    9900012    2    1    2    0    0 -0.26797636062E+02 -0.26350914637E+02 -0.24832029304E+02  0.46142315633E+02  0.99999805921E+01 0.  0.
        -12    1    1    2    0    0  0.26797636062E+02  0.26350914637E+02  0.24832029304E+02  0.45045684367E+02  0.00000000000E+00 0.  1.
         11    1    3    3    0    0 -0.10347050495E+01 -0.49722029550E+01 -0.48571708101E+01  0.70274835684E+01  0.51100000000E-03 0. -1.
        -11    1    3    3    0    0 -0.85544610870E+01 -0.88235412656E+01 -0.64107976879E+01  0.13861169222E+02  0.51100000000E-03 0.  1.
         12    1    3    3    0    0 -0.17208469926E+02 -0.12555170416E+02 -0.13564060806E+02  0.25253662842E+02  0.00000000000E+00 0. -1.
</event>
<event>
 7    1  0.1543346E-008  0.4614232E+02  0.7816164E-02  0.1320468E+00
        -11   -1    0    0    0    0  0.00000000000E+00  0.00000000000E+00  0.45593999997E+02  0.45594000000E+02  0.51100000000E-03 0.  1.
         11   -1    0    0    0    0 -0.00000000000E+00 -0.00000000000E+00 -0.45593999997E+02  0.45594000000E+02  0.51100000000E-03 0. -1.
    9900012    2    1    2    0    0 -0.20108158220E+02 -0.17302324223E+02 -0.36406112462E+02  0.46142317908E+02  0.10000001338E+02 0.  0.
        -12    1    1    2    0    0  0.20108158220E+02  0.17302324223E+02  0.36406112462E+02  0.45045682092E+02  0.00000000000E+00 0.  1.
         11    1    3    3    0    0 -0.83673064257E+01 -0.91708508723E+01 -0.17621199166E+02  0.21555115004E+02  0.51100000000E-03 0. -1.
        -11    1    3    3    0    0  0.89292479507E+00 -0.11545061872E+00 -0.10000423613E+01  0.13456331300E+01  0.51100000000E-03 0.  1.
        -12    1    3    3    0    0 -0.12633776590E+02 -0.80160227318E+01 -0.17784870935E+02  0.23241569774E+02  0.00000000000E+00 0.  1.
</event>
<event>
 7    1  0.1543346E-008  0.4614232E+02  0.7816164E-02  0.1320468E+00
        -11   -1    0    0    0    0  0.00000000000E+00  0.00000000000E+00  0.45593999997E+02  0.45594000000E+02  0.51100000000E-03 0.  1.
         11   -1    0    0    0    0 -0.00000000000E+00 -0.00000000000E+00 -0.45593999997E+02  0.45594000000E+02  0.51100000000E-03 0. -1.
    9900012    2    1    2    0    0 -0.15014341715E+02 -0.42149438483E+02  0.52065171226E+01  0.46142318275E+02  0.10000004684E+02 0.  0.
        -12    1    1    2    0    0  0.15014341715E+02  0.42149438483E+02 -0.52065171226E+01  0.45045681725E+02  0.00000000000E+00 0.  1.
         11    1    3    3    0    0 -0.14781292422E+01 -0.12151469387E+02  0.31617478223E+01  0.12642773583E+02  0.51100000000E-03 0.  1.
        -11    1    3    3    0    0 -0.15335364743E+01 -0.94690007255E+00 -0.72965237631E+00  0.19444142348E+01  0.51100000000E-03 0. -1.
         12    1    3    3    0    0 -0.12002675999E+02 -0.29051069023E+02  0.27744216766E+01  0.31555130457E+02  0.00000000000E+00 0. -1.
</event>
<event>
 7    1  0.1543346E-008  0.4614232E+02  0.7816164E-02  0.1320468E+00
        -11   -1    0    0    0    0  0.00000000000E+00  0.00000000000E+00  0.45593999997E+02  0.45594000000E+02  0.51100000000E-03 0.  1.
         11   -1    0    0    0    0 -0.00000000000E+00 -0.00000000000E+00 -0.45593999997E+02  0.45594000000E+02  0.51100000000E-03 0. -1.
    9900012    2    1    2    0    0  0.24520254699E+02 -0.28948749274E+02 -0.24286631486E+02  0.46142318254E+02  0.10000004490E+02 0.  0.
        -12    1    1    2    0    0 -0.24520254699E+02  0.28948749274E+02  0.24286631486E+02  0.45045681746E+02  0.00000000000E+00 0.  1.
         11    1    3    3    0    0 -0.34971098615E+00 -0.59940809385E-01 -0.46601875268E+00  0.58571700798E+00  0.51100000000E-03 0.  1.
        -11    1    3    3    0    0  0.66841006300E+01 -0.77407115700E+01 -0.27213221502E+01  0.10583071924E+02  0.51100000000E-03 0. -1.
         12    1    3    3    0    0  0.18185865056E+02 -0.21148096895E+02 -0.21099290584E+02  0.34973529322E+02  0.00000000000E+00 0. -1.
</event>
<event>
 7    1  0.1543346E-008  0.4614232E+02  0.7816164E-02  0.1320468E+00
        -11   -1    0    0    0    0  0.00000000000E+00  0.00000000000E+00  0.45593999997E+02  0.45594000000E+02  0.51100000000E-03 0.  1.
         11   -1    0    0    0    0 -0.00000000000E+00 -0.00000000000E+00 -0.45593999997E+02  0.45594000000E+02  0.51100000000E-03 0. -1.
    9900012    2    1    2    0    0 -0.13141497581E+02 -0.31275771808E+02 -0.29635124736E+02  0.46142317866E+02  0.10000000953E+02 0.  0.
        -12    1    1    2    0    0  0.13141497581E+02  0.31275771808E+02  0.29635124736E+02  0.45045682134E+02  0.00000000000E+00 0.  1.
         11    1    3    3    0    0 -0.35105862935E+01 -0.69752063474E+01 -0.10363379446E+02  0.12976029960E+02  0.51100000000E-03 0. -1.
        -11    1    3    3    0    0 -0.19458231727E+01 -0.13548931644E+02 -0.11148151619E+02  0.17653358358E+02  0.51100000000E-03 0.  1.
        -12    1    3    3    0    0 -0.76850881145E+01 -0.10751633816E+02 -0.81235936712E+01  0.15512929548E+02  0.00000000000E+00 0.  1.
</event>
<event>
 7    1  0.1543346E-008  0.4614233E+02  0.7816164E-02  0.1320468E+00
        -11   -1    0    0    0    0  0.00000000000E+00  0.00000000000E+00  0.45593999997E+02  0.45594000000E+02  0.51100000000E-03 0. -1.
         11   -1    0    0    0    0 -0.00000000000E+00 -0.00000000000E+00 -0.45593999997E+02  0.45594000000E+02  0.51100000000E-03 0.  1.
    9900012    2    1    2    0    0 -0.15130884809E+02  0.41857766429E+02  0.69351645102E+01  0.46142325487E+02  0.10000070454E+02 0.  0.
        -12    1    1    2    0    0  0.15130884809E+02 -0.41857766429E+02 -0.69351645102E+01  0.45045674513E+02  0.00000000000E+00 0.  1.
         11    1    3    3    0    0 -0.57432042576E+01  0.15291881311E+02  0.17202076741E+01  0.16425137560E+02  0.51100000000E-03 0. -1.
        -11    1    3    3    0    0  0.13652693854E+01  0.18928401320E+01  0.23133842290E+00  0.23452765268E+01  0.51100000000E-03 0.  1.
        -12    1    3    3    0    0 -0.10752949936E+02  0.24673044986E+02  0.49836184132E+01  0.27371911400E+02  0.00000000000E+00 0.  1.
</event>
<event>
 7    1  0.1543346E-008  0.4614232E+02  0.7816164E-02  0.1320468E+00
        -11   -1    0    0    0    0  0.00000000000E+00  0.00000000000E+00  0.45593999997E+02  0.45594000000E+02  0.51100000000E-03 0.  1.
         11   -1    0    0    0    0 -0.00000000000E+00 -0.00000000000E+00 -0.45593999997E+02  0.45594000000E+02  0.51100000000E-03 0. -1.
    9900012    2    1    2    0    0  0.37306397010E+02 -0.17668157749E+01 -0.25183817110E+02  0.46142317187E+02  0.99999947622E+01 0.  0.
        -12    1    1    2    0    0 -0.37306397010E+02  0.17668157749E+01  0.25183817110E+02  0.45045682813E+02  0.00000000000E+00 0.  1.
         11    1    3    3    0    0  0.21909682469E+02 -0.13176749477E+00 -0.14855420585E+02  0.26471400975E+02  0.51100000000E-03 0. -1.
        -11    1    3    3    0    0  0.38177013704E+01  0.23178817958E+01 -0.33739987900E+01  0.55974358298E+01  0.51100000000E-03 0.  1.
         12    1    3    3    0    0  0.11579013171E+02 -0.39529300760E+01 -0.69543977356E+01  0.14073480382E+02  0.00000000000E+00 0. -1.
</event>
<event>
 7    1  0.1543346E-008  0.4614232E+02  0.7816164E-02  0.1320468E+00
        -11   -1    0    0    0    0  0.00000000000E+00  0.00000000000E+00  0.45593999997E+02  0.45594000000E+02  0.51100000000E-03 0.  1.
         11   -1    0    0    0    0 -0.00000000000E+00 -0.00000000000E+00 -0.45593999997E+02  0.45594000000E+02  0.51100000000E-03 0. -1.
    9900012    2    1    2    0    0  0.23279887603E+02 -0.11637608523E+02 -0.36765830802E+02  0.46142318592E+02  0.10000007579E+02 0.  0.
        -12    1    1    2    0    0 -0.23279887603E+02  0.11637608523E+02  0.36765830802E+02  0.45045681408E+02  0.00000000000E+00 0.  1.
         11    1    3    3    0    0  0.80190458198E+01 -0.15368929604E+01 -0.92268075400E+01  0.12320759452E+02  0.51100000000E-03 0. -1.
        -11    1    3    3    0    0  0.53524604323E+01 -0.49467211816E+01 -0.16865051648E+02  0.18372502565E+02  0.51100000000E-03 0.  1.
        -12    1    3    3    0    0  0.99083813508E+01 -0.51539943809E+01 -0.10673971614E+02  0.15449056576E+02  0.00000000000E+00 0.  1.
</event>
<event>
 7    1  0.1543346E-008  0.4614232E+02  0.7816164E-02  0.1320468E+00
        -11   -1    0    0    0    0  0.00000000000E+00  0.00000000000E+00  0.45593999997E+02  0.45594000000E+02  0.51100000000E-03 0.  1.
         11   -1    0    0    0    0 -0.00000000000E+00 -0.00000000000E+00 -0.45593999997E+02  0.45594000000E+02  0.51100000000E-03 0. -1.
    9900012    2    1    2    0    0  0.29397081198E+02  0.11178351216E+02 -0.32248559702E+02  0.46142317391E+02  0.99999966271E+01 0.  0.
        -12    1    1    2    0    0 -0.29397081198E+02 -0.11178351216E+02  0.32248559702E+02  0.45045682609E+02  0.00000000000E+00 0.  1.
         11    1    3    3    0    0  0.21722409849E+02  0.44249212993E+01 -0.23681983287E+02  0.32438855572E+02  0.51100000000E-03 0. -1.
        -11    1    3    3    0    0  0.14314343164E+01  0.31380338114E+01 -0.22831956229E+01  0.41363320609E+01  0.51100000000E-03 0.  1.
         12    1    3    3    0    0  0.62432370327E+01  0.36153961052E+01 -0.62833807921E+01  0.95671297588E+01  0.00000000000E+00 0. -1.
</event>
<event>
 7    1  0.1543346E-008  0.4614232E+02  0.7816164E-02  0.1320468E+00
        -11   -1    0    0    0    0  0.00000000000E+00  0.00000000000E+00  0.45593999997E+02  0.45594000000E+02  0.51100000000E-03 0.  1.
         11   -1    0    0    0    0 -0.00000000000E+00 -0.00000000000E+00 -0.45593999997E+02  0.45594000000E+02  0.51100000000E-03 0. -1.
    9900012    2    1    2    0    0 -0.43315291537E+02  0.95434818017E+01 -0.78626297904E+01  0.46142317931E+02  0.10000001549E+02 0.  0.
        -12    1    1    2    0    0  0.43315291537E+02 -0.95434818017E+01  0.78626297904E+01  0.45045682069E+02  0.00000000000E+00 0.  1.
         11    1    3    3    0    0 -0.26495401452E+02  0.28040416197E+01 -0.49656880054E+01  0.27102158681E+02  0.51100000000E-03 0. -1.
        -11    1    3    3    0    0 -0.95423489578E+01  0.55707719982E+01  0.18503678075E+00  0.11050980190E+02  0.51100000000E-03 0.  1.
        -12    1    3    3    0    0 -0.72775411268E+01  0.11686681837E+01 -0.30819785658E+01  0.79891790602E+01  0.00000000000E+00 0.  1.
</event>
<event>
 7    1  0.1543346E-008  0.4614232E+02  0.7816164E-02  0.1320468E+00
        -11   -1    0    0    0    0  0.00000000000E+00  0.00000000000E+00  0.45593999997E+02  0.45594000000E+02  0.51100000000E-03 0. -1.
         11   -1    0    0    0    0 -0.00000000000E+00 -0.00000000000E+00 -0.45593999997E+02  0.45594000000E+02  0.51100000000E-03 0.  1.
    9900012    2    1    2    0    0 -0.19109882329E+02 -0.86575191409E+01  0.39861924216E+02  0.46142320490E+02  0.10000024887E+02 0.  0.
        -12    1    1    2    0    0  0.19109882329E+02  0.86575191409E+01 -0.39861924216E+02  0.45045679510E+02  0.00000000000E+00 0.  1.
         11    1    3    3    0    0 -0.11139027348E+02 -0.34619018589E+01  0.18999007969E+02  0.22294057477E+02  0.51100000000E-03 0. -1.
        -11    1    3    3    0    0 -0.29028144686E+01  0.10301623131E+01  0.90992429230E+01  0.96064451418E+01  0.51100000000E-03 0.  1.
        -12    1    3    3    0    0 -0.50680405120E+01 -0.62257795951E+01  0.11763673324E+02  0.14241817871E+02  0.00000000000E+00 0.  1.
</event>
<event>
 7    1  0.1543346E-008  0.4614232E+02  0.7816164E-02  0.1320468E+00
        -11   -1    0    0    0    0  0.00000000000E+00  0.00000000000E+00  0.45593999997E+02  0.45594000000E+02  0.51100000000E-03 0.  1.
         11   -1    0    0    0    0 -0.00000000000E+00 -0.00000000000E+00 -0.45593999997E+02  0.45594000000E+02  0.51100000000E-03 0. -1.
    9900012    2    1    2    0    0  0.23356340536E+02  0.29925700802E+01 -0.38401034752E+02  0.46142316645E+02  0.99999898186E+01 0.  0.
        -12    1    1    2    0    0 -0.23356340536E+02 -0.29925700802E+01  0.38401034752E+02  0.45045683355E+02  0.00000000000E+00 0.  1.
         11    1    3    3    0    0  0.10036100537E+02 -0.18617082365E+01 -0.21244736984E+02  0.23569644065E+02  0.51100000000E-03 0. -1.
        -11    1    3    3    0    0  0.24934603804E+01  0.78213628726E+00 -0.12281405918E+01  0.28874576040E+01  0.51100000000E-03 0.  1.
         12    1    3    3    0    0  0.10826779619E+02  0.40721420295E+01 -0.15928157176E+02  0.19685214976E+02  0.00000000000E+00 0. -1.
</event>
<event>
 7    1  0.1543346E-008  0.4614232E+02  0.7816164E-02  0.1320468E+00
        -11   -1    0    0    0    0  0.00000000000E+00  0.00000000000E+00  0.45593999997E+02  0.45594000000E+02  0.51100000000E-03 0. -1.
         11   -1    0    0    0    0 -0.00000000000E+00 -0.00000000000E+00 -0.45593999997E+02  0.45594000000E+02  0.51100000000E-03 0.  1.
    9900012    2    1    2    0    0  0.31930216324E+02 -0.31480824772E+02  0.43049335650E+01  0.46142317678E+02  0.99999992444E+01 0.  0.
        -12    1    1    2    0    0 -0.31930216324E+02  0.31480824772E+02 -0.43049335650E+01  0.45045682322E+02  0.00000000000E+00 0.  1.
         11    1    3    3    0    0  0.41498151596E+01 -0.87461794110E+01 -0.16377773441E+00  0.96821197863E+01  0.51100000000E-03 0. -1.
        -11    1    3    3    0    0  0.15908715548E+02 -0.10780369735E+02  0.89725659901E+00  0.19238208640E+02  0.51100000000E-03 0.  1.
         12    1    3    3    0    0  0.11871685617E+02 -0.11954275626E+02  0.35714547004E+01  0.17221989252E+02  0.00000000000E+00 0. -1.
</event>
<event>
 7    1  0.1543346E-008  0.4614232E+02  0.7816164E-02  0.1320468E+00
        -11   -1    0    0    0    0  0.00000000000E+00  0.00000000000E+00  0.45593999997E+02  0.45594000000E+02  0.51100000000E-03 0.  1.
         11   -1    0    0    0    0 -0.00000000000E+00 -0.00000000000E+00 -0.45593999997E+02  0.45594000000E+02  0.51100000000E-03 0. -1.
    9900012    2    1    2    0    0  0.14334972471E+02  0.43475709555E+01 -0.42482003007E+02  0.46142318870E+02  0.10000010112E+02 0.  0.
        -12    1    1    2    0    0 -0.14334972471E+02 -0.43475709555E+01  0.42482003007E+02  0.45045681130E+02  0.00000000000E+00 0.  1.
         11    1    3    3    0    0  0.78619383018E+01 -0.41478633671E+00 -0.11692367865E+02  0.14095871315E+02  0.51100000000E-03 0.  1.
        -11    1    3    3    0    0  0.66244029546E+01  0.36884139842E+01 -0.28789728258E+02  0.29771388373E+02  0.51100000000E-03 0. -1.
        -12    1    3    3    0    0 -0.15136878535E+00  0.10739433080E+01 -0.19999068842E+01  0.22750591824E+01  0.00000000000E+00 0.  1.
</event>
<event>
 7    1  0.1543346E-008  0.4614232E+02  0.7816164E-02  0.1320468E+00
        -11   -1    0    0    0    0  0.00000000000E+00  0.00000000000E+00  0.45593999997E+02  0.45594000000E+02  0.51100000000E-03 0.  1.
         11   -1    0    0    0    0 -0.00000000000E+00 -0.00000000000E+00 -0.45593999997E+02  0.45594000000E+02  0.51100000000E-03 0. -1.
    9900012    2    1    2    0    0 -0.19385221855E+02  0.40268631190E+02 -0.56359579379E+01  0.46142317564E+02  0.99999982030E+01 0.  0.
        -12    1    1    2    0    0  0.19385221855E+02 -0.40268631190E+02  0.56359579379E+01  0.45045682436E+02  0.00000000000E+00 0.  1.
         11    1    3    3    0    0 -0.30903802961E+01  0.10211671493E+02  0.82808836360E+00  0.10701140858E+02  0.51100000000E-03 0. -1.
        -11    1    3    3    0    0 -0.29093722510E+00 -0.36781831513E+00 -0.64484697598E-01  0.47338495882E+00  0.51100000000E-03 0.  1.
         12    1    3    3    0    0 -0.16003904333E+02  0.30424778012E+02 -0.63995616039E+01  0.34967791747E+02  0.00000000000E+00 0. -1.
</event>
<event>
 7    1  0.1543346E-008  0.4614232E+02  0.7816164E-02  0.1320468E+00
        -11   -1    0    0    0    0  0.00000000000E+00  0.00000000000E+00  0.45593999997E+02  0.45594000000E+02  0.51100000000E-03 0. -1.
         11   -1    0    0    0    0 -0.00000000000E+00 -0.00000000000E+00 -0.45593999997E+02  0.45594000000E+02  0.51100000000E-03 0.  1.
    9900012    2    1    2    0    0 -0.82050720290E+01 -0.86836829667E+00  0.44283588327E+02  0.46142318013E+02  0.10000002301E+02 0.  0.
        -12    1    1    2    0    0  0.82050720290E+01  0.86836829667E+00 -0.44283588327E+02  0.45045681987E+02  0.00000000000E+00 0.  1.
         11    1    3    3    0    0 -0.52963059402E+01 -0.26486438944E+01  0.21660710217E+02  0.22455568095E+02  0.51100000000E-03 0. -1.
        -11    1    3    3    0    0  0.59090679367E+00 -0.17536907500E+00 -0.89871500284E-01  0.62289830546E+00  0.51100000000E-03 0.  1.
        -12    1    3    3    0    0 -0.34996728825E+01  0.19556446728E+01  0.22712749611E+02  0.23063851613E+02  0.00000000000E+00 0.  1.
</event>
<event>
 7    1  0.1543346E-008  0.4614232E+02  0.7816164E-02  0.1320468E+00
        -11   -1    0    0    0    0  0.00000000000E+00  0.00000000000E+00  0.45593999997E+02  0.45594000000E+02  0.51100000000E-03 0. -1.
         11   -1    0    0    0    0 -0.00000000000E+00 -0.00000000000E+00 -0.45593999997E+02  0.45594000000E+02  0.51100000000E-03 0.  1.
    9900012    2    1    2    0    0 -0.21543312769E+02 -0.80298966180E+01  0.38736545120E+02  0.46142317715E+02  0.99999995772E+01 0.  0.
        -12    1    1    2    0    0  0.21543312769E+02  0.80298966180E+01 -0.38736545120E+02  0.45045682285E+02  0.00000000000E+00 0.  1.
         11    1    3    3    0    0 -0.11617945248E+02 -0.32887054687E+01  0.21493737220E+02  0.24653052050E+02  0.51100000000E-03 0. -1.
        -11    1    3    3    0    0 -0.93178999178E+01 -0.59533913171E+01  0.13168235985E+02  0.17195015740E+02  0.51100000000E-03 0.  1.
         12    1    3    3    0    0 -0.60746760282E+00  0.12122001678E+01  0.40745719142E+01  0.42942499251E+01  0.00000000000E+00 0. -1.
</event>
<event>
 7    1  0.1543346E-008  0.4614232E+02  0.7816164E-02  0.1320468E+00
        -11   -1    0    0    0    0  0.00000000000E+00  0.00000000000E+00  0.45593999997E+02  0.45594000000E+02  0.51100000000E-03 0. -1.
         11   -1    0    0    0    0 -0.00000000000E+00 -0.00000000000E+00 -0.45593999997E+02  0.45594000000E+02  0.51100000000E-03 0.  1.
    9900012    2    1    2    0    0  0.27783946927E+02 -0.34609826211E+02  0.77023193830E+01  0.46142317620E+02  0.99999987105E+01 0.  0.
        -12    1    1    2    0    0 -0.27783946927E+02  0.34609826211E+02 -0.77023193830E+01  0.45045682380E+02  0.00000000000E+00 0.  1.
         11    1    3    3    0    0  0.69970218679E+01 -0.12211570150E+02  0.19239736840E+01  0.14205014451E+02  0.51100000000E-03 0. -1.
        -11    1    3    3    0    0  0.22436667035E+01 -0.64730884322E+01  0.13988098212E+00  0.68523339876E+01  0.51100000000E-03 0.  1.
        -12    1    3    3    0    0  0.18543258356E+02 -0.15925167629E+02  0.56384647169E+01  0.25084969181E+02  0.00000000000E+00 0.  1.
</event>
<event>
 7    1  0.1543346E-008  0.4614232E+02  0.7816164E-02  0.1320468E+00
        -11   -1    0    0    0    0  0.00000000000E+00  0.00000000000E+00  0.45593999997E+02  0.45594000000E+02  0.51100000000E-03 0.  1.
         11   -1    0    0    0    0 -0.00000000000E+00 -0.00000000000E+00 -0.45593999997E+02  0.45594000000E+02  0.51100000000E-03 0. -1.
    9900012    2    1    2    0    0  0.17604996052E+02  0.15124634663E+02 -0.38605998782E+02  0.46142316504E+02  0.99999885374E+01 0.  0.
        -12    1    1    2    0    0 -0.17604996052E+02 -0.15124634663E+02  0.38605998782E+02  0.45045683496E+02  0.00000000000E+00 0.  1.
         11    1    3    3    0    0  0.69305815282E+01  0.73840238912E+01 -0.25546710210E+02  0.27480741838E+02  0.51100000000E-03 0. -1.
        -11    1    3    3    0    0  0.63891210852E+01  0.41875567002E+01 -0.62762445941E+01  0.98867459674E+01  0.51100000000E-03 0.  1.
        -12    1    3    3    0    0  0.42852934387E+01  0.35530540713E+01 -0.67830439777E+01  0.87748286988E+01  0.00000000000E+00 0.  1.
</event>
<event>
 7    1  0.1543346E-008  0.4614232E+02  0.7816164E-02  0.1320468E+00
        -11   -1    0    0    0    0  0.00000000000E+00  0.00000000000E+00  0.45593999997E+02  0.45594000000E+02  0.51100000000E-03 0.  1.
         11   -1    0    0    0    0 -0.00000000000E+00 -0.00000000000E+00 -0.45593999997E+02  0.45594000000E+02  0.51100000000E-03 0. -1.
    9900012    2    1    2    0    0  0.10108614870E+02 -0.28638771930E+02 -0.33267854620E+02  0.46142317596E+02  0.99999984925E+01 0.  0.
        -12    1    1    2    0    0 -0.10108614870E+02  0.28638771930E+02  0.33267854620E+02  0.45045682404E+02  0.00000000000E+00 0.  1.
         11    1    3    3    0    0  0.12777789360E+01 -0.47395736314E+01 -0.17454880316E+01  0.52098950034E+01  0.51100000000E-03 0.  1.
        -11    1    3    3    0    0  0.34992421763E+00 -0.86077377516E+01 -0.98581972614E+01  0.13091968899E+02  0.51100000000E-03 0. -1.
        -12    1    3    3    0    0  0.84809117161E+01 -0.15291460547E+02 -0.21664169327E+02  0.27840453693E+02  0.00000000000E+00 0.  1.
</event>
<event>
 7    1  0.1543346E-008  0.4614232E+02  0.7816164E-02  0.1320468E+00
        -11   -1    0    0    0    0  0.00000000000E+00  0.00000000000E+00  0.45593999997E+02  0.45594000000E+02  0.51100000000E-03 0. -1.
         11   -1    0    0    0    0 -0.00000000000E+00 -0.00000000000E+00 -0.45593999997E+02  0.45594000000E+02  0.51100000000E-03 0.  1.
    9900012    2    1    2    0    0  0.30257626303E+02  0.21363479553E+02  0.25635742590E+02  0.46142317563E+02  0.99999981907E+01 0.  0.
        -12    1    1    2    0    0 -0.30257626303E+02 -0.21363479553E+02 -0.25635742590E+02  0.45045682437E+02  0.00000000000E+00 0.  1.
         11    1    3    3    0    0  0.22642955630E+02  0.15174484481E+02  0.14431343261E+02  0.30842050637E+02  0.51100000000E-03 0. -1.
        -11    1    3    3    0    0  0.59207930478E+01  0.27424621737E+01  0.77885800043E+01  0.10160652924E+02  0.51100000000E-03 0.  1.
        -12    1    3    3    0    0  0.16938776250E+01  0.34465328991E+01  0.34158193245E+01  0.51396140021E+01  0.00000000000E+00 0.  1.
</event>
<event>
 7    1  0.1543346E-008  0.4614231E+02  0.7816164E-02  0.1320468E+00
        -11   -1    0    0    0    0  0.00000000000E+00  0.00000000000E+00  0.45593999997E+02  0.45594000000E+02  0.51100000000E-03 0.  1.
         11   -1    0    0    0    0 -0.00000000000E+00 -0.00000000000E+00 -0.45593999997E+02  0.45594000000E+02  0.51100000000E-03 0. -1.
    9900012    2    1    2    0    0 -0.10278020108E+02 -0.10185123359E+02 -0.42658403845E+02  0.46142313705E+02  0.99999630102E+01 0.  0.
        -12    1    1    2    0    0  0.10278020108E+02  0.10185123359E+02  0.42658403845E+02  0.45045686295E+02  0.00000000000E+00 0.  1.
         11    1    3    3    0    0 -0.37627449443E+01 -0.42210379928E+01 -0.26000625558E+02  0.26608418610E+02  0.51100000000E-03 0. -1.
        -11    1    3    3    0    0 -0.17737823687E+01  0.78998822299E+00 -0.34956870947E+01  0.39987765390E+01  0.51100000000E-03 0.  1.
         12    1    3    3    0    0 -0.47414927952E+01 -0.67540735893E+01 -0.13162091192E+02  0.15535118556E+02  0.00000000000E+00 0. -1.
</event>
<event>
 7    1  0.1543346E-008  0.4614231E+02  0.7816164E-02  0.1320468E+00
        -11   -1    0    0    0    0  0.00000000000E+00  0.00000000000E+00  0.45593999997E+02  0.45594000000E+02  0.51100000000E-03 0. -1.
         11   -1    0    0    0    0 -0.00000000000E+00 -0.00000000000E+00 -0.45593999997E+02  0.45594000000E+02  0.51100000000E-03 0.  1.
    9900012    2    1    2    0    0  0.25366825822E+02 -0.30805710130E+02  0.20896081863E+02  0.46142313568E+02  0.99999617669E+01 0.  0.
        -12    1    1    2    0    0 -0.25366825822E+02  0.30805710130E+02 -0.20896081863E+02  0.45045686432E+02  0.00000000000E+00 0.  1.
         11    1    3    3    0    0  0.80834810164E+01 -0.55456438929E+01  0.58158096455E+01  0.11398266255E+02  0.51100000000E-03 0. -1.
        -11    1    3    3    0    0  0.71020948400E-01 -0.90019962856E+00 -0.56236739267E+00  0.10637954182E+01  0.51100000000E-03 0.  1.
        -12    1    3    3    0    0  0.17212323857E+02 -0.24359866608E+02  0.15642639610E+02  0.33680251895E+02  0.00000000000E+00 0.  1.
</event>
<event>
 7    1  0.1543346E-008  0.4614231E+02  0.7816164E-02  0.1320468E+00
        -11   -1    0    0    0    0  0.00000000000E+00  0.00000000000E+00  0.45593999997E+02  0.45594000000E+02  0.51100000000E-03 0.  1.
         11   -1    0    0    0    0 -0.00000000000E+00 -0.00000000000E+00 -0.45593999997E+02  0.45594000000E+02  0.51100000000E-03 0. -1.
    9900012    2    1    2    0    0 -0.28543188775E+02 -0.16094513963E+02 -0.30909008661E+02  0.46142314063E+02  0.99999662777E+01 0.  0.
        -12    1    1    2    0    0  0.28543188775E+02  0.16094513963E+02  0.30909008661E+02  0.45045685937E+02  0.00000000000E+00 0.  1.
         11    1    3    3    0    0 -0.10647310227E+02 -0.79902175416E+01 -0.12775726169E+02  0.18450690254E+02  0.51100000000E-03 0. -1.
        -11    1    3    3    0    0 -0.46779971080E+01 -0.29050446260E+01 -0.12840504274E+01  0.56543546919E+01  0.51100000000E-03 0.  1.
         12    1    3    3    0    0 -0.13217881440E+02 -0.51992517955E+01 -0.16849232064E+02  0.22037269117E+02  0.00000000000E+00 0. -1.
</event>
<event>
 7    1  0.1543346E-008  0.4614232E+02  0.7816164E-02  0.1320468E+00
        -11   -1    0    0    0    0  0.00000000000E+00  0.00000000000E+00  0.45593999997E+02  0.45594000000E+02  0.51100000000E-03 0. -1.
         11   -1    0    0    0    0 -0.00000000000E+00 -0.00000000000E+00 -0.45593999997E+02  0.45594000000E+02  0.51100000000E-03 0.  1.
    9900012    2    1    2    0    0  0.30502707011E+02  0.22286070780E+02  0.24536287624E+02  0.46142317674E+02  0.99999992064E+01 0.  0.
        -12    1    1    2    0    0 -0.30502707011E+02 -0.22286070780E+02 -0.24536287624E+02  0.45045682326E+02  0.00000000000E+00 0.  1.
         11    1    3    3    0    0  0.30003730470E+01  0.43994043220E+01  0.63485217509E+00  0.53628382742E+01  0.51100000000E-03 0. -1.
        -11    1    3    3    0    0  0.16385407827E+02  0.99747672388E+01  0.16219691458E+02  0.25120827264E+02  0.51100000000E-03 0.  1.
         12    1    3    3    0    0  0.11116926137E+02  0.79118992196E+01  0.76817439906E+01  0.15658652136E+02  0.00000000000E+00 0. -1.
</event>
<event>
 7    1  0.1543346E-008  0.4614232E+02  0.7816164E-02  0.1320468E+00
        -11   -1    0    0    0    0  0.00000000000E+00  0.00000000000E+00  0.45593999997E+02  0.45594000000E+02  0.51100000000E-03 0.  1.
         11   -1    0    0    0    0 -0.00000000000E+00 -0.00000000000E+00 -0.45593999997E+02  0.45594000000E+02  0.51100000000E-03 0. -1.
    9900012    2    1    2    0    0  0.25966877069E+02  0.20000218144E+02 -0.30900258146E+02  0.46142318920E+02  0.10000010567E+02 0.  0.
        -12    1    1    2    0    0 -0.25966877069E+02 -0.20000218144E+02  0.30900258146E+02  0.45045681080E+02  0.00000000000E+00 0.  1.
         11    1    3    3    0    0  0.40598593204E+01  0.62749178514E+01 -0.71355387503E+01  0.10333100467E+02  0.51100000000E-03 0. -1.
        -11    1    3    3    0    0  0.18146893703E+02  0.88141920894E+01 -0.20705429410E+02  0.28908727758E+02  0.51100000000E-03 0.  1.
        -12    1    3    3    0    0  0.37601240453E+01  0.49111082034E+01 -0.30592899852E+01  0.69004906953E+01  0.00000000000E+00 0.  1.
</event>
<event>
 7    1  0.1543346E-008  0.4614232E+02  0.7816164E-02  0.1320468E+00
        -11   -1    0    0    0    0  0.00000000000E+00  0.00000000000E+00  0.45593999997E+02  0.45594000000E+02  0.51100000000E-03 0. -1.
         11   -1    0    0    0    0 -0.00000000000E+00 -0.00000000000E+00 -0.45593999997E+02  0.45594000000E+02  0.51100000000E-03 0.  1.
    9900012    2    1    2    0    0 -0.32428546827E+02 -0.16763790953E+02  0.26390876630E+02  0.46142315348E+02  0.99999779986E+01 0.  0.
        -12    1    1    2    0    0  0.32428546827E+02  0.16763790953E+02 -0.26390876630E+02  0.45045684652E+02  0.00000000000E+00 0.  1.
         11    1    3    3    0    0 -0.59005675630E+01 -0.21568370246E+01  0.85428485196E+01  0.10604192784E+02  0.51100000000E-03 0.  1.
        -11    1    3    3    0    0 -0.61515287022E+01 -0.25229126384E+01  0.16835803091E+01  0.68586322596E+01  0.51100000000E-03 0. -1.
        -12    1    3    3    0    0 -0.20376450562E+02 -0.12084041290E+02  0.16164447802E+02  0.28679490304E+02  0.00000000000E+00 0.  1.
</event>
<event>
 7    1  0.1543346E-008  0.4614232E+02  0.7816164E-02  0.1320468E+00
        -11   -1    0    0    0    0  0.00000000000E+00  0.00000000000E+00  0.45593999997E+02  0.45594000000E+02  0.51100000000E-03 0. -1.
         11   -1    0    0    0    0 -0.00000000000E+00 -0.00000000000E+00 -0.45593999997E+02  0.45594000000E+02  0.51100000000E-03 0.  1.
    9900012    2    1    2    0    0  0.29528547801E+02  0.73761188203E+01  0.33207999782E+02  0.46142317481E+02  0.99999974449E+01 0.  0.
        -12    1    1    2    0    0 -0.29528547801E+02 -0.73761188203E+01 -0.33207999782E+02  0.45045682519E+02  0.00000000000E+00 0.  1.
         11    1    3    3    0    0  0.12261814477E+02  0.23222905051E+01  0.15945047688E+02  0.20248201735E+02  0.51100000000E-03 0. -1.
        -11    1    3    3    0    0  0.54527604655E+01 -0.15804344002E+01  0.61562126821E+01  0.83743253123E+01  0.51100000000E-03 0.  1.
         12    1    3    3    0    0  0.11813972859E+02  0.66342627154E+01  0.11106739412E+02  0.17519790434E+02  0.00000000000E+00 0. -1.
</event>
<event>
 7    1  0.1543346E-008  0.4614232E+02  0.7816164E-02  0.1320468E+00
        -11   -1    0    0    0    0  0.00000000000E+00  0.00000000000E+00  0.45593999997E+02  0.45594000000E+02  0.51100000000E-03 0.  1.
         11   -1    0    0    0    0 -0.00000000000E+00 -0.00000000000E+00 -0.45593999997E+02  0.45594000000E+02  0.51100000000E-03 0. -1.
    9900012    2    1    2    0    0  0.10571452980E+02  0.33111407254E+02 -0.28652966922E+02  0.46142318499E+02  0.10000006726E+02 0.  0.
        -12    1    1    2    0    0 -0.10571452980E+02 -0.33111407254E+02  0.28652966922E+02  0.45045681501E+02  0.00000000000E+00 0.  1.
         11    1    3    3    0    0  0.51482855216E+01  0.27654671535E+02 -0.23588984393E+02  0.36711386333E+02  0.51100000000E-03 0. -1.
        -11    1    3    3    0    0  0.31769014784E+01  0.21872306306E+01 -0.33536853177E+01  0.51111531288E+01  0.51100000000E-03 0.  1.
         12    1    3    3    0    0  0.22462659801E+01  0.32695050882E+01 -0.17102972118E+01  0.43197790370E+01  0.00000000000E+00 0. -1.
</event>
<event>
 7    1  0.1543346E-008  0.4614232E+02  0.7816164E-02  0.1320468E+00
        -11   -1    0    0    0    0  0.00000000000E+00  0.00000000000E+00  0.45593999997E+02  0.45594000000E+02  0.51100000000E-03 0.  1.
         11   -1    0    0    0    0 -0.00000000000E+00 -0.00000000000E+00 -0.45593999997E+02  0.45594000000E+02  0.51100000000E-03 0. -1.
    9900012    2    1    2    0    0  0.37940503259E+02  0.24274831275E+02  0.60364067942E+00  0.46142316488E+02  0.99999883905E+01 0.  0.
        -12    1    1    2    0    0 -0.37940503259E+02 -0.24274831275E+02 -0.60364067942E+00  0.45045683512E+02  0.00000000000E+00 0.  1.
         11    1    3    3    0    0  0.24937085772E+02  0.16807241029E+02 -0.94489321838E+00  0.30087113874E+02  0.51100000000E-03 0. -1.
        -11    1    3    3    0    0  0.47244614335E+01  0.43590977174E+01  0.29995994984E+01  0.70936497065E+01  0.51100000000E-03 0.  1.
         12    1    3    3    0    0  0.82789560532E+01  0.31084925290E+01 -0.14510656006E+01  0.89615529073E+01  0.00000000000E+00 0. -1.
</event>
<event>
 7    1  0.1543346E-008  0.4614231E+02  0.7816164E-02  0.1320468E+00
        -11   -1    0    0    0    0  0.00000000000E+00  0.00000000000E+00  0.45593999997E+02  0.45594000000E+02  0.51100000000E-03 0.  1.
         11   -1    0    0    0    0 -0.00000000000E+00 -0.00000000000E+00 -0.45593999997E+02  0.45594000000E+02  0.51100000000E-03 0. -1.
    9900012    2    1    2    0    0  0.44993921110E+02  0.17902389361E+01 -0.12068626305E+01  0.46142307534E+02  0.99999067445E+01 0.  0.
        -12    1    1    2    0    0 -0.44993921110E+02 -0.17902389361E+01  0.12068626305E+01  0.45045692466E+02  0.00000000000E+00 0.  1.
         11    1    3    3    0    0  0.14768295492E+02  0.30399517020E+01 -0.33494854987E+01  0.15445481911E+02  0.51100000000E-03 0. -1.
        -11    1    3    3    0    0 -0.15940003238E+00 -0.80046455291E-01 -0.10389325757E+00  0.20642159629E+00  0.51100000000E-03 0.  1.
         12    1    3    3    0    0  0.30385025650E+02 -0.11696663106E+01  0.22465161258E+01  0.30490404027E+02  0.00000000000E+00 0. -1.
</event>
<event>
 7    1  0.1543346E-008  0.4614232E+02  0.7816164E-02  0.1320468E+00
        -11   -1    0    0    0    0  0.00000000000E+00  0.00000000000E+00  0.45593999997E+02  0.45594000000E+02  0.51100000000E-03 0.  1.
         11   -1    0    0    0    0 -0.00000000000E+00 -0.00000000000E+00 -0.45593999997E+02  0.45594000000E+02  0.51100000000E-03 0. -1.
    9900012    2    1    2    0    0  0.17707186174E+02  0.38845020931E+02 -0.14374752851E+02  0.46142316379E+02  0.99999873990E+01 0.  0.
        -12    1    1    2    0    0 -0.17707186174E+02 -0.38845020931E+02  0.14374752851E+02  0.45045683621E+02  0.00000000000E+00 0.  1.
         11    1    3    3    0    0  0.14204986303E+02  0.29874967728E+02 -0.11770069363E+02  0.35111677056E+02  0.51100000000E-03 0. -1.
        -11    1    3    3    0    0  0.11852429259E+01 -0.18448433816E+00  0.11120527272E+00  0.12046585152E+01  0.51100000000E-03 0.  1.
        -12    1    3    3    0    0  0.23169569452E+01  0.91545375411E+01 -0.27158887608E+01  0.98259808080E+01  0.00000000000E+00 0.  1.
</event>
<event>
 7    1  0.1543346E-008  0.4614232E+02  0.7816164E-02  0.1320468E+00
        -11   -1    0    0    0    0  0.00000000000E+00  0.00000000000E+00  0.45593999997E+02  0.45594000000E+02  0.51100000000E-03 0. -1.
         11   -1    0    0    0    0 -0.00000000000E+00 -0.00000000000E+00 -0.45593999997E+02  0.45594000000E+02  0.51100000000E-03 0.  1.
    9900012    2    1    2    0    0  0.50475787127E+01  0.43840445365E+02  0.90360757834E+01  0.46142319117E+02  0.10000012366E+02 0.  0.
        -12    1    1    2    0    0 -0.50475787127E+01 -0.43840445365E+02 -0.90360757834E+01  0.45045680883E+02  0.00000000000E+00 0.  1.
         11    1    3    3    0    0 -0.22131913738E+01  0.93184001586E+01  0.41232510825E+01  0.10427463609E+02  0.51100000000E-03 0. -1.
        -11    1    3    3    0    0  0.27861120936E+01  0.88416958218E+01  0.20175694101E+01  0.94872858178E+01  0.51100000000E-03 0.  1.
         12    1    3    3    0    0  0.44746579930E+01  0.25680349384E+02  0.28952552909E+01  0.26227569690E+02  0.00000000000E+00 0. -1.
</event>
<event>
 7    1  0.1543346E-008  0.4614232E+02  0.7816164E-02  0.1320468E+00
        -11   -1    0    0    0    0  0.00000000000E+00  0.00000000000E+00  0.45593999997E+02  0.45594000000E+02  0.51100000000E-03 0.  1.
         11   -1    0    0    0    0 -0.00000000000E+00 -0.00000000000E+00 -0.45593999997E+02  0.45594000000E+02  0.51100000000E-03 0. -1.
    9900012    2    1    2    0    0 -0.14166157141E+02  0.35331958713E+02 -0.24084978396E+02  0.46142317643E+02  0.99999989229E+01 0.  0.
        -12    1    1    2    0    0  0.14166157141E+02 -0.35331958713E+02  0.24084978396E+02  0.45045682357E+02  0.00000000000E+00 0.  1.
         11    1    3    3    0    0 -0.68932675525E+01  0.12948444233E+02 -0.12801969341E+02  0.19469714042E+02  0.51100000000E-03 0. -1.
        -11    1    3    3    0    0 -0.46555795947E+01  0.19892625455E+02 -0.85725164929E+01  0.22155789494E+02  0.51100000000E-03 0.  1.
        -12    1    3    3    0    0 -0.26173099943E+01  0.24908890253E+01 -0.27104925618E+01  0.45168141063E+01  0.00000000000E+00 0.  1.
</event>
<event>
 7    1  0.1543346E-008  0.4614232E+02  0.7816164E-02  0.1320468E+00
        -11   -1    0    0    0    0  0.00000000000E+00  0.00000000000E+00  0.45593999997E+02  0.45594000000E+02  0.51100000000E-03 0. -1.
         11   -1    0    0    0    0 -0.00000000000E+00 -0.00000000000E+00 -0.45593999997E+02  0.45594000000E+02  0.51100000000E-03 0.  1.
    9900012    2    1    2    0    0  0.42412432310E+01 -0.40030324161E+02  0.20216292937E+02  0.46142317668E+02  0.99999991541E+01 0.  0.
        -12    1    1    2    0    0 -0.42412432310E+01  0.40030324161E+02 -0.20216292937E+02  0.45045682332E+02  0.00000000000E+00 0.  1.
         11    1    3    3    0    0  0.38619189399E+01 -0.16788595402E+02  0.10943444624E+02  0.20409074795E+02  0.51100000000E-03 0. -1.
        -11    1    3    3    0    0  0.61158290907E+00 -0.21419550055E+02  0.10134828195E+02  0.23704132573E+02  0.51100000000E-03 0.  1.
        -12    1    3    3    0    0 -0.23225861791E+00 -0.18221787037E+01 -0.86197988240E+00  0.20291103005E+01  0.00000000000E+00 0.  1.
</event>
<event>
 7    1  0.1543346E-008  0.4614232E+02  0.7816164E-02  0.1320468E+00
        -11   -1    0    0    0    0  0.00000000000E+00  0.00000000000E+00  0.45593999997E+02  0.45594000000E+02  0.51100000000E-03 0.  1.
         11   -1    0    0    0    0 -0.00000000000E+00 -0.00000000000E+00 -0.45593999997E+02  0.45594000000E+02  0.51100000000E-03 0. -1.
    9900012    2    1    2    0    0  0.12128443220E+02 -0.11878893517E+02 -0.41724169226E+02  0.46142317146E+02  0.99999943926E+01 0.  0.
        -12    1    1    2    0    0 -0.12128443220E+02  0.11878893517E+02  0.41724169226E+02  0.45045682854E+02  0.00000000000E+00 0.  1.
         11    1    3    3    0    0  0.25734069655E+00 -0.19333148389E+01 -0.72432034102E+01  0.75011949983E+01  0.51100000000E-03 0. -1.
        -11    1    3    3    0    0  0.70825786572E+01 -0.50152039413E+01 -0.27531821924E+02  0.28867220332E+02  0.51100000000E-03 0.  1.
        -12    1    3    3    0    0  0.47885238666E+01 -0.49303747364E+01 -0.69491438926E+01  0.97739018157E+01  0.00000000000E+00 0.  1.
</event>
<event>
 7    1  0.1543346E-008  0.4614231E+02  0.7816164E-02  0.1320468E+00
        -11   -1    0    0    0    0  0.00000000000E+00  0.00000000000E+00  0.45593999997E+02  0.45594000000E+02  0.51100000000E-03 0.  1.
         11   -1    0    0    0    0 -0.00000000000E+00 -0.00000000000E+00 -0.45593999997E+02  0.45594000000E+02  0.51100000000E-03 0. -1.
    9900012    2    1    2    0    0 -0.24257467344E+02 -0.25148547536E+02 -0.28429562084E+02  0.46142310246E+02  0.99999314738E+01 0.  0.
        -12    1    1    2    0    0  0.24257467344E+02  0.25148547536E+02  0.28429562084E+02  0.45045689754E+02  0.00000000000E+00 0.  1.
         11    1    3    3    0    0 -0.79964996405E+01 -0.10171425390E+02 -0.16035016145E+02  0.20603971559E+02  0.51100000000E-03 0. -1.
        -11    1    3    3    0    0 -0.16250277226E+02 -0.14564589968E+02 -0.11781237347E+02  0.24799119834E+02  0.51100000000E-03 0.  1.
        -12    1    3    3    0    0 -0.10690477143E-01 -0.41253217836E+00 -0.61330859207E+00  0.73921885365E+00  0.00000000000E+00 0.  1.
</event>
<event>
 7    1  0.1543346E-008  0.4614232E+02  0.7816164E-02  0.1320468E+00
        -11   -1    0    0    0    0  0.00000000000E+00  0.00000000000E+00  0.45593999997E+02  0.45594000000E+02  0.51100000000E-03 0.  1.
         11   -1    0    0    0    0 -0.00000000000E+00 -0.00000000000E+00 -0.45593999997E+02  0.45594000000E+02  0.51100000000E-03 0. -1.
    9900012    2    1    2    0    0  0.44996701614E+02 -0.20199277842E+01  0.57469473276E+00  0.46142317206E+02  0.99999949349E+01 0.  0.
        -12    1    1    2    0    0 -0.44996701614E+02  0.20199277842E+01 -0.57469473276E+00  0.45045682794E+02  0.00000000000E+00 0.  1.
         11    1    3    3    0    0  0.78171908178E+01 -0.35909000509E+00  0.13056539220E+00  0.78265232062E+01  0.51100000000E-03 0. -1.
        -11    1    3    3    0    0  0.18479279483E+02 -0.44739726403E+01  0.29471685705E+01  0.19240218404E+02  0.51100000000E-03 0.  1.
        -12    1    3    3    0    0  0.18700231313E+02  0.28131348611E+01 -0.25030392299E+01  0.19075575595E+02  0.00000000000E+00 0.  1.
</event>
<event>
 7    1  0.1543346E-008  0.4614232E+02  0.7816164E-02  0.1320468E+00
        -11   -1    0    0    0    0  0.00000000000E+00  0.00000000000E+00  0.45593999997E+02  0.45594000000E+02  0.51100000000E-03 0.  1.
         11   -1    0    0    0    0 -0.00000000000E+00 -0.00000000000E+00 -0.45593999997E+02  0.45594000000E+02  0.51100000000E-03 0. -1.
    9900012    2    1    2    0    0  0.19919442201E+02 -0.15330764202E+02 -0.37380437931E+02  0.46142315984E+02  0.99999837912E+01 0.  0.
        -12    1    1    2    0    0 -0.19919442201E+02  0.15330764202E+02  0.37380437931E+02  0.45045684016E+02  0.00000000000E+00 0.  1.
         11    1    3    3    0    0  0.10724206501E+02 -0.50600895767E+01 -0.19760388461E+02  0.23045304597E+02  0.51100000000E-03 0. -1.
        -11    1    3    3    0    0 -0.76084329555E+00 -0.14126974072E+01 -0.20304458863E+01  0.25879156174E+01  0.51100000000E-03 0.  1.
        -12    1    3    3    0    0  0.99560789952E+01 -0.88579772181E+01 -0.15589603584E+02  0.20509095769E+02  0.00000000000E+00 0.  1.
</event>
<event>
 7    1  0.1543346E-008  0.4614232E+02  0.7816164E-02  0.1320468E+00
        -11   -1    0    0    0    0  0.00000000000E+00  0.00000000000E+00  0.45593999997E+02  0.45594000000E+02  0.51100000000E-03 0.  1.
         11   -1    0    0    0    0 -0.00000000000E+00 -0.00000000000E+00 -0.45593999997E+02  0.45594000000E+02  0.51100000000E-03 0. -1.
    9900012    2    1    2    0    0  0.17616816015E+02  0.39431298060E+02 -0.12803660870E+02  0.46142320908E+02  0.10000028695E+02 0.  0.
        -12    1    1    2    0    0 -0.17616816015E+02 -0.39431298060E+02  0.12803660870E+02  0.45045679092E+02  0.00000000000E+00 0.  1.
         11    1    3    3    0    0  0.91734963836E+01  0.22554908853E+02 -0.47334834319E+01  0.24804894979E+02  0.51100000000E-03 0. -1.
        -11    1    3    3    0    0  0.42910616686E+00  0.36955461241E+01  0.39512984466E+00  0.37412993883E+01  0.51100000000E-03 0.  1.
         12    1    3    3    0    0  0.80142134641E+01  0.13180843083E+02 -0.84653072832E+01  0.17596126540E+02  0.00000000000E+00 0. -1.
</event>
<event>
 7    1  0.1791187E-008  0.4614232E+02  0.7816164E-02  0.1320468E+00
        -11   -1    0    0    0    0  0.00000000000E+00  0.00000000000E+00  0.45593999997E+02  0.45594000000E+02  0.51100000000E-03 0. -1.
         11   -1    0    0    0    0 -0.00000000000E+00 -0.00000000000E+00 -0.45593999997E+02  0.45594000000E+02  0.51100000000E-03 0.  1.
    9900012    2    1    2    0    0  0.30870886486E+02  0.32212945187E+02  0.61990322303E+01  0.46142317958E+02  0.10000001792E+02 0.  0.
        -12    1    1    2    0    0 -0.30870886486E+02 -0.32212945187E+02 -0.61990322303E+01  0.45045682042E+02  0.00000000000E+00 0.  1.
         11    1    3    3    0    0  0.16220280183E+02  0.16248516985E+02 -0.31933164578E+00  0.22961136000E+02  0.51100000000E-03 0. -1.
        -11    1    3    3    0    0  0.15146967387E+00  0.14897809227E+01  0.14313587678E+01  0.20715159770E+01  0.51100000000E-03 0.  1.
         12    1    3    3    0    0  0.14499136629E+02  0.14474647279E+02  0.50870051083E+01  0.21109665981E+02  0.00000000000E+00 0. -1.
</event>
<event>
 7    1  0.1543346E-008  0.4614232E+02  0.7816164E-02  0.1320468E+00
        -11   -1    0    0    0    0  0.00000000000E+00  0.00000000000E+00  0.45593999997E+02  0.45594000000E+02  0.51100000000E-03 0.  1.
         11   -1    0    0    0    0 -0.00000000000E+00 -0.00000000000E+00 -0.45593999997E+02  0.45594000000E+02  0.51100000000E-03 0. -1.
    9900012    2    1    2    0    0  0.30399529767E+02 -0.27890972061E+00 -0.33240100425E+02  0.46142317888E+02  0.10000001160E+02 0.  0.
        -12    1    1    2    0    0 -0.30399529767E+02  0.27890972061E+00  0.33240100425E+02  0.45045682112E+02  0.00000000000E+00 0.  1.
         11    1    3    3    0    0  0.24913120099E+02 -0.64742680724E+00 -0.25854986104E+02  0.35910486229E+02  0.51100000000E-03 0. -1.
        -11    1    3    3    0    0  0.60353697201E+00  0.89500581168E+00  0.29195283662E+00  0.11182705395E+01  0.51100000000E-03 0.  1.
        -12    1    3    3    0    0  0.48828726954E+01 -0.52648872506E+00 -0.76770671576E+01  0.91135611195E+01  0.00000000000E+00 0.  1.
</event>
<event>
 7    1  0.1543346E-008  0.4614232E+02  0.7816164E-02  0.1320468E+00
        -11   -1    0    0    0    0  0.00000000000E+00  0.00000000000E+00  0.45593999997E+02  0.45594000000E+02  0.51100000000E-03 0.  1.
         11   -1    0    0    0    0 -0.00000000000E+00 -0.00000000000E+00 -0.45593999997E+02  0.45594000000E+02  0.51100000000E-03 0. -1.
    9900012    2    1    2    0    0 -0.26520105649E+02 -0.31684791629E+02 -0.17940777638E+02  0.46142317338E+02  0.99999961445E+01 0.  0.
        -12    1    1    2    0    0  0.26520105649E+02  0.31684791629E+02  0.17940777638E+02  0.45045682662E+02  0.00000000000E+00 0.  1.
         11    1    3    3    0    0 -0.29930928485E+01 -0.26383438969E+01 -0.15465252218E+01  0.42791592446E+01  0.51100000000E-03 0. -1.
        -11    1    3    3    0    0 -0.63369216023E+01 -0.56440667012E+01 -0.79368122442E+01  0.11619167491E+02  0.51100000000E-03 0.  1.
        -12    1    3    3    0    0 -0.17190091198E+02 -0.23402381031E+02 -0.84574401719E+01  0.30243990603E+02  0.00000000000E+00 0.  1.
</event>
<event>
 7    1  0.1543346E-008  0.4614232E+02  0.7816164E-02  0.1320468E+00
        -11   -1    0    0    0    0  0.00000000000E+00  0.00000000000E+00  0.45593999997E+02  0.45594000000E+02  0.51100000000E-03 0.  1.
         11   -1    0    0    0    0 -0.00000000000E+00 -0.00000000000E+00 -0.45593999997E+02  0.45594000000E+02  0.51100000000E-03 0. -1.
    9900012    2    1    2    0    0 -0.14737941815E+02  0.96018976372E+01 -0.41469387437E+02  0.46142318058E+02  0.10000002708E+02 0.  0.
        -12    1    1    2    0    0  0.14737941815E+02 -0.96018976372E+01  0.41469387437E+02  0.45045681942E+02  0.00000000000E+00 0.  1.
         11    1    3    3    0    0 -0.39938832097E+01  0.79510714768E-01 -0.14711589765E+02  0.15244287413E+02  0.51100000000E-03 0. -1.
        -11    1    3    3    0    0 -0.74143810727E+01  0.75040730867E+01 -0.13814259162E+02  0.17381539519E+02  0.51100000000E-03 0.  1.
        -12    1    3    3    0    0 -0.33296775329E+01  0.20183138357E+01 -0.12943538510E+02  0.13516491126E+02  0.00000000000E+00 0.  1.
</event>
<event>
 7    1  0.1585445E-008  0.4614232E+02  0.7816164E-02  0.1320468E+00
        -11   -1    0    0    0    0  0.00000000000E+00  0.00000000000E+00  0.45593999997E+02  0.45594000000E+02  0.51100000000E-03 0. -1.
         11   -1    0    0    0    0 -0.00000000000E+00 -0.00000000000E+00 -0.45593999997E+02  0.45594000000E+02  0.51100000000E-03 0.  1.
    9900012    2    1    2    0    0 -0.40038211184E+01  0.42008503749E+02  0.15759711448E+02  0.46142317902E+02  0.10000001285E+02 0.  0.
        -12    1    1    2    0    0  0.40038211184E+01 -0.42008503749E+02 -0.15759711448E+02  0.45045682098E+02  0.00000000000E+00 0.  1.
         11    1    3    3    0    0 -0.15006335576E+01  0.13916920357E+02  0.93550572819E+01  0.16835963599E+02  0.51100000000E-03 0. -1.
        -11    1    3    3    0    0 -0.98293214244E+00  0.13544847483E+01 -0.29835869837E+00  0.16999419708E+01  0.51100000000E-03 0.  1.
         12    1    3    3    0    0 -0.15202554184E+01  0.26737098643E+02  0.67030128645E+01  0.27606412332E+02  0.00000000000E+00 0. -1.
</event>
<event>
 7    1  0.1543346E-008  0.4614232E+02  0.7816164E-02  0.1320468E+00
        -11   -1    0    0    0    0  0.00000000000E+00  0.00000000000E+00  0.45593999997E+02  0.45594000000E+02  0.51100000000E-03 0. -1.
         11   -1    0    0    0    0 -0.00000000000E+00 -0.00000000000E+00 -0.45593999997E+02  0.45594000000E+02  0.51100000000E-03 0.  1.
    9900012    2    1    2    0    0  0.15719935013E+02 -0.17675041036E+02  0.38335234471E+02  0.46142316141E+02  0.99999852251E+01 0.  0.
        -12    1    1    2    0    0 -0.15719935013E+02  0.17675041036E+02 -0.38335234471E+02  0.45045683859E+02  0.00000000000E+00 0.  1.
         11    1    3    3    0    0  0.14475106589E+02 -0.10773867020E+02  0.31381867907E+02  0.36199814294E+02  0.51100000000E-03 0. -1.
        -11    1    3    3    0    0  0.43670938893E+00 -0.92564389478E+00  0.14766980004E+01  0.17967105932E+01  0.51100000000E-03 0.  1.
         12    1    3    3    0    0  0.80811903511E+00 -0.59755301204E+01  0.54766685634E+01  0.81457912537E+01  0.00000000000E+00 0. -1.
</event>
<event>
 7    1  0.1543346E-008  0.4614232E+02  0.7816164E-02  0.1320468E+00
        -11   -1    0    0    0    0  0.00000000000E+00  0.00000000000E+00  0.45593999997E+02  0.45594000000E+02  0.51100000000E-03 0.  1.
         11   -1    0    0    0    0 -0.00000000000E+00 -0.00000000000E+00 -0.45593999997E+02  0.45594000000E+02  0.51100000000E-03 0. -1.
    9900012    2    1    2    0    0 -0.21609863652E+02 -0.12826555899E+02 -0.37384578846E+02  0.46142317867E+02  0.10000000968E+02 0.  0.
        -12    1    1    2    0    0  0.21609863652E+02  0.12826555899E+02  0.37384578846E+02  0.45045682133E+02  0.00000000000E+00 0.  1.
         11    1    3    3    0    0 -0.95204406959E+01 -0.51317019253E+01 -0.10939791027E+02  0.15383503622E+02  0.51100000000E-03 0. -1.
        -11    1    3    3    0    0 -0.92223059846E+01 -0.86893031917E+01 -0.21076723912E+02  0.24592340449E+02  0.51100000000E-03 0.  1.
        -12    1    3    3    0    0 -0.28671169716E+01  0.99444921809E+00 -0.53680639064E+01  0.61664737962E+01  0.00000000000E+00 0.  1.
</event>
<event>
 7    1  0.1543346E-008  0.4614232E+02  0.7816164E-02  0.1320468E+00
        -11   -1    0    0    0    0  0.00000000000E+00  0.00000000000E+00  0.45593999997E+02  0.45594000000E+02  0.51100000000E-03 0. -1.
         11   -1    0    0    0    0 -0.00000000000E+00 -0.00000000000E+00 -0.45593999997E+02  0.45594000000E+02  0.51100000000E-03 0.  1.
    9900012    2    1    2    0    0 -0.42828120827E+02  0.12146618304E+02 -0.68793340781E+01  0.46142317552E+02  0.99999980969E+01 0.  0.
        -12    1    1    2    0    0  0.42828120827E+02 -0.12146618304E+02  0.68793340781E+01  0.45045682448E+02  0.00000000000E+00 0.  1.
         11    1    3    3    0    0 -0.31951627293E+00  0.12942546249E+01  0.39851041785E+00  0.13914009117E+01  0.51100000000E-03 0. -1.
        -11    1    3    3    0    0 -0.61100363134E+01  0.33043149383E+01 -0.49232638666E+00  0.69637221724E+01  0.51100000000E-03 0.  1.
         12    1    3    3    0    0 -0.36398568241E+02  0.75480487413E+01 -0.67855181093E+01  0.37787194468E+02  0.00000000000E+00 0. -1.
</event>
<event>
 7    1  0.1607912E-008  0.4614232E+02  0.7816164E-02  0.1320468E+00
        -11   -1    0    0    0    0  0.00000000000E+00  0.00000000000E+00  0.45593999997E+02  0.45594000000E+02  0.51100000000E-03 0. -1.
         11   -1    0    0    0    0 -0.00000000000E+00 -0.00000000000E+00 -0.45593999997E+02  0.45594000000E+02  0.51100000000E-03 0.  1.
    9900012    2    1    2    0    0  0.10805942334E+01  0.39552829730E+02  0.21529505124E+02  0.46142316361E+02  0.99999872361E+01 0.  0.
        -12    1    1    2    0    0 -0.10805942334E+01 -0.39552829730E+02 -0.21529505124E+02  0.45045683639E+02  0.00000000000E+00 0.  1.
         11    1    3    3    0    0  0.15765365643E+01  0.33364507860E+02  0.15910689552E+02  0.36997647149E+02  0.51100000000E-03 0. -1.
        -11    1    3    3    0    0 -0.20435355975E+01  0.43825712404E+01  0.38396989300E+01  0.61746462692E+01  0.51100000000E-03 0.  1.
         12    1    3    3    0    0  0.15475932667E+01  0.18057506302E+01  0.17791166425E+01  0.29700229435E+01  0.00000000000E+00 0. -1.
</event>
<event>
 7    1  0.1543346E-008  0.4614231E+02  0.7816164E-02  0.1320468E+00
        -11   -1    0    0    0    0  0.00000000000E+00  0.00000000000E+00  0.45593999997E+02  0.45594000000E+02  0.51100000000E-03 0. -1.
         11   -1    0    0    0    0 -0.00000000000E+00 -0.00000000000E+00 -0.45593999997E+02  0.45594000000E+02  0.51100000000E-03 0.  1.
    9900012    2    1    2    0    0 -0.35727074325E+02 -0.12516717824E+02  0.24413561433E+02  0.46142311564E+02  0.99999434856E+01 0.  0.
        -12    1    1    2    0    0  0.35727074325E+02  0.12516717824E+02 -0.24413561433E+02  0.45045688436E+02  0.00000000000E+00 0.  1.
         11    1    3    3    0    0 -0.20021987129E+01 -0.22627010614E+01  0.88810492153E-01  0.30226649407E+01  0.51100000000E-03 0.  1.
        -11    1    3    3    0    0 -0.30215944875E+02 -0.78201594868E+01  0.22498202754E+02  0.38475022372E+02  0.51100000000E-03 0. -1.
         12    1    3    3    0    0 -0.35089307368E+01 -0.24338572763E+01  0.18265481862E+01  0.46446242511E+01  0.00000000000E+00 0. -1.
</event>
<event>
 7    1  0.1543346E-008  0.4614232E+02  0.7816164E-02  0.1320468E+00
        -11   -1    0    0    0    0  0.00000000000E+00  0.00000000000E+00  0.45593999997E+02  0.45594000000E+02  0.51100000000E-03 0.  1.
         11   -1    0    0    0    0 -0.00000000000E+00 -0.00000000000E+00 -0.45593999997E+02  0.45594000000E+02  0.51100000000E-03 0. -1.
    9900012    2    1    2    0    0 -0.40883030048E+02  0.18421602651E+02 -0.42820541750E+01  0.46142316765E+02  0.99999909150E+01 0.  0.
        -12    1    1    2    0    0  0.40883030048E+02 -0.18421602651E+02  0.42820541750E+01  0.45045683235E+02  0.00000000000E+00 0.  1.
         11    1    3    3    0    0 -0.64978338069E+01  0.38252999257E+01 -0.64266327083E+00  0.75675478224E+01  0.51100000000E-03 0. -1.
        -11    1    3    3    0    0 -0.18467446813E+02  0.83575401286E+01 -0.63994551230E+01  0.21256718819E+02  0.51100000000E-03 0.  1.
        -12    1    3    3    0    0 -0.15917749428E+02  0.62387625967E+01  0.27600642189E+01  0.17318050124E+02  0.00000000000E+00 0.  1.
</event>
<event>
 7    1  0.1543346E-008  0.4614232E+02  0.7816164E-02  0.1320468E+00
        -11   -1    0    0    0    0  0.00000000000E+00  0.00000000000E+00  0.45593999997E+02  0.45594000000E+02  0.51100000000E-03 0. -1.
         11   -1    0    0    0    0 -0.00000000000E+00 -0.00000000000E+00 -0.45593999997E+02  0.45594000000E+02  0.51100000000E-03 0.  1.
    9900012    2    1    2    0    0  0.33688358867E+02 -0.27748168003E+02  0.11146619688E+02  0.46142317842E+02  0.10000000734E+02 0.  0.
        -12    1    1    2    0    0 -0.33688358867E+02  0.27748168003E+02 -0.11146619688E+02  0.45045682158E+02  0.00000000000E+00 0.  1.
         11    1    3    3    0    0  0.15647358958E+02 -0.10853943318E+02  0.27616908952E+00  0.19045319570E+02  0.51100000000E-03 0. -1.
        -11    1    3    3    0    0  0.57974080963E+01 -0.58657333619E+01  0.47598008995E+01  0.95222094795E+01  0.51100000000E-03 0.  1.
         12    1    3    3    0    0  0.12243591813E+02 -0.11028491323E+02  0.61106496990E+01  0.17574788792E+02  0.00000000000E+00 0. -1.
</event>
<event>
 7    1  0.1543346E-008  0.4614232E+02  0.7816164E-02  0.1320468E+00
        -11   -1    0    0    0    0  0.00000000000E+00  0.00000000000E+00  0.45593999997E+02  0.45594000000E+02  0.51100000000E-03 0. -1.
         11   -1    0    0    0    0 -0.00000000000E+00 -0.00000000000E+00 -0.45593999997E+02  0.45594000000E+02  0.51100000000E-03 0.  1.
    9900012    2    1    2    0    0 -0.25393106679E+02 -0.63560460993E+01  0.36659300575E+02  0.46142317549E+02  0.99999980681E+01 0.  0.
        -12    1    1    2    0    0  0.25393106679E+02  0.63560460993E+01 -0.36659300575E+02  0.45045682451E+02  0.00000000000E+00 0.  1.
         11    1    3    3    0    0 -0.10872814892E+02 -0.57957890642E+01  0.21664563543E+02  0.24923133598E+02  0.51100000000E-03 0. -1.
        -11    1    3    3    0    0 -0.13519282132E+02  0.38613597373E+00  0.14276333666E+02  0.19665548392E+02  0.51100000000E-03 0.  1.
        -12    1    3    3    0    0 -0.10010096547E+01 -0.94639300888E+00  0.71840336596E+00  0.15536355597E+01  0.00000000000E+00 0.  1.
</event>
<event>
 7    1  0.1543346E-008  0.4614232E+02  0.7816164E-02  0.1320468E+00
        -11   -1    0    0    0    0  0.00000000000E+00  0.00000000000E+00  0.45593999997E+02  0.45594000000E+02  0.51100000000E-03 0. -1.
         11   -1    0    0    0    0 -0.00000000000E+00 -0.00000000000E+00 -0.45593999997E+02  0.45594000000E+02  0.51100000000E-03 0.  1.
    9900012    2    1    2    0    0  0.30627479769E+02  0.26320500920E+02  0.19957510455E+02  0.46142317530E+02  0.99999978916E+01 0.  0.
        -12    1    1    2    0    0 -0.30627479769E+02 -0.26320500920E+02 -0.19957510455E+02  0.45045682470E+02  0.00000000000E+00 0.  1.
         11    1    3    3    0    0  0.92591432652E+01  0.85443599458E+01  0.66548469181E+01  0.14248677435E+02  0.51100000000E-03 0. -1.
        -11    1    3    3    0    0  0.94331710946E+01  0.30175362858E+01  0.33049378390E+01  0.10440922206E+02  0.51100000000E-03 0.  1.
        -12    1    3    3    0    0  0.11935165409E+02  0.14758604688E+02  0.99977256975E+01  0.21452717888E+02  0.00000000000E+00 0.  1.
</event>
<event>
 7    1  0.1543346E-008  0.4614232E+02  0.7816164E-02  0.1320468E+00
        -11   -1    0    0    0    0  0.00000000000E+00  0.00000000000E+00  0.45593999997E+02  0.45594000000E+02  0.51100000000E-03 0. -1.
         11   -1    0    0    0    0 -0.00000000000E+00 -0.00000000000E+00 -0.45593999997E+02  0.45594000000E+02  0.51100000000E-03 0.  1.
    9900012    2    1    2    0    0 -0.89123358733E+00  0.37412594462E+00  0.45035304527E+02  0.46142324055E+02  0.10000057390E+02 0.  0.
        -12    1    1    2    0    0  0.89123358733E+00 -0.37412594462E+00 -0.45035304527E+02  0.45045675945E+02  0.00000000000E+00 0.  1.
         11    1    3    3    0    0  0.15518678379E+00 -0.17164521018E+01  0.17996875658E+01  0.24918198874E+01  0.51100000000E-03 0. -1.
        -11    1    3    3    0    0 -0.29501298319E+00  0.30169407587E+01  0.11510285761E+02  0.11902757780E+02  0.51100000000E-03 0.  1.
         12    1    3    3    0    0 -0.75140738793E+00 -0.92636271233E+00  0.31725331200E+02  0.31747746387E+02  0.00000000000E+00 0. -1.
</event>
<event>
 7    1  0.1543346E-008  0.4614232E+02  0.7816164E-02  0.1320468E+00
        -11   -1    0    0    0    0  0.00000000000E+00  0.00000000000E+00  0.45593999997E+02  0.45594000000E+02  0.51100000000E-03 0.  1.
         11   -1    0    0    0    0 -0.00000000000E+00 -0.00000000000E+00 -0.45593999997E+02  0.45594000000E+02  0.51100000000E-03 0. -1.
    9900012    2    1    2    0    0  0.26179935052E+02  0.29954150949E+02 -0.21129903025E+02  0.46142323624E+02  0.10000053460E+02 0.  0.
        -12    1    1    2    0    0 -0.26179935052E+02 -0.29954150949E+02  0.21129903025E+02  0.45045676376E+02  0.00000000000E+00 0.  1.
         11    1    3    3    0    0  0.71538580626E+01  0.60392926401E+01 -0.36628363310E+01  0.10053213965E+02  0.51100000000E-03 0. -1.
        -11    1    3    3    0    0  0.58464383227E+01  0.11444488069E+02 -0.10704745677E+02  0.16725690673E+02  0.51100000000E-03 0.  1.
        -12    1    3    3    0    0  0.13179638666E+02  0.12470370239E+02 -0.67623210163E+01  0.19363418986E+02  0.00000000000E+00 0.  1.
</event>
<event>
 7    1  0.1543346E-008  0.4614232E+02  0.7816164E-02  0.1320468E+00
        -11   -1    0    0    0    0  0.00000000000E+00  0.00000000000E+00  0.45593999997E+02  0.45594000000E+02  0.51100000000E-03 0. -1.
         11   -1    0    0    0    0 -0.00000000000E+00 -0.00000000000E+00 -0.45593999997E+02  0.45594000000E+02  0.51100000000E-03 0.  1.
    9900012    2    1    2    0    0  0.33544515043E+02 -0.29918466124E+02  0.29604635456E+01  0.46142318197E+02  0.10000003978E+02 0.  0.
        -12    1    1    2    0    0 -0.33544515043E+02  0.29918466124E+02 -0.29604635456E+01  0.45045681803E+02  0.00000000000E+00 0.  1.
         11    1    3    3    0    0  0.15987349438E+02 -0.13745545087E+02 -0.69080544417E+00  0.21095320909E+02  0.51100000000E-03 0. -1.
        -11    1    3    3    0    0  0.56565646177E+01 -0.30635260541E+01  0.35372322664E+01  0.73412483629E+01  0.51100000000E-03 0.  1.
        -12    1    3    3    0    0  0.11900600987E+02 -0.13109394982E+02  0.11403672333E+00  0.17705748926E+02  0.00000000000E+00 0.  1.
</event>
<event>
 7    1  0.1543346E-008  0.4614232E+02  0.7816164E-02  0.1320468E+00
        -11   -1    0    0    0    0  0.00000000000E+00  0.00000000000E+00  0.45593999997E+02  0.45594000000E+02  0.51100000000E-03 0.  1.
         11   -1    0    0    0    0 -0.00000000000E+00 -0.00000000000E+00 -0.45593999997E+02  0.45594000000E+02  0.51100000000E-03 0. -1.
    9900012    2    1    2    0    0 -0.90310502609E+01 -0.95589926017E+01 -0.43083399035E+02  0.46142317845E+02  0.10000000766E+02 0.  0.
        -12    1    1    2    0    0  0.90310502609E+01  0.95589926017E+01  0.43083399035E+02  0.45045682155E+02  0.00000000000E+00 0.  1.
         11    1    3    3    0    0  0.15389764390E+01 -0.34028771542E+01 -0.12488227298E+02  0.13034716825E+02  0.51100000000E-03 0. -1.
        -11    1    3    3    0    0 -0.26284118504E+01 -0.59170261465E-01 -0.58462476958E+01  0.64101998687E+01  0.51100000000E-03 0.  1.
         12    1    3    3    0    0 -0.79416148494E+01 -0.60969451860E+01 -0.24748924041E+02  0.26697401151E+02  0.00000000000E+00 0. -1.
</event>
<event>
 7    1  0.1543346E-008  0.4614232E+02  0.7816164E-02  0.1320468E+00
        -11   -1    0    0    0    0  0.00000000000E+00  0.00000000000E+00  0.45593999997E+02  0.45594000000E+02  0.51100000000E-03 0. -1.
         11   -1    0    0    0    0 -0.00000000000E+00 -0.00000000000E+00 -0.45593999997E+02  0.45594000000E+02  0.51100000000E-03 0.  1.
    9900012    2    1    2    0    0  0.28220309888E+02 -0.33619537172E+02  0.10121967942E+02  0.46142318688E+02  0.10000008454E+02 0.  0.
        -12    1    1    2    0    0 -0.28220309888E+02  0.33619537172E+02 -0.10121967942E+02  0.45045681312E+02  0.00000000000E+00 0.  1.
         11    1    3    3    0    0  0.11736402050E+02 -0.99835606640E+01  0.20325612851E+01  0.15541747722E+02  0.51100000000E-03 0. -1.
        -11    1    3    3    0    0  0.14864877797E+02 -0.23600717583E+02  0.76916208147E+01  0.28933017356E+02  0.51100000000E-03 0.  1.
        -12    1    3    3    0    0  0.16190300414E+01 -0.35258925316E-01  0.39778584206E+00  0.16675536102E+01  0.00000000000E+00 0.  1.
</event>
<event>
 7    1  0.1543346E-008  0.4614232E+02  0.7816164E-02  0.1320468E+00
        -11   -1    0    0    0    0  0.00000000000E+00  0.00000000000E+00  0.45593999997E+02  0.45594000000E+02  0.51100000000E-03 0. -1.
         11   -1    0    0    0    0 -0.00000000000E+00 -0.00000000000E+00 -0.45593999997E+02  0.45594000000E+02  0.51100000000E-03 0.  1.
    9900012    2    1    2    0    0 -0.29956907533E+01  0.37755764641E+02  0.24385274698E+02  0.46142317090E+02  0.99999938838E+01 0.  0.
        -12    1    1    2    0    0  0.29956907533E+01 -0.37755764641E+02 -0.24385274698E+02  0.45045682910E+02  0.00000000000E+00 0.  1.
         11    1    3    3    0    0 -0.64224386173E+00  0.18222743810E+02  0.13980716862E+02  0.22976973547E+02  0.51100000000E-03 0. -1.
        -11    1    3    3    0    0 -0.32644799661E+01  0.18473724254E+02  0.10883475796E+02  0.21688369301E+02  0.51100000000E-03 0.  1.
        -12    1    3    3    0    0  0.91103307454E+00  0.10592965771E+01 -0.47891796033E+00  0.14769742428E+01  0.00000000000E+00 0.  1.
</event>
<event>
 7    1  0.1543346E-008  0.4614232E+02  0.7816164E-02  0.1320468E+00
        -11   -1    0    0    0    0  0.00000000000E+00  0.00000000000E+00  0.45593999997E+02  0.45594000000E+02  0.51100000000E-03 0. -1.
         11   -1    0    0    0    0 -0.00000000000E+00 -0.00000000000E+00 -0.45593999997E+02  0.45594000000E+02  0.51100000000E-03 0.  1.
    9900012    2    1    2    0    0 -0.34608473941E+02  0.28607324192E+02  0.36038871837E+01  0.46142317979E+02  0.10000001986E+02 0.  0.
        -12    1    1    2    0    0  0.34608473941E+02 -0.28607324192E+02 -0.36038871837E+01  0.45045682021E+02  0.00000000000E+00 0.  1.
         11    1    3    3    0    0 -0.17408749165E+02  0.18202448045E+02  0.43362326756E+01  0.25557710704E+02  0.51100000000E-03 0. -1.
        -11    1    3    3    0    0 -0.17319758188E+02  0.10100466597E+02 -0.11154510356E+01  0.20080778880E+02  0.51100000000E-03 0.  1.
         12    1    3    3    0    0  0.12003341231E+00  0.30440954967E+00  0.38310554378E+00  0.50382839507E+00  0.00000000000E+00 0. -1.
</event>
<event>
 7    1  0.1543346E-008  0.4614232E+02  0.7816164E-02  0.1320468E+00
        -11   -1    0    0    0    0  0.00000000000E+00  0.00000000000E+00  0.45593999997E+02  0.45594000000E+02  0.51100000000E-03 0.  1.
         11   -1    0    0    0    0 -0.00000000000E+00 -0.00000000000E+00 -0.45593999997E+02  0.45594000000E+02  0.51100000000E-03 0. -1.
    9900012    2    1    2    0    0  0.12545136931E+02  0.23854488908E+02 -0.36092884791E+02  0.46142318362E+02  0.10000005481E+02 0.  0.
        -12    1    1    2    0    0 -0.12545136931E+02 -0.23854488908E+02  0.36092884791E+02  0.45045681638E+02  0.00000000000E+00 0.  1.
         11    1    3    3    0    0  0.35023347035E+01  0.13324899385E+02 -0.12613083210E+02  0.18679110266E+02  0.51100000000E-03 0. -1.
        -11    1    3    3    0    0 -0.23910379084E+00  0.61346354744E+00 -0.94925308424E+00  0.11552444875E+01  0.51100000000E-03 0.  1.
         12    1    3    3    0    0  0.92819060183E+01  0.99161259759E+01 -0.22530548496E+02  0.26307963609E+02  0.00000000000E+00 0. -1.
</event>
<event>
 7    1  0.1543346E-008  0.4614232E+02  0.7816164E-02  0.1320468E+00
        -11   -1    0    0    0    0  0.00000000000E+00  0.00000000000E+00  0.45593999997E+02  0.45594000000E+02  0.51100000000E-03 0. -1.
         11   -1    0    0    0    0 -0.00000000000E+00 -0.00000000000E+00 -0.45593999997E+02  0.45594000000E+02  0.51100000000E-03 0.  1.
    9900012    2    1    2    0    0 -0.14807928065E+02  0.42060472993E+02  0.63839872169E+01  0.46142318578E+02  0.10000007453E+02 0.  0.
        -12    1    1    2    0    0  0.14807928065E+02 -0.42060472993E+02 -0.63839872169E+01  0.45045681422E+02  0.00000000000E+00 0.  1.
         11    1    3    3    0    0 -0.99102718700E+01  0.23893715385E+02  0.22899618237E+01  0.25968578106E+02  0.51100000000E-03 0. -1.
        -11    1    3    3    0    0 -0.26290759583E+01  0.54611786936E+01  0.40089830979E+01  0.72669428825E+01  0.51100000000E-03 0.  1.
         12    1    3    3    0    0 -0.22685802363E+01  0.12705578914E+02  0.85042295270E-01  0.12906797589E+02  0.00000000000E+00 0. -1.
</event>
<event>
 7    1  0.1543346E-008  0.4614232E+02  0.7816164E-02  0.1320468E+00
        -11   -1    0    0    0    0  0.00000000000E+00  0.00000000000E+00  0.45593999997E+02  0.45594000000E+02  0.51100000000E-03 0. -1.
         11   -1    0    0    0    0 -0.00000000000E+00 -0.00000000000E+00 -0.45593999997E+02  0.45594000000E+02  0.51100000000E-03 0.  1.
    9900012    2    1    2    0    0  0.15243173487E+02  0.42388192933E+02 -0.15580126668E-01  0.46142317845E+02  0.10000000764E+02 0.  0.
        -12    1    1    2    0    0 -0.15243173487E+02 -0.42388192933E+02  0.15580126668E-01  0.45045682155E+02  0.00000000000E+00 0.  1.
         11    1    3    3    0    0  0.31934123699E+00  0.17905389518E+01 -0.15506456437E+01  0.23900859267E+01  0.51100000000E-03 0. -1.
        -11    1    3    3    0    0  0.24921166851E+01  0.15670057398E+02  0.79253588095E+00  0.15886769899E+02  0.51100000000E-03 0.  1.
         12    1    3    3    0    0  0.12431715565E+02  0.24927596583E+02  0.74252963610E+00  0.27865462019E+02  0.00000000000E+00 0. -1.
</event>
<event>
 7    1  0.1543346E-008  0.4614231E+02  0.7816164E-02  0.1320468E+00
        -11   -1    0    0    0    0  0.00000000000E+00  0.00000000000E+00  0.45593999997E+02  0.45594000000E+02  0.51100000000E-03 0.  1.
         11   -1    0    0    0    0 -0.00000000000E+00 -0.00000000000E+00 -0.45593999997E+02  0.45594000000E+02  0.51100000000E-03 0. -1.
    9900012    2    1    2    0    0 -0.36683946304E+02 -0.71765512477E+01 -0.25137612359E+02  0.46142308093E+02  0.99999118404E+01 0.  0.
        -12    1    1    2    0    0  0.36683946304E+02  0.71765512477E+01  0.25137612359E+02  0.45045691907E+02  0.00000000000E+00 0.  1.
         11    1    3    3    0    0 -0.20472203228E+02  0.11911147501E+00 -0.10092669447E+02  0.22825145550E+02  0.51100000000E-03 0. -1.
        -11    1    3    3    0    0 -0.10606441766E+02 -0.49725189490E+01 -0.10566885339E+02  0.15775982304E+02  0.51100000000E-03 0.  1.
         12    1    3    3    0    0 -0.56053013098E+01 -0.23231437738E+01 -0.44780575739E+01  0.75411802393E+01  0.00000000000E+00 0. -1.
</event>
<event>
 7    1  0.1543346E-008  0.4614232E+02  0.7816164E-02  0.1320468E+00
        -11   -1    0    0    0    0  0.00000000000E+00  0.00000000000E+00  0.45593999997E+02  0.45594000000E+02  0.51100000000E-03 0.  1.
         11   -1    0    0    0    0 -0.00000000000E+00 -0.00000000000E+00 -0.45593999997E+02  0.45594000000E+02  0.51100000000E-03 0. -1.
    9900012    2    1    2    0    0 -0.22668908312E+02  0.58570324512E+01 -0.38482844433E+02  0.46142317090E+02  0.99999938769E+01 0.  0.
        -12    1    1    2    0    0  0.22668908312E+02 -0.58570324512E+01  0.38482844433E+02  0.45045682910E+02  0.00000000000E+00 0.  1.
         11    1    3    3    0    0 -0.93350219714E+00  0.22536739561E+01 -0.80411391687E+01  0.84029989910E+01  0.51100000000E-03 0. -1.
        -11    1    3    3    0    0 -0.17638008217E+02  0.36075467710E+01 -0.26620201293E+02  0.32136409954E+02  0.51100000000E-03 0.  1.
        -12    1    3    3    0    0 -0.40973978980E+01 -0.41882759039E-02 -0.38215039710E+01  0.56029081445E+01  0.00000000000E+00 0.  1.
</event>
<event>
 7    1  0.1543346E-008  0.4614231E+02  0.7816164E-02  0.1320468E+00
        -11   -1    0    0    0    0  0.00000000000E+00  0.00000000000E+00  0.45593999997E+02  0.45594000000E+02  0.51100000000E-03 0.  1.
         11   -1    0    0    0    0 -0.00000000000E+00 -0.00000000000E+00 -0.45593999997E+02  0.45594000000E+02  0.51100000000E-03 0. -1.
    9900012    2    1    2    0    0  0.24207999842E+02  0.37281963722E+02 -0.72898930593E+01  0.46142305243E+02  0.99998858478E+01 0.  0.
        -12    1    1    2    0    0 -0.24207999842E+02 -0.37281963722E+02  0.72898930593E+01  0.45045694757E+02  0.00000000000E+00 0.  1.
         11    1    3    3    0    0  0.89558982654E+01  0.21309547097E+02 -0.45546906499E+01  0.23559501659E+02  0.51100000000E-03 0. -1.
        -11    1    3    3    0    0  0.20598584390E+01  0.43838713874E+01 -0.26915453502E+00  0.48511637321E+01  0.51100000000E-03 0.  1.
         12    1    3    3    0    0  0.13192243138E+02  0.11588545238E+02 -0.24660478744E+01  0.17731639852E+02  0.00000000000E+00 0. -1.
</event>
<event>
 7    1  0.1543346E-008  0.4614232E+02  0.7816164E-02  0.1320468E+00
        -11   -1    0    0    0    0  0.00000000000E+00  0.00000000000E+00  0.45593999997E+02  0.45594000000E+02  0.51100000000E-03 0. -1.
         11   -1    0    0    0    0 -0.00000000000E+00 -0.00000000000E+00 -0.45593999997E+02  0.45594000000E+02  0.51100000000E-03 0.  1.
    9900012    2    1    2    0    0 -0.11175246754E+02  0.27379986927E+02 -0.33978870380E+02  0.46142318115E+02  0.10000003228E+02 0.  0.
        -12    1    1    2    0    0  0.11175246754E+02 -0.27379986927E+02  0.33978870380E+02  0.45045681885E+02  0.00000000000E+00 0.  1.
         11    1    3    3    0    0 -0.62368747969E+01  0.10688474043E+02 -0.16578595249E+02  0.20687965228E+02  0.51100000000E-03 0. -1.
        -11    1    3    3    0    0 -0.73419523713E+00  0.95950939853E+01 -0.58516274051E+01  0.11262611366E+02  0.51100000000E-03 0.  1.
        -12    1    3    3    0    0 -0.42041767202E+01  0.70964188990E+01 -0.11548647727E+02  0.14191741521E+02  0.00000000000E+00 0.  1.
</event>
<event>
 7    1  0.1543346E-008  0.4614231E+02  0.7816164E-02  0.1320468E+00
        -11   -1    0    0    0    0  0.00000000000E+00  0.00000000000E+00  0.45593999997E+02  0.45594000000E+02  0.51100000000E-03 0. -1.
         11   -1    0    0    0    0 -0.00000000000E+00 -0.00000000000E+00 -0.45593999997E+02  0.45594000000E+02  0.51100000000E-03 0.  1.
    9900012    2    1    2    0    0 -0.22278179173E+01 -0.31170476939E+02  0.32443069787E+02  0.46142305617E+02  0.99998892591E+01 0.  0.
        -12    1    1    2    0    0  0.22278179173E+01  0.31170476939E+02 -0.32443069787E+02  0.45045694383E+02  0.00000000000E+00 0.  1.
         11    1    3    3    0    0 -0.25814661983E+01 -0.17580136558E+02  0.23611148051E+02  0.29550151973E+02  0.51100000000E-03 0. -1.
        -11    1    3    3    0    0 -0.13327288945E+01 -0.86891179911E+01  0.47319506185E+01  0.99834009579E+01  0.51100000000E-03 0.  1.
        -12    1    3    3    0    0  0.16863771755E+01 -0.49012223902E+01  0.40999711175E+01  0.66087526857E+01  0.00000000000E+00 0.  1.
</event>
<event>
 7    1  0.1543346E-008  0.4614232E+02  0.7816164E-02  0.1320468E+00
        -11   -1    0    0    0    0  0.00000000000E+00  0.00000000000E+00  0.45593999997E+02  0.45594000000E+02  0.51100000000E-03 0.  1.
         11   -1    0    0    0    0 -0.00000000000E+00 -0.00000000000E+00 -0.45593999997E+02  0.45594000000E+02  0.51100000000E-03 0. -1.
    9900012    2    1    2    0    0 -0.30197179472E+02 -0.23777681484E+02 -0.23491825462E+02  0.46142315985E+02  0.99999838041E+01 0.  0.
        -12    1    1    2    0    0  0.30197179472E+02  0.23777681484E+02  0.23491825462E+02  0.45045684015E+02  0.00000000000E+00 0.  1.
         11    1    3    3    0    0 -0.10874144861E+02 -0.54338042965E+01 -0.63848494045E+01  0.13730970751E+02  0.51100000000E-03 0. -1.
        -11    1    3    3    0    0 -0.89164576698E+00  0.32389693278E+00  0.21777574253E+00  0.97332827555E+00  0.51100000000E-03 0.  1.
        -12    1    3    3    0    0 -0.18431388845E+02 -0.18667774120E+02 -0.17324751800E+02  0.31438016958E+02  0.00000000000E+00 0.  1.
</event>
<event>
 7    1  0.1543346E-008  0.4614232E+02  0.7816164E-02  0.1320468E+00
        -11   -1    0    0    0    0  0.00000000000E+00  0.00000000000E+00  0.45593999997E+02  0.45594000000E+02  0.51100000000E-03 0.  1.
         11   -1    0    0    0    0 -0.00000000000E+00 -0.00000000000E+00 -0.45593999997E+02  0.45594000000E+02  0.51100000000E-03 0. -1.
    9900012    2    1    2    0    0 -0.14874720854E+00 -0.16788946780E+01 -0.45014131385E+02  0.46142324987E+02  0.10000065889E+02 0.  0.
        -12    1    1    2    0    0  0.14874720854E+00  0.16788946780E+01  0.45014131385E+02  0.45045675013E+02  0.00000000000E+00 0.  1.
         11    1    3    3    0    0  0.82585283688E-01 -0.26936486326E+01 -0.38804428666E+02  0.38897895157E+02  0.51100000000E-03 0. -1.
        -11    1    3    3    0    0  0.60069131234E+00 -0.74582580763E+00 -0.27193019577E+00  0.99550614290E+00  0.51100000000E-03 0.  1.
         12    1    3    3    0    0 -0.83202380457E+00  0.17605797623E+01 -0.59377725229E+01  0.62489236869E+01  0.00000000000E+00 0. -1.
</event>
<event>
 7    1  0.1543346E-008  0.4614232E+02  0.7816164E-02  0.1320468E+00
        -11   -1    0    0    0    0  0.00000000000E+00  0.00000000000E+00  0.45593999997E+02  0.45594000000E+02  0.51100000000E-03 0.  1.
         11   -1    0    0    0    0 -0.00000000000E+00 -0.00000000000E+00 -0.45593999997E+02  0.45594000000E+02  0.51100000000E-03 0. -1.
    9900012    2    1    2    0    0 -0.66868899439E+01  0.34181434080E+02 -0.28566213018E+02  0.46142318087E+02  0.10000002968E+02 0.  0.
        -12    1    1    2    0    0  0.66868899439E+01 -0.34181434080E+02  0.28566213018E+02  0.45045681913E+02  0.00000000000E+00 0.  1.
         11    1    3    3    0    0 -0.37236299692E+01  0.26380606695E+02 -0.16798387100E+02  0.31495835267E+02  0.51100000000E-03 0. -1.
        -11    1    3    3    0    0  0.20451753941E+00  0.21205763960E+01 -0.38479210536E+01  0.43983142648E+01  0.51100000000E-03 0.  1.
         12    1    3    3    0    0 -0.31677775141E+01  0.56802509888E+01 -0.79199048642E+01  0.10248168555E+02  0.00000000000E+00 0. -1.
</event>
<event>
 7    1  0.1543346E-008  0.4614232E+02  0.7816164E-02  0.1320468E+00
        -11   -1    0    0    0    0  0.00000000000E+00  0.00000000000E+00  0.45593999997E+02  0.45594000000E+02  0.51100000000E-03 0. -1.
         11   -1    0    0    0    0 -0.00000000000E+00 -0.00000000000E+00 -0.45593999997E+02  0.45594000000E+02  0.51100000000E-03 0.  1.
    9900012    2    1    2    0    0 -0.34057605531E+02  0.28087733963E+02 -0.89594804317E+01  0.46142316708E+02  0.99999903924E+01 0.  0.
        -12    1    1    2    0    0  0.34057605531E+02 -0.28087733963E+02  0.89594804317E+01  0.45045683292E+02  0.00000000000E+00 0.  1.
         11    1    3    3    0    0 -0.14004816093E+02  0.92754479670E+01 -0.76221740789E+01  0.18446309840E+02  0.51100000000E-03 0. -1.
        -11    1    3    3    0    0 -0.12471131919E+02  0.12110616966E+02  0.59593040237E+00  0.17394002068E+02  0.51100000000E-03 0.  1.
         12    1    3    3    0    0 -0.75816575190E+01  0.67016690305E+01 -0.19332367552E+01  0.10302004799E+02  0.00000000000E+00 0. -1.
</event>
<event>
 7    1  0.1543346E-008  0.4614232E+02  0.7816164E-02  0.1320468E+00
        -11   -1    0    0    0    0  0.00000000000E+00  0.00000000000E+00  0.45593999997E+02  0.45594000000E+02  0.51100000000E-03 0.  1.
         11   -1    0    0    0    0 -0.00000000000E+00 -0.00000000000E+00 -0.45593999997E+02  0.45594000000E+02  0.51100000000E-03 0. -1.
    9900012    2    1    2    0    0 -0.14713604848E+02  0.17374347960E+02 -0.38868435716E+02  0.46142318413E+02  0.10000005941E+02 0.  0.
        -12    1    1    2    0    0  0.14713604848E+02 -0.17374347960E+02  0.38868435716E+02  0.45045681587E+02  0.00000000000E+00 0.  1.
         11    1    3    3    0    0 -0.39213316613E+01  0.17800709020E+01 -0.29506020066E+01  0.52203014162E+01  0.51100000000E-03 0. -1.
        -11    1    3    3    0    0 -0.15463719605E+01  0.57861941584E+00 -0.57096308225E+01  0.59435638349E+01  0.51100000000E-03 0.  1.
         12    1    3    3    0    0 -0.92459012261E+01  0.15015657642E+02 -0.30208202887E+02  0.34978453162E+02  0.00000000000E+00 0. -1.
</event>
<event>
 7    1  0.1543346E-008  0.4614232E+02  0.7816164E-02  0.1320468E+00
        -11   -1    0    0    0    0  0.00000000000E+00  0.00000000000E+00  0.45593999997E+02  0.45594000000E+02  0.51100000000E-03 0.  1.
         11   -1    0    0    0    0 -0.00000000000E+00 -0.00000000000E+00 -0.45593999997E+02  0.45594000000E+02  0.51100000000E-03 0. -1.
    9900012    2    1    2    0    0 -0.34196081937E+02 -0.17502792418E+02 -0.23524322326E+02  0.46142317597E+02  0.99999984995E+01 0.  0.
        -12    1    1    2    0    0  0.34196081937E+02  0.17502792418E+02  0.23524322326E+02  0.45045682403E+02  0.00000000000E+00 0.  1.
         11    1    3    3    0    0 -0.13140615594E+02 -0.77699938493E+01 -0.95886496844E+01  0.18027500815E+02  0.51100000000E-03 0. -1.
        -11    1    3    3    0    0 -0.19326596494E+02 -0.93160416120E+01 -0.14871785110E+02  0.26105094444E+02  0.51100000000E-03 0.  1.
        -12    1    3    3    0    0 -0.17288698502E+01 -0.41675695703E+00  0.93611246825E+00  0.20097223374E+01  0.00000000000E+00 0.  1.
</event>
<event>
 7    1  0.1543346E-008  0.4614232E+02  0.7816164E-02  0.1320468E+00
        -11   -1    0    0    0    0  0.00000000000E+00  0.00000000000E+00  0.45593999997E+02  0.45594000000E+02  0.51100000000E-03 0. -1.
         11   -1    0    0    0    0 -0.00000000000E+00 -0.00000000000E+00 -0.45593999997E+02  0.45594000000E+02  0.51100000000E-03 0.  1.
    9900012    2    1    2    0    0 -0.48486564436E+01 -0.28165151327E+02  0.34818504651E+02  0.46142317802E+02  0.10000000370E+02 0.  0.
        -12    1    1    2    0    0  0.48486564436E+01  0.28165151327E+02 -0.34818504651E+02  0.45045682198E+02  0.00000000000E+00 0.  1.
         11    1    3    3    0    0 -0.20458580524E+01 -0.16248120787E+02  0.16610410682E+02  0.23325794897E+02  0.51100000000E-03 0. -1.
        -11    1    3    3    0    0 -0.76157277699E+00 -0.46086370056E+01  0.23334650776E+01  0.52215503132E+01  0.51100000000E-03 0.  1.
        -12    1    3    3    0    0 -0.20412256143E+01 -0.73083935343E+01  0.15874628891E+02  0.17594972591E+02  0.00000000000E+00 0.  1.
</event>
<event>
 7    1  0.1543346E-008  0.4614232E+02  0.7816164E-02  0.1320468E+00
        -11   -1    0    0    0    0  0.00000000000E+00  0.00000000000E+00  0.45593999997E+02  0.45594000000E+02  0.51100000000E-03 0.  1.
         11   -1    0    0    0    0 -0.00000000000E+00 -0.00000000000E+00 -0.45593999997E+02  0.45594000000E+02  0.51100000000E-03 0. -1.
    9900012    2    1    2    0    0 -0.23100701793E+02  0.13858132874E+01 -0.38646482405E+02  0.46142317587E+02  0.99999984146E+01 0.  0.
        -12    1    1    2    0    0  0.23100701793E+02 -0.13858132874E+01  0.38646482405E+02  0.45045682413E+02  0.00000000000E+00 0.  1.
         11    1    3    3    0    0 -0.20125384393E+02  0.16136012379E+01 -0.31313764639E+02  0.37258377072E+02  0.51100000000E-03 0. -1.
        -11    1    3    3    0    0  0.41945894173E+00 -0.80662604329E+00 -0.39624199890E+01  0.40653860589E+01  0.51100000000E-03 0.  1.
        -12    1    3    3    0    0 -0.33947763408E+01  0.57883809277E+00 -0.33702977768E+01  0.48185544560E+01  0.00000000000E+00 0.  1.
</event>
<event>
 7    1  0.1543346E-008  0.4614233E+02  0.7816164E-02  0.1320468E+00
        -11   -1    0    0    0    0  0.00000000000E+00  0.00000000000E+00  0.45593999997E+02  0.45594000000E+02  0.51100000000E-03 0.  1.
         11   -1    0    0    0    0 -0.00000000000E+00 -0.00000000000E+00 -0.45593999997E+02  0.45594000000E+02  0.51100000000E-03 0. -1.
    9900012    2    1    2    0    0  0.12901548801E+02  0.14950031586E+02 -0.40486526871E+02  0.46142331351E+02  0.10000123926E+02 0.  0.
        -12    1    1    2    0    0 -0.12901548801E+02 -0.14950031586E+02  0.40486526871E+02  0.45045668649E+02  0.00000000000E+00 0.  1.
         11    1    3    3    0    0  0.78665722611E+01  0.97177169019E+01 -0.27015217762E+02  0.29768086467E+02  0.51100000000E-03 0. -1.
        -11    1    3    3    0    0  0.59691908116E+01  0.25933339853E+01 -0.93505778205E+01  0.11392538169E+02  0.51100000000E-03 0.  1.
        -12    1    3    3    0    0 -0.93421427169E+00  0.26389806992E+01 -0.41207312892E+01  0.49817067150E+01  0.00000000000E+00 0.  1.
</event>
<event>
 7    1  0.1543346E-008  0.4614232E+02  0.7816164E-02  0.1320468E+00
        -11   -1    0    0    0    0  0.00000000000E+00  0.00000000000E+00  0.45593999997E+02  0.45594000000E+02  0.51100000000E-03 0. -1.
         11   -1    0    0    0    0 -0.00000000000E+00 -0.00000000000E+00 -0.45593999997E+02  0.45594000000E+02  0.51100000000E-03 0.  1.
    9900012    2    1    2    0    0 -0.61077674493E+01 -0.30443396158E+02  0.32634468277E+02  0.46142315272E+02  0.99999773029E+01 0.  0.
        -12    1    1    2    0    0  0.61077674493E+01  0.30443396158E+02 -0.32634468277E+02  0.45045684728E+02  0.00000000000E+00 0.  1.
         11    1    3    3    0    0 -0.37006500724E+01 -0.17577953274E+02  0.13717607987E+02  0.22602035780E+02  0.51100000000E-03 0. -1.
        -11    1    3    3    0    0 -0.21560834588E+01 -0.91749690327E+01  0.16840194101E+02  0.19298209509E+02  0.51100000000E-03 0.  1.
        -12    1    3    3    0    0 -0.25103391803E+00 -0.36904738513E+01  0.20766661890E+01  0.42420699824E+01  0.00000000000E+00 0.  1.
</event>
<event>
 7    1  0.1543346E-008  0.4614232E+02  0.7816164E-02  0.1320468E+00
        -11   -1    0    0    0    0  0.00000000000E+00  0.00000000000E+00  0.45593999997E+02  0.45594000000E+02  0.51100000000E-03 0.  1.
         11   -1    0    0    0    0 -0.00000000000E+00 -0.00000000000E+00 -0.45593999997E+02  0.45594000000E+02  0.51100000000E-03 0. -1.
    9900012    2    1    2    0    0  0.14938828061E+02 -0.25240500628E+02 -0.34188625252E+02  0.46142317050E+02  0.99999935199E+01 0.  0.
        -12    1    1    2    0    0 -0.14938828061E+02  0.25240500628E+02  0.34188625252E+02  0.45045682950E+02  0.00000000000E+00 0.  1.
         11    1    3    3    0    0  0.12036294747E+02 -0.12809240039E+02 -0.22481146458E+02  0.28536835282E+02  0.51100000000E-03 0. -1.
        -11    1    3    3    0    0 -0.48622323965E+00 -0.32743765074E+01 -0.21812118627E+01  0.39642956502E+01  0.51100000000E-03 0.  1.
        -12    1    3    3    0    0  0.33887565538E+01 -0.91568840814E+01 -0.95262669311E+01  0.13641186118E+02  0.00000000000E+00 0.  1.
</event>
<event>
 7    1  0.1543346E-008  0.4614232E+02  0.7816164E-02  0.1320468E+00
        -11   -1    0    0    0    0  0.00000000000E+00  0.00000000000E+00  0.45593999997E+02  0.45594000000E+02  0.51100000000E-03 0.  1.
         11   -1    0    0    0    0 -0.00000000000E+00 -0.00000000000E+00 -0.45593999997E+02  0.45594000000E+02  0.51100000000E-03 0. -1.
    9900012    2    1    2    0    0  0.16148562857E+02  0.77200600113E+01 -0.41336884651E+02  0.46142318281E+02  0.10000004739E+02 0.  0.
        -12    1    1    2    0    0 -0.16148562857E+02 -0.77200600113E+01  0.41336884651E+02  0.45045681719E+02  0.00000000000E+00 0.  1.
         11    1    3    3    0    0  0.10406666681E+02  0.69096370425E+01 -0.30563693826E+02  0.33017891756E+02  0.51100000000E-03 0. -1.
        -11    1    3    3    0    0  0.43207832666E+01  0.43451439629E+00 -0.31600074090E+01  0.53706254648E+01  0.51100000000E-03 0.  1.
        -12    1    3    3    0    0  0.14211129098E+01  0.37590857246E+00 -0.76131834155E+01  0.77538010598E+01  0.00000000000E+00 0.  1.
</event>
<event>
 7    1  0.1607759E-008  0.4614232E+02  0.7816164E-02  0.1320468E+00
        -11   -1    0    0    0    0  0.00000000000E+00  0.00000000000E+00  0.45593999997E+02  0.45594000000E+02  0.51100000000E-03 0.  1.
         11   -1    0    0    0    0 -0.00000000000E+00 -0.00000000000E+00 -0.45593999997E+02  0.45594000000E+02  0.51100000000E-03 0. -1.
    9900012    2    1    2    0    0 -0.40439031416E+02 -0.14677049942E+02 -0.13355985514E+02  0.46142318677E+02  0.10000008349E+02 0.  0.
        -12    1    1    2    0    0  0.40439031416E+02  0.14677049942E+02  0.13355985514E+02  0.45045681323E+02  0.00000000000E+00 0.  1.
         11    1    3    3    0    0 -0.34559412179E+02 -0.15193490750E+02 -0.13376701003E+02  0.40051607475E+02  0.51100000000E-03 0. -1.
        -11    1    3    3    0    0 -0.56986698501E+01  0.61829559044E+00 -0.26415157899E+00  0.57381969133E+01  0.51100000000E-03 0.  1.
         12    1    3    3    0    0 -0.18094938681E+00 -0.10185478197E+00  0.28486706814E+00  0.35251428866E+00  0.00000000000E+00 0. -1.
</event>
<event>
 7    1  0.1543346E-008  0.4614232E+02  0.7816164E-02  0.1320468E+00
        -11   -1    0    0    0    0  0.00000000000E+00  0.00000000000E+00  0.45593999997E+02  0.45594000000E+02  0.51100000000E-03 0. -1.
         11   -1    0    0    0    0 -0.00000000000E+00 -0.00000000000E+00 -0.45593999997E+02  0.45594000000E+02  0.51100000000E-03 0.  1.
    9900012    2    1    2    0    0 -0.13018975081E+02  0.30139929860E+02  0.30841603928E+02  0.46142316334E+02  0.99999869857E+01 0.  0.
        -12    1    1    2    0    0  0.13018975081E+02 -0.30139929860E+02 -0.30841603928E+02  0.45045683666E+02  0.00000000000E+00 0.  1.
         11    1    3    3    0    0 -0.97342757127E+01  0.18233465294E+02  0.17135268367E+02  0.26848329604E+02  0.51100000000E-03 0. -1.
        -11    1    3    3    0    0  0.13627601282E+01  0.52654737955E+01  0.61852686225E+01  0.82364966856E+01  0.51100000000E-03 0.  1.
        -12    1    3    3    0    0 -0.46474594965E+01  0.66409907706E+01  0.75210669384E+01  0.11057490044E+02  0.00000000000E+00 0.  1.
</event>
<event>
 7    1  0.1543346E-008  0.4614232E+02  0.7816164E-02  0.1320468E+00
        -11   -1    0    0    0    0  0.00000000000E+00  0.00000000000E+00  0.45593999997E+02  0.45594000000E+02  0.51100000000E-03 0.  1.
         11   -1    0    0    0    0 -0.00000000000E+00 -0.00000000000E+00 -0.45593999997E+02  0.45594000000E+02  0.51100000000E-03 0. -1.
    9900012    2    1    2    0    0 -0.17767823228E+02 -0.62545219639E+00 -0.41388727591E+02  0.46142317584E+02  0.99999983871E+01 0.  0.
        -12    1    1    2    0    0  0.17767823228E+02  0.62545219639E+00  0.41388727591E+02  0.45045682416E+02  0.00000000000E+00 0.  1.
         11    1    3    3    0    0 -0.95522896439E+01  0.11905733306E+01 -0.15474123972E+02  0.18223946204E+02  0.51100000000E-03 0. -1.
        -11    1    3    3    0    0  0.48616196806E+00 -0.95667341030E+00 -0.83968239189E+00  0.13625873379E+01  0.51100000000E-03 0.  1.
        -12    1    3    3    0    0 -0.87016955519E+01 -0.85935211674E+00 -0.25074921227E+02  0.26555784042E+02  0.00000000000E+00 0.  1.
</event>
<event>
 7    1  0.1543346E-008  0.4614232E+02  0.7816164E-02  0.1320468E+00
        -11   -1    0    0    0    0  0.00000000000E+00  0.00000000000E+00  0.45593999997E+02  0.45594000000E+02  0.51100000000E-03 0. -1.
         11   -1    0    0    0    0 -0.00000000000E+00 -0.00000000000E+00 -0.45593999997E+02  0.45594000000E+02  0.51100000000E-03 0.  1.
    9900012    2    1    2    0    0  0.14108456729E+02 -0.42033775538E+02  0.79515174765E+01  0.46142317994E+02  0.10000002121E+02 0.  0.
        -12    1    1    2    0    0 -0.14108456729E+02  0.42033775538E+02 -0.79515174765E+01  0.45045682006E+02  0.00000000000E+00 0.  1.
         11    1    3    3    0    0  0.96505969674E+00 -0.57671045975E+01  0.31169815560E+01  0.66261912090E+01  0.51100000000E-03 0. -1.
        -11    1    3    3    0    0  0.14249312696E+01 -0.22939004457E+01  0.21990628876E+01  0.34825689114E+01  0.51100000000E-03 0.  1.
         12    1    3    3    0    0  0.11718465762E+02 -0.33972770495E+02  0.26354730330E+01  0.36033557873E+02  0.00000000000E+00 0. -1.
</event>
<event>
 7    1  0.1543346E-008  0.4614232E+02  0.7816164E-02  0.1320468E+00
        -11   -1    0    0    0    0  0.00000000000E+00  0.00000000000E+00  0.45593999997E+02  0.45594000000E+02  0.51100000000E-03 0.  1.
         11   -1    0    0    0    0 -0.00000000000E+00 -0.00000000000E+00 -0.45593999997E+02  0.45594000000E+02  0.51100000000E-03 0. -1.
    9900012    2    1    2    0    0 -0.20968341006E+02 -0.39710723592E+02  0.35356220260E+01  0.46142317456E+02  0.99999972158E+01 0.  0.
        -12    1    1    2    0    0  0.20968341006E+02  0.39710723592E+02 -0.35356220260E+01  0.45045682544E+02  0.00000000000E+00 0.  1.
         11    1    3    3    0    0 -0.26192069779E+01 -0.14331204953E+02 -0.22347547384E+00  0.14570299315E+02  0.51100000000E-03 0. -1.
        -11    1    3    3    0    0 -0.11876057448E+02 -0.16913268539E+02  0.18970548478E+01  0.20753269876E+02  0.51100000000E-03 0.  1.
         12    1    3    3    0    0 -0.64730765796E+01 -0.84662501009E+01  0.18620426521E+01  0.10818748265E+02  0.00000000000E+00 0. -1.
</event>
<event>
 7    1  0.1543346E-008  0.4614232E+02  0.7816164E-02  0.1320468E+00
        -11   -1    0    0    0    0  0.00000000000E+00  0.00000000000E+00  0.45593999997E+02  0.45594000000E+02  0.51100000000E-03 0. -1.
         11   -1    0    0    0    0 -0.00000000000E+00 -0.00000000000E+00 -0.45593999997E+02  0.45594000000E+02  0.51100000000E-03 0.  1.
    9900012    2    1    2    0    0  0.46773478083E+01  0.41441956019E+02  0.17023519869E+02  0.46142317300E+02  0.99999957927E+01 0.  0.
        -12    1    1    2    0    0 -0.46773478083E+01 -0.41441956019E+02 -0.17023519869E+02  0.45045682700E+02  0.00000000000E+00 0.  1.
         11    1    3    3    0    0  0.18266700622E+01  0.32513559789E+02  0.13527704699E+02  0.35262828706E+02  0.51100000000E-03 0. -1.
        -11    1    3    3    0    0 -0.23564158469E+00 -0.36998581315E+00  0.42883311389E+00  0.61344482967E+00  0.51100000000E-03 0.  1.
        -12    1    3    3    0    0  0.30863193307E+01  0.92983820431E+01  0.30669820566E+01  0.10266043764E+02  0.00000000000E+00 0.  1.
</event>
<event>
 7    1  0.1543346E-008  0.4614232E+02  0.7816164E-02  0.1320468E+00
        -11   -1    0    0    0    0  0.00000000000E+00  0.00000000000E+00  0.45593999997E+02  0.45594000000E+02  0.51100000000E-03 0.  1.
         11   -1    0    0    0    0 -0.00000000000E+00 -0.00000000000E+00 -0.45593999997E+02  0.45594000000E+02  0.51100000000E-03 0. -1.
    9900012    2    1    2    0    0  0.22664041313E+01  0.21701878944E+02 -0.39408188082E+02  0.46142318462E+02  0.10000006387E+02 0.  0.
        -12    1    1    2    0    0 -0.22664041313E+01 -0.21701878944E+02  0.39408188082E+02  0.45045681538E+02  0.00000000000E+00 0.  1.
         11    1    3    3    0    0 -0.13353438992E+01  0.10210947951E+01 -0.54553345757E+01  0.57084545635E+01  0.51100000000E-03 0.  1.
        -11    1    3    3    0    0 -0.11009761865E+01  0.11494690026E+02 -0.19743496470E+02  0.22872378549E+02  0.51100000000E-03 0. -1.
         12    1    3    3    0    0  0.47027242170E+01  0.91860941222E+01 -0.14209357036E+02  0.17561485349E+02  0.00000000000E+00 0. -1.
</event>
<event>
 7    1  0.1543346E-008  0.4614232E+02  0.7816164E-02  0.1320468E+00
        -11   -1    0    0    0    0  0.00000000000E+00  0.00000000000E+00  0.45593999997E+02  0.45594000000E+02  0.51100000000E-03 0.  1.
         11   -1    0    0    0    0 -0.00000000000E+00 -0.00000000000E+00 -0.45593999997E+02  0.45594000000E+02  0.51100000000E-03 0. -1.
    9900012    2    1    2    0    0  0.23887990157E+02  0.79573487223E+01 -0.37351814064E+02  0.46142317784E+02  0.10000000209E+02 0.  0.
        -12    1    1    2    0    0 -0.23887990157E+02 -0.79573487223E+01  0.37351814064E+02  0.45045682216E+02  0.00000000000E+00 0.  1.
         11    1    3    3    0    0 -0.12241027801E+00  0.81406858568E+00 -0.24812674556E+01  0.26142647887E+01  0.51100000000E-03 0. -1.
        -11    1    3    3    0    0  0.21827380432E+02  0.66089555900E+01 -0.26999399926E+02  0.35342331943E+02  0.51100000000E-03 0.  1.
        -12    1    3    3    0    0  0.21830200028E+01  0.53432454662E+00 -0.78711466824E+01  0.81857210525E+01  0.00000000000E+00 0.  1.
</event>
<event>
 7    1  0.1543346E-008  0.4614232E+02  0.7816164E-02  0.1320468E+00
        -11   -1    0    0    0    0  0.00000000000E+00  0.00000000000E+00  0.45593999997E+02  0.45594000000E+02  0.51100000000E-03 0. -1.
         11   -1    0    0    0    0 -0.00000000000E+00 -0.00000000000E+00 -0.45593999997E+02  0.45594000000E+02  0.51100000000E-03 0.  1.
    9900012    2    1    2    0    0  0.27004561451E+02 -0.36042863812E+02 -0.88267028764E+00  0.46142317879E+02  0.10000001072E+02 0.  0.
        -12    1    1    2    0    0 -0.27004561451E+02  0.36042863812E+02  0.88267028764E+00  0.45045682121E+02  0.00000000000E+00 0.  1.
         11    1    3    3    0    0  0.11111707515E+02 -0.17252258501E+02 -0.37196873064E+01  0.20855371999E+02  0.51100000000E-03 0. -1.
        -11    1    3    3    0    0  0.14803019711E+02 -0.17801457542E+02  0.38908215930E+01  0.23476792288E+02  0.51100000000E-03 0.  1.
        -12    1    3    3    0    0  0.10898342248E+01 -0.98914776852E+00 -0.10538045742E+01  0.18101535919E+01  0.00000000000E+00 0.  1.
</event>
<event>
 7    1  0.1543346E-008  0.4614232E+02  0.7816164E-02  0.1320468E+00
        -11   -1    0    0    0    0  0.00000000000E+00  0.00000000000E+00  0.45593999997E+02  0.45594000000E+02  0.51100000000E-03 0. -1.
         11   -1    0    0    0    0 -0.00000000000E+00 -0.00000000000E+00 -0.45593999997E+02  0.45594000000E+02  0.51100000000E-03 0.  1.
    9900012    2    1    2    0    0  0.27129602552E+02 -0.35054703043E+02  0.80166054352E+01  0.46142317602E+02  0.99999985460E+01 0.  0.
        -12    1    1    2    0    0 -0.27129602552E+02  0.35054703043E+02 -0.80166054352E+01  0.45045682398E+02  0.00000000000E+00 0.  1.
         11    1    3    3    0    0  0.99693711406E+01 -0.10999351101E+02 -0.14689689841E+01  0.14917505010E+02  0.51100000000E-03 0.  1.
        -11    1    3    3    0    0  0.16448527606E+02 -0.23403036939E+02  0.84911264415E+01  0.29838824154E+02  0.51100000000E-03 0. -1.
        -12    1    3    3    0    0  0.71170380487E+00 -0.65231500168E+00  0.99444797777E+00  0.13859884371E+01  0.00000000000E+00 0.  1.
</event>
<event>
 7    1  0.1543346E-008  0.4614232E+02  0.7816164E-02  0.1320468E+00
        -11   -1    0    0    0    0  0.00000000000E+00  0.00000000000E+00  0.45593999997E+02  0.45594000000E+02  0.51100000000E-03 0. -1.
         11   -1    0    0    0    0 -0.00000000000E+00 -0.00000000000E+00 -0.45593999997E+02  0.45594000000E+02  0.51100000000E-03 0.  1.
    9900012    2    1    2    0    0 -0.26104383788E+02 -0.36705118307E+02 -0.63938644609E+00  0.46142318987E+02  0.10000011179E+02 0.  0.
        -12    1    1    2    0    0  0.26104383788E+02  0.36705118307E+02  0.63938644609E+00  0.45045681013E+02  0.00000000000E+00 0.  1.
         11    1    3    3    0    0 -0.92765845255E+01 -0.12072105589E+02 -0.44153150354E+00  0.15231076920E+02  0.51100000000E-03 0. -1.
        -11    1    3    3    0    0 -0.11885980545E+02 -0.14507989811E+02  0.34476721473E+01  0.19069471554E+02  0.51100000000E-03 0.  1.
        -12    1    3    3    0    0 -0.49418187171E+01 -0.10125022907E+02 -0.36455270899E+01  0.11841770513E+02  0.00000000000E+00 0.  1.
</event>
<event>
 7    1  0.1648099E-008  0.4614231E+02  0.7816164E-02  0.1320468E+00
        -11   -1    0    0    0    0  0.00000000000E+00  0.00000000000E+00  0.45593999997E+02  0.45594000000E+02  0.51100000000E-03 0. -1.
         11   -1    0    0    0    0 -0.00000000000E+00 -0.00000000000E+00 -0.45593999997E+02  0.45594000000E+02  0.51100000000E-03 0.  1.
    9900012    2    1    2    0    0  0.53160325849E+01 -0.44386163109E+02  0.55427489055E+01  0.46142314930E+02  0.99999741814E+01 0.  0.
        -12    1    1    2    0    0 -0.53160325849E+01  0.44386163109E+02 -0.55427489055E+01  0.45045685070E+02  0.00000000000E+00 0.  1.
         11    1    3    3    0    0  0.37315624345E+01 -0.37041623170E+02  0.55171884373E+01  0.37635698131E+02  0.51100000000E-03 0. -1.
        -11    1    3    3    0    0 -0.85161403567E+00 -0.61218811597E+00  0.78052339419E+00  0.13073782104E+01  0.51100000000E-03 0.  1.
         12    1    3    3    0    0  0.24360841862E+01 -0.67323518233E+01 -0.75496292602E+00  0.71992385885E+01  0.00000000000E+00 0. -1.
</event>
<event>
 7    1  0.1543346E-008  0.4614232E+02  0.7816164E-02  0.1320468E+00
        -11   -1    0    0    0    0  0.00000000000E+00  0.00000000000E+00  0.45593999997E+02  0.45594000000E+02  0.51100000000E-03 0. -1.
         11   -1    0    0    0    0 -0.00000000000E+00 -0.00000000000E+00 -0.45593999997E+02  0.45594000000E+02  0.51100000000E-03 0.  1.
    9900012    2    1    2    0    0 -0.39725320869E+02  0.81458610922E+01  0.19612682977E+02  0.46142317581E+02  0.99999983532E+01 0.  0.
        -12    1    1    2    0    0  0.39725320869E+02 -0.81458610922E+01 -0.19612682977E+02  0.45045682419E+02  0.00000000000E+00 0.  1.
         11    1    3    3    0    0  0.43445642651E+00  0.35083262944E+00  0.70785611241E+00  0.90160770705E+00  0.51100000000E-03 0. -1.
        -11    1    3    3    0    0 -0.15204209235E+02  0.45175859639E+01  0.60260756684E+01  0.16967325942E+02  0.51100000000E-03 0.  1.
         12    1    3    3    0    0 -0.24955568060E+02  0.32774424989E+01  0.12878751196E+02  0.28273383931E+02  0.00000000000E+00 0. -1.
</event>
<event>
 7    1  0.1543346E-008  0.4614232E+02  0.7816164E-02  0.1320468E+00
        -11   -1    0    0    0    0  0.00000000000E+00  0.00000000000E+00  0.45593999997E+02  0.45594000000E+02  0.51100000000E-03 0.  1.
         11   -1    0    0    0    0 -0.00000000000E+00 -0.00000000000E+00 -0.45593999997E+02  0.45594000000E+02  0.51100000000E-03 0. -1.
    9900012    2    1    2    0    0  0.37250138226E+02  0.62909025115E+01 -0.24534980388E+02  0.46142317466E+02  0.99999973119E+01 0.  0.
        -12    1    1    2    0    0 -0.37250138226E+02 -0.62909025115E+01  0.24534980388E+02  0.45045682534E+02  0.00000000000E+00 0.  1.
         11    1    3    3    0    0  0.20561614969E+02  0.94107561605E+00 -0.14979304340E+02  0.25456731766E+02  0.51100000000E-03 0. -1.
        -11    1    3    3    0    0  0.15919321267E+02  0.41953198224E+01 -0.99591162857E+01  0.19240828866E+02  0.51100000000E-03 0.  1.
        -12    1    3    3    0    0  0.76920199051E+00  0.11545070730E+01  0.40344023754E+00  0.14447568339E+01  0.00000000000E+00 0.  1.
</event>
<event>
 7    1  0.1543346E-008  0.4614232E+02  0.7816164E-02  0.1320468E+00
        -11   -1    0    0    0    0  0.00000000000E+00  0.00000000000E+00  0.45593999997E+02  0.45594000000E+02  0.51100000000E-03 0. -1.
         11   -1    0    0    0    0 -0.00000000000E+00 -0.00000000000E+00 -0.45593999997E+02  0.45594000000E+02  0.51100000000E-03 0.  1.
    9900012    2    1    2    0    0 -0.11236361433E+02 -0.19445487554E+02  0.39047801754E+02  0.46142316230E+02  0.99999860418E+01 0.  0.
        -12    1    1    2    0    0  0.11236361433E+02  0.19445487554E+02 -0.39047801754E+02  0.45045683770E+02  0.00000000000E+00 0.  1.
         11    1    3    3    0    0 -0.72203642874E+01 -0.10567394362E+02  0.27822514587E+02  0.30625084527E+02  0.51100000000E-03 0. -1.
        -11    1    3    3    0    0 -0.46848434185E+00  0.49824623103E+00  0.83133453874E+00  0.10764962897E+01  0.51100000000E-03 0.  1.
        -12    1    3    3    0    0 -0.35475128033E+01 -0.93763394232E+01  0.10393952628E+02  0.14440735414E+02  0.00000000000E+00 0.  1.
</event>
<event>
 7    1  0.1543346E-008  0.4614232E+02  0.7816164E-02  0.1320468E+00
        -11   -1    0    0    0    0  0.00000000000E+00  0.00000000000E+00  0.45593999997E+02  0.45594000000E+02  0.51100000000E-03 0.  1.
         11   -1    0    0    0    0 -0.00000000000E+00 -0.00000000000E+00 -0.45593999997E+02  0.45594000000E+02  0.51100000000E-03 0. -1.
    9900012    2    1    2    0    0 -0.31768389604E+02  0.31456053973E+02 -0.55135832757E+01  0.46142317520E+02  0.99999977982E+01 0.  0.
        -12    1    1    2    0    0  0.31768389604E+02 -0.31456053973E+02  0.55135832757E+01  0.45045682480E+02  0.00000000000E+00 0.  1.
         11    1    3    3    0    0 -0.13039596301E+01  0.53801092761E+00 -0.13226228445E+01  0.19336747206E+01  0.51100000000E-03 0. -1.
        -11    1    3    3    0    0 -0.92415615155E+00  0.85445498093E+00 -0.15238363545E+01  0.19764198449E+01  0.51100000000E-03 0.  1.
         12    1    3    3    0    0 -0.29540273823E+02  0.30063588064E+02 -0.26671240767E+01  0.42232222954E+02  0.00000000000E+00 0. -1.
</event>
<event>
 7    1  0.1543346E-008  0.4614232E+02  0.7816164E-02  0.1320468E+00
        -11   -1    0    0    0    0  0.00000000000E+00  0.00000000000E+00  0.45593999997E+02  0.45594000000E+02  0.51100000000E-03 0.  1.
         11   -1    0    0    0    0 -0.00000000000E+00 -0.00000000000E+00 -0.45593999997E+02  0.45594000000E+02  0.51100000000E-03 0. -1.
    9900012    2    1    2    0    0 -0.14544473009E+02 -0.19544394820E+02 -0.37889159322E+02  0.46142318097E+02  0.10000003059E+02 0.  0.
        -12    1    1    2    0    0  0.14544473009E+02  0.19544394820E+02  0.37889159322E+02  0.45045681903E+02  0.00000000000E+00 0.  1.
         11    1    3    3    0    0 -0.23716481989E+01 -0.15593076521E+01 -0.17638960859E+01  0.33417787474E+01  0.51100000000E-03 0. -1.
        -11    1    3    3    0    0 -0.29086079370E+01 -0.44147337208E+01 -0.15819871414E+02  0.16679874273E+02  0.51100000000E-03 0.  1.
         12    1    3    3    0    0 -0.92642168734E+01 -0.13570353447E+02 -0.20305391823E+02  0.26120665076E+02  0.00000000000E+00 0. -1.
</event>
<event>
 7    1  0.1543346E-008  0.4614232E+02  0.7816164E-02  0.1320468E+00
        -11   -1    0    0    0    0  0.00000000000E+00  0.00000000000E+00  0.45593999997E+02  0.45594000000E+02  0.51100000000E-03 0. -1.
         11   -1    0    0    0    0 -0.00000000000E+00 -0.00000000000E+00 -0.45593999997E+02  0.45594000000E+02  0.51100000000E-03 0.  1.
    9900012    2    1    2    0    0  0.40282080967E+02 -0.20049319938E+02  0.21194863824E+01  0.46142317637E+02  0.99999988701E+01 0.  0.
        -12    1    1    2    0    0 -0.40282080967E+02  0.20049319938E+02 -0.21194863824E+01  0.45045682363E+02  0.00000000000E+00 0.  1.
         11    1    3    3    0    0  0.11625222380E+02 -0.10591707385E+02 -0.59231300780E+00  0.15737880914E+02  0.51100000000E-03 0. -1.
        -11    1    3    3    0    0  0.12821230507E+02 -0.29242204856E+01  0.99056987543E+00  0.13187730893E+02  0.51100000000E-03 0.  1.
         12    1    3    3    0    0  0.15835628080E+02 -0.65333920670E+01  0.17212295148E+01  0.17216705830E+02  0.00000000000E+00 0. -1.
</event>
<event>
 7    1  0.1543346E-008  0.4614232E+02  0.7816164E-02  0.1320468E+00
        -11   -1    0    0    0    0  0.00000000000E+00  0.00000000000E+00  0.45593999997E+02  0.45594000000E+02  0.51100000000E-03 0. -1.
         11   -1    0    0    0    0 -0.00000000000E+00 -0.00000000000E+00 -0.45593999997E+02  0.45594000000E+02  0.51100000000E-03 0.  1.
    9900012    2    1    2    0    0  0.43513151942E+02  0.98122678227E+01 -0.62800042577E+01  0.46142318240E+02  0.10000004369E+02 0.  0.
        -12    1    1    2    0    0 -0.43513151942E+02 -0.98122678227E+01  0.62800042577E+01  0.45045681760E+02  0.00000000000E+00 0.  1.
         11    1    3    3    0    0  0.15593445021E+02  0.27573649841E+01  0.11480096701E+00  0.15835774967E+02  0.51100000000E-03 0. -1.
        -11    1    3    3    0    0  0.17882838374E+02  0.66451508785E+01 -0.67997346348E+01  0.20253156047E+02  0.51100000000E-03 0.  1.
        -12    1    3    3    0    0  0.10036868547E+02  0.40975196015E+00  0.40492941011E+00  0.10053387227E+02  0.00000000000E+00 0.  1.
</event>
<event>
 7    1  0.1543346E-008  0.4614232E+02  0.7816164E-02  0.1320468E+00
        -11   -1    0    0    0    0  0.00000000000E+00  0.00000000000E+00  0.45593999997E+02  0.45594000000E+02  0.51100000000E-03 0.  1.
         11   -1    0    0    0    0 -0.00000000000E+00 -0.00000000000E+00 -0.45593999997E+02  0.45594000000E+02  0.51100000000E-03 0. -1.
    9900012    2    1    2    0    0  0.37601950072E+02  0.88042595972E+00 -0.24787732938E+02  0.46142317595E+02  0.99999984854E+01 0.  0.
        -12    1    1    2    0    0 -0.37601950072E+02 -0.88042595972E+00  0.24787732938E+02  0.45045682405E+02  0.00000000000E+00 0.  1.
         11    1    3    3    0    0  0.24321910822E+02 -0.10545356166E+00 -0.20824796917E+02  0.32019347798E+02  0.51100000000E-03 0. -1.
        -11    1    3    3    0    0  0.10816199405E+02 -0.13116765946E+00 -0.27677400446E+01  0.11165471765E+02  0.51100000000E-03 0.  1.
         12    1    3    3    0    0  0.24638398456E+01  0.11170471808E+01 -0.11951959764E+01  0.29574980323E+01  0.00000000000E+00 0. -1.
</event>
<event>
 7    1  0.1543346E-008  0.4614232E+02  0.7816164E-02  0.1320468E+00
        -11   -1    0    0    0    0  0.00000000000E+00  0.00000000000E+00  0.45593999997E+02  0.45594000000E+02  0.51100000000E-03 0.  1.
         11   -1    0    0    0    0 -0.00000000000E+00 -0.00000000000E+00 -0.45593999997E+02  0.45594000000E+02  0.51100000000E-03 0. -1.
    9900012    2    1    2    0    0  0.33601385989E+02  0.17814403898E+02 -0.24139333763E+02  0.46142316953E+02  0.99999926353E+01 0.  0.
        -12    1    1    2    0    0 -0.33601385989E+02 -0.17814403898E+02  0.24139333763E+02  0.45045683047E+02  0.00000000000E+00 0.  1.
         11    1    3    3    0    0  0.90246587889E+01  0.60545076294E+01 -0.50901660759E+01  0.12000471650E+02  0.51100000000E-03 0. -1.
        -11    1    3    3    0    0  0.25474652678E+01 -0.90629838831E+00 -0.68412265672E+00  0.27890823096E+01  0.51100000000E-03 0.  1.
        -12    1    3    3    0    0  0.22029261932E+02  0.12666194656E+02 -0.18365045030E+02  0.31352762993E+02  0.00000000000E+00 0.  1.
</event>
<event>
 7    1  0.1543346E-008  0.4614232E+02  0.7816164E-02  0.1320468E+00
        -11   -1    0    0    0    0  0.00000000000E+00  0.00000000000E+00  0.45593999997E+02  0.45594000000E+02  0.51100000000E-03 0. -1.
         11   -1    0    0    0    0 -0.00000000000E+00 -0.00000000000E+00 -0.45593999997E+02  0.45594000000E+02  0.51100000000E-03 0.  1.
    9900012    2    1    2    0    0  0.12109734917E+02 -0.14795845992E+02  0.40786647756E+02  0.46142319036E+02  0.10000011625E+02 0.  0.
        -12    1    1    2    0    0 -0.12109734917E+02  0.14795845992E+02 -0.40786647756E+02  0.45045680964E+02  0.00000000000E+00 0.  1.
         11    1    3    3    0    0  0.43624903661E+01 -0.21832459263E+01  0.86710951719E+01  0.99491595982E+01  0.51100000000E-03 0. -1.
        -11    1    3    3    0    0  0.89781408633E+01 -0.83797337488E+01  0.23664725362E+02  0.26661698704E+02  0.51100000000E-03 0.  1.
        -12    1    3    3    0    0 -0.12308963125E+01 -0.42328663165E+01  0.84508272219E+01  0.95314607338E+01  0.00000000000E+00 0.  1.
</event>
<event>
 7    1  0.1543346E-008  0.4614231E+02  0.7816164E-02  0.1320468E+00
        -11   -1    0    0    0    0  0.00000000000E+00  0.00000000000E+00  0.45593999997E+02  0.45594000000E+02  0.51100000000E-03 0. -1.
         11   -1    0    0    0    0 -0.00000000000E+00 -0.00000000000E+00 -0.45593999997E+02  0.45594000000E+02  0.51100000000E-03 0.  1.
    9900012    2    1    2    0    0 -0.44723674850E+02 -0.52852080559E+01 -0.98657522363E+00  0.46142313781E+02  0.99999637070E+01 0.  0.
        -12    1    1    2    0    0  0.44723674850E+02  0.52852080559E+01  0.98657522363E+00  0.45045686219E+02  0.00000000000E+00 0.  1.
         11    1    3    3    0    0 -0.20272251398E+02 -0.21953457868E+01 -0.80832120079E+00  0.20406790617E+02  0.51100000000E-03 0. -1.
        -11    1    3    3    0    0 -0.16813040066E+02 -0.43706156780E+01  0.24779811429E+01  0.17547677580E+02  0.51100000000E-03 0.  1.
        -12    1    3    3    0    0 -0.76383833863E+01  0.12807534090E+01 -0.26562351657E+01  0.81878455840E+01  0.00000000000E+00 0.  1.
</event>
<event>
 7    1  0.1543346E-008  0.4614231E+02  0.7816164E-02  0.1320468E+00
        -11   -1    0    0    0    0  0.00000000000E+00  0.00000000000E+00  0.45593999997E+02  0.45594000000E+02  0.51100000000E-03 0. -1.
         11   -1    0    0    0    0 -0.00000000000E+00 -0.00000000000E+00 -0.45593999997E+02  0.45594000000E+02  0.51100000000E-03 0.  1.
    9900012    2    1    2    0    0 -0.58020913897E+01 -0.42275587891E+02  0.14429977323E+02  0.46142313840E+02  0.99999642466E+01 0.  0.
        -12    1    1    2    0    0  0.58020913897E+01  0.42275587891E+02 -0.14429977323E+02  0.45045686160E+02  0.00000000000E+00 0.  1.
         11    1    3    3    0    0 -0.34451247148E+01 -0.22836326206E+02  0.91699675672E+01  0.24848641499E+02  0.51100000000E-03 0. -1.
        -11    1    3    3    0    0  0.17609925463E+01 -0.17933572446E+01  0.68062328090E+00  0.26039341901E+01  0.51100000000E-03 0.  1.
         12    1    3    3    0    0 -0.41179592212E+01 -0.17645904441E+02  0.45793864750E+01  0.18689738152E+02  0.00000000000E+00 0. -1.
</event>
<event>
 7    1  0.1543346E-008  0.4614232E+02  0.7816164E-02  0.1320468E+00
        -11   -1    0    0    0    0  0.00000000000E+00  0.00000000000E+00  0.45593999997E+02  0.45594000000E+02  0.51100000000E-03 0.  1.
         11   -1    0    0    0    0 -0.00000000000E+00 -0.00000000000E+00 -0.45593999997E+02  0.45594000000E+02  0.51100000000E-03 0. -1.
    9900012    2    1    2    0    0 -0.26892145469E+02 -0.33676752623E+02 -0.13107338232E+02  0.46142317957E+02  0.10000001787E+02 0.  0.
        -12    1    1    2    0    0  0.26892145469E+02  0.33676752623E+02  0.13107338232E+02  0.45045682043E+02  0.00000000000E+00 0.  1.
         11    1    3    3    0    0 -0.59417255339E+01 -0.32093329841E+01 -0.18636150703E+01  0.70054965502E+01  0.51100000000E-03 0. -1.
        -11    1    3    3    0    0 -0.11220566117E+02 -0.19666101548E+02 -0.92694772536E+01  0.24465891827E+02  0.51100000000E-03 0.  1.
        -12    1    3    3    0    0 -0.97298538181E+01 -0.10801318091E+02 -0.19742459081E+01  0.14670929580E+02  0.00000000000E+00 0.  1.
</event>
<event>
 7    1  0.1543346E-008  0.4614232E+02  0.7816164E-02  0.1320468E+00
        -11   -1    0    0    0    0  0.00000000000E+00  0.00000000000E+00  0.45593999997E+02  0.45594000000E+02  0.51100000000E-03 0.  1.
         11   -1    0    0    0    0 -0.00000000000E+00 -0.00000000000E+00 -0.45593999997E+02  0.45594000000E+02  0.51100000000E-03 0. -1.
    9900012    2    1    2    0    0 -0.24134680730E+02  0.26283680561E+02 -0.27491795935E+02  0.46142317394E+02  0.99999966480E+01 0.  0.
        -12    1    1    2    0    0  0.24134680730E+02 -0.26283680561E+02  0.27491795935E+02  0.45045682606E+02  0.00000000000E+00 0.  1.
         11    1    3    3    0    0 -0.14018934919E+02  0.12171568850E+02 -0.12901180273E+02  0.22607920675E+02  0.51100000000E-03 0. -1.
        -11    1    3    3    0    0 -0.76344554682E+01  0.13619760370E+02 -0.10829062224E+02  0.19001351840E+02  0.51100000000E-03 0.  1.
        -12    1    3    3    0    0 -0.24812903420E+01  0.49235134088E+00 -0.37615534381E+01  0.45330448786E+01  0.00000000000E+00 0.  1.
</event>
<event>
 7    1  0.1543346E-008  0.4614232E+02  0.7816164E-02  0.1320468E+00
        -11   -1    0    0    0    0  0.00000000000E+00  0.00000000000E+00  0.45593999997E+02  0.45594000000E+02  0.51100000000E-03 0.  1.
         11   -1    0    0    0    0 -0.00000000000E+00 -0.00000000000E+00 -0.45593999997E+02  0.45594000000E+02  0.51100000000E-03 0. -1.
    9900012    2    1    2    0    0 -0.48091763613E+00  0.19295831020E+02 -0.40700774916E+02  0.46142318128E+02  0.10000003346E+02 0.  0.
        -12    1    1    2    0    0  0.48091763613E+00 -0.19295831020E+02  0.40700774916E+02  0.45045681872E+02  0.00000000000E+00 0.  1.
         11    1    3    3    0    0 -0.27083789762E+01  0.90187190384E+01 -0.10559030255E+02  0.14147993849E+02  0.51100000000E-03 0. -1.
        -11    1    3    3    0    0  0.14554860948E+01  0.28628012401E+01 -0.10737059276E+02  0.11207074233E+02  0.51100000000E-03 0.  1.
         12    1    3    3    0    0  0.77197524532E+00  0.74143107416E+01 -0.19404685386E+02  0.20787250046E+02  0.00000000000E+00 0. -1.
</event>
<event>
 7    1  0.1543346E-008  0.4614232E+02  0.7816164E-02  0.1320468E+00
        -11   -1    0    0    0    0  0.00000000000E+00  0.00000000000E+00  0.45593999997E+02  0.45594000000E+02  0.51100000000E-03 0. -1.
         11   -1    0    0    0    0 -0.00000000000E+00 -0.00000000000E+00 -0.45593999997E+02  0.45594000000E+02  0.51100000000E-03 0.  1.
    9900012    2    1    2    0    0  0.17840283395E+02 -0.29703071957E+02  0.28784813098E+02  0.46142315852E+02  0.99999825874E+01 0.  0.
        -12    1    1    2    0    0 -0.17840283395E+02  0.29703071957E+02 -0.28784813098E+02  0.45045684148E+02  0.00000000000E+00 0.  1.
         11    1    3    3    0    0  0.13591272182E+02 -0.19546670548E+02  0.16128546422E+02  0.28756303987E+02  0.51100000000E-03 0. -1.
        -11    1    3    3    0    0  0.50056173352E+00 -0.45437479512E+00 -0.32649044384E+00  0.75074281518E+00  0.51100000000E-03 0.  1.
         12    1    3    3    0    0  0.37484494799E+01 -0.97020266138E+01  0.12982757119E+02  0.16635269049E+02  0.00000000000E+00 0. -1.
</event>
<event>
 7    1  0.1543346E-008  0.4614232E+02  0.7816164E-02  0.1320468E+00
        -11   -1    0    0    0    0  0.00000000000E+00  0.00000000000E+00  0.45593999997E+02  0.45594000000E+02  0.51100000000E-03 0.  1.
         11   -1    0    0    0    0 -0.00000000000E+00 -0.00000000000E+00 -0.45593999997E+02  0.45594000000E+02  0.51100000000E-03 0. -1.
    9900012    2    1    2    0    0  0.21529689899E+01 -0.29603839109E+02 -0.33883488151E+02  0.46142319466E+02  0.10000015551E+02 0.  0.
        -12    1    1    2    0    0 -0.21529689899E+01  0.29603839109E+02  0.33883488151E+02  0.45045680534E+02  0.00000000000E+00 0.  1.
         11    1    3    3    0    0 -0.21250101496E+00  0.41683298490E+00 -0.26454629449E+01  0.26865183552E+01  0.51100000000E-03 0.  1.
        -11    1    3    3    0    0  0.13526097275E+01 -0.23781238499E+02 -0.23454939813E+02  0.33429194718E+02  0.51100000000E-03 0. -1.
        -12    1    3    3    0    0  0.10128602774E+01 -0.62394335945E+01 -0.77830853936E+01  0.10026606393E+02  0.00000000000E+00 0.  1.
</event>
<event>
 7    1  0.1543346E-008  0.4614232E+02  0.7816164E-02  0.1320468E+00
        -11   -1    0    0    0    0  0.00000000000E+00  0.00000000000E+00  0.45593999997E+02  0.45594000000E+02  0.51100000000E-03 0. -1.
         11   -1    0    0    0    0 -0.00000000000E+00 -0.00000000000E+00 -0.45593999997E+02  0.45594000000E+02  0.51100000000E-03 0.  1.
    9900012    2    1    2    0    0 -0.22443463496E+02 -0.27643006018E+02  0.27591095158E+02  0.46142319104E+02  0.10000012242E+02 0.  0.
        -12    1    1    2    0    0  0.22443463496E+02  0.27643006018E+02 -0.27591095158E+02  0.45045680896E+02  0.00000000000E+00 0.  1.
         11    1    3    3    0    0 -0.81984431843E+01 -0.17110471071E+02  0.13136418384E+02  0.23077005420E+02  0.51100000000E-03 0. -1.
        -11    1    3    3    0    0 -0.49249153314E+01 -0.19454664866E+01  0.45344664696E+01  0.69714429853E+01  0.51100000000E-03 0.  1.
         12    1    3    3    0    0 -0.93201049803E+01 -0.85870684605E+01  0.99202103041E+01  0.16093870699E+02  0.00000000000E+00 0. -1.
</event>
<event>
 7    1  0.1543346E-008  0.4614232E+02  0.7816164E-02  0.1320468E+00
        -11   -1    0    0    0    0  0.00000000000E+00  0.00000000000E+00  0.45593999997E+02  0.45594000000E+02  0.51100000000E-03 0. -1.
         11   -1    0    0    0    0 -0.00000000000E+00 -0.00000000000E+00 -0.45593999997E+02  0.45594000000E+02  0.51100000000E-03 0.  1.
    9900012    2    1    2    0    0  0.39519035284E+01 -0.40991354947E+02  0.18253899605E+02  0.46142316825E+02  0.99999914651E+01 0.  0.
        -12    1    1    2    0    0 -0.39519035284E+01  0.40991354947E+02 -0.18253899605E+02  0.45045683175E+02  0.00000000000E+00 0.  1.
         11    1    3    3    0    0 -0.11680358393E+01 -0.14245676777E+02  0.45449605757E+01  0.14998675990E+02  0.51100000000E-03 0.  1.
        -11    1    3    3    0    0  0.25914816115E+01 -0.63066605590E+01  0.62208200362E+01  0.92297533300E+01  0.51100000000E-03 0. -1.
        -12    1    3    3    0    0  0.25284577563E+01 -0.20439017611E+02  0.74881189933E+01  0.21913887505E+02  0.00000000000E+00 0.  1.
</event>
<event>
 7    1  0.1543346E-008  0.4614232E+02  0.7816164E-02  0.1320468E+00
        -11   -1    0    0    0    0  0.00000000000E+00  0.00000000000E+00  0.45593999997E+02  0.45594000000E+02  0.51100000000E-03 0.  1.
         11   -1    0    0    0    0 -0.00000000000E+00 -0.00000000000E+00 -0.45593999997E+02  0.45594000000E+02  0.51100000000E-03 0. -1.
    9900012    2    1    2    0    0  0.10550334031E+02  0.16005833469E+02 -0.40762938823E+02  0.46142318357E+02  0.10000005431E+02 0.  0.
        -12    1    1    2    0    0 -0.10550334031E+02 -0.16005833469E+02  0.40762938823E+02  0.45045681643E+02  0.00000000000E+00 0.  1.
         11    1    3    3    0    0  0.30195991973E+01  0.67128716827E+01 -0.20396867573E+02  0.21684391451E+02  0.51100000000E-03 0.  1.
        -11    1    3    3    0    0  0.83751508791E+01  0.94900603882E+01 -0.19352018537E+02  0.23123689588E+02  0.51100000000E-03 0. -1.
        -12    1    3    3    0    0 -0.84441604512E+00 -0.19709860244E+00 -0.10140527128E+01  0.13342373180E+01  0.00000000000E+00 0.  1.
</event>
<event>
 7    1  0.1543346E-008  0.4614231E+02  0.7816164E-02  0.1320468E+00
        -11   -1    0    0    0    0  0.00000000000E+00  0.00000000000E+00  0.45593999997E+02  0.45594000000E+02  0.51100000000E-03 0.  1.
         11   -1    0    0    0    0 -0.00000000000E+00 -0.00000000000E+00 -0.45593999997E+02  0.45594000000E+02  0.51100000000E-03 0. -1.
    9900012    2    1    2    0    0 -0.49161610336E+01  0.37350940951E+01 -0.44620560454E+02  0.46142312277E+02  0.99999499958E+01 0.  0.
        -12    1    1    2    0    0  0.49161610336E+01 -0.37350940951E+01  0.44620560454E+02  0.45045687723E+02  0.00000000000E+00 0.  1.
         11    1    3    3    0    0 -0.26201043545E+01  0.47148365339E+01 -0.15395921803E+02  0.16313461889E+02  0.51100000000E-03 0. -1.
        -11    1    3    3    0    0  0.16969107853E+01  0.10189414513E+00 -0.58928768809E+01  0.61331791776E+01  0.51100000000E-03 0.  1.
         12    1    3    3    0    0 -0.39929674644E+01 -0.10816365840E+01 -0.23331761770E+02  0.23695671211E+02  0.00000000000E+00 0. -1.
</event>
<event>
 7    1  0.1543346E-008  0.4614232E+02  0.7816164E-02  0.1320468E+00
        -11   -1    0    0    0    0  0.00000000000E+00  0.00000000000E+00  0.45593999997E+02  0.45594000000E+02  0.51100000000E-03 0.  1.
         11   -1    0    0    0    0 -0.00000000000E+00 -0.00000000000E+00 -0.45593999997E+02  0.45594000000E+02  0.51100000000E-03 0. -1.
    9900012    2    1    2    0    0  0.28868705340E+02  0.47879931143E+01 -0.34245969971E+02  0.46142317794E+02  0.10000000304E+02 0.  0.
        -12    1    1    2    0    0 -0.28868705340E+02 -0.47879931143E+01  0.34245969971E+02  0.45045682206E+02  0.00000000000E+00 0.  1.
         11    1    3    3    0    0  0.32704474356E+01 -0.17641302655E+01 -0.47188683103E+01  0.60063050550E+01  0.51100000000E-03 0.  1.
        -11    1    3    3    0    0  0.18638680989E+02  0.70949053180E+01 -0.19295216665E+02  0.27749657599E+02  0.51100000000E-03 0. -1.
         12    1    3    3    0    0  0.69595769157E+01 -0.54278193822E+00 -0.10231884996E+02  0.12386355140E+02  0.00000000000E+00 0. -1.
</event>
<event>
 7    1  0.1543346E-008  0.4614232E+02  0.7816164E-02  0.1320468E+00
        -11   -1    0    0    0    0  0.00000000000E+00  0.00000000000E+00  0.45593999997E+02  0.45594000000E+02  0.51100000000E-03 0.  1.
         11   -1    0    0    0    0 -0.00000000000E+00 -0.00000000000E+00 -0.45593999997E+02  0.45594000000E+02  0.51100000000E-03 0. -1.
    9900012    2    1    2    0    0  0.71250209749E+01  0.40744295465E+02 -0.17839561633E+02  0.46142317676E+02  0.99999992201E+01 0.  0.
        -12    1    1    2    0    0 -0.71250209749E+01 -0.40744295465E+02  0.17839561633E+02  0.45045682324E+02  0.00000000000E+00 0.  1.
         11    1    3    3    0    0  0.52645291240E+01  0.17371902320E+02 -0.11267124804E+02  0.21364605279E+02  0.51100000000E-03 0. -1.
        -11    1    3    3    0    0  0.16408774229E+01  0.12805652118E+02 -0.13263087308E+01  0.12978301121E+02  0.51100000000E-03 0.  1.
         12    1    3    3    0    0  0.21961442808E+00  0.10566741027E+02 -0.52461280985E+01  0.11799411276E+02  0.00000000000E+00 0. -1.
</event>
<event>
 7    1  0.1543346E-008  0.4614232E+02  0.7816164E-02  0.1320468E+00
        -11   -1    0    0    0    0  0.00000000000E+00  0.00000000000E+00  0.45593999997E+02  0.45594000000E+02  0.51100000000E-03 0.  1.
         11   -1    0    0    0    0 -0.00000000000E+00 -0.00000000000E+00 -0.45593999997E+02  0.45594000000E+02  0.51100000000E-03 0. -1.
    9900012    2    1    2    0    0  0.87235709900E+01  0.69683716571E+00 -0.44187409113E+02  0.46142318775E+02  0.10000009248E+02 0.  0.
        -12    1    1    2    0    0 -0.87235709900E+01 -0.69683716571E+00  0.44187409113E+02  0.45045681225E+02  0.00000000000E+00 0.  1.
         11    1    3    3    0    0  0.65470515215E+01 -0.14732935842E+01 -0.14864824986E+02  0.16309429780E+02  0.51100000000E-03 0. -1.
        -11    1    3    3    0    0  0.15599292849E+01  0.25861075814E+01 -0.89327609348E+01  0.94295042275E+01  0.51100000000E-03 0.  1.
         12    1    3    3    0    0  0.61659018350E+00 -0.41597683150E+00 -0.20389823192E+02  0.20403384768E+02  0.00000000000E+00 0. -1.
</event>
<event>
 7    1  0.1543346E-008  0.4614232E+02  0.7816164E-02  0.1320468E+00
        -11   -1    0    0    0    0  0.00000000000E+00  0.00000000000E+00  0.45593999997E+02  0.45594000000E+02  0.51100000000E-03 0.  1.
         11   -1    0    0    0    0 -0.00000000000E+00 -0.00000000000E+00 -0.45593999997E+02  0.45594000000E+02  0.51100000000E-03 0. -1.
    9900012    2    1    2    0    0  0.35150933713E+02  0.92340558581E+01 -0.26613112038E+02  0.46142315847E+02  0.99999825420E+01 0.  0.
        -12    1    1    2    0    0 -0.35150933713E+02 -0.92340558581E+01  0.26613112038E+02  0.45045684153E+02  0.00000000000E+00 0.  1.
         11    1    3    3    0    0  0.65848830711E+00  0.25718569282E+00 -0.16672799108E+01  0.18109593848E+01  0.51100000000E-03 0. -1.
        -11    1    3    3    0    0  0.15865818085E+02  0.83367649719E+01 -0.10710868924E+02  0.20879380908E+02  0.51100000000E-03 0.  1.
        -12    1    3    3    0    0  0.18626627321E+02  0.64010519344E+00 -0.14234963203E+02  0.23451975554E+02  0.00000000000E+00 0.  1.
</event>
<event>
 7    1  0.1543346E-008  0.4614232E+02  0.7816164E-02  0.1320468E+00
        -11   -1    0    0    0    0  0.00000000000E+00  0.00000000000E+00  0.45593999997E+02  0.45594000000E+02  0.51100000000E-03 0.  1.
         11   -1    0    0    0    0 -0.00000000000E+00 -0.00000000000E+00 -0.45593999997E+02  0.45594000000E+02  0.51100000000E-03 0. -1.
    9900012    2    1    2    0    0  0.18984598099E+02  0.33533807444E+02 -0.23327716868E+02  0.46142316734E+02  0.99999906324E+01 0.  0.
        -12    1    1    2    0    0 -0.18984598099E+02 -0.33533807444E+02  0.23327716868E+02  0.45045683266E+02  0.00000000000E+00 0.  1.
         11    1    3    3    0    0  0.86944691936E+01  0.92264126410E+01 -0.10854763514E+02  0.16689708685E+02  0.51100000000E-03 0. -1.
        -11    1    3    3    0    0  0.57605276663E+01  0.14971743735E+02 -0.55324830935E+01  0.16968946900E+02  0.51100000000E-03 0.  1.
        -12    1    3    3    0    0  0.45296012391E+01  0.93356510679E+01 -0.69404702603E+01  0.12483661149E+02  0.00000000000E+00 0.  1.
</event>
<event>
 7    1  0.1543346E-008  0.4614232E+02  0.7816164E-02  0.1320468E+00
        -11   -1    0    0    0    0  0.00000000000E+00  0.00000000000E+00  0.45593999997E+02  0.45594000000E+02  0.51100000000E-03 0.  1.
         11   -1    0    0    0    0 -0.00000000000E+00 -0.00000000000E+00 -0.45593999997E+02  0.45594000000E+02  0.51100000000E-03 0. -1.
    9900012    2    1    2    0    0  0.10139850676E+02 -0.42592368876E+02 -0.10591840828E+02  0.46142317074E+02  0.99999937326E+01 0.  0.
        -12    1    1    2    0    0 -0.10139850676E+02  0.42592368876E+02  0.10591840828E+02  0.45045682926E+02  0.00000000000E+00 0.  1.
         11    1    3    3    0    0  0.19879502012E+01 -0.26773275687E+02 -0.52450954564E+01  0.27354547403E+02  0.51100000000E-03 0. -1.
        -11    1    3    3    0    0  0.67576709014E+01 -0.11425926926E+02 -0.29739472502E+01  0.13603759945E+02  0.51100000000E-03 0.  1.
         12    1    3    3    0    0  0.13942295731E+01 -0.43931662630E+01 -0.23727981214E+01  0.51840097262E+01  0.00000000000E+00 0. -1.
</event>
<event>
 7    1  0.1543346E-008  0.4614232E+02  0.7816164E-02  0.1320468E+00
        -11   -1    0    0    0    0  0.00000000000E+00  0.00000000000E+00  0.45593999997E+02  0.45594000000E+02  0.51100000000E-03 0.  1.
         11   -1    0    0    0    0 -0.00000000000E+00 -0.00000000000E+00 -0.45593999997E+02  0.45594000000E+02  0.51100000000E-03 0. -1.
    9900012    2    1    2    0    0  0.24620979698E+02  0.22023704609E+02 -0.30624779243E+02  0.46142319744E+02  0.10000018083E+02 0.  0.
        -12    1    1    2    0    0 -0.24620979698E+02 -0.22023704609E+02  0.30624779243E+02  0.45045680256E+02  0.00000000000E+00 0.  1.
         11    1    3    3    0    0  0.37705307010E+01  0.87522387278E+00 -0.33417477882E+01  0.51137263454E+01  0.51100000000E-03 0.  1.
        -11    1    3    3    0    0  0.12588775495E+02  0.10883759411E+02 -0.19840297104E+02  0.25895383311E+02  0.51100000000E-03 0. -1.
         12    1    3    3    0    0  0.82616735019E+01  0.10264721325E+02 -0.74427343510E+01  0.15133210088E+02  0.00000000000E+00 0. -1.
</event>
<event>
 7    1  0.1543346E-008  0.4614232E+02  0.7816164E-02  0.1320468E+00
        -11   -1    0    0    0    0  0.00000000000E+00  0.00000000000E+00  0.45593999997E+02  0.45594000000E+02  0.51100000000E-03 0.  1.
         11   -1    0    0    0    0 -0.00000000000E+00 -0.00000000000E+00 -0.45593999997E+02  0.45594000000E+02  0.51100000000E-03 0. -1.
    9900012    2    1    2    0    0  0.24898262198E+02  0.34768279655E+02 -0.14154742383E+02  0.46142318047E+02  0.10000002607E+02 0.  0.
        -12    1    1    2    0    0 -0.24898262198E+02 -0.34768279655E+02  0.14154742383E+02  0.45045681953E+02  0.00000000000E+00 0.  1.
         11    1    3    3    0    0  0.10568070448E+02  0.21466531537E+02 -0.71293578597E+01  0.24966454153E+02  0.51100000000E-03 0. -1.
        -11    1    3    3    0    0  0.65587646458E+01  0.52104197591E+01 -0.98516137465E+00  0.84342403890E+01  0.51100000000E-03 0.  1.
         12    1    3    3    0    0  0.77714271046E+01  0.80913283596E+01 -0.60402231490E+01  0.12741623505E+02  0.00000000000E+00 0. -1.
</event>
<event>
 7    1  0.1543346E-008  0.4614232E+02  0.7816164E-02  0.1320468E+00
        -11   -1    0    0    0    0  0.00000000000E+00  0.00000000000E+00  0.45593999997E+02  0.45594000000E+02  0.51100000000E-03 0.  1.
         11   -1    0    0    0    0 -0.00000000000E+00 -0.00000000000E+00 -0.45593999997E+02  0.45594000000E+02  0.51100000000E-03 0. -1.
    9900012    2    1    2    0    0 -0.47833515395E+01 -0.32724012502E+02 -0.30583852614E+02  0.46142317777E+02  0.10000000147E+02 0.  0.
        -12    1    1    2    0    0  0.47833515395E+01  0.32724012502E+02  0.30583852614E+02  0.45045682223E+02  0.00000000000E+00 0.  1.
         11    1    3    3    0    0 -0.22121273763E+01 -0.10486994963E+02 -0.86881722224E+01  0.13796916601E+02  0.51100000000E-03 0. -1.
        -11    1    3    3    0    0 -0.95237532504E+00 -0.15623145653E+02 -0.98062563331E+01  0.18470310295E+02  0.51100000000E-03 0.  1.
        -12    1    3    3    0    0 -0.16188488382E+01 -0.66138718866E+01 -0.12089424058E+02  0.13875090881E+02  0.00000000000E+00 0.  1.
</event>
<event>
 7    1  0.1694070E-008  0.4614232E+02  0.7816164E-02  0.1320468E+00
        -11   -1    0    0    0    0  0.00000000000E+00  0.00000000000E+00  0.45593999997E+02  0.45594000000E+02  0.51100000000E-03 0. -1.
         11   -1    0    0    0    0 -0.00000000000E+00 -0.00000000000E+00 -0.45593999997E+02  0.45594000000E+02  0.51100000000E-03 0.  1.
    9900012    2    1    2    0    0  0.37821756890E+02 -0.14460360806E+01  0.24424109388E+02  0.46142318364E+02  0.10000005502E+02 0.  0.
        -12    1    1    2    0    0 -0.37821756890E+02  0.14460360806E+01 -0.24424109388E+02  0.45045681636E+02  0.00000000000E+00 0.  1.
         11    1    3    3    0    0  0.33780317541E+02 -0.10846477179E+01  0.22970294733E+02  0.40864663882E+02  0.51100000000E-03 0. -1.
        -11    1    3    3    0    0  0.20737094237E+01  0.96654141261E+00 -0.32552308105E+00  0.23109389030E+01  0.51100000000E-03 0.  1.
         12    1    3    3    0    0  0.19677299257E+01 -0.13279297753E+01  0.17793377357E+01  0.29667155790E+01  0.00000000000E+00 0. -1.
</event>
<event>
 7    1  0.1543346E-008  0.4614232E+02  0.7816164E-02  0.1320468E+00
        -11   -1    0    0    0    0  0.00000000000E+00  0.00000000000E+00  0.45593999997E+02  0.45594000000E+02  0.51100000000E-03 0. -1.
         11   -1    0    0    0    0 -0.00000000000E+00 -0.00000000000E+00 -0.45593999997E+02  0.45594000000E+02  0.51100000000E-03 0.  1.
    9900012    2    1    2    0    0 -0.23494066208E+02 -0.37973424375E+02  0.59297045564E+01  0.46142317611E+02  0.99999986304E+01 0.  0.
        -12    1    1    2    0    0  0.23494066208E+02  0.37973424375E+02 -0.59297045564E+01  0.45045682389E+02  0.00000000000E+00 0.  1.
         11    1    3    3    0    0 -0.18949848165E+02 -0.34629150271E+02  0.67318345614E+01  0.40044879707E+02  0.51100000000E-03 0. -1.
        -11    1    3    3    0    0 -0.31865859388E+01 -0.34235865938E+01 -0.74695955711E+00  0.47363724465E+01  0.51100000000E-03 0.  1.
         12    1    3    3    0    0 -0.13576321041E+01  0.79312488850E-01 -0.55170447892E-01  0.13610654574E+01  0.00000000000E+00 0. -1.
</event>
<event>
 7    1  0.1543346E-008  0.4614232E+02  0.7816164E-02  0.1320468E+00
        -11   -1    0    0    0    0  0.00000000000E+00  0.00000000000E+00  0.45593999997E+02  0.45594000000E+02  0.51100000000E-03 0.  1.
         11   -1    0    0    0    0 -0.00000000000E+00 -0.00000000000E+00 -0.45593999997E+02  0.45594000000E+02  0.51100000000E-03 0. -1.
    9900012    2    1    2    0    0 -0.12567504774E+02 -0.26828849598E+02 -0.33932052587E+02  0.46142317191E+02  0.99999948014E+01 0.  0.
        -12    1    1    2    0    0  0.12567504774E+02  0.26828849598E+02  0.33932052587E+02  0.45045682809E+02  0.00000000000E+00 0.  1.
         11    1    3    3    0    0 -0.66933960178E+01 -0.10743621993E+02 -0.18198352367E+02  0.22167701571E+02  0.51100000000E-03 0. -1.
        -11    1    3    3    0    0 -0.44155171185E+01 -0.15963633116E+02 -0.13860522976E+02  0.21597418159E+02  0.51100000000E-03 0.  1.
        -12    1    3    3    0    0 -0.14585916382E+01 -0.12159448831E+00 -0.18731772435E+01  0.23771974618E+01  0.00000000000E+00 0.  1.
</event>
<event>
 7    1  0.1543346E-008  0.4614231E+02  0.7816164E-02  0.1320468E+00
        -11   -1    0    0    0    0  0.00000000000E+00  0.00000000000E+00  0.45593999997E+02  0.45594000000E+02  0.51100000000E-03 0.  1.
         11   -1    0    0    0    0 -0.00000000000E+00 -0.00000000000E+00 -0.45593999997E+02  0.45594000000E+02  0.51100000000E-03 0. -1.
    9900012    2    1    2    0    0 -0.41567507373E+02 -0.17342561389E+02  0.70120793233E+00  0.46142314332E+02  0.99999687321E+01 0.  0.
        -12    1    1    2    0    0  0.41567507373E+02  0.17342561389E+02 -0.70120793233E+00  0.45045685668E+02  0.00000000000E+00 0.  1.
         11    1    3    3    0    0 -0.20814701382E+02 -0.52887774053E+01 -0.15560340263E+01  0.21532398896E+02  0.51100000000E-03 0. -1.
        -11    1    3    3    0    0 -0.19378620081E+02 -0.98495957676E+01  0.29091027703E+01  0.21931902157E+02  0.51100000000E-03 0.  1.
        -12    1    3    3    0    0 -0.13741859098E+01 -0.22041882159E+01 -0.65186081167E+00  0.26780132792E+01  0.00000000000E+00 0.  1.
</event>
<event>
 7    1  0.1543346E-008  0.4614232E+02  0.7816164E-02  0.1320468E+00
        -11   -1    0    0    0    0  0.00000000000E+00  0.00000000000E+00  0.45593999997E+02  0.45594000000E+02  0.51100000000E-03 0.  1.
         11   -1    0    0    0    0 -0.00000000000E+00 -0.00000000000E+00 -0.45593999997E+02  0.45594000000E+02  0.51100000000E-03 0. -1.
    9900012    2    1    2    0    0 -0.31027132905E+02 -0.89802435258E+01 -0.31397226056E+02  0.46142317031E+02  0.99999933437E+01 0.  0.
        -12    1    1    2    0    0  0.31027132905E+02  0.89802435258E+01  0.31397226056E+02  0.45045682969E+02  0.00000000000E+00 0.  1.
         11    1    3    3    0    0 -0.19223534092E+02 -0.76891711829E+01 -0.19563523435E+02  0.28485067420E+02  0.51100000000E-03 0. -1.
        -11    1    3    3    0    0 -0.10724377085E+02  0.77318367888E-01 -0.77939079130E+01  0.13257573036E+02  0.51100000000E-03 0.  1.
        -12    1    3    3    0    0 -0.10792217273E+01 -0.13683907108E+01 -0.40397947083E+01  0.43996765744E+01  0.00000000000E+00 0.  1.
</event>
<event>
 7    1  0.1543346E-008  0.4614233E+02  0.7816164E-02  0.1320468E+00
        -11   -1    0    0    0    0  0.00000000000E+00  0.00000000000E+00  0.45593999997E+02  0.45594000000E+02  0.51100000000E-03 0.  1.
         11   -1    0    0    0    0 -0.00000000000E+00 -0.00000000000E+00 -0.45593999997E+02  0.45594000000E+02  0.51100000000E-03 0. -1.
    9900012    2    1    2    0    0 -0.10006198377E+02  0.21968406346E+02 -0.38031275620E+02  0.46142325306E+02  0.10000068804E+02 0.  0.
        -12    1    1    2    0    0  0.10006198377E+02 -0.21968406346E+02  0.38031275620E+02  0.45045674694E+02  0.00000000000E+00 0.  1.
         11    1    3    3    0    0 -0.15400481322E+01  0.14032884644E+02 -0.17921267316E+02  0.22813711275E+02  0.51100000000E-03 0. -1.
        -11    1    3    3    0    0 -0.65411727819E+01  0.57811296305E+01 -0.16817426293E+02  0.18948198557E+02  0.51100000000E-03 0.  1.
         12    1    3    3    0    0 -0.19249774628E+01  0.21543920708E+01 -0.32925820112E+01  0.43804154743E+01  0.00000000000E+00 0. -1.
</event>
<event>
 7    1  0.1543346E-008  0.4614232E+02  0.7816164E-02  0.1320468E+00
        -11   -1    0    0    0    0  0.00000000000E+00  0.00000000000E+00  0.45593999997E+02  0.45594000000E+02  0.51100000000E-03 0.  1.
         11   -1    0    0    0    0 -0.00000000000E+00 -0.00000000000E+00 -0.45593999997E+02  0.45594000000E+02  0.51100000000E-03 0. -1.
    9900012    2    1    2    0    0  0.25205909104E+02 -0.33758433274E+02 -0.15941888642E+02  0.46142317806E+02  0.10000000409E+02 0.  0.
        -12    1    1    2    0    0 -0.25205909104E+02  0.33758433274E+02  0.15941888642E+02  0.45045682194E+02  0.00000000000E+00 0.  1.
         11    1    3    3    0    0  0.18730556240E+02 -0.26518738359E+02 -0.97950628703E+01  0.33911951848E+02  0.51100000000E-03 0. -1.
        -11    1    3    3    0    0  0.46623359424E+01 -0.21198105331E+01 -0.33634701253E+01  0.61273081105E+01  0.51100000000E-03 0.  1.
         12    1    3    3    0    0  0.18130169213E+01 -0.51198843818E+01 -0.27833556465E+01  0.61030578479E+01  0.00000000000E+00 0. -1.
</event>
<event>
 7    1  0.1543346E-008  0.4614232E+02  0.7816164E-02  0.1320468E+00
        -11   -1    0    0    0    0  0.00000000000E+00  0.00000000000E+00  0.45593999997E+02  0.45594000000E+02  0.51100000000E-03 0.  1.
         11   -1    0    0    0    0 -0.00000000000E+00 -0.00000000000E+00 -0.45593999997E+02  0.45594000000E+02  0.51100000000E-03 0. -1.
    9900012    2    1    2    0    0  0.28868215103E+02 -0.34578308918E+02  0.28329104409E+00  0.46142317136E+02  0.99999943001E+01 0.  0.
        -12    1    1    2    0    0 -0.28868215103E+02  0.34578308918E+02 -0.28329104409E+00  0.45045682864E+02  0.00000000000E+00 0.  1.
         11    1    3    3    0    0  0.22315002063E+01 -0.22700568427E+00 -0.94199944321E+00  0.24327942707E+01  0.51100000000E-03 0. -1.
        -11    1    3    3    0    0  0.17094597387E+02 -0.19888034340E+02 -0.97327492478E+00  0.26243216916E+02  0.51100000000E-03 0.  1.
        -12    1    3    3    0    0  0.95421175095E+01 -0.14463268894E+02  0.21985654121E+01  0.17466305950E+02  0.00000000000E+00 0.  1.
</event>
<event>
 7    1  0.1543346E-008  0.4614232E+02  0.7816164E-02  0.1320468E+00
        -11   -1    0    0    0    0  0.00000000000E+00  0.00000000000E+00  0.45593999997E+02  0.45594000000E+02  0.51100000000E-03 0.  1.
         11   -1    0    0    0    0 -0.00000000000E+00 -0.00000000000E+00 -0.45593999997E+02  0.45594000000E+02  0.51100000000E-03 0. -1.
    9900012    2    1    2    0    0 -0.42156472373E+02  0.12744096085E+02  0.94622053810E+01  0.46142317869E+02  0.10000000987E+02 0.  0.
        -12    1    1    2    0    0  0.42156472373E+02 -0.12744096085E+02 -0.94622053810E+01  0.45045682131E+02  0.00000000000E+00 0.  1.
         11    1    3    3    0    0 -0.29674632069E+02  0.79440271572E+01  0.49603274616E+01  0.31117458198E+02  0.51100000000E-03 0. -1.
        -11    1    3    3    0    0 -0.47736766007E+01  0.26838277789E+01  0.44094383425E+01  0.70309363951E+01  0.51100000000E-03 0.  1.
        -12    1    3    3    0    0 -0.77081637027E+01  0.21162411494E+01  0.92439577014E-01  0.79939232762E+01  0.00000000000E+00 0.  1.
</event>
<event>
 7    1  0.1543346E-008  0.4614232E+02  0.7816164E-02  0.1320468E+00
        -11   -1    0    0    0    0  0.00000000000E+00  0.00000000000E+00  0.45593999997E+02  0.45594000000E+02  0.51100000000E-03 0. -1.
         11   -1    0    0    0    0 -0.00000000000E+00 -0.00000000000E+00 -0.45593999997E+02  0.45594000000E+02  0.51100000000E-03 0.  1.
    9900012    2    1    2    0    0 -0.13189170498E+02 -0.22143834545E+02  0.36943335842E+02  0.46142315524E+02  0.99999796041E+01 0.  0.
        -12    1    1    2    0    0  0.13189170498E+02  0.22143834545E+02 -0.36943335842E+02  0.45045684476E+02  0.00000000000E+00 0.  1.
         11    1    3    3    0    0 -0.70196366199E+01 -0.56926611661E+01  0.17222294646E+02  0.19449656104E+02  0.51100000000E-03 0. -1.
        -11    1    3    3    0    0 -0.30383688835E+01 -0.86951502657E+01  0.74723362944E+01  0.11860570542E+02  0.51100000000E-03 0.  1.
         12    1    3    3    0    0 -0.31311649943E+01 -0.77560231131E+01  0.12248704901E+02  0.14832088879E+02  0.00000000000E+00 0. -1.
</event>
<event>
 7    1  0.1543346E-008  0.4614232E+02  0.7816164E-02  0.1320468E+00
        -11   -1    0    0    0    0  0.00000000000E+00  0.00000000000E+00  0.45593999997E+02  0.45594000000E+02  0.51100000000E-03 0.  1.
         11   -1    0    0    0    0 -0.00000000000E+00 -0.00000000000E+00 -0.45593999997E+02  0.45594000000E+02  0.51100000000E-03 0. -1.
    9900012    2    1    2    0    0 -0.85311891646E+01  0.14451373548E+02 -0.41802990681E+02  0.46142318566E+02  0.10000007339E+02 0.  0.
        -12    1    1    2    0    0  0.85311891646E+01 -0.14451373548E+02  0.41802990681E+02  0.45045681434E+02  0.00000000000E+00 0.  1.
         11    1    3    3    0    0 -0.32857481866E+01  0.50715175581E+01 -0.22206465589E+02  0.23013985872E+02  0.51100000000E-03 0. -1.
        -11    1    3    3    0    0  0.82961434034E+00  0.10799345545E+01 -0.55739017219E+01  0.57378479643E+01  0.51100000000E-03 0.  1.
         12    1    3    3    0    0 -0.60750553184E+01  0.82999214358E+01 -0.14022623370E+02  0.17390484730E+02  0.00000000000E+00 0. -1.
</event>
<event>
 7    1  0.1543346E-008  0.4614232E+02  0.7816164E-02  0.1320468E+00
        -11   -1    0    0    0    0  0.00000000000E+00  0.00000000000E+00  0.45593999997E+02  0.45594000000E+02  0.51100000000E-03 0.  1.
         11   -1    0    0    0    0 -0.00000000000E+00 -0.00000000000E+00 -0.45593999997E+02  0.45594000000E+02  0.51100000000E-03 0. -1.
    9900012    2    1    2    0    0  0.35218101482E+02  0.52171794594E-01 -0.28085508376E+02  0.46142321244E+02  0.10000031756E+02 0.  0.
        -12    1    1    2    0    0 -0.35218101482E+02 -0.52171794594E-01  0.28085508376E+02  0.45045678756E+02  0.00000000000E+00 0.  1.
         11    1    3    3    0    0  0.47309185112E+01 -0.79756342156E+00 -0.79167434853E+01  0.92570257126E+01  0.51100000000E-03 0.  1.
        -11    1    3    3    0    0  0.27462506694E+02  0.13580253272E+01 -0.16359692783E+02  0.31994891076E+02  0.51100000000E-03 0. -1.
         12    1    3    3    0    0  0.30246762761E+01 -0.50829011100E+00 -0.38090721081E+01  0.48904044554E+01  0.00000000000E+00 0. -1.
</event>
<event>
 7    1  0.1543346E-008  0.4614232E+02  0.7816164E-02  0.1320468E+00
        -11   -1    0    0    0    0  0.00000000000E+00  0.00000000000E+00  0.45593999997E+02  0.45594000000E+02  0.51100000000E-03 0. -1.
         11   -1    0    0    0    0 -0.00000000000E+00 -0.00000000000E+00 -0.45593999997E+02  0.45594000000E+02  0.51100000000E-03 0.  1.
    9900012    2    1    2    0    0 -0.74732499845E+01  0.33828079672E+02  0.28791058521E+02  0.46142317738E+02  0.99999997903E+01 0.  0.
        -12    1    1    2    0    0  0.74732499845E+01 -0.33828079672E+02 -0.28791058521E+02  0.45045682262E+02  0.00000000000E+00 0.  1.
         11    1    3    3    0    0  0.82533251015E+00  0.14409598197E+01  0.20924137645E+01  0.26712795767E+01  0.51100000000E-03 0. -1.
        -11    1    3    3    0    0  0.11144730952E+01  0.14113411089E+01  0.23661381632E+01  0.29719596353E+01  0.51100000000E-03 0.  1.
         12    1    3    3    0    0 -0.94130555898E+01  0.30975778744E+02  0.24332506594E+02  0.40499078526E+02  0.00000000000E+00 0. -1.
</event>
<event>
 7    1  0.1543346E-008  0.4614232E+02  0.7816164E-02  0.1320468E+00
        -11   -1    0    0    0    0  0.00000000000E+00  0.00000000000E+00  0.45593999997E+02  0.45594000000E+02  0.51100000000E-03 0.  1.
         11   -1    0    0    0    0 -0.00000000000E+00 -0.00000000000E+00 -0.45593999997E+02  0.45594000000E+02  0.51100000000E-03 0. -1.
    9900012    2    1    2    0    0 -0.45417879151E+01 -0.31128290145E+02 -0.32241513091E+02  0.46142318174E+02  0.10000003763E+02 0.  0.
        -12    1    1    2    0    0  0.45417879151E+01  0.31128290145E+02  0.32241513091E+02  0.45045681826E+02  0.00000000000E+00 0.  1.
         11    1    3    3    0    0 -0.45234600394E+01 -0.77200458083E+01 -0.11253153124E+02  0.14376865219E+02  0.51100000000E-03 0. -1.
        -11    1    3    3    0    0 -0.62493720299E+00 -0.22617013270E+02 -0.20833723846E+02  0.30756525898E+02  0.51100000000E-03 0.  1.
        -12    1    3    3    0    0  0.60660932729E+00 -0.79123106651E+00 -0.15463612018E+00  0.10089270569E+01  0.00000000000E+00 0.  1.
</event>
<event>
 7    1  0.1543346E-008  0.4614232E+02  0.7816164E-02  0.1320468E+00
        -11   -1    0    0    0    0  0.00000000000E+00  0.00000000000E+00  0.45593999997E+02  0.45594000000E+02  0.51100000000E-03 0.  1.
         11   -1    0    0    0    0 -0.00000000000E+00 -0.00000000000E+00 -0.45593999997E+02  0.45594000000E+02  0.51100000000E-03 0. -1.
    9900012    2    1    2    0    0 -0.24431693528E+02  0.32492830896E+02 -0.19401594159E+02  0.46142316919E+02  0.99999923251E+01 0.  0.
        -12    1    1    2    0    0  0.24431693528E+02 -0.32492830896E+02  0.19401594159E+02  0.45045683081E+02  0.00000000000E+00 0.  1.
         11    1    3    3    0    0 -0.17183361239E+02  0.26633510954E+02 -0.13594957769E+02  0.34488181834E+02  0.51100000000E-03 0. -1.
        -11    1    3    3    0    0 -0.40121204346E+01  0.49191797146E+01 -0.52518452446E+01  0.82387692152E+01  0.51100000000E-03 0.  1.
        -12    1    3    3    0    0 -0.32362118541E+01  0.94014022756E+00 -0.55479114483E+00  0.34153658701E+01  0.00000000000E+00 0.  1.
</event>
<event>
 7    1  0.1543346E-008  0.4614231E+02  0.7816164E-02  0.1320468E+00
        -11   -1    0    0    0    0  0.00000000000E+00  0.00000000000E+00  0.45593999997E+02  0.45594000000E+02  0.51100000000E-03 0.  1.
         11   -1    0    0    0    0 -0.00000000000E+00 -0.00000000000E+00 -0.45593999997E+02  0.45594000000E+02  0.51100000000E-03 0. -1.
    9900012    2    1    2    0    0 -0.12188427380E+02  0.13657495991E+02 -0.41158582775E+02  0.46142313250E+02  0.99999588663E+01 0.  0.
        -12    1    1    2    0    0  0.12188427380E+02 -0.13657495991E+02  0.41158582775E+02  0.45045686750E+02  0.00000000000E+00 0.  1.
         11    1    3    3    0    0 -0.65742511765E+01  0.39889992269E+01 -0.18422470555E+02  0.19962973600E+02  0.51100000000E-03 0. -1.
        -11    1    3    3    0    0 -0.17216230980E+01 -0.14409616722E+00 -0.95294405929E+00  0.19730312816E+01  0.51100000000E-03 0.  1.
        -12    1    3    3    0    0 -0.38925531054E+01  0.98125929308E+01 -0.21783168161E+02  0.24206308368E+02  0.00000000000E+00 0.  1.
</event>
<event>
 7    1  0.1543346E-008  0.4614232E+02  0.7816164E-02  0.1320468E+00
        -11   -1    0    0    0    0  0.00000000000E+00  0.00000000000E+00  0.45593999997E+02  0.45594000000E+02  0.51100000000E-03 0.  1.
         11   -1    0    0    0    0 -0.00000000000E+00 -0.00000000000E+00 -0.45593999997E+02  0.45594000000E+02  0.51100000000E-03 0. -1.
    9900012    2    1    2    0    0 -0.69345504047E+01 -0.23053495451E+02 -0.38073111103E+02  0.46142318399E+02  0.10000005819E+02 0.  0.
        -12    1    1    2    0    0  0.69345504047E+01  0.23053495451E+02  0.38073111103E+02  0.45045681601E+02  0.00000000000E+00 0.  1.
         11    1    3    3    0    0 -0.21983460309E+00  0.52752656791E+00 -0.47649254682E+00  0.74408127302E+00  0.51100000000E-03 0. -1.
        -11    1    3    3    0    0 -0.17879894024E+01 -0.56684264013E+01 -0.45413004802E+01  0.74800651255E+01  0.51100000000E-03 0.  1.
         12    1    3    3    0    0 -0.49267263992E+01 -0.17912595617E+02 -0.33055318076E+02  0.37918172001E+02  0.00000000000E+00 0. -1.
</event>
<event>
 7    1  0.1543346E-008  0.4614232E+02  0.7816164E-02  0.1320468E+00
        -11   -1    0    0    0    0  0.00000000000E+00  0.00000000000E+00  0.45593999997E+02  0.45594000000E+02  0.51100000000E-03 0.  1.
         11   -1    0    0    0    0 -0.00000000000E+00 -0.00000000000E+00 -0.45593999997E+02  0.45594000000E+02  0.51100000000E-03 0. -1.
    9900012    2    1    2    0    0  0.31543874254E+02 -0.18424475300E+02 -0.26355953195E+02  0.46142316945E+02  0.99999925615E+01 0.  0.
        -12    1    1    2    0    0 -0.31543874254E+02  0.18424475300E+02  0.26355953195E+02  0.45045683055E+02  0.00000000000E+00 0.  1.
         11    1    3    3    0    0  0.14402640698E+02 -0.68369137562E+01 -0.10805778875E+02  0.19259914489E+02  0.51100000000E-03 0. -1.
        -11    1    3    3    0    0  0.49560764843E+01 -0.32432551243E+00 -0.16416805843E+01  0.52309651650E+01  0.51100000000E-03 0.  1.
         12    1    3    3    0    0  0.12185157072E+02 -0.11263236032E+02 -0.13908493736E+02  0.21651437291E+02  0.00000000000E+00 0. -1.
</event>
<event>
 7    1  0.1543346E-008  0.4614232E+02  0.7816164E-02  0.1320468E+00
        -11   -1    0    0    0    0  0.00000000000E+00  0.00000000000E+00  0.45593999997E+02  0.45594000000E+02  0.51100000000E-03 0. -1.
         11   -1    0    0    0    0 -0.00000000000E+00 -0.00000000000E+00 -0.45593999997E+02  0.45594000000E+02  0.51100000000E-03 0.  1.
    9900012    2    1    2    0    0  0.60808973419E+01 -0.31067703476E+02 -0.32045810870E+02  0.46142317565E+02  0.99999982091E+01 0.  0.
        -12    1    1    2    0    0 -0.60808973419E+01  0.31067703476E+02  0.32045810870E+02  0.45045682435E+02  0.00000000000E+00 0.  1.
         11    1    3    3    0    0 -0.89978477361E+00 -0.11964244780E+02 -0.77408661624E+01  0.14278437415E+02  0.51100000000E-03 0. -1.
        -11    1    3    3    0    0  0.11909391514E+01 -0.51584621312E+01 -0.84339244199E+01  0.99578686979E+01  0.51100000000E-03 0.  1.
         12    1    3    3    0    0  0.57897429641E+01 -0.13944996564E+02 -0.15871020288E+02  0.21906011452E+02  0.00000000000E+00 0. -1.
</event>
<event>
 7    1  0.1543346E-008  0.4614232E+02  0.7816164E-02  0.1320468E+00
        -11   -1    0    0    0    0  0.00000000000E+00  0.00000000000E+00  0.45593999997E+02  0.45594000000E+02  0.51100000000E-03 0. -1.
         11   -1    0    0    0    0 -0.00000000000E+00 -0.00000000000E+00 -0.45593999997E+02  0.45594000000E+02  0.51100000000E-03 0.  1.
    9900012    2    1    2    0    0 -0.30785310540E+02  0.30322711104E+02  0.12724440770E+02  0.46142317114E+02  0.99999941025E+01 0.  0.
        -12    1    1    2    0    0  0.30785310540E+02 -0.30322711104E+02 -0.12724440770E+02  0.45045682886E+02  0.00000000000E+00 0.  1.
         11    1    3    3    0    0 -0.20167962501E+02  0.21278100937E+02  0.80502227453E+01  0.30402473212E+02  0.51100000000E-03 0. -1.
        -11    1    3    3    0    0 -0.66284845156E+00  0.20491097996E+01  0.26354303542E+01  0.34034853392E+01  0.51100000000E-03 0.  1.
        -12    1    3    3    0    0 -0.99544995875E+01  0.69955003671E+01  0.20387876706E+01  0.12336358563E+02  0.00000000000E+00 0.  1.
</event>
<event>
 7    1  0.1543346E-008  0.4614232E+02  0.7816164E-02  0.1320468E+00
        -11   -1    0    0    0    0  0.00000000000E+00  0.00000000000E+00  0.45593999997E+02  0.45594000000E+02  0.51100000000E-03 0.  1.
         11   -1    0    0    0    0 -0.00000000000E+00 -0.00000000000E+00 -0.45593999997E+02  0.45594000000E+02  0.51100000000E-03 0. -1.
    9900012    2    1    2    0    0 -0.15911890440E+02 -0.28791567772E+02 -0.30772885499E+02  0.46142321915E+02  0.10000037880E+02 0.  0.
        -12    1    1    2    0    0  0.15911890440E+02  0.28791567772E+02  0.30772885499E+02  0.45045678085E+02  0.00000000000E+00 0.  1.
         11    1    3    3    0    0 -0.11327139389E+02 -0.25336489170E+02 -0.27533110154E+02  0.39093655818E+02  0.51100000000E-03 0. -1.
        -11    1    3    3    0    0 -0.29129133733E+01 -0.32458283487E+01 -0.14631184765E+01  0.46001284685E+01  0.51100000000E-03 0.  1.
         12    1    3    3    0    0 -0.16718376778E+01 -0.20925025339E+00 -0.17766568689E+01  0.24485376287E+01  0.00000000000E+00 0. -1.
</event>
<event>
 7    1  0.1543346E-008  0.4614232E+02  0.7816164E-02  0.1320468E+00
        -11   -1    0    0    0    0  0.00000000000E+00  0.00000000000E+00  0.45593999997E+02  0.45594000000E+02  0.51100000000E-03 0. -1.
         11   -1    0    0    0    0 -0.00000000000E+00 -0.00000000000E+00 -0.45593999997E+02  0.45594000000E+02  0.51100000000E-03 0.  1.
    9900012    2    1    2    0    0 -0.18654878022E+02  0.14671861592E+02  0.38286355944E+02  0.46142322649E+02  0.10000044568E+02 0.  0.
        -12    1    1    2    0    0  0.18654878022E+02 -0.14671861592E+02 -0.38286355944E+02  0.45045677351E+02  0.00000000000E+00 0.  1.
         11    1    3    3    0    0 -0.86161794066E+01  0.42597465120E+01  0.12988227617E+02  0.16157909667E+02  0.51100000000E-03 0. -1.
        -11    1    3    3    0    0 -0.39682795508E+01  0.65553036192E+00  0.10532958577E+02  0.11274758503E+02  0.51100000000E-03 0.  1.
        -12    1    3    3    0    0 -0.60704190644E+01  0.97565847184E+01  0.14765169750E+02  0.18709654479E+02  0.00000000000E+00 0.  1.
</event>
<event>
 7    1  0.1543346E-008  0.4614232E+02  0.7816164E-02  0.1320468E+00
        -11   -1    0    0    0    0  0.00000000000E+00  0.00000000000E+00  0.45593999997E+02  0.45594000000E+02  0.51100000000E-03 0.  1.
         11   -1    0    0    0    0 -0.00000000000E+00 -0.00000000000E+00 -0.45593999997E+02  0.45594000000E+02  0.51100000000E-03 0. -1.
    9900012    2    1    2    0    0 -0.41015946638E+02 -0.12133740996E+02 -0.14127199707E+02  0.46142319622E+02  0.10000016967E+02 0.  0.
        -12    1    1    2    0    0  0.41015946638E+02  0.12133740996E+02  0.14127199707E+02  0.45045680378E+02  0.00000000000E+00 0.  1.
         11    1    3    3    0    0 -0.24066553345E+00  0.51700472621E+00 -0.28703819068E+00  0.63843948025E+00  0.51100000000E-03 0. -1.
        -11    1    3    3    0    0 -0.14186263486E+02 -0.76320078768E+01 -0.31719851569E+01  0.16418255267E+02  0.51100000000E-03 0.  1.
         12    1    3    3    0    0 -0.26589017618E+02 -0.50187378454E+01 -0.10668176360E+02  0.29085624874E+02  0.00000000000E+00 0. -1.
</event>
<event>
 7    1  0.1543346E-008  0.4614232E+02  0.7816164E-02  0.1320468E+00
        -11   -1    0    0    0    0  0.00000000000E+00  0.00000000000E+00  0.45593999997E+02  0.45594000000E+02  0.51100000000E-03 0. -1.
         11   -1    0    0    0    0 -0.00000000000E+00 -0.00000000000E+00 -0.45593999997E+02  0.45594000000E+02  0.51100000000E-03 0.  1.
    9900012    2    1    2    0    0  0.10389934089E+02  0.42594506204E+02 -0.10337835066E+02  0.46142317377E+02  0.99999964948E+01 0.  0.
        -12    1    1    2    0    0 -0.10389934089E+02 -0.42594506204E+02  0.10337835066E+02  0.45045682623E+02  0.00000000000E+00 0.  1.
         11    1    3    3    0    0  0.75172438239E+01  0.26808252670E+02 -0.86023697834E+01  0.29140901360E+02  0.51100000000E-03 0. -1.
        -11    1    3    3    0    0 -0.14346059385E+01  0.67607783458E+01 -0.78510858001E+00  0.69557611937E+01  0.51100000000E-03 0.  1.
        -12    1    3    3    0    0  0.43072962038E+01  0.90254751885E+01 -0.95035670299E+00  0.10045654823E+02  0.00000000000E+00 0.  1.
</event>
<event>
 7    1  0.1543346E-008  0.4614232E+02  0.7816164E-02  0.1320468E+00
        -11   -1    0    0    0    0  0.00000000000E+00  0.00000000000E+00  0.45593999997E+02  0.45594000000E+02  0.51100000000E-03 0. -1.
         11   -1    0    0    0    0 -0.00000000000E+00 -0.00000000000E+00 -0.45593999997E+02  0.45594000000E+02  0.51100000000E-03 0.  1.
    9900012    2    1    2    0    0 -0.31291205563E+02 -0.21430936701E+02  0.24304088141E+02  0.46142319920E+02  0.10000019689E+02 0.  0.
        -12    1    1    2    0    0  0.31291205563E+02  0.21430936701E+02 -0.24304088141E+02  0.45045680080E+02  0.00000000000E+00 0.  1.
         11    1    3    3    0    0 -0.19901638923E+02 -0.10756075368E+02  0.18806416642E+02  0.29418526413E+02  0.51100000000E-03 0. -1.
        -11    1    3    3    0    0 -0.49414352847E+01 -0.51174686285E+01  0.12963975457E+01  0.72309691393E+01  0.51100000000E-03 0.  1.
         12    1    3    3    0    0 -0.64481313561E+01 -0.55573927040E+01  0.42012739534E+01  0.94928243680E+01  0.00000000000E+00 0. -1.
</event>
<event>
 7    1  0.1543346E-008  0.4614232E+02  0.7816164E-02  0.1320468E+00
        -11   -1    0    0    0    0  0.00000000000E+00  0.00000000000E+00  0.45593999997E+02  0.45594000000E+02  0.51100000000E-03 0.  1.
         11   -1    0    0    0    0 -0.00000000000E+00 -0.00000000000E+00 -0.45593999997E+02  0.45594000000E+02  0.51100000000E-03 0. -1.
    9900012    2    1    2    0    0 -0.12975601351E+02  0.28451776143E+02 -0.32422885722E+02  0.46142319689E+02  0.10000017581E+02 0.  0.
        -12    1    1    2    0    0  0.12975601351E+02 -0.28451776143E+02  0.32422885722E+02  0.45045680311E+02  0.00000000000E+00 0.  1.
         11    1    3    3    0    0 -0.61078267416E+01  0.11900211201E+02 -0.16891231878E+02  0.21546096833E+02  0.51100000000E-03 0. -1.
        -11    1    3    3    0    0  0.23131025244E+00  0.26671278694E+01 -0.13270833983E+00  0.26804266954E+01  0.51100000000E-03 0.  1.
        -12    1    3    3    0    0 -0.70990848616E+01  0.13884437073E+02 -0.15398945504E+02  0.21915796160E+02  0.00000000000E+00 0.  1.
</event>
<event>
 7    1  0.1543346E-008  0.4614232E+02  0.7816164E-02  0.1320468E+00
        -11   -1    0    0    0    0  0.00000000000E+00  0.00000000000E+00  0.45593999997E+02  0.45594000000E+02  0.51100000000E-03 0.  1.
         11   -1    0    0    0    0 -0.00000000000E+00 -0.00000000000E+00 -0.45593999997E+02  0.45594000000E+02  0.51100000000E-03 0. -1.
    9900012    2    1    2    0    0 -0.33698990817E+02 -0.18346099605E+02 -0.23598985916E+02  0.46142317754E+02  0.99999999307E+01 0.  0.
        -12    1    1    2    0    0  0.33698990817E+02  0.18346099605E+02  0.23598985916E+02  0.45045682246E+02  0.00000000000E+00 0.  1.
         11    1    3    3    0    0 -0.17219063022E+02 -0.98611140679E+01 -0.13878331479E+02  0.24214577984E+02  0.51100000000E-03 0. -1.
        -11    1    3    3    0    0 -0.12280841727E+01  0.10334136650E+01 -0.30744532954E+00  0.16342146218E+01  0.51100000000E-03 0.  1.
        -12    1    3    3    0    0 -0.15251843622E+02 -0.95183992016E+01 -0.94132091073E+01  0.20293525148E+02  0.00000000000E+00 0.  1.
</event>
<event>
 7    1  0.1543346E-008  0.4614232E+02  0.7816164E-02  0.1320468E+00
        -11   -1    0    0    0    0  0.00000000000E+00  0.00000000000E+00  0.45593999997E+02  0.45594000000E+02  0.51100000000E-03 0.  1.
         11   -1    0    0    0    0 -0.00000000000E+00 -0.00000000000E+00 -0.45593999997E+02  0.45594000000E+02  0.51100000000E-03 0. -1.
    9900012    2    1    2    0    0  0.92144853823E+01 -0.26405768238E+02 -0.35312065707E+02  0.46142319612E+02  0.10000016879E+02 0.  0.
        -12    1    1    2    0    0 -0.92144853823E+01  0.26405768238E+02  0.35312065707E+02  0.45045680388E+02  0.00000000000E+00 0.  1.
         11    1    3    3    0    0  0.74900522538E+01 -0.21648504605E+02 -0.22396844005E+02  0.32037123092E+02  0.51100000000E-03 0. -1.
        -11    1    3    3    0    0  0.15904279901E+01 -0.11720649831E+01 -0.59641524499E+01  0.62828586029E+01  0.51100000000E-03 0.  1.
        -12    1    3    3    0    0  0.13400513831E+00 -0.35851986506E+01 -0.69510692520E+01  0.78223379169E+01  0.00000000000E+00 0.  1.
</event>
<event>
 7    1  0.1543346E-008  0.4614231E+02  0.7816164E-02  0.1320468E+00
        -11   -1    0    0    0    0  0.00000000000E+00  0.00000000000E+00  0.45593999997E+02  0.45594000000E+02  0.51100000000E-03 0.  1.
         11   -1    0    0    0    0 -0.00000000000E+00 -0.00000000000E+00 -0.45593999997E+02  0.45594000000E+02  0.51100000000E-03 0. -1.
    9900012    2    1    2    0    0 -0.16311385621E+02 -0.41750712170E+02 -0.44643660411E+01  0.46142313950E+02  0.99999652478E+01 0.  0.
        -12    1    1    2    0    0  0.16311385621E+02  0.41750712170E+02  0.44643660411E+01  0.45045686050E+02  0.00000000000E+00 0.  1.
         11    1    3    3    0    0 -0.10127553068E+01 -0.28378941072E+01 -0.10238657433E+01  0.31823918044E+01  0.51100000000E-03 0. -1.
        -11    1    3    3    0    0 -0.97012642870E+01 -0.20858090987E+02  0.25164361732E+01  0.23141022875E+02  0.51100000000E-03 0.  1.
        -12    1    3    3    0    0 -0.55973660274E+01 -0.18054727075E+02 -0.59569364710E+01  0.19818899271E+02  0.00000000000E+00 0.  1.
</event>
<event>
 7    1  0.1543346E-008  0.4614232E+02  0.7816164E-02  0.1320468E+00
        -11   -1    0    0    0    0  0.00000000000E+00  0.00000000000E+00  0.45593999997E+02  0.45594000000E+02  0.51100000000E-03 0.  1.
         11   -1    0    0    0    0 -0.00000000000E+00 -0.00000000000E+00 -0.45593999997E+02  0.45594000000E+02  0.51100000000E-03 0. -1.
    9900012    2    1    2    0    0  0.72158442849E+01 -0.50740650400E+00 -0.44461080694E+02  0.46142316893E+02  0.99999920817E+01 0.  0.
        -12    1    1    2    0    0 -0.72158442849E+01  0.50740650400E+00  0.44461080694E+02  0.45045683107E+02  0.00000000000E+00 0.  1.
         11    1    3    3    0    0  0.60109252224E+01 -0.54828411847E+00 -0.15725128310E+02  0.16843737653E+02  0.51100000000E-03 0. -1.
        -11    1    3    3    0    0  0.16500634870E+01 -0.17025696356E+01 -0.54523398223E+01  0.59455414113E+01  0.51100000000E-03 0.  1.
         12    1    3    3    0    0 -0.44514442450E+00  0.17434472500E+01 -0.23283612562E+02  0.23353037828E+02  0.00000000000E+00 0. -1.
</event>
<event>
 7    1  0.1543346E-008  0.4614232E+02  0.7816164E-02  0.1320468E+00
        -11   -1    0    0    0    0  0.00000000000E+00  0.00000000000E+00  0.45593999997E+02  0.45594000000E+02  0.51100000000E-03 0.  1.
         11   -1    0    0    0    0 -0.00000000000E+00 -0.00000000000E+00 -0.45593999997E+02  0.45594000000E+02  0.51100000000E-03 0. -1.
    9900012    2    1    2    0    0  0.22651784332E+01 -0.23648296225E+02 -0.38271930261E+02  0.46142316593E+02  0.99999893504E+01 0.  0.
        -12    1    1    2    0    0 -0.22651784332E+01  0.23648296225E+02  0.38271930261E+02  0.45045683407E+02  0.00000000000E+00 0.  1.
         11    1    3    3    0    0  0.40293002948E-01 -0.85621967293E+01 -0.17118996956E+02  0.19140869714E+02  0.51100000000E-03 0. -1.
        -11    1    3    3    0    0  0.47894303896E+00  0.13394907611E+00  0.34361352776E+00  0.60448267729E+00  0.51100000000E-03 0.  1.
        -12    1    3    3    0    0  0.17459423913E+01 -0.15220048572E+02 -0.21496546833E+02  0.26396964202E+02  0.00000000000E+00 0.  1.
</event>
<event>
 7    1  0.1543346E-008  0.4614232E+02  0.7816164E-02  0.1320468E+00
        -11   -1    0    0    0    0  0.00000000000E+00  0.00000000000E+00  0.45593999997E+02  0.45594000000E+02  0.51100000000E-03 0.  1.
         11   -1    0    0    0    0 -0.00000000000E+00 -0.00000000000E+00 -0.45593999997E+02  0.45594000000E+02  0.51100000000E-03 0. -1.
    9900012    2    1    2    0    0 -0.27113622369E+02  0.35246295161E+02 -0.71877408623E+01  0.46142318084E+02  0.10000002944E+02 0.  0.
        -12    1    1    2    0    0  0.27113622369E+02 -0.35246295161E+02  0.71877408623E+01  0.45045681916E+02  0.00000000000E+00 0.  1.
         11    1    3    3    0    0 -0.71958742645E+01  0.10694277869E+02 -0.41129756058E+01  0.13530142430E+02  0.51100000000E-03 0. -1.
        -11    1    3    3    0    0 -0.15344215680E+02  0.22778498423E+02 -0.35079029940E+01  0.27687728851E+02  0.51100000000E-03 0.  1.
        -12    1    3    3    0    0 -0.45735324246E+01  0.17735188687E+01  0.43313773745E+00  0.49244468030E+01  0.00000000000E+00 0.  1.
</event>
<event>
 7    1  0.1543346E-008  0.4614232E+02  0.7816164E-02  0.1320468E+00
        -11   -1    0    0    0    0  0.00000000000E+00  0.00000000000E+00  0.45593999997E+02  0.45594000000E+02  0.51100000000E-03 0. -1.
         11   -1    0    0    0    0 -0.00000000000E+00 -0.00000000000E+00 -0.45593999997E+02  0.45594000000E+02  0.51100000000E-03 0.  1.
    9900012    2    1    2    0    0  0.31511414787E+02  0.16310896885E+02  0.27750654808E+02  0.46142318061E+02  0.10000002737E+02 0.  0.
        -12    1    1    2    0    0 -0.31511414787E+02 -0.16310896885E+02 -0.27750654808E+02  0.45045681939E+02  0.00000000000E+00 0.  1.
         11    1    3    3    0    0  0.62301637246E+00  0.11836913409E+01  0.11340454439E+01  0.17536630009E+01  0.51100000000E-03 0. -1.
        -11    1    3    3    0    0  0.19835380263E+02  0.93031319010E+01  0.11390214876E+02  0.24692662241E+02  0.51100000000E-03 0.  1.
        -12    1    3    3    0    0  0.11053018152E+02  0.58240736429E+01  0.15226394488E+02  0.19695992820E+02  0.00000000000E+00 0.  1.
</event>
<event>
 7    1  0.1543346E-008  0.4614231E+02  0.7816164E-02  0.1320468E+00
        -11   -1    0    0    0    0  0.00000000000E+00  0.00000000000E+00  0.45593999997E+02  0.45594000000E+02  0.51100000000E-03 0.  1.
         11   -1    0    0    0    0 -0.00000000000E+00 -0.00000000000E+00 -0.45593999997E+02  0.45594000000E+02  0.51100000000E-03 0. -1.
    9900012    2    1    2    0    0 -0.26353671574E+02  0.29795326023E+02 -0.21138505000E+02  0.46142313727E+02  0.99999632110E+01 0.  0.
        -12    1    1    2    0    0  0.26353671574E+02 -0.29795326023E+02  0.21138505000E+02  0.45045686273E+02  0.00000000000E+00 0.  1.
         11    1    3    3    0    0 -0.37989834524E+01  0.70399598569E+00 -0.12468053032E+01  0.40598533649E+01  0.51100000000E-03 0. -1.
        -11    1    3    3    0    0 -0.12458370504E+02  0.16165787540E+02 -0.13549259974E+02  0.24497471880E+02  0.51100000000E-03 0.  1.
         12    1    3    3    0    0 -0.10096317618E+02  0.12925542497E+02 -0.63424397223E+01  0.17584988482E+02  0.00000000000E+00 0. -1.
</event>
<event>
 7    1  0.1543346E-008  0.4614232E+02  0.7816164E-02  0.1320468E+00
        -11   -1    0    0    0    0  0.00000000000E+00  0.00000000000E+00  0.45593999997E+02  0.45594000000E+02  0.51100000000E-03 0.  1.
         11   -1    0    0    0    0 -0.00000000000E+00 -0.00000000000E+00 -0.45593999997E+02  0.45594000000E+02  0.51100000000E-03 0. -1.
    9900012    2    1    2    0    0 -0.70391383521E-01  0.23240982101E+02 -0.38587112398E+02  0.46142318218E+02  0.10000004169E+02 0.  0.
        -12    1    1    2    0    0  0.70391383521E-01 -0.23240982101E+02  0.38587112398E+02  0.45045681782E+02  0.00000000000E+00 0.  1.
         11    1    3    3    0    0  0.13309806925E+01  0.48187472272E+01 -0.39668323979E+01  0.63818174510E+01  0.51100000000E-03 0. -1.
        -11    1    3    3    0    0 -0.35298259813E+01  0.68732184133E+01 -0.11976172655E+02  0.14252351194E+02  0.51100000000E-03 0.  1.
         12    1    3    3    0    0  0.21284539052E+01  0.11549016461E+02 -0.22644107345E+02  0.25508149574E+02  0.00000000000E+00 0. -1.
</event>
<event>
 7    1  0.1543346E-008  0.4614232E+02  0.7816164E-02  0.1320468E+00
        -11   -1    0    0    0    0  0.00000000000E+00  0.00000000000E+00  0.45593999997E+02  0.45594000000E+02  0.51100000000E-03 0. -1.
         11   -1    0    0    0    0 -0.00000000000E+00 -0.00000000000E+00 -0.45593999997E+02  0.45594000000E+02  0.51100000000E-03 0.  1.
    9900012    2    1    2    0    0  0.27639881490E+02  0.94370638722E+01  0.34294202042E+02  0.46142317443E+02  0.99999971012E+01 0.  0.
        -12    1    1    2    0    0 -0.27639881490E+02 -0.94370638722E+01 -0.34294202042E+02  0.45045682557E+02  0.00000000000E+00 0.  1.
         11    1    3    3    0    0  0.14106441536E+02  0.89832969048E+00  0.15054960106E+02  0.20650678272E+02  0.51100000000E-03 0. -1.
        -11    1    3    3    0    0  0.11466039046E+02  0.90103114372E+01  0.17197747221E+02  0.22548132369E+02  0.51100000000E-03 0.  1.
        -12    1    3    3    0    0  0.20674009076E+01 -0.47157725549E+00  0.20414947150E+01  0.29435068018E+01  0.00000000000E+00 0.  1.
</event>
<event>
 7    1  0.1543346E-008  0.4614232E+02  0.7816164E-02  0.1320468E+00
        -11   -1    0    0    0    0  0.00000000000E+00  0.00000000000E+00  0.45593999997E+02  0.45594000000E+02  0.51100000000E-03 0.  1.
         11   -1    0    0    0    0 -0.00000000000E+00 -0.00000000000E+00 -0.45593999997E+02  0.45594000000E+02  0.51100000000E-03 0. -1.
    9900012    2    1    2    0    0 -0.72144128066E+01  0.73815177381E+01 -0.43847222410E+02  0.46142317972E+02  0.10000001927E+02 0.  0.
        -12    1    1    2    0    0  0.72144128066E+01 -0.73815177381E+01  0.43847222410E+02  0.45045682028E+02  0.00000000000E+00 0.  1.
         11    1    3    3    0    0 -0.27860088522E+01  0.35652140676E+01 -0.58815394893E+01  0.74205864794E+01  0.51100000000E-03 0. -1.
        -11    1    3    3    0    0 -0.19349709918E+01 -0.97365118851E+00 -0.90022803192E+01  0.92592203010E+01  0.51100000000E-03 0.  1.
         12    1    3    3    0    0 -0.24934329625E+01  0.47899548590E+01 -0.28963402601E+02  0.29462511192E+02  0.00000000000E+00 0. -1.
</event>
<event>
 7    1  0.1543346E-008  0.4614232E+02  0.7816164E-02  0.1320468E+00
        -11   -1    0    0    0    0  0.00000000000E+00  0.00000000000E+00  0.45593999997E+02  0.45594000000E+02  0.51100000000E-03 0.  1.
         11   -1    0    0    0    0 -0.00000000000E+00 -0.00000000000E+00 -0.45593999997E+02  0.45594000000E+02  0.51100000000E-03 0. -1.
    9900012    2    1    2    0    0 -0.34796073014E+02  0.10947886891E+01 -0.28585805485E+02  0.46142317246E+02  0.99999953061E+01 0.  0.
        -12    1    1    2    0    0  0.34796073014E+02 -0.10947886891E+01  0.28585805485E+02  0.45045682754E+02  0.00000000000E+00 0.  1.
         11    1    3    3    0    0 -0.34497741973E+02  0.30709051033E+00 -0.27293430097E+02  0.43989996959E+02  0.51100000000E-03 0. -1.
        -11    1    3    3    0    0  0.27673981380E+00  0.93451976488E+00 -0.34404917041E+00  0.10335773838E+01  0.51100000000E-03 0.  1.
         12    1    3    3    0    0 -0.57507085567E+00 -0.14682158606E+00 -0.94832621827E+00  0.11187429032E+01  0.00000000000E+00 0. -1.
</event>
<event>
 7    1  0.1543346E-008  0.4614232E+02  0.7816164E-02  0.1320468E+00
        -11   -1    0    0    0    0  0.00000000000E+00  0.00000000000E+00  0.45593999997E+02  0.45594000000E+02  0.51100000000E-03 0.  1.
         11   -1    0    0    0    0 -0.00000000000E+00 -0.00000000000E+00 -0.45593999997E+02  0.45594000000E+02  0.51100000000E-03 0. -1.
    9900012    2    1    2    0    0 -0.12883104618E+02 -0.30962776559E+02 -0.30074001887E+02  0.46142317561E+02  0.99999981769E+01 0.  0.
        -12    1    1    2    0    0  0.12883104618E+02  0.30962776559E+02  0.30074001887E+02  0.45045682439E+02  0.00000000000E+00 0.  1.
         11    1    3    3    0    0 -0.10871161086E+02 -0.19462600911E+02 -0.17907106913E+02  0.28594395532E+02  0.51100000000E-03 0. -1.
        -11    1    3    3    0    0  0.30006327213E+00 -0.20639399280E+00 -0.24328627509E+01  0.24599711123E+01  0.51100000000E-03 0.  1.
        -12    1    3    3    0    0 -0.23120068039E+01 -0.11293781656E+02 -0.97340322234E+01  0.15087950917E+02  0.00000000000E+00 0.  1.
</event>
<event>
 7    1  0.1543346E-008  0.4614232E+02  0.7816164E-02  0.1320468E+00
        -11   -1    0    0    0    0  0.00000000000E+00  0.00000000000E+00  0.45593999997E+02  0.45594000000E+02  0.51100000000E-03 0.  1.
         11   -1    0    0    0    0 -0.00000000000E+00 -0.00000000000E+00 -0.45593999997E+02  0.45594000000E+02  0.51100000000E-03 0. -1.
    9900012    2    1    2    0    0  0.28208162745E+02  0.36278360162E+01 -0.34932102961E+02  0.46142318111E+02  0.10000003190E+02 0.  0.
        -12    1    1    2    0    0 -0.28208162745E+02 -0.36278360162E+01  0.34932102961E+02  0.45045681889E+02  0.00000000000E+00 0.  1.
         11    1    3    3    0    0  0.24379982128E+01  0.86195702623E+00 -0.94353184369E+01  0.97832530105E+01  0.51100000000E-03 0. -1.
        -11    1    3    3    0    0  0.13213959018E+02  0.13682650187E+01 -0.12811576915E+02  0.18455821992E+02  0.51100000000E-03 0.  1.
         12    1    3    3    0    0  0.12556205514E+02  0.13976139713E+01 -0.12685207609E+02  0.17903243108E+02  0.00000000000E+00 0. -1.
</event>
<event>
 7    1  0.1543346E-008  0.4614232E+02  0.7816164E-02  0.1320468E+00
        -11   -1    0    0    0    0  0.00000000000E+00  0.00000000000E+00  0.45593999997E+02  0.45594000000E+02  0.51100000000E-03 0.  1.
         11   -1    0    0    0    0 -0.00000000000E+00 -0.00000000000E+00 -0.45593999997E+02  0.45594000000E+02  0.51100000000E-03 0. -1.
    9900012    2    1    2    0    0 -0.40173798073E+02  0.18585003875E+02 -0.83532663673E+01  0.46142317858E+02  0.10000000884E+02 0.  0.
        -12    1    1    2    0    0  0.40173798073E+02 -0.18585003875E+02  0.83532663673E+01  0.45045682142E+02  0.00000000000E+00 0.  1.
         11    1    3    3    0    0 -0.21592619422E+02  0.11599114358E+02 -0.21176099538E+01  0.24602132826E+02  0.51100000000E-03 0. -1.
        -11    1    3    3    0    0 -0.38549296228E+01 -0.62434973478E+00 -0.21895199494E+01  0.44770853083E+01  0.51100000000E-03 0.  1.
        -12    1    3    3    0    0 -0.14726249028E+02  0.76102392521E+01 -0.40461364641E+01  0.17063099724E+02  0.00000000000E+00 0.  1.
</event>
<event>
 7    1  0.1543346E-008  0.4614232E+02  0.7816164E-02  0.1320468E+00
        -11   -1    0    0    0    0  0.00000000000E+00  0.00000000000E+00  0.45593999997E+02  0.45594000000E+02  0.51100000000E-03 0. -1.
         11   -1    0    0    0    0 -0.00000000000E+00 -0.00000000000E+00 -0.45593999997E+02  0.45594000000E+02  0.51100000000E-03 0.  1.
    9900012    2    1    2    0    0  0.23038740031E+02 -0.28412294873E+02  0.26288238100E+02  0.46142317581E+02  0.99999983604E+01 0.  0.
        -12    1    1    2    0    0 -0.23038740031E+02  0.28412294873E+02 -0.26288238100E+02  0.45045682419E+02  0.00000000000E+00 0.  1.
         11    1    3    3    0    0  0.17983682393E+02 -0.23068938855E+02  0.22056459194E+02  0.36634357709E+02  0.51100000000E-03 0. -1.
        -11    1    3    3    0    0  0.61382855502E+00 -0.16944442379E+01 -0.70083808399E+00  0.19336755290E+01  0.51100000000E-03 0.  1.
        -12    1    3    3    0    0  0.44412290825E+01 -0.36489117804E+01  0.49326169899E+01  0.75742843433E+01  0.00000000000E+00 0.  1.
</event>
<event>
 7    1  0.1543346E-008  0.4614232E+02  0.7816164E-02  0.1320468E+00
        -11   -1    0    0    0    0  0.00000000000E+00  0.00000000000E+00  0.45593999997E+02  0.45594000000E+02  0.51100000000E-03 0.  1.
         11   -1    0    0    0    0 -0.00000000000E+00 -0.00000000000E+00 -0.45593999997E+02  0.45594000000E+02  0.51100000000E-03 0. -1.
    9900012    2    1    2    0    0  0.39597644853E+02  0.21261909531E+02  0.30118446970E+01  0.46142317817E+02  0.10000000513E+02 0.  0.
        -12    1    1    2    0    0 -0.39597644853E+02 -0.21261909531E+02 -0.30118446970E+01  0.45045682183E+02  0.00000000000E+00 0.  1.
         11    1    3    3    0    0  0.13009033290E+02  0.46292291149E+01  0.19139115856E+01  0.13940149467E+02  0.51100000000E-03 0. -1.
        -11    1    3    3    0    0  0.30834268865E+01  0.24663725292E+01  0.25823745539E+01  0.47179628459E+01  0.51100000000E-03 0.  1.
         12    1    3    3    0    0  0.23505184677E+02  0.14166307887E+02 -0.14844414425E+01  0.27484205505E+02  0.00000000000E+00 0. -1.
</event>
<event>
 7    1  0.1543346E-008  0.4614232E+02  0.7816164E-02  0.1320468E+00
        -11   -1    0    0    0    0  0.00000000000E+00  0.00000000000E+00  0.45593999997E+02  0.45594000000E+02  0.51100000000E-03 0.  1.
         11   -1    0    0    0    0 -0.00000000000E+00 -0.00000000000E+00 -0.45593999997E+02  0.45594000000E+02  0.51100000000E-03 0. -1.
    9900012    2    1    2    0    0 -0.44425079252E+02 -0.32603340428E+01 -0.67004588987E+01  0.46142316587E+02  0.99999892977E+01 0.  0.
        -12    1    1    2    0    0  0.44425079252E+02  0.32603340428E+01  0.67004588987E+01  0.45045683413E+02  0.00000000000E+00 0.  1.
         11    1    3    3    0    0 -0.21609668579E+02  0.14280981828E+01 -0.32517861946E+01  0.21899574293E+02  0.51100000000E-03 0. -1.
        -11    1    3    3    0    0 -0.19487323222E+02 -0.34509672549E+01 -0.78877115765E+00  0.19806238955E+02  0.51100000000E-03 0.  1.
         12    1    3    3    0    0 -0.33280874511E+01 -0.12374649708E+01 -0.26599015465E+01  0.44365033386E+01  0.00000000000E+00 0. -1.
</event>
<event>
 7    1  0.1543346E-008  0.4614232E+02  0.7816164E-02  0.1320468E+00
        -11   -1    0    0    0    0  0.00000000000E+00  0.00000000000E+00  0.45593999997E+02  0.45594000000E+02  0.51100000000E-03 0.  1.
         11   -1    0    0    0    0 -0.00000000000E+00 -0.00000000000E+00 -0.45593999997E+02  0.45594000000E+02  0.51100000000E-03 0. -1.
    9900012    2    1    2    0    0 -0.16209718668E+02  0.16259898594E+02 -0.38755312919E+02  0.46142316955E+02  0.99999926462E+01 0.  0.
        -12    1    1    2    0    0  0.16209718668E+02 -0.16259898594E+02  0.38755312919E+02  0.45045683045E+02  0.00000000000E+00 0.  1.
         11    1    3    3    0    0  0.23527795045E+00  0.37373134719E+01 -0.88153193853E+01  0.95777201790E+01  0.51100000000E-03 0.  1.
        -11    1    3    3    0    0 -0.11330685347E+02  0.10248149444E+02 -0.20142942158E+02  0.25281359072E+02  0.51100000000E-03 0. -1.
        -12    1    3    3    0    0 -0.51143112708E+01  0.22744356779E+01 -0.97970513754E+01  0.11283237704E+02  0.00000000000E+00 0.  1.
</event>
<event>
 7    1  0.1543346E-008  0.4614232E+02  0.7816164E-02  0.1320468E+00
        -11   -1    0    0    0    0  0.00000000000E+00  0.00000000000E+00  0.45593999997E+02  0.45594000000E+02  0.51100000000E-03 0.  1.
         11   -1    0    0    0    0 -0.00000000000E+00 -0.00000000000E+00 -0.45593999997E+02  0.45594000000E+02  0.51100000000E-03 0. -1.
    9900012    2    1    2    0    0  0.21504173629E+02 -0.31103528461E+02 -0.24479670256E+02  0.46142320717E+02  0.10000026958E+02 0.  0.
        -12    1    1    2    0    0 -0.21504173629E+02  0.31103528461E+02  0.24479670256E+02  0.45045679283E+02  0.00000000000E+00 0.  1.
         11    1    3    3    0    0  0.77311430711E+01 -0.75962917859E+01 -0.82641793514E+01  0.13629779261E+02  0.51100000000E-03 0. -1.
        -11    1    3    3    0    0  0.47097370949E+01 -0.35984850300E+01 -0.13920741980E+01  0.60883978885E+01  0.51100000000E-03 0.  1.
        -12    1    3    3    0    0  0.90632934628E+01 -0.19908751645E+02 -0.14823416707E+02  0.26424143568E+02  0.00000000000E+00 0.  1.
</event>
<event>
 7    1  0.1543346E-008  0.4614232E+02  0.7816164E-02  0.1320468E+00
        -11   -1    0    0    0    0  0.00000000000E+00  0.00000000000E+00  0.45593999997E+02  0.45594000000E+02  0.51100000000E-03 0.  1.
         11   -1    0    0    0    0 -0.00000000000E+00 -0.00000000000E+00 -0.45593999997E+02  0.45594000000E+02  0.51100000000E-03 0. -1.
    9900012    2    1    2    0    0  0.28130615947E+02 -0.26518244752E+01 -0.35082043847E+02  0.46142317331E+02  0.99999960775E+01 0.  0.
        -12    1    1    2    0    0 -0.28130615947E+02  0.26518244752E+01  0.35082043847E+02  0.45045682669E+02  0.00000000000E+00 0.  1.
         11    1    3    3    0    0  0.18364599236E+02 -0.27510058960E+01 -0.25819300159E+02  0.31803502944E+02  0.51100000000E-03 0. -1.
        -11    1    3    3    0    0  0.95695439661E+01 -0.58577901078E+00 -0.67455475164E+01  0.11722701068E+02  0.51100000000E-03 0.  1.
         12    1    3    3    0    0  0.19647274553E+00  0.68496043156E+00 -0.25171961720E+01  0.26161133196E+01  0.00000000000E+00 0. -1.
</event>
<event>
 7    1  0.1543346E-008  0.4614232E+02  0.7816164E-02  0.1320468E+00
        -11   -1    0    0    0    0  0.00000000000E+00  0.00000000000E+00  0.45593999997E+02  0.45594000000E+02  0.51100000000E-03 0.  1.
         11   -1    0    0    0    0 -0.00000000000E+00 -0.00000000000E+00 -0.45593999997E+02  0.45594000000E+02  0.51100000000E-03 0. -1.
    9900012    2    1    2    0    0  0.39379285940E+02 -0.11900570138E+02 -0.18351071253E+02  0.46142317111E+02  0.99999940743E+01 0.  0.
        -12    1    1    2    0    0 -0.39379285940E+02  0.11900570138E+02  0.18351071253E+02  0.45045682889E+02  0.00000000000E+00 0.  1.
         11    1    3    3    0    0  0.21668598769E+02 -0.39808993487E+01 -0.98708782836E+01  0.24141457507E+02  0.51100000000E-03 0.  1.
        -11    1    3    3    0    0  0.66434663004E+01 -0.13345166084E+01 -0.37957778137E+00  0.67868003223E+01  0.51100000000E-03 0. -1.
        -12    1    3    3    0    0  0.11067220871E+02 -0.65851541814E+01 -0.81006151878E+01  0.15214059282E+02  0.00000000000E+00 0.  1.
</event>
<event>
 7    1  0.1543346E-008  0.4614232E+02  0.7816164E-02  0.1320468E+00
        -11   -1    0    0    0    0  0.00000000000E+00  0.00000000000E+00  0.45593999997E+02  0.45594000000E+02  0.51100000000E-03 0.  1.
         11   -1    0    0    0    0 -0.00000000000E+00 -0.00000000000E+00 -0.45593999997E+02  0.45594000000E+02  0.51100000000E-03 0. -1.
    9900012    2    1    2    0    0 -0.91143627870E+01 -0.41098623952E+02 -0.16029502131E+02  0.46142318317E+02  0.10000005067E+02 0.  0.
        -12    1    1    2    0    0  0.91143627870E+01  0.41098623952E+02  0.16029502131E+02  0.45045681683E+02  0.00000000000E+00 0.  1.
         11    1    3    3    0    0 -0.56787165492E+01 -0.22062239180E+02 -0.68404490183E+01  0.23786171662E+02  0.51100000000E-03 0. -1.
        -11    1    3    3    0    0 -0.32624678577E+01 -0.16754498459E+02 -0.10166795292E+02  0.19867577655E+02  0.51100000000E-03 0.  1.
         12    1    3    3    0    0 -0.17317838013E+00 -0.22818863127E+01  0.97774217927E+00  0.24885689994E+01  0.00000000000E+00 0. -1.
</event>
<event>
 7    1  0.1543346E-008  0.4614233E+02  0.7816164E-02  0.1320468E+00
        -11   -1    0    0    0    0  0.00000000000E+00  0.00000000000E+00  0.45593999997E+02  0.45594000000E+02  0.51100000000E-03 0. -1.
         11   -1    0    0    0    0 -0.00000000000E+00 -0.00000000000E+00 -0.45593999997E+02  0.45594000000E+02  0.51100000000E-03 0.  1.
    9900012    2    1    2    0    0  0.42523646612E+02  0.14859644063E+02 -0.20740436600E+00  0.46142328073E+02  0.10000094028E+02 0.  0.
        -12    1    1    2    0    0 -0.42523646612E+02 -0.14859644063E+02  0.20740436600E+00  0.45045671927E+02  0.00000000000E+00 0.  1.
         11    1    3    3    0    0  0.85939326631E+00  0.13639035521E+01  0.11631719198E+01  0.19879031319E+01  0.51100000000E-03 0. -1.
        -11    1    3    3    0    0  0.35883763910E+01  0.28380495516E+01  0.25034254122E+00  0.45818819310E+01  0.51100000000E-03 0.  1.
         12    1    3    3    0    0  0.38075876954E+02  0.10657690959E+02 -0.16209188270E+01  0.39572543010E+02  0.00000000000E+00 0. -1.
</event>
<event>
 7    1  0.1543346E-008  0.4614232E+02  0.7816164E-02  0.1320468E+00
        -11   -1    0    0    0    0  0.00000000000E+00  0.00000000000E+00  0.45593999997E+02  0.45594000000E+02  0.51100000000E-03 0. -1.
         11   -1    0    0    0    0 -0.00000000000E+00 -0.00000000000E+00 -0.45593999997E+02  0.45594000000E+02  0.51100000000E-03 0.  1.
    9900012    2    1    2    0    0  0.31138671848E+01 -0.81553902344E+01  0.44191705619E+02  0.46142318695E+02  0.10000008517E+02 0.  0.
        -12    1    1    2    0    0 -0.31138671848E+01  0.81553902344E+01 -0.44191705619E+02  0.45045681305E+02  0.00000000000E+00 0.  1.
         11    1    3    3    0    0  0.15631955811E-01 -0.35184982828E+01  0.22106663897E+02  0.22384920448E+02  0.51100000000E-03 0. -1.
        -11    1    3    3    0    0  0.20870795503E+01 -0.49683555734E+01  0.80812817146E+01  0.97132678624E+01  0.51100000000E-03 0.  1.
        -12    1    3    3    0    0  0.10111556787E+01  0.33146362191E+00  0.14003760007E+02  0.14044130385E+02  0.00000000000E+00 0.  1.
</event>
<event>
 7    1  0.1543346E-008  0.4614232E+02  0.7816164E-02  0.1320468E+00
        -11   -1    0    0    0    0  0.00000000000E+00  0.00000000000E+00  0.45593999997E+02  0.45594000000E+02  0.51100000000E-03 0.  1.
         11   -1    0    0    0    0 -0.00000000000E+00 -0.00000000000E+00 -0.45593999997E+02  0.45594000000E+02  0.51100000000E-03 0. -1.
    9900012    2    1    2    0    0  0.19591014661E+02  0.40123252805E+02 -0.59523330463E+01  0.46142317190E+02  0.99999947918E+01 0.  0.
        -12    1    1    2    0    0 -0.19591014661E+02 -0.40123252805E+02  0.59523330463E+01  0.45045682810E+02  0.00000000000E+00 0.  1.
         11    1    3    3    0    0  0.74226114218E+01  0.23641578482E+02 -0.44606613017E+01  0.25177706268E+02  0.51100000000E-03 0. -1.
        -11    1    3    3    0    0  0.90776041135E+00  0.45221704229E+00  0.73004977714E+00  0.12496007986E+01  0.51100000000E-03 0.  1.
         12    1    3    3    0    0  0.11260642828E+02  0.16029457282E+02 -0.22217215217E+01  0.19715010123E+02  0.00000000000E+00 0. -1.
</event>
<event>
 7    1  0.1543346E-008  0.4614232E+02  0.7816164E-02  0.1320468E+00
        -11   -1    0    0    0    0  0.00000000000E+00  0.00000000000E+00  0.45593999997E+02  0.45594000000E+02  0.51100000000E-03 0.  1.
         11   -1    0    0    0    0 -0.00000000000E+00 -0.00000000000E+00 -0.45593999997E+02  0.45594000000E+02  0.51100000000E-03 0. -1.
    9900012    2    1    2    0    0 -0.23905562773E+02  0.24914658440E+02 -0.28929176901E+02  0.46142318599E+02  0.10000007643E+02 0.  0.
        -12    1    1    2    0    0  0.23905562773E+02 -0.24914658440E+02  0.28929176901E+02  0.45045681401E+02  0.00000000000E+00 0.  1.
         11    1    3    3    0    0 -0.65958200559E+01  0.11890465805E+02 -0.75370135096E+01  0.15546529908E+02  0.51100000000E-03 0. -1.
        -11    1    3    3    0    0 -0.38643458028E+01  0.16603631001E+01 -0.50862633233E+01  0.66000037094E+01  0.51100000000E-03 0.  1.
         12    1    3    3    0    0 -0.13445396915E+02  0.11363829535E+02 -0.16305900068E+02  0.23995784982E+02  0.00000000000E+00 0. -1.
</event>
<event>
 7    1  0.1543346E-008  0.4614232E+02  0.7816164E-02  0.1320468E+00
        -11   -1    0    0    0    0  0.00000000000E+00  0.00000000000E+00  0.45593999997E+02  0.45594000000E+02  0.51100000000E-03 0. -1.
         11   -1    0    0    0    0 -0.00000000000E+00 -0.00000000000E+00 -0.45593999997E+02  0.45594000000E+02  0.51100000000E-03 0.  1.
    9900012    2    1    2    0    0  0.43253567034E+02 -0.11082138219E+02  0.59521909581E+01  0.46142318455E+02  0.10000006329E+02 0.  0.
        -12    1    1    2    0    0 -0.43253567034E+02  0.11082138219E+02 -0.59521909581E+01  0.45045681545E+02  0.00000000000E+00 0.  1.
         11    1    3    3    0    0  0.23544676720E+02 -0.59253054460E+01 -0.33758748063E+00  0.24281165788E+02  0.51100000000E-03 0. -1.
        -11    1    3    3    0    0  0.10687488195E+02 -0.43566774441E+01  0.54560838843E+01  0.12766044567E+02  0.51100000000E-03 0.  1.
        -12    1    3    3    0    0  0.90214021187E+01 -0.80015532870E+00  0.83369455446E+00  0.90951080998E+01  0.00000000000E+00 0.  1.
</event>
<event>
 7    1  0.1830271E-008  0.4614232E+02  0.7816164E-02  0.1320468E+00
        -11   -1    0    0    0    0  0.00000000000E+00  0.00000000000E+00  0.45593999997E+02  0.45594000000E+02  0.51100000000E-03 0. -1.
         11   -1    0    0    0    0 -0.00000000000E+00 -0.00000000000E+00 -0.45593999997E+02  0.45594000000E+02  0.51100000000E-03 0.  1.
    9900012    2    1    2    0    0 -0.63048184751E+01  0.41187790122E+02 -0.17115157688E+02  0.46142318588E+02  0.10000007542E+02 0.  0.
        -12    1    1    2    0    0  0.63048184751E+01 -0.41187790122E+02  0.17115157688E+02  0.45045681412E+02  0.00000000000E+00 0.  1.
         11    1    3    3    0    0 -0.74821784690E+01  0.33013455774E+02 -0.12299216626E+02  0.36015857433E+02  0.51100000000E-03 0. -1.
        -11    1    3    3    0    0  0.10424064521E+01  0.15082450071E+01  0.11000648490E+00  0.18367133420E+01  0.51100000000E-03 0.  1.
         12    1    3    3    0    0  0.13495354172E+00  0.66660893410E+01 -0.49259475471E+01  0.82897478127E+01  0.00000000000E+00 0. -1.
</event>
<event>
 7    1  0.1543346E-008  0.4614232E+02  0.7816164E-02  0.1320468E+00
        -11   -1    0    0    0    0  0.00000000000E+00  0.00000000000E+00  0.45593999997E+02  0.45594000000E+02  0.51100000000E-03 0.  1.
         11   -1    0    0    0    0 -0.00000000000E+00 -0.00000000000E+00 -0.45593999997E+02  0.45594000000E+02  0.51100000000E-03 0. -1.
    9900012    2    1    2    0    0  0.16449809755E+02  0.13597614511E+02 -0.39668906264E+02  0.46142317793E+02  0.10000000288E+02 0.  0.
        -12    1    1    2    0    0 -0.16449809755E+02 -0.13597614511E+02  0.39668906264E+02  0.45045682207E+02  0.00000000000E+00 0.  1.
         11    1    3    3    0    0  0.32149697714E+01  0.34828609659E+01 -0.18535821931E+02  0.19132251464E+02  0.51100000000E-03 0. -1.
        -11    1    3    3    0    0  0.12643040039E+02  0.10027518520E+02 -0.20799282503E+02  0.26325040209E+02  0.51100000000E-03 0.  1.
         12    1    3    3    0    0  0.59179994417E+00  0.87235025161E-01 -0.33380182903E+00  0.68502611965E+00  0.00000000000E+00 0. -1.
</event>
<event>
 7    1  0.1543346E-008  0.4614232E+02  0.7816164E-02  0.1320468E+00
        -11   -1    0    0    0    0  0.00000000000E+00  0.00000000000E+00  0.45593999997E+02  0.45594000000E+02  0.51100000000E-03 0. -1.
         11   -1    0    0    0    0 -0.00000000000E+00 -0.00000000000E+00 -0.45593999997E+02  0.45594000000E+02  0.51100000000E-03 0.  1.
    9900012    2    1    2    0    0  0.24334073959E+02  0.36156521089E+02  0.11387375953E+02  0.46142317590E+02  0.99999984369E+01 0.  0.
        -12    1    1    2    0    0 -0.24334073959E+02 -0.36156521089E+02 -0.11387375953E+02  0.45045682410E+02  0.00000000000E+00 0.  1.
         11    1    3    3    0    0  0.23306610283E+01  0.94031185515E+01  0.25542475148E+01  0.10018722471E+02  0.51100000000E-03 0. -1.
        -11    1    3    3    0    0  0.10145930775E+01  0.17236093241E+01 -0.66115596174E+00  0.21065031882E+01  0.51100000000E-03 0.  1.
         12    1    3    3    0    0  0.20988819853E+02  0.25029793214E+02  0.94942844001E+01  0.34017091931E+02  0.00000000000E+00 0. -1.
</event>
<event>
 7    1  0.1543346E-008  0.4614232E+02  0.7816164E-02  0.1320468E+00
        -11   -1    0    0    0    0  0.00000000000E+00  0.00000000000E+00  0.45593999997E+02  0.45594000000E+02  0.51100000000E-03 0. -1.
         11   -1    0    0    0    0 -0.00000000000E+00 -0.00000000000E+00 -0.45593999997E+02  0.45594000000E+02  0.51100000000E-03 0.  1.
    9900012    2    1    2    0    0  0.30453241325E+01 -0.51945052100E+01  0.44641424458E+02  0.46142315844E+02  0.99999825158E+01 0.  0.
        -12    1    1    2    0    0 -0.30453241325E+01  0.51945052100E+01 -0.44641424458E+02  0.45045684156E+02  0.00000000000E+00 0.  1.
         11    1    3    3    0    0 -0.20620696097E+01 -0.30249021060E+00  0.23396507386E+02  0.23489150464E+02  0.51100000000E-03 0. -1.
        -11    1    3    3    0    0 -0.32954201829E+00 -0.11160042814E+01  0.21701140579E+01  0.24624091422E+01  0.51100000000E-03 0.  1.
         12    1    3    3    0    0  0.54369357604E+01 -0.37760107180E+01  0.19074803014E+02  0.20190756237E+02  0.00000000000E+00 0. -1.
</event>
<event>
 7    1  0.1543346E-008  0.4614232E+02  0.7816164E-02  0.1320468E+00
        -11   -1    0    0    0    0  0.00000000000E+00  0.00000000000E+00  0.45593999997E+02  0.45594000000E+02  0.51100000000E-03 0.  1.
         11   -1    0    0    0    0 -0.00000000000E+00 -0.00000000000E+00 -0.45593999997E+02  0.45594000000E+02  0.51100000000E-03 0. -1.
    9900012    2    1    2    0    0 -0.22416423359E+02 -0.35511053091E+02  0.16296704876E+02  0.46142317435E+02  0.99999970307E+01 0.  0.
        -12    1    1    2    0    0  0.22416423359E+02  0.35511053091E+02 -0.16296704876E+02  0.45045682565E+02  0.00000000000E+00 0.  1.
         11    1    3    3    0    0 -0.12973919146E+02 -0.25074071077E+02  0.10085925584E+02  0.29979284740E+02  0.51100000000E-03 0. -1.
        -11    1    3    3    0    0  0.35285402262E+00 -0.37244739273E+00  0.11069070289E+01  0.12200272347E+01  0.51100000000E-03 0.  1.
        -12    1    3    3    0    0 -0.97953582357E+01 -0.10064534622E+02  0.51038722630E+01  0.14943005461E+02  0.00000000000E+00 0.  1.
</event>
<event>
 7    1  0.1543346E-008  0.4614232E+02  0.7816164E-02  0.1320468E+00
        -11   -1    0    0    0    0  0.00000000000E+00  0.00000000000E+00  0.45593999997E+02  0.45594000000E+02  0.51100000000E-03 0. -1.
         11   -1    0    0    0    0 -0.00000000000E+00 -0.00000000000E+00 -0.45593999997E+02  0.45594000000E+02  0.51100000000E-03 0.  1.
    9900012    2    1    2    0    0 -0.34119181280E+02  0.29320793046E+02 -0.22991455806E+01  0.46142317561E+02  0.99999981722E+01 0.  0.
        -12    1    1    2    0    0  0.34119181280E+02 -0.29320793046E+02  0.22991455806E+01  0.45045682439E+02  0.00000000000E+00 0.  1.
         11    1    3    3    0    0 -0.27314821025E+02  0.25139603661E+02 -0.34861295078E+01  0.37286086133E+02  0.51100000000E-03 0. -1.
        -11    1    3    3    0    0 -0.31916700242E+01  0.31128323647E+01  0.21763347622E+01  0.49611406080E+01  0.51100000000E-03 0.  1.
        -12    1    3    3    0    0 -0.36126902300E+01  0.10683570197E+01 -0.98935083506E+00  0.38950908197E+01  0.00000000000E+00 0.  1.
</event>
<event>
 7    1  0.1543346E-008  0.4614232E+02  0.7816164E-02  0.1320468E+00
        -11   -1    0    0    0    0  0.00000000000E+00  0.00000000000E+00  0.45593999997E+02  0.45594000000E+02  0.51100000000E-03 0.  1.
         11   -1    0    0    0    0 -0.00000000000E+00 -0.00000000000E+00 -0.45593999997E+02  0.45594000000E+02  0.51100000000E-03 0. -1.
    9900012    2    1    2    0    0  0.91401833970E+01 -0.35138272563E+01 -0.43968438406E+02  0.46142317517E+02  0.99999977754E+01 0.  0.
        -12    1    1    2    0    0 -0.91401833970E+01  0.35138272563E+01  0.43968438406E+02  0.45045682483E+02  0.00000000000E+00 0.  1.
         11    1    3    3    0    0  0.87523425177E+00 -0.65331970450E+00 -0.22651813570E+02  0.22678128668E+02  0.51100000000E-03 0. -1.
        -11    1    3    3    0    0  0.41114644672E+01 -0.27149110733E+01 -0.15843743464E+02  0.16592139387E+02  0.51100000000E-03 0.  1.
         12    1    3    3    0    0  0.41534846781E+01 -0.14559647844E+00 -0.54728813715E+01  0.68720494623E+01  0.00000000000E+00 0. -1.
</event>
<event>
 7    1  0.1543346E-008  0.4614232E+02  0.7816164E-02  0.1320468E+00
        -11   -1    0    0    0    0  0.00000000000E+00  0.00000000000E+00  0.45593999997E+02  0.45594000000E+02  0.51100000000E-03 0.  1.
         11   -1    0    0    0    0 -0.00000000000E+00 -0.00000000000E+00 -0.45593999997E+02  0.45594000000E+02  0.51100000000E-03 0. -1.
    9900012    2    1    2    0    0  0.23901631631E+02 -0.35817930158E+02  0.13225027516E+02  0.46142317985E+02  0.10000002041E+02 0.  0.
        -12    1    1    2    0    0 -0.23901631631E+02  0.35817930158E+02 -0.13225027516E+02  0.45045682015E+02  0.00000000000E+00 0.  1.
         11    1    3    3    0    0  0.19470210151E+02 -0.29715863845E+02  0.81057266028E+01  0.36439325616E+02  0.51100000000E-03 0. -1.
        -11    1    3    3    0    0  0.14689829756E+00 -0.17865788790E+01  0.25130053929E+01  0.30868494564E+01  0.51100000000E-03 0.  1.
        -12    1    3    3    0    0  0.42845231826E+01 -0.43154874338E+01  0.26062955205E+01  0.66161429121E+01  0.00000000000E+00 0.  1.
</event>
<event>
 7    1  0.1633577E-008  0.4614232E+02  0.7816164E-02  0.1320468E+00
        -11   -1    0    0    0    0  0.00000000000E+00  0.00000000000E+00  0.45593999997E+02  0.45594000000E+02  0.51100000000E-03 0.  1.
         11   -1    0    0    0    0 -0.00000000000E+00 -0.00000000000E+00 -0.45593999997E+02  0.45594000000E+02  0.51100000000E-03 0. -1.
    9900012    2    1    2    0    0  0.43280830809E+01 -0.42871769926E+02  0.13129831997E+02  0.46142318209E+02  0.10000004085E+02 0.  0.
        -12    1    1    2    0    0 -0.43280830809E+01  0.42871769926E+02 -0.13129831997E+02  0.45045681791E+02  0.00000000000E+00 0.  1.
         11    1    3    3    0    0  0.40270289972E+01 -0.23289625289E+02  0.27532562828E+01  0.23795042111E+02  0.51100000000E-03 0. -1.
        -11    1    3    3    0    0  0.68746730096E+00 -0.40012691059E+01  0.32926154185E+01  0.52272442360E+01  0.51100000000E-03 0.  1.
         12    1    3    3    0    0 -0.38641321723E+00 -0.15580875531E+02  0.70839602958E+01  0.17120031862E+02  0.00000000000E+00 0. -1.
</event>
<event>
 7    1  0.1577728E-008  0.4614232E+02  0.7816164E-02  0.1320468E+00
        -11   -1    0    0    0    0  0.00000000000E+00  0.00000000000E+00  0.45593999997E+02  0.45594000000E+02  0.51100000000E-03 0.  1.
         11   -1    0    0    0    0 -0.00000000000E+00 -0.00000000000E+00 -0.45593999997E+02  0.45594000000E+02  0.51100000000E-03 0. -1.
    9900012    2    1    2    0    0 -0.14320036375E+02  0.37390288336E+02 -0.20640165303E+02  0.46142317329E+02  0.99999960572E+01 0.  0.
        -12    1    1    2    0    0  0.14320036375E+02 -0.37390288336E+02  0.20640165303E+02  0.45045682671E+02  0.00000000000E+00 0.  1.
         11    1    3    3    0    0 -0.10941692366E+02  0.34023018270E+02 -0.20254734289E+02  0.41079686774E+02  0.51100000000E-03 0. -1.
        -11    1    3    3    0    0 -0.14854654299E+01  0.25655477676E+01  0.33314125840E-01  0.29647517574E+01  0.51100000000E-03 0.  1.
         12    1    3    3    0    0 -0.18928785791E+01  0.80172229832E+00 -0.41874513907E+00  0.20978787978E+01  0.00000000000E+00 0. -1.
</event>
<event>
 7    1  0.1543346E-008  0.4614231E+02  0.7816164E-02  0.1320468E+00
        -11   -1    0    0    0    0  0.00000000000E+00  0.00000000000E+00  0.45593999997E+02  0.45594000000E+02  0.51100000000E-03 0. -1.
         11   -1    0    0    0    0 -0.00000000000E+00 -0.00000000000E+00 -0.45593999997E+02  0.45594000000E+02  0.51100000000E-03 0.  1.
    9900012    2    1    2    0    0 -0.68880375711E+01 -0.33712005396E+02  0.29071797990E+02  0.46142314216E+02  0.99999676763E+01 0.  0.
        -12    1    1    2    0    0  0.68880375711E+01  0.33712005396E+02 -0.29071797990E+02  0.45045685784E+02  0.00000000000E+00 0.  1.
         11    1    3    3    0    0 -0.48654071199E+00 -0.31143141060E+01  0.73837812808E+00  0.32374182208E+01  0.51100000000E-03 0. -1.
        -11    1    3    3    0    0 -0.61422223132E+01 -0.14836172066E+02  0.17654489141E+02  0.23864615723E+02  0.51100000000E-03 0.  1.
        -12    1    3    3    0    0 -0.25927454590E+00 -0.15761519224E+02  0.10678930721E+02  0.19040280273E+02  0.00000000000E+00 0.  1.
</event>
<event>
 7    1  0.1543346E-008  0.4614232E+02  0.7816164E-02  0.1320468E+00
        -11   -1    0    0    0    0  0.00000000000E+00  0.00000000000E+00  0.45593999997E+02  0.45594000000E+02  0.51100000000E-03 0.  1.
         11   -1    0    0    0    0 -0.00000000000E+00 -0.00000000000E+00 -0.45593999997E+02  0.45594000000E+02  0.51100000000E-03 0. -1.
    9900012    2    1    2    0    0  0.86505446546E+01 -0.23036597669E-01 -0.44207250481E+02  0.46142318203E+02  0.10000004029E+02 0.  0.
        -12    1    1    2    0    0 -0.86505446546E+01  0.23036597669E-01  0.44207250481E+02  0.45045681797E+02  0.00000000000E+00 0.  1.
         11    1    3    3    0    0  0.92839149590E+01  0.51226458092E+00 -0.24193723239E+02  0.25918906929E+02  0.51100000000E-03 0. -1.
        -11    1    3    3    0    0 -0.95337907156E+00 -0.82091588349E+00 -0.19555393750E+02  0.19595822502E+02  0.51100000000E-03 0.  1.
        -12    1    3    3    0    0  0.32000876720E+00  0.28561470489E+00 -0.45813349153E+00  0.62758877204E+00  0.00000000000E+00 0.  1.
</event>
<event>
 7    1  0.1543346E-008  0.4614232E+02  0.7816164E-02  0.1320468E+00
        -11   -1    0    0    0    0  0.00000000000E+00  0.00000000000E+00  0.45593999997E+02  0.45594000000E+02  0.51100000000E-03 0.  1.
         11   -1    0    0    0    0 -0.00000000000E+00 -0.00000000000E+00 -0.45593999997E+02  0.45594000000E+02  0.51100000000E-03 0. -1.
    9900012    2    1    2    0    0 -0.28617741951E+02 -0.33354475504E+02 -0.98801423537E+01  0.46142318703E+02  0.10000008590E+02 0.  0.
        -12    1    1    2    0    0  0.28617741951E+02  0.33354475504E+02  0.98801423537E+01  0.45045681297E+02  0.00000000000E+00 0.  1.
         11    1    3    3    0    0 -0.17673641778E+02 -0.20716208841E+02 -0.66317807270E+01  0.28026762894E+02  0.51100000000E-03 0. -1.
        -11    1    3    3    0    0  0.61130990109E+00 -0.14375357894E+01  0.40360082182E+00  0.16134134081E+01  0.51100000000E-03 0.  1.
         12    1    3    3    0    0 -0.11555410074E+02 -0.11200730874E+02 -0.36519624485E+01  0.16502142401E+02  0.00000000000E+00 0. -1.
</event>
<event>
 7    1  0.1543346E-008  0.4614232E+02  0.7816164E-02  0.1320468E+00
        -11   -1    0    0    0    0  0.00000000000E+00  0.00000000000E+00  0.45593999997E+02  0.45594000000E+02  0.51100000000E-03 0.  1.
         11   -1    0    0    0    0 -0.00000000000E+00 -0.00000000000E+00 -0.45593999997E+02  0.45594000000E+02  0.51100000000E-03 0. -1.
    9900012    2    1    2    0    0 -0.11245736993E+02 -0.43586016805E+02  0.17047118619E+01  0.46142317588E+02  0.99999984175E+01 0.  0.
        -12    1    1    2    0    0  0.11245736993E+02  0.43586016805E+02 -0.17047118619E+01  0.45045682412E+02  0.00000000000E+00 0.  1.
         11    1    3    3    0    0 -0.76055737877E+01 -0.26788896503E+02 -0.13369723070E+01  0.27879691958E+02  0.51100000000E-03 0. -1.
        -11    1    3    3    0    0  0.13860691981E+01 -0.36800482268E+01  0.24651565356E+00  0.39401412414E+01  0.51100000000E-03 0.  1.
        -12    1    3    3    0    0 -0.50262324031E+01 -0.13117072076E+02  0.27951685153E+01  0.14322484388E+02  0.00000000000E+00 0.  1.
</event>
<event>
 7    1  0.1543346E-008  0.4614232E+02  0.7816164E-02  0.1320468E+00
        -11   -1    0    0    0    0  0.00000000000E+00  0.00000000000E+00  0.45593999997E+02  0.45594000000E+02  0.51100000000E-03 0.  1.
         11   -1    0    0    0    0 -0.00000000000E+00 -0.00000000000E+00 -0.45593999997E+02  0.45594000000E+02  0.51100000000E-03 0. -1.
    9900012    2    1    2    0    0  0.20694667356E+02 -0.13109432108E+02 -0.37801944023E+02  0.46142318308E+02  0.10000004986E+02 0.  0.
        -12    1    1    2    0    0 -0.20694667356E+02  0.13109432108E+02  0.37801944023E+02  0.45045681692E+02  0.00000000000E+00 0.  1.
         11    1    3    3    0    0  0.28167813465E+01 -0.53009334445E+01 -0.94379018953E+01  0.11185175233E+02  0.51100000000E-03 0. -1.
        -11    1    3    3    0    0  0.16356339393E+01  0.56049501416E+00 -0.50405400713E+01  0.53288364129E+01  0.51100000000E-03 0.  1.
         12    1    3    3    0    0  0.16242252071E+02 -0.83689936775E+01 -0.23323502056E+02  0.29628306662E+02  0.00000000000E+00 0. -1.
</event>
<event>
 7    1  0.1543346E-008  0.4614232E+02  0.7816164E-02  0.1320468E+00
        -11   -1    0    0    0    0  0.00000000000E+00  0.00000000000E+00  0.45593999997E+02  0.45594000000E+02  0.51100000000E-03 0.  1.
         11   -1    0    0    0    0 -0.00000000000E+00 -0.00000000000E+00 -0.45593999997E+02  0.45594000000E+02  0.51100000000E-03 0. -1.
    9900012    2    1    2    0    0  0.28472719854E+02 -0.10385060290E+02 -0.33325189571E+02  0.46142317487E+02  0.99999975013E+01 0.  0.
        -12    1    1    2    0    0 -0.28472719854E+02  0.10385060290E+02  0.33325189571E+02  0.45045682513E+02  0.00000000000E+00 0.  1.
         11    1    3    3    0    0  0.11527421409E+02  0.60703897118E+00 -0.10624732982E+02  0.15688686747E+02  0.51100000000E-03 0. -1.
        -11    1    3    3    0    0  0.10228980923E+02 -0.75937409334E+01 -0.13410244080E+02  0.18496799686E+02  0.51100000000E-03 0.  1.
         12    1    3    3    0    0  0.67163175217E+01 -0.33983583282E+01 -0.92902125091E+01  0.11956831054E+02  0.00000000000E+00 0. -1.
</event>
<event>
 7    1  0.1543346E-008  0.4614232E+02  0.7816164E-02  0.1320468E+00
        -11   -1    0    0    0    0  0.00000000000E+00  0.00000000000E+00  0.45593999997E+02  0.45594000000E+02  0.51100000000E-03 0. -1.
         11   -1    0    0    0    0 -0.00000000000E+00 -0.00000000000E+00 -0.45593999997E+02  0.45594000000E+02  0.51100000000E-03 0.  1.
    9900012    2    1    2    0    0  0.13987396356E+02  0.33625929539E+02  0.26509678609E+02  0.46142318141E+02  0.10000003465E+02 0.  0.
        -12    1    1    2    0    0 -0.13987396356E+02 -0.33625929539E+02 -0.26509678609E+02  0.45045681859E+02  0.00000000000E+00 0.  1.
         11    1    3    3    0    0  0.10780104127E+01  0.30055135699E+01  0.45376445723E+01  0.55484625613E+01  0.51100000000E-03 0. -1.
        -11    1    3    3    0    0  0.58015975515E+01  0.69431930019E+01  0.33679718038E+01  0.96545169503E+01  0.51100000000E-03 0.  1.
        -12    1    3    3    0    0  0.71077883918E+01  0.23677222967E+02  0.18604062233E+02  0.30939338630E+02  0.00000000000E+00 0.  1.
</event>
<event>
 7    1  0.1543346E-008  0.4614232E+02  0.7816164E-02  0.1320468E+00
        -11   -1    0    0    0    0  0.00000000000E+00  0.00000000000E+00  0.45593999997E+02  0.45594000000E+02  0.51100000000E-03 0.  1.
         11   -1    0    0    0    0 -0.00000000000E+00 -0.00000000000E+00 -0.45593999997E+02  0.45594000000E+02  0.51100000000E-03 0. -1.
    9900012    2    1    2    0    0  0.77054328894E+01  0.43891714567E+01 -0.44164181041E+02  0.46142318641E+02  0.10000008023E+02 0.  0.
        -12    1    1    2    0    0 -0.77054328894E+01 -0.43891714567E+01  0.44164181041E+02  0.45045681359E+02  0.00000000000E+00 0.  1.
         11    1    3    3    0    0  0.28629186484E+01  0.51912784226E+01 -0.18214833036E+02  0.19155307819E+02  0.51100000000E-03 0. -1.
        -11    1    3    3    0    0  0.31533355796E+01 -0.22842632699E+01 -0.79971577872E+01  0.88947128620E+01  0.51100000000E-03 0.  1.
        -12    1    3    3    0    0  0.16891786615E+01  0.14821563039E+01 -0.17952190218E+02  0.18092297960E+02  0.00000000000E+00 0.  1.
</event>
<event>
 7    1  0.1543346E-008  0.4614232E+02  0.7816164E-02  0.1320468E+00
        -11   -1    0    0    0    0  0.00000000000E+00  0.00000000000E+00  0.45593999997E+02  0.45594000000E+02  0.51100000000E-03 0.  1.
         11   -1    0    0    0    0 -0.00000000000E+00 -0.00000000000E+00 -0.45593999997E+02  0.45594000000E+02  0.51100000000E-03 0. -1.
    9900012    2    1    2    0    0 -0.44676668462E+01  0.27391825212E+01 -0.44739808053E+02  0.46142316604E+02  0.99999894515E+01 0.  0.
        -12    1    1    2    0    0  0.44676668462E+01 -0.27391825212E+01  0.44739808053E+02  0.45045683396E+02  0.00000000000E+00 0.  1.
         11    1    3    3    0    0  0.27510078089E+01  0.38093531626E+00 -0.20409439458E+02  0.20597533224E+02  0.51100000000E-03 0. -1.
        -11    1    3    3    0    0 -0.43221648463E+01  0.58196112880E+00 -0.14654029255E+02  0.15289223702E+02  0.51100000000E-03 0.  1.
         12    1    3    3    0    0 -0.28965098088E+01  0.17762860761E+01 -0.96763393401E+01  0.10255559679E+02  0.00000000000E+00 0. -1.
</event>
<event>
 7    1  0.1543346E-008  0.4614232E+02  0.7816164E-02  0.1320468E+00
        -11   -1    0    0    0    0  0.00000000000E+00  0.00000000000E+00  0.45593999997E+02  0.45594000000E+02  0.51100000000E-03 0. -1.
         11   -1    0    0    0    0 -0.00000000000E+00 -0.00000000000E+00 -0.45593999997E+02  0.45594000000E+02  0.51100000000E-03 0.  1.
    9900012    2    1    2    0    0  0.95923129938E+01 -0.42133599329E+02  0.12722450827E+02  0.46142318564E+02  0.10000007322E+02 0.  0.
        -12    1    1    2    0    0 -0.95923129938E+01  0.42133599329E+02 -0.12722450827E+02  0.45045681436E+02  0.00000000000E+00 0.  1.
         11    1    3    3    0    0  0.35689735420E+01 -0.19240106678E+02  0.62499242015E+01  0.20542171986E+02  0.51100000000E-03 0.  1.
        -11    1    3    3    0    0 -0.13040728196E+01 -0.80132011644E+01  0.29915650357E+01  0.86522517557E+01  0.51100000000E-03 0. -1.
        -12    1    3    3    0    0  0.73274122713E+01 -0.14880291487E+02  0.34809615901E+01  0.16947894822E+02  0.00000000000E+00 0.  1.
</event>
<event>
 7    1  0.1543346E-008  0.4614232E+02  0.7816164E-02  0.1320468E+00
        -11   -1    0    0    0    0  0.00000000000E+00  0.00000000000E+00  0.45593999997E+02  0.45594000000E+02  0.51100000000E-03 0. -1.
         11   -1    0    0    0    0 -0.00000000000E+00 -0.00000000000E+00 -0.45593999997E+02  0.45594000000E+02  0.51100000000E-03 0.  1.
    9900012    2    1    2    0    0  0.29076938345E+02  0.31476359497E+02  0.13888269128E+02  0.46142316854E+02  0.99999917314E+01 0.  0.
        -12    1    1    2    0    0 -0.29076938345E+02 -0.31476359497E+02 -0.13888269128E+02  0.45045683146E+02  0.00000000000E+00 0.  1.
         11    1    3    3    0    0  0.89220538622E+01  0.60421055019E+01  0.34262328979E+01  0.11307040114E+02  0.51100000000E-03 0. -1.
        -11    1    3    3    0    0  0.10669291685E+02  0.12464888493E+02  0.89667131845E+01  0.18697838800E+02  0.51100000000E-03 0.  1.
        -12    1    3    3    0    0  0.94855927978E+01  0.12969365503E+02  0.14953230455E+01  0.16137437940E+02  0.00000000000E+00 0.  1.
</event>
<event>
 7    1  0.1543346E-008  0.4614232E+02  0.7816164E-02  0.1320468E+00
        -11   -1    0    0    0    0  0.00000000000E+00  0.00000000000E+00  0.45593999997E+02  0.45594000000E+02  0.51100000000E-03 0.  1.
         11   -1    0    0    0    0 -0.00000000000E+00 -0.00000000000E+00 -0.45593999997E+02  0.45594000000E+02  0.51100000000E-03 0. -1.
    9900012    2    1    2    0    0  0.21266236860E+02 -0.27770821870E+02 -0.28383835395E+02  0.46142317752E+02  0.99999999129E+01 0.  0.
        -12    1    1    2    0    0 -0.21266236860E+02  0.27770821870E+02  0.28383835395E+02  0.45045682248E+02  0.00000000000E+00 0.  1.
         11    1    3    3    0    0  0.10239261065E+02 -0.11693647840E+02 -0.14729732621E+02  0.21413754699E+02  0.51100000000E-03 0. -1.
        -11    1    3    3    0    0  0.60615420805E+01 -0.10194375198E+02 -0.11964955820E+02  0.16847188077E+02  0.51100000000E-03 0.  1.
         12    1    3    3    0    0  0.49654337139E+01 -0.58827988323E+01 -0.16891469535E+01  0.78813749751E+01  0.00000000000E+00 0. -1.
</event>
<event>
 7    1  0.1543346E-008  0.4614232E+02  0.7816164E-02  0.1320468E+00
        -11   -1    0    0    0    0  0.00000000000E+00  0.00000000000E+00  0.45593999997E+02  0.45594000000E+02  0.51100000000E-03 0. -1.
         11   -1    0    0    0    0 -0.00000000000E+00 -0.00000000000E+00 -0.45593999997E+02  0.45594000000E+02  0.51100000000E-03 0.  1.
    9900012    2    1    2    0    0  0.11448566586E+02 -0.43559891694E+02 -0.76129676261E+00  0.46142318586E+02  0.10000007520E+02 0.  0.
        -12    1    1    2    0    0 -0.11448566586E+02  0.43559891694E+02  0.76129676261E+00  0.45045681414E+02  0.00000000000E+00 0.  1.
         11    1    3    3    0    0  0.68409013282E+01 -0.11652565413E+02 -0.66088503219E-01  0.13512386156E+02  0.51100000000E-03 0. -1.
        -11    1    3    3    0    0  0.14422472842E+01 -0.20457602563E+02  0.14459228049E+01  0.20559286779E+02  0.51100000000E-03 0.  1.
         12    1    3    3    0    0  0.31654179738E+01 -0.11449723719E+02 -0.21411310643E+01  0.12070645651E+02  0.00000000000E+00 0. -1.
</event>
<event>
 7    1  0.1543346E-008  0.4614232E+02  0.7816164E-02  0.1320468E+00
        -11   -1    0    0    0    0  0.00000000000E+00  0.00000000000E+00  0.45593999997E+02  0.45594000000E+02  0.51100000000E-03 0.  1.
         11   -1    0    0    0    0 -0.00000000000E+00 -0.00000000000E+00 -0.45593999997E+02  0.45594000000E+02  0.51100000000E-03 0. -1.
    9900012    2    1    2    0    0 -0.25367815714E+02  0.26368871124E+02 -0.26272994124E+02  0.46142315871E+02  0.99999827625E+01 0.  0.
        -12    1    1    2    0    0  0.25367815714E+02 -0.26368871124E+02  0.26272994124E+02  0.45045684129E+02  0.00000000000E+00 0.  1.
         11    1    3    3    0    0 -0.82773403758E+01  0.10433887143E+02 -0.41815554188E+01  0.13959433033E+02  0.51100000000E-03 0. -1.
        -11    1    3    3    0    0 -0.30694417319E+01  0.31646991360E+01 -0.48160999117E+01  0.65292887658E+01  0.51100000000E-03 0.  1.
         12    1    3    3    0    0 -0.14021033606E+02  0.12770284845E+02 -0.17275338793E+02  0.25653594072E+02  0.00000000000E+00 0. -1.
</event>
<event>
 7    1  0.1543346E-008  0.4614232E+02  0.7816164E-02  0.1320468E+00
        -11   -1    0    0    0    0  0.00000000000E+00  0.00000000000E+00  0.45593999997E+02  0.45594000000E+02  0.51100000000E-03 0.  1.
         11   -1    0    0    0    0 -0.00000000000E+00 -0.00000000000E+00 -0.45593999997E+02  0.45594000000E+02  0.51100000000E-03 0. -1.
    9900012    2    1    2    0    0 -0.53025894984E+01  0.80888730253E+01 -0.43995069652E+02  0.46142317899E+02  0.10000001260E+02 0.  0.
        -12    1    1    2    0    0  0.53025894984E+01 -0.80888730253E+01  0.43995069652E+02  0.45045682101E+02  0.00000000000E+00 0.  1.
         11    1    3    3    0    0 -0.76304685048E+00  0.12333463274E+00 -0.10716935333E+02  0.10744773386E+02  0.51100000000E-03 0. -1.
        -11    1    3    3    0    0 -0.21130803151E+01  0.44271827722E+01 -0.58443785188E+01  0.76303221589E+01  0.51100000000E-03 0.  1.
        -12    1    3    3    0    0 -0.24264623328E+01  0.35383556203E+01 -0.27433755801E+02  0.27767222354E+02  0.00000000000E+00 0.  1.
</event>
<event>
 7    1  0.1543346E-008  0.4614232E+02  0.7816164E-02  0.1320468E+00
        -11   -1    0    0    0    0  0.00000000000E+00  0.00000000000E+00  0.45593999997E+02  0.45594000000E+02  0.51100000000E-03 0. -1.
         11   -1    0    0    0    0 -0.00000000000E+00 -0.00000000000E+00 -0.45593999997E+02  0.45594000000E+02  0.51100000000E-03 0.  1.
    9900012    2    1    2    0    0  0.43584485681E+02 -0.11097987765E+02 -0.25181035202E+01  0.46142316857E+02  0.99999917551E+01 0.  0.
        -12    1    1    2    0    0 -0.43584485681E+02  0.11097987765E+02  0.25181035202E+01  0.45045683143E+02  0.00000000000E+00 0.  1.
         11    1    3    3    0    0  0.74043815086E+01 -0.49228562796E+01  0.38420760391E+00  0.88998311905E+01  0.51100000000E-03 0. -1.
        -11    1    3    3    0    0  0.14202148810E+02  0.31056050789E+00 -0.71820071690E+00  0.14223687678E+02  0.51100000000E-03 0.  1.
         12    1    3    3    0    0  0.21977955362E+02 -0.64856919934E+01 -0.21841104072E+01  0.23018797988E+02  0.00000000000E+00 0. -1.
</event>
<event>
 7    1  0.1543346E-008  0.4614232E+02  0.7816164E-02  0.1320468E+00
        -11   -1    0    0    0    0  0.00000000000E+00  0.00000000000E+00  0.45593999997E+02  0.45594000000E+02  0.51100000000E-03 0. -1.
         11   -1    0    0    0    0 -0.00000000000E+00 -0.00000000000E+00 -0.45593999997E+02  0.45594000000E+02  0.51100000000E-03 0.  1.
    9900012    2    1    2    0    0 -0.12637137460E+02  0.18629780328E+01  0.43196592100E+02  0.46142317639E+02  0.99999988855E+01 0.  0.
        -12    1    1    2    0    0  0.12637137460E+02 -0.18629780328E+01 -0.43196592100E+02  0.45045682361E+02  0.00000000000E+00 0.  1.
         11    1    3    3    0    0 -0.81149778041E+01 -0.53601190708E+00  0.24737483993E+02  0.26040032413E+02  0.51100000000E-03 0. -1.
        -11    1    3    3    0    0 -0.16961803085E+01  0.14691735633E+01  0.11165951438E+01  0.25064483985E+01  0.51100000000E-03 0.  1.
        -12    1    3    3    0    0 -0.28259793473E+01  0.92981637662E+00  0.17342512963E+02  0.17595836827E+02  0.00000000000E+00 0.  1.
</event>
