<event>
 7    1  0.3250765E-011  0.5052892E+02  0.7816164E-02  0.1300439E+00
        -11   -1    0    0    0    0  0.00000000000E+00  0.00000000000E+00  0.45593999997E+02  0.45594000000E+02  0.51100000000E-03 0. -1.
         11   -1    0    0    0    0 -0.00000000000E+00 -0.00000000000E+00 -0.45593999997E+02  0.45594000000E+02  0.51100000000E-03 0.  1.
    9900012    2    1    2    0    0  0.48130681478E+01 -0.90218658658E+01 -0.39352271295E+02  0.50528918053E+02  0.30000176914E+02 0.  0.
         12    1    1    2    0    0 -0.48130681478E+01  0.90218658658E+01  0.39352271295E+02  0.40659081947E+02  0.00000000000E+00 0. -1.
         11    1    3    3    0    0 -0.58793508508E+01 -0.14100852948E+02 -0.23237587783E+02  0.27809823921E+02  0.51100000000E-03 0. -1.
        -11    1    3    3    0    0  0.78430269772E+00  0.59002320125E+00 -0.10372674183E+02  0.10419003218E+02  0.51100000000E-03 0.  1.
         12    1    3    3    0    0  0.99081163009E+01  0.44889638813E+01 -0.57420093293E+01  0.12300090914E+02  0.00000000000E+00 0. -1.
</event>
<event>
 7    1  0.3250765E-011  0.5052886E+02  0.7816164E-02  0.1300439E+00
        -11   -1    0    0    0    0  0.00000000000E+00  0.00000000000E+00  0.45593999997E+02  0.45594000000E+02  0.51100000000E-03 0.  1.
         11   -1    0    0    0    0 -0.00000000000E+00 -0.00000000000E+00 -0.45593999997E+02  0.45594000000E+02  0.51100000000E-03 0. -1.
    9900012    2    1    2    0    0 -0.55926936438E+01 -0.38023064772E+02  0.13271548469E+02  0.50528859876E+02  0.30000000079E+02 0.  0.
         12    1    1    2    0    0  0.55926936438E+01  0.38023064772E+02 -0.13271548469E+02  0.40659140124E+02  0.00000000000E+00 0. -1.
         11    1    3    3    0    0  0.86725594607E+01 -0.23019812725E+02  0.27068715653E+01  0.24747772009E+02  0.51100000000E-03 0. -1.
        -11    1    3    3    0    0 -0.23472722634E+00  0.96975776078E+00 -0.11375367883E+01  0.15131150621E+01  0.51100000000E-03 0.  1.
        -12    1    3    3    0    0 -0.14030525878E+02 -0.15973009808E+02  0.11702213692E+02  0.24267972805E+02  0.00000000000E+00 0.  1.
</event>
<event>
 7    1  0.3250765E-011  0.5052886E+02  0.7816164E-02  0.1300439E+00
        -11   -1    0    0    0    0  0.00000000000E+00  0.00000000000E+00  0.45593999997E+02  0.45594000000E+02  0.51100000000E-03 0.  1.
         11   -1    0    0    0    0 -0.00000000000E+00 -0.00000000000E+00 -0.45593999997E+02  0.45594000000E+02  0.51100000000E-03 0. -1.
    9900012    2    1    2    0    0 -0.35826147342E+02 -0.18564335191E+02 -0.50018077677E+01  0.50528862584E+02  0.30000008310E+02 0.  0.
         12    1    1    2    0    0  0.35826147342E+02  0.18564335191E+02  0.50018077677E+01  0.40659137416E+02  0.00000000000E+00 0. -1.
         11    1    3    3    0    0 -0.82456810608E+00  0.35825426745E+01  0.27213662560E+01  0.45738779101E+01  0.51100000000E-03 0. -1.
        -11    1    3    3    0    0 -0.12749975110E+02 -0.12982125710E+01 -0.86268882007E+01  0.15448961825E+02  0.51100000000E-03 0.  1.
         12    1    3    3    0    0 -0.22251604126E+02 -0.20848665294E+02  0.90371417696E+00  0.30506022849E+02  0.00000000000E+00 0. -1.
</event>
<event>
 7    1  0.3250765E-011  0.5052886E+02  0.7816164E-02  0.1300439E+00
        -11   -1    0    0    0    0  0.00000000000E+00  0.00000000000E+00  0.45593999997E+02  0.45594000000E+02  0.51100000000E-03 0.  1.
         11   -1    0    0    0    0 -0.00000000000E+00 -0.00000000000E+00 -0.45593999997E+02  0.45594000000E+02  0.51100000000E-03 0. -1.
    9900012    2    1    2    0    0  0.21749349864E+01 -0.40085509828E+02 -0.64487895496E+01  0.50528864163E+02  0.30000013109E+02 0.  0.
         12    1    1    2    0    0 -0.21749349864E+01  0.40085509828E+02  0.64487895496E+01  0.40659135837E+02  0.00000000000E+00 0. -1.
         11    1    3    3    0    0 -0.21504697140E+01  0.36137730618E+01 -0.53010048194E+00  0.42385000313E+01  0.51100000000E-03 0. -1.
        -11    1    3    3    0    0 -0.88186528048E+00 -0.19468281486E+02  0.34561746985E+01  0.19792342313E+02  0.51100000000E-03 0.  1.
        -12    1    3    3    0    0  0.52072699809E+01 -0.24231001404E+02 -0.93748637662E+01  0.26498021819E+02  0.00000000000E+00 0.  1.
</event>
<event>
 7    1  0.3250765E-011  0.5052885E+02  0.7816164E-02  0.1300439E+00
        -11   -1    0    0    0    0  0.00000000000E+00  0.00000000000E+00  0.45593999997E+02  0.45594000000E+02  0.51100000000E-03 0.  1.
         11   -1    0    0    0    0 -0.00000000000E+00 -0.00000000000E+00 -0.45593999997E+02  0.45594000000E+02  0.51100000000E-03 0. -1.
    9900012    2    1    2    0    0 -0.36933905088E+02 -0.15696638134E+02 -0.65320991023E+01  0.50528854504E+02  0.29999983751E+02 0.  0.
         12    1    1    2    0    0  0.36933905088E+02  0.15696638134E+02  0.65320991023E+01  0.40659145496E+02  0.00000000000E+00 0. -1.
         11    1    3    3    0    0 -0.41807475698E+00 -0.79606475584E+01 -0.51111657831E+00  0.79879870099E+01  0.51100000000E-03 0. -1.
        -11    1    3    3    0    0 -0.24091165013E+02 -0.14136600397E+02 -0.20320785461E+01  0.28006375095E+02  0.51100000000E-03 0.  1.
        -12    1    3    3    0    0 -0.12424665318E+02  0.64006098219E+01 -0.39889039779E+01  0.14534492399E+02  0.00000000000E+00 0.  1.
</event>
<event>
 7    1  0.3250765E-011  0.5052884E+02  0.7816164E-02  0.1300439E+00
        -11   -1    0    0    0    0  0.00000000000E+00  0.00000000000E+00  0.45593999997E+02  0.45594000000E+02  0.51100000000E-03 0. -1.
         11   -1    0    0    0    0 -0.00000000000E+00 -0.00000000000E+00 -0.45593999997E+02  0.45594000000E+02  0.51100000000E-03 0.  1.
    9900012    2    1    2    0    0  0.14270835585E+02 -0.26695535526E+02 -0.27145150285E+02  0.50528836835E+02  0.29999930043E+02 0.  0.
         12    1    1    2    0    0 -0.14270835585E+02  0.26695535526E+02  0.27145150285E+02  0.40659163165E+02  0.00000000000E+00 0. -1.
         11    1    3    3    0    0  0.66282327761E+01 -0.74152025205E+01  0.24621199730E+01  0.10246010598E+02  0.51100000000E-03 0.  1.
        -11    1    3    3    0    0 -0.44663255546E+01  0.37562340797E-01 -0.39888406239E+01  0.59883490774E+01  0.51100000000E-03 0. -1.
        -12    1    3    3    0    0  0.12108928364E+02 -0.19317895346E+02 -0.25618429634E+02  0.34294477159E+02  0.00000000000E+00 0.  1.
</event>
<event>
 7    1  0.3250765E-011  0.5052886E+02  0.7816164E-02  0.1300439E+00
        -11   -1    0    0    0    0  0.00000000000E+00  0.00000000000E+00  0.45593999997E+02  0.45594000000E+02  0.51100000000E-03 0.  1.
         11   -1    0    0    0    0 -0.00000000000E+00 -0.00000000000E+00 -0.45593999997E+02  0.45594000000E+02  0.51100000000E-03 0. -1.
    9900012    2    1    2    0    0 -0.25743040353E+02  0.28910929616E+02  0.12434615684E+02  0.50528860252E+02  0.30000001221E+02 0.  0.
         12    1    1    2    0    0  0.25743040353E+02 -0.28910929616E+02 -0.12434615684E+02  0.40659139748E+02  0.00000000000E+00 0. -1.
         11    1    3    3    0    0 -0.70201486821E+01  0.18035047169E+01 -0.21594732764E+01  0.75629651510E+01  0.51100000000E-03 0. -1.
        -11    1    3    3    0    0 -0.23734406262E+02  0.17302277346E+02  0.98957151539E+01  0.30993806166E+02  0.51100000000E-03 0.  1.
        -12    1    3    3    0    0  0.50115145915E+01  0.98051475532E+01  0.46983738069E+01  0.11972088935E+02  0.00000000000E+00 0.  1.
</event>
<event>
 7    1  0.3250765E-011  0.5052886E+02  0.7816164E-02  0.1300439E+00
        -11   -1    0    0    0    0  0.00000000000E+00  0.00000000000E+00  0.45593999997E+02  0.45594000000E+02  0.51100000000E-03 0. -1.
         11   -1    0    0    0    0 -0.00000000000E+00 -0.00000000000E+00 -0.45593999997E+02  0.45594000000E+02  0.51100000000E-03 0.  1.
    9900012    2    1    2    0    0 -0.29433320234E+02 -0.77560530161E+00 -0.28040036911E+02  0.50528861131E+02  0.30000003895E+02 0.  0.
         12    1    1    2    0    0  0.29433320234E+02  0.77560530161E+00  0.28040036911E+02  0.40659138869E+02  0.00000000000E+00 0. -1.
         11    1    3    3    0    0 -0.49301406082E+01 -0.70956250156E+01 -0.15038251517E+01  0.87701579875E+01  0.51100000000E-03 0. -1.
        -11    1    3    3    0    0 -0.26642306162E+02  0.22003168289E+01 -0.18608405172E+02  0.32571868461E+02  0.51100000000E-03 0.  1.
         12    1    3    3    0    0  0.21391265361E+01  0.41197028850E+01 -0.79278065872E+01  0.91868346825E+01  0.00000000000E+00 0. -1.
</event>
<event>
 7    1  0.3250765E-011  0.5052886E+02  0.7816164E-02  0.1300439E+00
        -11   -1    0    0    0    0  0.00000000000E+00  0.00000000000E+00  0.45593999997E+02  0.45594000000E+02  0.51100000000E-03 0.  1.
         11   -1    0    0    0    0 -0.00000000000E+00 -0.00000000000E+00 -0.45593999997E+02  0.45594000000E+02  0.51100000000E-03 0. -1.
    9900012    2    1    2    0    0  0.27637441163E+02  0.27902574807E+02  0.10525371430E+02  0.50528864758E+02  0.30000014919E+02 0.  0.
         12    1    1    2    0    0 -0.27637441163E+02 -0.27902574807E+02 -0.10525371430E+02  0.40659135242E+02  0.00000000000E+00 0. -1.
         11    1    3    3    0    0  0.11929176224E+01 -0.44441341181E+01  0.61767092895E+01  0.77022800794E+01  0.51100000000E-03 0. -1.
        -11    1    3    3    0    0  0.11195281494E+02  0.84221774377E+01 -0.62171030466E+00  0.14023334999E+02  0.51100000000E-03 0.  1.
        -12    1    3    3    0    0  0.15249242046E+02  0.23924531488E+02  0.49703724447E+01  0.28803249680E+02  0.00000000000E+00 0.  1.
</event>
<event>
 7    1  0.3250765E-011  0.5052887E+02  0.7816164E-02  0.1300439E+00
        -11   -1    0    0    0    0  0.00000000000E+00  0.00000000000E+00  0.45593999997E+02  0.45594000000E+02  0.51100000000E-03 0.  1.
         11   -1    0    0    0    0 -0.00000000000E+00 -0.00000000000E+00 -0.45593999997E+02  0.45594000000E+02  0.51100000000E-03 0. -1.
    9900012    2    1    2    0    0  0.35996593132E+02  0.18896603110E+02  0.57318594000E+00  0.50528869803E+02  0.30000030254E+02 0.  0.
         12    1    1    2    0    0 -0.35996593132E+02 -0.18896603110E+02 -0.57318594000E+00  0.40659130197E+02  0.00000000000E+00 0. -1.
         11    1    3    3    0    0 -0.15293489189E+01  0.54700427068E+01 -0.15549408512E+01  0.58888128381E+01  0.51100000000E-03 0. -1.
        -11    1    3    3    0    0  0.31725233425E+02  0.17501469951E+02  0.57394832666E+01  0.36684241232E+02  0.51100000000E-03 0.  1.
         12    1    3    3    0    0  0.58007086265E+01 -0.40749095483E+01 -0.36113564754E+01  0.79558157337E+01  0.00000000000E+00 0. -1.
</event>
<event>
 7    1  0.3250765E-011  0.5052886E+02  0.7816164E-02  0.1300439E+00
        -11   -1    0    0    0    0  0.00000000000E+00  0.00000000000E+00  0.45593999997E+02  0.45594000000E+02  0.51100000000E-03 0.  1.
         11   -1    0    0    0    0 -0.00000000000E+00 -0.00000000000E+00 -0.45593999997E+02  0.45594000000E+02  0.51100000000E-03 0. -1.
    9900012    2    1    2    0    0  0.30101729496E+02  0.26903687482E+02  0.48211193119E+01  0.50528859451E+02  0.29999998786E+02 0.  0.
         12    1    1    2    0    0 -0.30101729496E+02 -0.26903687482E+02 -0.48211193119E+01  0.40659140549E+02  0.00000000000E+00 0. -1.
         11    1    3    3    0    0  0.21136978836E+02  0.10737560209E+02 -0.66908452702E+01  0.24634010722E+02  0.51100000000E-03 0.  1.
        -11    1    3    3    0    0  0.16747100351E+01 -0.10466581099E+01  0.61334451061E+01  0.64435468518E+01  0.51100000000E-03 0. -1.
        -12    1    3    3    0    0  0.72900406252E+01  0.17212785383E+02  0.53785194760E+01  0.19451301877E+02  0.00000000000E+00 0.  1.
</event>
<event>
 7    1  0.3250765E-011  0.5052884E+02  0.7816164E-02  0.1300439E+00
        -11   -1    0    0    0    0  0.00000000000E+00  0.00000000000E+00  0.45593999997E+02  0.45594000000E+02  0.51100000000E-03 0. -1.
         11   -1    0    0    0    0 -0.00000000000E+00 -0.00000000000E+00 -0.45593999997E+02  0.45594000000E+02  0.51100000000E-03 0.  1.
    9900012    2    1    2    0    0  0.12229855426E+02 -0.26381185668E+02 -0.28418850911E+02  0.50528838571E+02  0.29999935320E+02 0.  0.
         12    1    1    2    0    0 -0.12229855426E+02  0.26381185668E+02  0.28418850911E+02  0.40659161429E+02  0.00000000000E+00 0. -1.
         11    1    3    3    0    0  0.34214824061E+01 -0.69593307287E+01 -0.21494833761E+00  0.77579010754E+01  0.51100000000E-03 0. -1.
        -11    1    3    3    0    0 -0.51739785304E+01 -0.16836105227E+02 -0.12575343930E+02  0.21641713617E+02  0.51100000000E-03 0.  1.
        -12    1    3    3    0    0  0.13982351550E+02 -0.25857497124E+01 -0.15628558643E+02  0.21129223879E+02  0.00000000000E+00 0.  1.
</event>
<event>
 7    1  0.3250765E-011  0.5052886E+02  0.7816164E-02  0.1300439E+00
        -11   -1    0    0    0    0  0.00000000000E+00  0.00000000000E+00  0.45593999997E+02  0.45594000000E+02  0.51100000000E-03 0.  1.
         11   -1    0    0    0    0 -0.00000000000E+00 -0.00000000000E+00 -0.45593999997E+02  0.45594000000E+02  0.51100000000E-03 0. -1.
    9900012    2    1    2    0    0  0.32087034969E+02 -0.24688745465E+02  0.37488141710E+01  0.50528861133E+02  0.30000003900E+02 0.  0.
         12    1    1    2    0    0 -0.32087034969E+02  0.24688745465E+02 -0.37488141710E+01  0.40659138867E+02  0.00000000000E+00 0. -1.
         11    1    3    3    0    0  0.10080014242E+02 -0.17183828396E+02  0.43682772049E+01  0.20395403684E+02  0.51100000000E-03 0. -1.
        -11    1    3    3    0    0  0.11855214505E+02 -0.11524400783E+02 -0.64601872227E+01  0.17750829378E+02  0.51100000000E-03 0.  1.
        -12    1    3    3    0    0  0.10151806222E+02  0.40194837142E+01  0.58407241888E+01  0.12382628071E+02  0.00000000000E+00 0.  1.
</event>
<event>
 7    1  0.3250765E-011  0.5052886E+02  0.7816164E-02  0.1300439E+00
        -11   -1    0    0    0    0  0.00000000000E+00  0.00000000000E+00  0.45593999997E+02  0.45594000000E+02  0.51100000000E-03 0.  1.
         11   -1    0    0    0    0 -0.00000000000E+00 -0.00000000000E+00 -0.45593999997E+02  0.45594000000E+02  0.51100000000E-03 0. -1.
    9900012    2    1    2    0    0 -0.86937206365E+01 -0.35323318408E+02 -0.18161723145E+02  0.50528858476E+02  0.29999995824E+02 0.  0.
         12    1    1    2    0    0  0.86937206365E+01  0.35323318408E+02  0.18161723145E+02  0.40659141524E+02  0.00000000000E+00 0. -1.
         11    1    3    3    0    0  0.61602698207E+01 -0.27945729531E+01 -0.55001070660E+01  0.87183565110E+01  0.51100000000E-03 0. -1.
        -11    1    3    3    0    0 -0.65428249369E+01 -0.12563934367E+02 -0.14293006646E+02  0.20123395444E+02  0.51100000000E-03 0.  1.
        -12    1    3    3    0    0 -0.83111655202E+01 -0.19964811088E+02  0.16313905672E+01  0.21687106521E+02  0.00000000000E+00 0.  1.
</event>
<event>
 7    1  0.3250765E-011  0.5052874E+02  0.7816164E-02  0.1300439E+00
        -11   -1    0    0    0    0  0.00000000000E+00  0.00000000000E+00  0.45593999997E+02  0.45594000000E+02  0.51100000000E-03 0.  1.
         11   -1    0    0    0    0 -0.00000000000E+00 -0.00000000000E+00 -0.45593999997E+02  0.45594000000E+02  0.51100000000E-03 0. -1.
    9900012    2    1    2    0    0 -0.28815532427E+02 -0.17386205290E+02  0.22815794858E+02  0.50528738589E+02  0.29999631414E+02 0.  0.
         12    1    1    2    0    0  0.28815532427E+02  0.17386205290E+02 -0.22815794858E+02  0.40659261411E+02  0.00000000000E+00 0. -1.
         11    1    3    3    0    0 -0.12335438465E+02 -0.15086838177E+02  0.32730235176E+01  0.19760779628E+02  0.51100000000E-03 0. -1.
        -11    1    3    3    0    0  0.13247214231E+01 -0.54654549987E+01  0.55635728498E+01  0.79107160426E+01  0.51100000000E-03 0.  1.
        -12    1    3    3    0    0 -0.17804815386E+02  0.31660878857E+01  0.13979198491E+02  0.22857242919E+02  0.00000000000E+00 0.  1.
</event>
<event>
 7    1  0.3250765E-011  0.5052889E+02  0.7816164E-02  0.1300439E+00
        -11   -1    0    0    0    0  0.00000000000E+00  0.00000000000E+00  0.45593999997E+02  0.45594000000E+02  0.51100000000E-03 0. -1.
         11   -1    0    0    0    0 -0.00000000000E+00 -0.00000000000E+00 -0.45593999997E+02  0.45594000000E+02  0.51100000000E-03 0.  1.
    9900012    2    1    2    0    0 -0.26211396744E+02 -0.28788522392E+02 -0.11719498068E+02  0.50528893077E+02  0.30000100996E+02 0.  0.
         12    1    1    2    0    0  0.26211396744E+02  0.28788522392E+02  0.11719498068E+02  0.40659106923E+02  0.00000000000E+00 0. -1.
         11    1    3    3    0    0 -0.85773773819E+01 -0.99819083073E+01 -0.97406110767E+01  0.16373435822E+02  0.51100000000E-03 0. -1.
        -11    1    3    3    0    0 -0.21914904245E+02 -0.15384710278E+02  0.27500176437E+01  0.26916815111E+02  0.51100000000E-03 0.  1.
         12    1    3    3    0    0  0.42808848825E+01 -0.34219038067E+01 -0.47289046352E+01  0.72386421440E+01  0.00000000000E+00 0. -1.
</event>
<event>
 7    1  0.3250765E-011  0.5052885E+02  0.7816164E-02  0.1300439E+00
        -11   -1    0    0    0    0  0.00000000000E+00  0.00000000000E+00  0.45593999997E+02  0.45594000000E+02  0.51100000000E-03 0.  1.
         11   -1    0    0    0    0 -0.00000000000E+00 -0.00000000000E+00 -0.45593999997E+02  0.45594000000E+02  0.51100000000E-03 0. -1.
    9900012    2    1    2    0    0  0.75429179394E+01 -0.39264947632E+02  0.73847603991E+01  0.50528850848E+02  0.29999972639E+02 0.  0.
         12    1    1    2    0    0 -0.75429179394E+01  0.39264947632E+02 -0.73847603991E+01  0.40659149152E+02  0.00000000000E+00 0. -1.
         11    1    3    3    0    0  0.43948249355E+01 -0.36541326778E+02  0.13063123262E+02  0.39054170565E+02  0.51100000000E-03 0. -1.
        -11    1    3    3    0    0  0.66391494156E-01 -0.56635407530E+01 -0.26797610014E+01  0.62658775106E+01  0.51100000000E-03 0.  1.
        -12    1    3    3    0    0  0.30817015097E+01  0.29399198990E+01 -0.29986018611E+01  0.52088027731E+01  0.00000000000E+00 0.  1.
</event>
<event>
 7    1  0.3250765E-011  0.5052886E+02  0.7816164E-02  0.1300439E+00
        -11   -1    0    0    0    0  0.00000000000E+00  0.00000000000E+00  0.45593999997E+02  0.45594000000E+02  0.51100000000E-03 0.  1.
         11   -1    0    0    0    0 -0.00000000000E+00 -0.00000000000E+00 -0.45593999997E+02  0.45594000000E+02  0.51100000000E-03 0. -1.
    9900012    2    1    2    0    0  0.17741923808E+02  0.27512082788E+02  0.24113789518E+02  0.50528863208E+02  0.30000010207E+02 0.  0.
         12    1    1    2    0    0 -0.17741923808E+02 -0.27512082788E+02 -0.24113789518E+02  0.40659136792E+02  0.00000000000E+00 0. -1.
         11    1    3    3    0    0  0.85717030116E+01  0.63713741541E+01 -0.21731657442E+01  0.10899135321E+02  0.51100000000E-03 0. -1.
        -11    1    3    3    0    0 -0.40779711723E+01  0.97226573107E+00  0.35493276254E+00  0.42072707378E+01  0.51100000000E-03 0.  1.
        -12    1    3    3    0    0  0.13248191969E+02  0.20168442903E+02  0.25932022499E+02  0.35422457149E+02  0.00000000000E+00 0.  1.
</event>
<event>
 7    1  0.3250765E-011  0.5052888E+02  0.7816164E-02  0.1300439E+00
        -11   -1    0    0    0    0  0.00000000000E+00  0.00000000000E+00  0.45593999997E+02  0.45594000000E+02  0.51100000000E-03 0.  1.
         11   -1    0    0    0    0 -0.00000000000E+00 -0.00000000000E+00 -0.45593999997E+02  0.45594000000E+02  0.51100000000E-03 0. -1.
    9900012    2    1    2    0    0 -0.55004509166E+01 -0.14842418464E+02  0.37451456282E+02  0.50528881419E+02  0.30000065560E+02 0.  0.
         12    1    1    2    0    0  0.55004509166E+01  0.14842418464E+02 -0.37451456282E+02  0.40659118581E+02  0.00000000000E+00 0. -1.
         11    1    3    3    0    0 -0.15086178719E+01  0.12346880505E+01 -0.18403669399E+01  0.26809202152E+01  0.51100000000E-03 0. -1.
        -11    1    3    3    0    0  0.81067120371E+01 -0.97099737688E+01  0.25298257949E+02  0.28284345956E+02  0.51100000000E-03 0.  1.
         12    1    3    3    0    0 -0.12098545082E+02 -0.63671327454E+01  0.13993565273E+02  0.19563615247E+02  0.00000000000E+00 0. -1.
</event>
<event>
 7    1  0.3250765E-011  0.5052886E+02  0.7816164E-02  0.1300439E+00
        -11   -1    0    0    0    0  0.00000000000E+00  0.00000000000E+00  0.45593999997E+02  0.45594000000E+02  0.51100000000E-03 0. -1.
         11   -1    0    0    0    0 -0.00000000000E+00 -0.00000000000E+00 -0.45593999997E+02  0.45594000000E+02  0.51100000000E-03 0.  1.
    9900012    2    1    2    0    0 -0.19550636494E+02 -0.22454069663E+02 -0.27690307953E+02  0.50528858515E+02  0.29999995942E+02 0.  0.
         12    1    1    2    0    0  0.19550636494E+02  0.22454069663E+02  0.27690307953E+02  0.40659141485E+02  0.00000000000E+00 0. -1.
         11    1    3    3    0    0  0.30496621614E+00  0.36380093991E+00  0.24676758848E+01  0.25129226113E+01  0.51100000000E-03 0. -1.
        -11    1    3    3    0    0 -0.56930473697E+01  0.38254913381E+01 -0.32619020267E+01  0.75950758669E+01  0.51100000000E-03 0.  1.
        -12    1    3    3    0    0 -0.14162555340E+02 -0.26643361941E+02 -0.26896081811E+02  0.40420860037E+02  0.00000000000E+00 0.  1.
</event>
<event>
 7    1  0.3250765E-011  0.5052895E+02  0.7816164E-02  0.1300438E+00
        -11   -1    0    0    0    0  0.00000000000E+00  0.00000000000E+00  0.45593999997E+02  0.45594000000E+02  0.51100000000E-03 0.  1.
         11   -1    0    0    0    0 -0.00000000000E+00 -0.00000000000E+00 -0.45593999997E+02  0.45594000000E+02  0.51100000000E-03 0. -1.
    9900012    2    1    2    0    0 -0.33422892246E+02  0.20226400566E+02  0.11267699949E+02  0.50528953428E+02  0.30000284440E+02 0.  0.
         12    1    1    2    0    0  0.33422892246E+02 -0.20226400566E+02 -0.11267699949E+02  0.40659046572E+02  0.00000000000E+00 0. -1.
         11    1    3    3    0    0 -0.67392321508E+01  0.79906649716E+01  0.11251576473E+01  0.10513513051E+02  0.51100000000E-03 0. -1.
        -11    1    3    3    0    0 -0.24947350344E+02  0.19171222567E+02  0.71505238487E+01  0.32265090352E+02  0.51100000000E-03 0.  1.
         12    1    3    3    0    0 -0.17363097521E+01 -0.69354869724E+01  0.29920184527E+01  0.77503500257E+01  0.00000000000E+00 0. -1.
</event>
<event>
 7    1  0.3250765E-011  0.5052886E+02  0.7816164E-02  0.1300439E+00
        -11   -1    0    0    0    0  0.00000000000E+00  0.00000000000E+00  0.45593999997E+02  0.45594000000E+02  0.51100000000E-03 0. -1.
         11   -1    0    0    0    0 -0.00000000000E+00 -0.00000000000E+00 -0.45593999997E+02  0.45594000000E+02  0.51100000000E-03 0.  1.
    9900012    2    1    2    0    0 -0.27145075996E+02 -0.26432420952E+02 -0.14752533552E+02  0.50528864810E+02  0.30000015077E+02 0.  0.
         12    1    1    2    0    0  0.27145075996E+02  0.26432420952E+02  0.14752533552E+02  0.40659135190E+02  0.00000000000E+00 0. -1.
         11    1    3    3    0    0 -0.21421499989E+02 -0.95065714904E+01 -0.25140263824E+01  0.23570657441E+02  0.51100000000E-03 0. -1.
        -11    1    3    3    0    0 -0.98360143845E+01 -0.15048842210E+02 -0.13240821532E+02  0.22327879118E+02  0.51100000000E-03 0.  1.
        -12    1    3    3    0    0  0.41124383776E+01 -0.18770072518E+01  0.10023143622E+01  0.46303282512E+01  0.00000000000E+00 0.  1.
</event>
<event>
 7    1  0.3250765E-011  0.5052885E+02  0.7816164E-02  0.1300439E+00
        -11   -1    0    0    0    0  0.00000000000E+00  0.00000000000E+00  0.45593999997E+02  0.45594000000E+02  0.51100000000E-03 0.  1.
         11   -1    0    0    0    0 -0.00000000000E+00 -0.00000000000E+00 -0.45593999997E+02  0.45594000000E+02  0.51100000000E-03 0. -1.
    9900012    2    1    2    0    0 -0.13115157753E+01  0.25935790070E+02  0.31285473788E+02  0.50528854038E+02  0.29999982333E+02 0.  0.
         12    1    1    2    0    0  0.13115157753E+01 -0.25935790070E+02 -0.31285473788E+02  0.40659145962E+02  0.00000000000E+00 0. -1.
         11    1    3    3    0    0 -0.14959350166E+01  0.71966757433E+01  0.10257571677E+02  0.12619339931E+02  0.51100000000E-03 0. -1.
        -11    1    3    3    0    0 -0.55044996850E+01  0.19838039056E+02  0.54613620958E+01  0.21299619400E+02  0.51100000000E-03 0.  1.
         12    1    3    3    0    0  0.56889189263E+01 -0.10989247292E+01  0.15566540015E+02  0.16609894706E+02  0.00000000000E+00 0. -1.
</event>
<event>
 7    1  0.3250765E-011  0.5052886E+02  0.7816164E-02  0.1300439E+00
        -11   -1    0    0    0    0  0.00000000000E+00  0.00000000000E+00  0.45593999997E+02  0.45594000000E+02  0.51100000000E-03 0. -1.
         11   -1    0    0    0    0 -0.00000000000E+00 -0.00000000000E+00 -0.45593999997E+02  0.45594000000E+02  0.51100000000E-03 0.  1.
    9900012    2    1    2    0    0  0.15241141633E+02  0.35480931056E+02  0.12727012028E+02  0.50528859551E+02  0.29999999092E+02 0.  0.
         12    1    1    2    0    0 -0.15241141633E+02 -0.35480931056E+02 -0.12727012028E+02  0.40659140449E+02  0.00000000000E+00 0. -1.
         11    1    3    3    0    0  0.66420761764E+01  0.11740457242E+01  0.54534614367E+01  0.86738573425E+01  0.51100000000E-03 0. -1.
        -11    1    3    3    0    0 -0.39171696921E+01 -0.74962351837E+00  0.49253927847E+00  0.40185506116E+01  0.51100000000E-03 0.  1.
        -12    1    3    3    0    0  0.12516235148E+02  0.35056508850E+02  0.67810113128E+01  0.37836451597E+02  0.00000000000E+00 0.  1.
</event>
<event>
 7    1  0.3250765E-011  0.5052886E+02  0.7816164E-02  0.1300439E+00
        -11   -1    0    0    0    0  0.00000000000E+00  0.00000000000E+00  0.45593999997E+02  0.45594000000E+02  0.51100000000E-03 0.  1.
         11   -1    0    0    0    0 -0.00000000000E+00 -0.00000000000E+00 -0.45593999997E+02  0.45594000000E+02  0.51100000000E-03 0. -1.
    9900012    2    1    2    0    0  0.15384156543E+02 -0.37158174401E+02  0.59802832152E+01  0.50528856076E+02  0.29999988527E+02 0.  0.
         12    1    1    2    0    0 -0.15384156543E+02  0.37158174401E+02 -0.59802832152E+01  0.40659143924E+02  0.00000000000E+00 0. -1.
         11    1    3    3    0    0  0.14104639877E+02 -0.16249669405E+02 -0.24484831591E+01  0.21656123658E+02  0.51100000000E-03 0. -1.
        -11    1    3    3    0    0 -0.62312711823E+01 -0.16388173043E+02  0.13128144882E+01  0.17581935001E+02  0.51100000000E-03 0.  1.
         12    1    3    3    0    0  0.75107878478E+01 -0.45203319521E+01  0.71159518861E+01  0.11290797416E+02  0.00000000000E+00 0. -1.
</event>
<event>
 7    1  0.3250765E-011  0.5052886E+02  0.7816164E-02  0.1300439E+00
        -11   -1    0    0    0    0  0.00000000000E+00  0.00000000000E+00  0.45593999997E+02  0.45594000000E+02  0.51100000000E-03 0.  1.
         11   -1    0    0    0    0 -0.00000000000E+00 -0.00000000000E+00 -0.45593999997E+02  0.45594000000E+02  0.51100000000E-03 0. -1.
    9900012    2    1    2    0    0  0.10825022897E+02 -0.29788062233E+02  0.25468725745E+02  0.50528858797E+02  0.29999996798E+02 0.  0.
         12    1    1    2    0    0 -0.10825022897E+02  0.29788062233E+02 -0.25468725745E+02  0.40659141203E+02  0.00000000000E+00 0. -1.
         11    1    3    3    0    0 -0.11437547010E+01  0.37223327657E+01  0.21319558418E+01  0.44395013241E+01  0.51100000000E-03 0. -1.
        -11    1    3    3    0    0  0.68809614116E+01 -0.14618935999E+02  0.70422387336E+00  0.16172719351E+02  0.51100000000E-03 0.  1.
        -12    1    3    3    0    0  0.50878161865E+01 -0.18891459000E+02  0.22632546030E+02  0.29916638122E+02  0.00000000000E+00 0.  1.
</event>
<event>
 7    1  0.3250765E-011  0.5052885E+02  0.7816164E-02  0.1300439E+00
        -11   -1    0    0    0    0  0.00000000000E+00  0.00000000000E+00  0.45593999997E+02  0.45594000000E+02  0.51100000000E-03 0.  1.
         11   -1    0    0    0    0 -0.00000000000E+00 -0.00000000000E+00 -0.45593999997E+02  0.45594000000E+02  0.51100000000E-03 0. -1.
    9900012    2    1    2    0    0 -0.39476271801E+02  0.20039265429E+01 -0.95275706344E+01  0.50528851471E+02  0.29999974532E+02 0.  0.
         12    1    1    2    0    0  0.39476271801E+02 -0.20039265429E+01  0.95275706344E+01  0.40659148529E+02  0.00000000000E+00 0. -1.
         11    1    3    3    0    0 -0.31518284286E+02  0.24127467628E+01 -0.14061832352E+02  0.34597091216E+02  0.51100000000E-03 0. -1.
        -11    1    3    3    0    0  0.25900737140E+00  0.88848573675E+00 -0.39456593477E+01  0.40527422411E+01  0.51100000000E-03 0.  1.
        -12    1    3    3    0    0 -0.82169948863E+01 -0.12973059567E+01  0.84799210650E+01  0.11879018014E+02  0.00000000000E+00 0.  1.
</event>
<event>
 7    1  0.3250765E-011  0.5052885E+02  0.7816164E-02  0.1300439E+00
        -11   -1    0    0    0    0  0.00000000000E+00  0.00000000000E+00  0.45593999997E+02  0.45594000000E+02  0.51100000000E-03 0.  1.
         11   -1    0    0    0    0 -0.00000000000E+00 -0.00000000000E+00 -0.45593999997E+02  0.45594000000E+02  0.51100000000E-03 0. -1.
    9900012    2    1    2    0    0  0.11059044309E+02 -0.97254055185E+01  0.37898292336E+02  0.50528849302E+02  0.29999967937E+02 0.  0.
         12    1    1    2    0    0 -0.11059044309E+02  0.97254055185E+01 -0.37898292336E+02  0.40659150698E+02  0.00000000000E+00 0. -1.
         11    1    3    3    0    0 -0.10386620573E+01 -0.47159625913E+01  0.68028203673E+00  0.48766695544E+01  0.51100000000E-03 0. -1.
        -11    1    3    3    0    0  0.15270145197E+02 -0.62080421269E+01  0.12460621652E+02  0.20663596338E+02  0.51100000000E-03 0.  1.
        -12    1    3    3    0    0 -0.31724388312E+01  0.11985991997E+01  0.24757388647E+02  0.24988583409E+02  0.00000000000E+00 0.  1.
</event>
<event>
 7    1  0.3250765E-011  0.5052886E+02  0.7816164E-02  0.1300439E+00
        -11   -1    0    0    0    0  0.00000000000E+00  0.00000000000E+00  0.45593999997E+02  0.45594000000E+02  0.51100000000E-03 0.  1.
         11   -1    0    0    0    0 -0.00000000000E+00 -0.00000000000E+00 -0.45593999997E+02  0.45594000000E+02  0.51100000000E-03 0. -1.
    9900012    2    1    2    0    0  0.17046717986E+02  0.10351533281E+02  0.35431918088E+02  0.50528860132E+02  0.30000000859E+02 0.  0.
         12    1    1    2    0    0 -0.17046717986E+02 -0.10351533281E+02 -0.35431918088E+02  0.40659139868E+02  0.00000000000E+00 0. -1.
         11    1    3    3    0    0  0.41914654751E+01  0.42534543387E+00 -0.33012565777E+01  0.53523449833E+01  0.51100000000E-03 0. -1.
        -11    1    3    3    0    0  0.31666411309E+01  0.11107343641E+02  0.11722796594E+02  0.16456751169E+02  0.51100000000E-03 0.  1.
        -12    1    3    3    0    0  0.96886113804E+01 -0.11811557933E+01  0.27010378072E+02  0.28719763980E+02  0.00000000000E+00 0.  1.
</event>
<event>
 7    1  0.3250765E-011  0.5052889E+02  0.7816164E-02  0.1300439E+00
        -11   -1    0    0    0    0  0.00000000000E+00  0.00000000000E+00  0.45593999997E+02  0.45594000000E+02  0.51100000000E-03 0.  1.
         11   -1    0    0    0    0 -0.00000000000E+00 -0.00000000000E+00 -0.45593999997E+02  0.45594000000E+02  0.51100000000E-03 0. -1.
    9900012    2    1    2    0    0  0.20902248155E+02  0.34541137972E+02  0.48133818326E+01  0.50528894808E+02  0.30000106259E+02 0.  0.
         12    1    1    2    0    0 -0.20902248155E+02 -0.34541137972E+02 -0.48133818326E+01  0.40659105192E+02  0.00000000000E+00 0. -1.
         11    1    3    3    0    0  0.79664618568E+01  0.71838196406E+01 -0.31158338172E+01  0.11170505798E+02  0.51100000000E-03 0. -1.
        -11    1    3    3    0    0  0.13480265546E+02  0.35173520140E+01  0.67561381418E+01  0.15483369376E+02  0.51100000000E-03 0.  1.
         12    1    3    3    0    0 -0.54447924844E+00  0.23839966318E+02  0.11730775081E+01  0.23875019634E+02  0.00000000000E+00 0. -1.
</event>
<event>
 7    1  0.3250765E-011  0.5052886E+02  0.7816164E-02  0.1300439E+00
        -11   -1    0    0    0    0  0.00000000000E+00  0.00000000000E+00  0.45593999997E+02  0.45594000000E+02  0.51100000000E-03 0. -1.
         11   -1    0    0    0    0 -0.00000000000E+00 -0.00000000000E+00 -0.45593999997E+02  0.45594000000E+02  0.51100000000E-03 0.  1.
    9900012    2    1    2    0    0  0.31838651261E+02  0.20322526399E+02 -0.15048626112E+02  0.50528856610E+02  0.29999990153E+02 0.  0.
         12    1    1    2    0    0 -0.31838651261E+02 -0.20322526399E+02  0.15048626112E+02  0.40659143390E+02  0.00000000000E+00 0. -1.
         11    1    3    3    0    0  0.17522453996E+02  0.14988013936E+02  0.32801765348E+01  0.23290266511E+02  0.51100000000E-03 0. -1.
        -11    1    3    3    0    0  0.12249732672E+02  0.62767091587E+01 -0.65506883879E+01  0.15243508357E+02  0.51100000000E-03 0.  1.
         12    1    3    3    0    0  0.20664645931E+01 -0.94219669621E+00 -0.11778114259E+02  0.11995081743E+02  0.00000000000E+00 0. -1.
</event>
<event>
 7    1  0.3250765E-011  0.5052885E+02  0.7816164E-02  0.1300439E+00
        -11   -1    0    0    0    0  0.00000000000E+00  0.00000000000E+00  0.45593999997E+02  0.45594000000E+02  0.51100000000E-03 0.  1.
         11   -1    0    0    0    0 -0.00000000000E+00 -0.00000000000E+00 -0.45593999997E+02  0.45594000000E+02  0.51100000000E-03 0. -1.
    9900012    2    1    2    0    0 -0.24975023627E+01  0.60703096206E+01  0.40125802504E+02  0.50528853384E+02  0.29999980345E+02 0.  0.
         12    1    1    2    0    0  0.24975023627E+01 -0.60703096206E+01 -0.40125802504E+02  0.40659146616E+02  0.00000000000E+00 0. -1.
         11    1    3    3    0    0 -0.15502272032E+01  0.10082646985E+02  0.15379259510E+02  0.18454934244E+02  0.51100000000E-03 0. -1.
        -11    1    3    3    0    0 -0.88181976256E+01  0.15537981148E+01  0.18594199975E+02  0.20637809257E+02  0.51100000000E-03 0.  1.
         12    1    3    3    0    0  0.78709224662E+01 -0.55661354787E+01  0.61523430191E+01  0.11436109883E+02  0.00000000000E+00 0. -1.
</event>
<event>
 7    1  0.3250765E-011  0.5052887E+02  0.7816164E-02  0.1300439E+00
        -11   -1    0    0    0    0  0.00000000000E+00  0.00000000000E+00  0.45593999997E+02  0.45594000000E+02  0.51100000000E-03 0.  1.
         11   -1    0    0    0    0 -0.00000000000E+00 -0.00000000000E+00 -0.45593999997E+02  0.45594000000E+02  0.51100000000E-03 0. -1.
    9900012    2    1    2    0    0 -0.93640734166E+01  0.18750751718E+02  0.34840896751E+02  0.50528872521E+02  0.30000038516E+02 0.  0.
         12    1    1    2    0    0  0.93640734166E+01 -0.18750751718E+02 -0.34840896751E+02  0.40659127479E+02  0.00000000000E+00 0. -1.
         11    1    3    3    0    0 -0.14601296834E+02  0.83279342904E+01  0.12009700950E+02  0.20658782054E+02  0.51100000000E-03 0. -1.
        -11    1    3    3    0    0  0.22377673767E+00 -0.21099976223E+01 -0.11033662292E+01  0.23915650298E+01  0.51100000000E-03 0.  1.
        -12    1    3    3    0    0  0.50134466798E+01  0.12532815050E+02  0.23934562029E+02  0.27478525438E+02  0.00000000000E+00 0.  1.
</event>
<event>
 7    1  0.3250765E-011  0.5052885E+02  0.7816164E-02  0.1300439E+00
        -11   -1    0    0    0    0  0.00000000000E+00  0.00000000000E+00  0.45593999997E+02  0.45594000000E+02  0.51100000000E-03 0.  1.
         11   -1    0    0    0    0 -0.00000000000E+00 -0.00000000000E+00 -0.45593999997E+02  0.45594000000E+02  0.51100000000E-03 0. -1.
    9900012    2    1    2    0    0 -0.18901652981E+01 -0.36999280682E+02  0.16752514352E+02  0.50528853022E+02  0.29999979247E+02 0.  0.
         12    1    1    2    0    0  0.18901652981E+01  0.36999280682E+02 -0.16752514352E+02  0.40659146978E+02  0.00000000000E+00 0. -1.
         11    1    3    3    0    0 -0.86877499555E+01 -0.88292183088E+01 -0.32298802295E+01  0.12800946129E+02  0.51100000000E-03 0. -1.
        -11    1    3    3    0    0 -0.40246201892E+01 -0.49310056279E+01  0.38441396947E+01  0.74357107544E+01  0.51100000000E-03 0.  1.
        -12    1    3    3    0    0  0.10822204847E+02 -0.23239056745E+02  0.16138254887E+02  0.30292196139E+02  0.00000000000E+00 0.  1.
</event>
<event>
 7    1  0.3250765E-011  0.5052887E+02  0.7816164E-02  0.1300439E+00
        -11   -1    0    0    0    0  0.00000000000E+00  0.00000000000E+00  0.45593999997E+02  0.45594000000E+02  0.51100000000E-03 0.  1.
         11   -1    0    0    0    0 -0.00000000000E+00 -0.00000000000E+00 -0.45593999997E+02  0.45594000000E+02  0.51100000000E-03 0. -1.
    9900012    2    1    2    0    0 -0.11489010795E+02 -0.13561111697E+02  0.36568618491E+02  0.50528868456E+02  0.30000026160E+02 0.  0.
         12    1    1    2    0    0  0.11489010795E+02  0.13561111697E+02 -0.36568618491E+02  0.40659131544E+02  0.00000000000E+00 0. -1.
         11    1    3    3    0    0  0.82929559942E+01 -0.10583764540E+01  0.15352163943E+02  0.17480910097E+02  0.51100000000E-03 0. -1.
        -11    1    3    3    0    0 -0.39171327592E+01  0.11688999762E+01  0.17207892301E+01  0.44352420501E+01  0.51100000000E-03 0.  1.
        -12    1    3    3    0    0 -0.15864834030E+02 -0.13671635219E+02  0.19495665319E+02  0.28612716309E+02  0.00000000000E+00 0.  1.
</event>
<event>
 7    1  0.3250765E-011  0.5052886E+02  0.7816164E-02  0.1300439E+00
        -11   -1    0    0    0    0  0.00000000000E+00  0.00000000000E+00  0.45593999997E+02  0.45594000000E+02  0.51100000000E-03 0.  1.
         11   -1    0    0    0    0 -0.00000000000E+00 -0.00000000000E+00 -0.45593999997E+02  0.45594000000E+02  0.51100000000E-03 0. -1.
    9900012    2    1    2    0    0 -0.46580078747E+01 -0.21716421513E+02  0.34056800241E+02  0.50528860273E+02  0.30000001286E+02 0.  0.
         12    1    1    2    0    0  0.46580078747E+01  0.21716421513E+02 -0.34056800241E+02  0.40659139727E+02  0.00000000000E+00 0. -1.
         11    1    3    3    0    0 -0.32024879788E+01 -0.13527830435E+02  0.12155272029E+01  0.13954770947E+02  0.51100000000E-03 0. -1.
        -11    1    3    3    0    0 -0.65017108759E+01 -0.68063306356E+01  0.12970158889E+02  0.16025710683E+02  0.51100000000E-03 0.  1.
        -12    1    3    3    0    0  0.50461909800E+01 -0.13822604425E+01  0.19871114148E+02  0.20548378642E+02  0.00000000000E+00 0.  1.
</event>
<event>
 7    1  0.3250765E-011  0.5052886E+02  0.7816164E-02  0.1300439E+00
        -11   -1    0    0    0    0  0.00000000000E+00  0.00000000000E+00  0.45593999997E+02  0.45594000000E+02  0.51100000000E-03 0.  1.
         11   -1    0    0    0    0 -0.00000000000E+00 -0.00000000000E+00 -0.45593999997E+02  0.45594000000E+02  0.51100000000E-03 0. -1.
    9900012    2    1    2    0    0 -0.23288717699E+02 -0.48096448172E+01  0.32979824997E+02  0.50528856968E+02  0.29999991239E+02 0.  0.
         12    1    1    2    0    0  0.23288717699E+02  0.48096448172E+01 -0.32979824997E+02  0.40659143032E+02  0.00000000000E+00 0. -1.
         11    1    3    3    0    0 -0.50587102417E+01 -0.22525127506E+01  0.35666090965E+00  0.55490152519E+01  0.51100000000E-03 0. -1.
        -11    1    3    3    0    0 -0.24290249554E+02 -0.55989392909E+00  0.28160140147E+02  0.37193053088E+02  0.51100000000E-03 0.  1.
         12    1    3    3    0    0  0.60602420968E+01 -0.19972381376E+01  0.44630239398E+01  0.77867886280E+01  0.00000000000E+00 0. -1.
</event>
<event>
 7    1  0.3250765E-011  0.5052885E+02  0.7816164E-02  0.1300439E+00
        -11   -1    0    0    0    0  0.00000000000E+00  0.00000000000E+00  0.45593999997E+02  0.45594000000E+02  0.51100000000E-03 0.  1.
         11   -1    0    0    0    0 -0.00000000000E+00 -0.00000000000E+00 -0.45593999997E+02  0.45594000000E+02  0.51100000000E-03 0. -1.
    9900012    2    1    2    0    0  0.16945966384E+02 -0.36894787880E+02 -0.21851754817E+01  0.50528854149E+02  0.29999982672E+02 0.  0.
         12    1    1    2    0    0 -0.16945966384E+02  0.36894787880E+02  0.21851754817E+01  0.40659145851E+02  0.00000000000E+00 0. -1.
         11    1    3    3    0    0  0.62352570245E+01 -0.26402010817E+02  0.91755325863E+01  0.28637999299E+02  0.51100000000E-03 0. -1.
        -11    1    3    3    0    0  0.70150526533E+01 -0.96804149190E+01 -0.24408572382E+01  0.12201605675E+02  0.51100000000E-03 0.  1.
         12    1    3    3    0    0  0.36956567065E+01 -0.81236214417E+00 -0.89198508298E+01  0.96892491748E+01  0.00000000000E+00 0. -1.
</event>
<event>
 7    1  0.3250765E-011  0.5052884E+02  0.7816164E-02  0.1300439E+00
        -11   -1    0    0    0    0  0.00000000000E+00  0.00000000000E+00  0.45593999997E+02  0.45594000000E+02  0.51100000000E-03 0.  1.
         11   -1    0    0    0    0 -0.00000000000E+00 -0.00000000000E+00 -0.45593999997E+02  0.45594000000E+02  0.51100000000E-03 0. -1.
    9900012    2    1    2    0    0  0.32495890909E+02 -0.80484243195E+01  0.23073944120E+02  0.50528844116E+02  0.29999952174E+02 0.  0.
         12    1    1    2    0    0 -0.32495890909E+02  0.80484243195E+01 -0.23073944120E+02  0.40659155884E+02  0.00000000000E+00 0. -1.
         11    1    3    3    0    0  0.37359136702E+01  0.69017336731E+01 -0.99450621153E+00  0.79107535363E+01  0.51100000000E-03 0. -1.
        -11    1    3    3    0    0  0.15977616610E+02 -0.32956742224E+01  0.54403180896E+01  0.17197173090E+02  0.51100000000E-03 0.  1.
         12    1    3    3    0    0  0.12782360629E+02 -0.11654483770E+02  0.18628132242E+02  0.25420917490E+02  0.00000000000E+00 0. -1.
</event>
<event>
 7    1  0.3250765E-011  0.5052886E+02  0.7816164E-02  0.1300439E+00
        -11   -1    0    0    0    0  0.00000000000E+00  0.00000000000E+00  0.45593999997E+02  0.45594000000E+02  0.51100000000E-03 0.  1.
         11   -1    0    0    0    0 -0.00000000000E+00 -0.00000000000E+00 -0.45593999997E+02  0.45594000000E+02  0.51100000000E-03 0. -1.
    9900012    2    1    2    0    0  0.35855367009E+02  0.36073477151E+01  0.18829378232E+02  0.50528858525E+02  0.29999995973E+02 0.  0.
         12    1    1    2    0    0 -0.35855367009E+02 -0.36073477151E+01 -0.18829378232E+02  0.40659141475E+02  0.00000000000E+00 0. -1.
         11    1    3    3    0    0  0.60228669828E+01  0.87908904784E+01 -0.24148935804E+01  0.10926408072E+02  0.51100000000E-03 0. -1.
        -11    1    3    3    0    0  0.11234671210E+02 -0.70846032573E+01  0.32920640157E+01  0.13683827179E+02  0.51100000000E-03 0.  1.
        -12    1    3    3    0    0  0.18597828816E+02  0.19010604940E+01  0.17952207797E+02  0.25918623274E+02  0.00000000000E+00 0.  1.
</event>
<event>
 7    1  0.3250765E-011  0.5052885E+02  0.7816164E-02  0.1300439E+00
        -11   -1    0    0    0    0  0.00000000000E+00  0.00000000000E+00  0.45593999997E+02  0.45594000000E+02  0.51100000000E-03 0.  1.
         11   -1    0    0    0    0 -0.00000000000E+00 -0.00000000000E+00 -0.45593999997E+02  0.45594000000E+02  0.51100000000E-03 0. -1.
    9900012    2    1    2    0    0 -0.51037594921E+01  0.10604756297E+01  0.40323607375E+02  0.50528852429E+02  0.29999977443E+02 0.  0.
         12    1    1    2    0    0  0.51037594921E+01 -0.10604756297E+01 -0.40323607375E+02  0.40659147571E+02  0.00000000000E+00 0. -1.
         11    1    3    3    0    0  0.23809291171E+01 -0.79347658990E+00  0.17384783308E+02  0.17564996997E+02  0.51100000000E-03 0. -1.
        -11    1    3    3    0    0 -0.47686601521E+01  0.11693143470E+02  0.16924529098E+02  0.21116567176E+02  0.51100000000E-03 0.  1.
         12    1    3    3    0    0 -0.27160284571E+01 -0.98391912507E+01  0.60142949686E+01  0.11847288256E+02  0.00000000000E+00 0. -1.
</event>
<event>
 7    1  0.3250765E-011  0.5052886E+02  0.7816164E-02  0.1300439E+00
        -11   -1    0    0    0    0  0.00000000000E+00  0.00000000000E+00  0.45593999997E+02  0.45594000000E+02  0.51100000000E-03 0.  1.
         11   -1    0    0    0    0 -0.00000000000E+00 -0.00000000000E+00 -0.45593999997E+02  0.45594000000E+02  0.51100000000E-03 0. -1.
    9900012    2    1    2    0    0  0.18466718820E+02 -0.32487993172E+02  0.16021129113E+02  0.50528856104E+02  0.29999988612E+02 0.  0.
         12    1    1    2    0    0 -0.18466718820E+02  0.32487993172E+02 -0.16021129113E+02  0.40659143896E+02  0.00000000000E+00 0. -1.
         11    1    3    3    0    0  0.69679563049E+01 -0.29792633285E+02  0.11370261778E+02  0.32641021220E+02  0.51100000000E-03 0. -1.
        -11    1    3    3    0    0  0.18607547305E+01 -0.23669233733E+01  0.72919969007E+01  0.78891034651E+01  0.51100000000E-03 0.  1.
         12    1    3    3    0    0  0.96380077849E+01 -0.32843651375E+00 -0.26411295649E+01  0.99987314188E+01  0.00000000000E+00 0. -1.
</event>
<event>
 7    1  0.3250765E-011  0.5052887E+02  0.7816164E-02  0.1300439E+00
        -11   -1    0    0    0    0  0.00000000000E+00  0.00000000000E+00  0.45593999997E+02  0.45594000000E+02  0.51100000000E-03 0. -1.
         11   -1    0    0    0    0 -0.00000000000E+00 -0.00000000000E+00 -0.45593999997E+02  0.45594000000E+02  0.51100000000E-03 0.  1.
    9900012    2    1    2    0    0  0.18098375028E+02  0.35378187145E+02 -0.86022046693E+01  0.50528865362E+02  0.30000016755E+02 0.  0.
         12    1    1    2    0    0 -0.18098375028E+02 -0.35378187145E+02  0.86022046693E+01  0.40659134638E+02  0.00000000000E+00 0. -1.
         11    1    3    3    0    0 -0.26018458811E+00  0.26204193162E+01 -0.74448509458E+01  0.78968410950E+01  0.51100000000E-03 0. -1.
        -11    1    3    3    0    0  0.47322690296E+01  0.23554622077E+02 -0.72518175668E+01  0.25095885113E+02  0.51100000000E-03 0.  1.
        -12    1    3    3    0    0  0.13626290586E+02  0.92031457524E+01  0.60944638433E+01  0.17536139154E+02  0.00000000000E+00 0.  1.
</event>
<event>
 7    1  0.3250765E-011  0.5052893E+02  0.7816164E-02  0.1300439E+00
        -11   -1    0    0    0    0  0.00000000000E+00  0.00000000000E+00  0.45593999997E+02  0.45594000000E+02  0.51100000000E-03 0. -1.
         11   -1    0    0    0    0 -0.00000000000E+00 -0.00000000000E+00 -0.45593999997E+02  0.45594000000E+02  0.51100000000E-03 0.  1.
    9900012    2    1    2    0    0 -0.26784503745E+02  0.28321730512E+02  0.11559841618E+02  0.50528929692E+02  0.30000212291E+02 0.  0.
         12    1    1    2    0    0  0.26784503745E+02 -0.28321730512E+02 -0.11559841618E+02  0.40659070308E+02  0.00000000000E+00 0. -1.
         11    1    3    3    0    0  0.87838428126E+00  0.26075631480E+01 -0.39156344395E+01  0.47857222904E+01  0.51100000000E-03 0. -1.
        -11    1    3    3    0    0 -0.16144845754E+02  0.60767946252E+01 -0.15426968367E+01  0.17319451237E+02  0.51100000000E-03 0.  1.
         12    1    3    3    0    0 -0.11518042272E+02  0.19637372739E+02  0.17018172894E+02  0.28423756165E+02  0.00000000000E+00 0. -1.
</event>
<event>
 7    1  0.3250765E-011  0.5052886E+02  0.7816164E-02  0.1300439E+00
        -11   -1    0    0    0    0  0.00000000000E+00  0.00000000000E+00  0.45593999997E+02  0.45594000000E+02  0.51100000000E-03 0.  1.
         11   -1    0    0    0    0 -0.00000000000E+00 -0.00000000000E+00 -0.45593999997E+02  0.45594000000E+02  0.51100000000E-03 0. -1.
    9900012    2    1    2    0    0  0.22306975627E+02  0.21868963036E+02  0.26025235784E+02  0.50528860763E+02  0.30000002774E+02 0.  0.
         12    1    1    2    0    0 -0.22306975627E+02 -0.21868963036E+02 -0.26025235784E+02  0.40659139237E+02  0.00000000000E+00 0. -1.
         11    1    3    3    0    0  0.20695191518E+01  0.18145812341E+02  0.13369620466E+02  0.22634048836E+02  0.51100000000E-03 0. -1.
        -11    1    3    3    0    0  0.12298542751E+02  0.29451375827E+01  0.14962566079E+02  0.19590976829E+02  0.51100000000E-03 0.  1.
        -12    1    3    3    0    0  0.79389137242E+01  0.77801311207E+00 -0.23069507608E+01  0.83038350980E+01  0.00000000000E+00 0.  1.
</event>
<event>
 7    1  0.3250765E-011  0.5052886E+02  0.7816164E-02  0.1300439E+00
        -11   -1    0    0    0    0  0.00000000000E+00  0.00000000000E+00  0.45593999997E+02  0.45594000000E+02  0.51100000000E-03 0.  1.
         11   -1    0    0    0    0 -0.00000000000E+00 -0.00000000000E+00 -0.45593999997E+02  0.45594000000E+02  0.51100000000E-03 0. -1.
    9900012    2    1    2    0    0 -0.30215839180E+02  0.79782188212E+01  0.26009931339E+02  0.50528862760E+02  0.30000008845E+02 0.  0.
         12    1    1    2    0    0  0.30215839180E+02 -0.79782188212E+01 -0.26009931339E+02  0.40659137240E+02  0.00000000000E+00 0. -1.
         11    1    3    3    0    0 -0.92112268834E+01 -0.29039983765E+01  0.10169736965E+02  0.14025100979E+02  0.51100000000E-03 0. -1.
        -11    1    3    3    0    0 -0.58971051330E+00 -0.50939026053E+01 -0.14676382143E+01  0.53338133105E+01  0.51100000000E-03 0.  1.
        -12    1    3    3    0    0 -0.20414901783E+02  0.15976119803E+02  0.17307832588E+02  0.31169948471E+02  0.00000000000E+00 0.  1.
</event>
<event>
 7    1  0.3250765E-011  0.5052887E+02  0.7816164E-02  0.1300439E+00
        -11   -1    0    0    0    0  0.00000000000E+00  0.00000000000E+00  0.45593999997E+02  0.45594000000E+02  0.51100000000E-03 0.  1.
         11   -1    0    0    0    0 -0.00000000000E+00 -0.00000000000E+00 -0.45593999997E+02  0.45594000000E+02  0.51100000000E-03 0. -1.
    9900012    2    1    2    0    0  0.48066809552E+01  0.15015944001E+02  0.37477759727E+02  0.50528865353E+02  0.30000016728E+02 0.  0.
         12    1    1    2    0    0 -0.48066809552E+01 -0.15015944001E+02 -0.37477759727E+02  0.40659134647E+02  0.00000000000E+00 0. -1.
         11    1    3    3    0    0  0.65310946874E+01 -0.24442625596E+01  0.42335715995E+01  0.81579866404E+01  0.51100000000E-03 0. -1.
        -11    1    3    3    0    0 -0.29401938952E+01  0.83884318986E+00 -0.18125185245E+01  0.35543806354E+01  0.51100000000E-03 0.  1.
        -12    1    3    3    0    0  0.12157801629E+01  0.16621363371E+02  0.35056706652E+02  0.38816498078E+02  0.00000000000E+00 0.  1.
</event>
<event>
 7    1  0.3250765E-011  0.5052879E+02  0.7816164E-02  0.1300439E+00
        -11   -1    0    0    0    0  0.00000000000E+00  0.00000000000E+00  0.45593999997E+02  0.45594000000E+02  0.51100000000E-03 0. -1.
         11   -1    0    0    0    0 -0.00000000000E+00 -0.00000000000E+00 -0.45593999997E+02  0.45594000000E+02  0.51100000000E-03 0.  1.
    9900012    2    1    2    0    0  0.35010598468E+02  0.20078004589E+02  0.49297799396E+01  0.50528794356E+02  0.29999800923E+02 0.  0.
         12    1    1    2    0    0 -0.35010598468E+02 -0.20078004589E+02 -0.49297799396E+01  0.40659205644E+02  0.00000000000E+00 0. -1.
         11    1    3    3    0    0  0.14003106451E+02  0.44658284466E+01  0.78962734425E+01  0.16684775951E+02  0.51100000000E-03 0. -1.
        -11    1    3    3    0    0  0.19052899312E+02  0.24070513660E+01 -0.60665928255E+01  0.20139772026E+02  0.51100000000E-03 0.  1.
         12    1    3    3    0    0  0.19545927051E+01  0.13205124777E+02  0.31000993227E+01  0.13704246379E+02  0.00000000000E+00 0. -1.
</event>
<event>
 7    1  0.3250765E-011  0.5052886E+02  0.7816164E-02  0.1300439E+00
        -11   -1    0    0    0    0  0.00000000000E+00  0.00000000000E+00  0.45593999997E+02  0.45594000000E+02  0.51100000000E-03 0.  1.
         11   -1    0    0    0    0 -0.00000000000E+00 -0.00000000000E+00 -0.45593999997E+02  0.45594000000E+02  0.51100000000E-03 0. -1.
    9900012    2    1    2    0    0 -0.27582070888E+02 -0.12182530916E+01  0.29848125201E+02  0.50528863842E+02  0.30000012135E+02 0.  0.
         12    1    1    2    0    0  0.27582070888E+02  0.12182530916E+01 -0.29848125201E+02  0.40659136158E+02  0.00000000000E+00 0. -1.
         11    1    3    3    0    0 -0.49151967402E+01  0.45195295852E+01  0.16968473316E+01  0.68894555514E+01  0.51100000000E-03 0. -1.
        -11    1    3    3    0    0  0.11950570587E+00  0.19274280897E+01  0.17049945742E+02  0.17158960071E+02  0.51100000000E-03 0.  1.
        -12    1    3    3    0    0 -0.22786379854E+02 -0.76652107664E+01  0.11101332128E+02  0.26480448220E+02  0.00000000000E+00 0.  1.
</event>
<event>
 7    1  0.3250765E-011  0.5052887E+02  0.7816164E-02  0.1300439E+00
        -11   -1    0    0    0    0  0.00000000000E+00  0.00000000000E+00  0.45593999997E+02  0.45594000000E+02  0.51100000000E-03 0. -1.
         11   -1    0    0    0    0 -0.00000000000E+00 -0.00000000000E+00 -0.45593999997E+02  0.45594000000E+02  0.51100000000E-03 0.  1.
    9900012    2    1    2    0    0 -0.14976127476E+02 -0.35571062697E+02 -0.12789841422E+02  0.50528868932E+02  0.30000027606E+02 0.  0.
         12    1    1    2    0    0  0.14976127476E+02  0.35571062697E+02  0.12789841422E+02  0.40659131068E+02  0.00000000000E+00 0. -1.
         11    1    3    3    0    0  0.17081518609E+01 -0.93790400008E+01 -0.23480330278E+01  0.98182194657E+01  0.51100000000E-03 0. -1.
        -11    1    3    3    0    0 -0.19146434075E+02 -0.17294195775E+02 -0.15585040663E+02  0.30142472327E+02  0.51100000000E-03 0.  1.
         12    1    3    3    0    0  0.24621547375E+01 -0.88978269213E+01  0.51432322689E+01  0.10568177139E+02  0.00000000000E+00 0. -1.
</event>
<event>
 7    1  0.3250765E-011  0.5052887E+02  0.7816164E-02  0.1300439E+00
        -11   -1    0    0    0    0  0.00000000000E+00  0.00000000000E+00  0.45593999997E+02  0.45594000000E+02  0.51100000000E-03 0.  1.
         11   -1    0    0    0    0 -0.00000000000E+00 -0.00000000000E+00 -0.45593999997E+02  0.45594000000E+02  0.51100000000E-03 0. -1.
    9900012    2    1    2    0    0 -0.17513098092E+02 -0.18339816741E+02  0.31782192679E+02  0.50528865056E+02  0.30000015826E+02 0.  0.
         12    1    1    2    0    0  0.17513098092E+02  0.18339816741E+02 -0.31782192679E+02  0.40659134944E+02  0.00000000000E+00 0. -1.
         11    1    3    3    0    0 -0.11379944905E+02 -0.13962970848E+02  0.17015469937E+02  0.24778900669E+02  0.51100000000E-03 0. -1.
        -11    1    3    3    0    0 -0.12287627013E+02 -0.46786368922E+00  0.43667086450E+01  0.13048862736E+02  0.51100000000E-03 0.  1.
         12    1    3    3    0    0  0.61544738260E+01 -0.39089822038E+01  0.10400014097E+02  0.12701101651E+02  0.00000000000E+00 0. -1.
</event>
<event>
 7    1  0.3250765E-011  0.5052887E+02  0.7816164E-02  0.1300439E+00
        -11   -1    0    0    0    0  0.00000000000E+00  0.00000000000E+00  0.45593999997E+02  0.45594000000E+02  0.51100000000E-03 0. -1.
         11   -1    0    0    0    0 -0.00000000000E+00 -0.00000000000E+00 -0.45593999997E+02  0.45594000000E+02  0.51100000000E-03 0.  1.
    9900012    2    1    2    0    0 -0.19551505591E+02  0.23442790679E+02 -0.26857759755E+02  0.50528867388E+02  0.30000022912E+02 0.  0.
         12    1    1    2    0    0  0.19551505591E+02 -0.23442790679E+02  0.26857759755E+02  0.40659132612E+02  0.00000000000E+00 0. -1.
         11    1    3    3    0    0 -0.82409914136E+01  0.20409085577E+02 -0.26407726158E+02  0.34377503031E+02  0.51100000000E-03 0. -1.
        -11    1    3    3    0    0 -0.78268137185E+01  0.72131146604E+01 -0.95838523653E+00  0.10686745932E+02  0.51100000000E-03 0.  1.
         12    1    3    3    0    0 -0.34837004593E+01 -0.41794095581E+01  0.50835163927E+00  0.54646184253E+01  0.00000000000E+00 0. -1.
</event>
<event>
 7    1  0.3250765E-011  0.5052885E+02  0.7816164E-02  0.1300439E+00
        -11   -1    0    0    0    0  0.00000000000E+00  0.00000000000E+00  0.45593999997E+02  0.45594000000E+02  0.51100000000E-03 0. -1.
         11   -1    0    0    0    0 -0.00000000000E+00 -0.00000000000E+00 -0.45593999997E+02  0.45594000000E+02  0.51100000000E-03 0.  1.
    9900012    2    1    2    0    0 -0.19311915615E+02 -0.18787366100E+02 -0.30450802084E+02  0.50528849034E+02  0.29999967124E+02 0.  0.
         12    1    1    2    0    0  0.19311915615E+02  0.18787366100E+02  0.30450802084E+02  0.40659150966E+02  0.00000000000E+00 0. -1.
         11    1    3    3    0    0 -0.12254171437E+02  0.16891760833E+01 -0.14153027318E+02  0.18796973585E+02  0.51100000000E-03 0. -1.
        -11    1    3    3    0    0 -0.91462787940E+01 -0.52698389585E+01 -0.19772515548E+01  0.10739420022E+02  0.51100000000E-03 0.  1.
         12    1    3    3    0    0  0.20885346162E+01 -0.15206703225E+02 -0.14320523212E+02  0.20992455427E+02  0.00000000000E+00 0. -1.
</event>
<event>
 7    1  0.3250765E-011  0.5052881E+02  0.7816164E-02  0.1300439E+00
        -11   -1    0    0    0    0  0.00000000000E+00  0.00000000000E+00  0.45593999997E+02  0.45594000000E+02  0.51100000000E-03 0.  1.
         11   -1    0    0    0    0 -0.00000000000E+00 -0.00000000000E+00 -0.45593999997E+02  0.45594000000E+02  0.51100000000E-03 0. -1.
    9900012    2    1    2    0    0  0.29195891859E+02  0.21012697171E+02  0.18953520771E+02  0.50528812926E+02  0.29999857371E+02 0.  0.
         12    1    1    2    0    0 -0.29195891859E+02 -0.21012697171E+02 -0.18953520771E+02  0.40659187074E+02  0.00000000000E+00 0. -1.
         11    1    3    3    0    0  0.16833684588E+02 -0.15458741534E+01  0.62625985168E+01  0.18027279444E+02  0.51100000000E-03 0. -1.
        -11    1    3    3    0    0  0.75477398920E+01  0.10711200463E+01  0.52574918792E+01  0.92605019708E+01  0.51100000000E-03 0.  1.
        -12    1    3    3    0    0  0.48144673791E+01  0.21487451278E+02  0.74334303752E+01  0.23241031512E+02  0.00000000000E+00 0.  1.
</event>
<event>
 7    1  0.3250765E-011  0.5052886E+02  0.7816164E-02  0.1300439E+00
        -11   -1    0    0    0    0  0.00000000000E+00  0.00000000000E+00  0.45593999997E+02  0.45594000000E+02  0.51100000000E-03 0.  1.
         11   -1    0    0    0    0 -0.00000000000E+00 -0.00000000000E+00 -0.45593999997E+02  0.45594000000E+02  0.51100000000E-03 0. -1.
    9900012    2    1    2    0    0  0.80315903492E+01 -0.37694782571E+02 -0.12952313168E+02  0.50528862122E+02  0.30000006906E+02 0.  0.
         12    1    1    2    0    0 -0.80315903492E+01  0.37694782571E+02  0.12952313168E+02  0.40659137878E+02  0.00000000000E+00 0. -1.
         11    1    3    3    0    0  0.81645929993E+01 -0.19911925026E+02  0.56377589188E+01  0.22247014698E+02  0.51100000000E-03 0.  1.
        -11    1    3    3    0    0  0.42161897874E+01 -0.11608713142E+02 -0.63197255551E+01  0.13873622760E+02  0.51100000000E-03 0. -1.
        -12    1    3    3    0    0 -0.43491924374E+01 -0.61741444028E+01 -0.12270346532E+02  0.14408224664E+02  0.00000000000E+00 0.  1.
</event>
<event>
 7    1  0.3250765E-011  0.5052887E+02  0.7816164E-02  0.1300439E+00
        -11   -1    0    0    0    0  0.00000000000E+00  0.00000000000E+00  0.45593999997E+02  0.45594000000E+02  0.51100000000E-03 0. -1.
         11   -1    0    0    0    0 -0.00000000000E+00 -0.00000000000E+00 -0.45593999997E+02  0.45594000000E+02  0.51100000000E-03 0.  1.
    9900012    2    1    2    0    0 -0.24797386130E+02  0.11202957292E+02 -0.30211729624E+02  0.50528865505E+02  0.30000017190E+02 0.  0.
         12    1    1    2    0    0  0.24797386130E+02 -0.11202957292E+02  0.30211729624E+02  0.40659134495E+02  0.00000000000E+00 0. -1.
         11    1    3    3    0    0  0.52761222709E+01  0.16513868316E+01 -0.19839803459E+01  0.58737316043E+01  0.51100000000E-03 0. -1.
        -11    1    3    3    0    0 -0.10546161826E+02  0.52997289984E+01 -0.24784521797E+01  0.12060322640E+02  0.51100000000E-03 0.  1.
        -12    1    3    3    0    0 -0.19527346575E+02  0.42518414620E+01 -0.25749297099E+02  0.32594811261E+02  0.00000000000E+00 0.  1.
</event>
<event>
 7    1  0.3250765E-011  0.5052887E+02  0.7816164E-02  0.1300439E+00
        -11   -1    0    0    0    0  0.00000000000E+00  0.00000000000E+00  0.45593999997E+02  0.45594000000E+02  0.51100000000E-03 0.  1.
         11   -1    0    0    0    0 -0.00000000000E+00 -0.00000000000E+00 -0.45593999997E+02  0.45594000000E+02  0.51100000000E-03 0. -1.
    9900012    2    1    2    0    0 -0.21908372755E+02 -0.32252416283E+02  0.11531263754E+02  0.50528865766E+02  0.30000017984E+02 0.  0.
         12    1    1    2    0    0  0.21908372755E+02  0.32252416283E+02 -0.11531263754E+02  0.40659134234E+02  0.00000000000E+00 0. -1.
         11    1    3    3    0    0 -0.47174932208E+01 -0.11450951356E+02  0.30599475464E+01  0.12757049365E+02  0.51100000000E-03 0. -1.
        -11    1    3    3    0    0 -0.12388645086E+01 -0.18119619949E+02 -0.23452260482E+01  0.18312714104E+02  0.51100000000E-03 0.  1.
         12    1    3    3    0    0 -0.15952015026E+02 -0.26818449776E+01  0.10816542256E+02  0.19459102298E+02  0.00000000000E+00 0. -1.
</event>
<event>
 7    1  0.3250765E-011  0.5052886E+02  0.7816164E-02  0.1300439E+00
        -11   -1    0    0    0    0  0.00000000000E+00  0.00000000000E+00  0.45593999997E+02  0.45594000000E+02  0.51100000000E-03 0.  1.
         11   -1    0    0    0    0 -0.00000000000E+00 -0.00000000000E+00 -0.45593999997E+02  0.45594000000E+02  0.51100000000E-03 0. -1.
    9900012    2    1    2    0    0 -0.19728575024E+02  0.49970885442E+01  0.35199124248E+02  0.50528856942E+02  0.29999991162E+02 0.  0.
         12    1    1    2    0    0  0.19728575024E+02 -0.49970885442E+01 -0.35199124248E+02  0.40659143058E+02  0.00000000000E+00 0. -1.
         11    1    3    3    0    0 -0.12057204141E+02  0.63924886136E+01  0.49025927090E+00  0.13655784004E+02  0.51100000000E-03 0. -1.
        -11    1    3    3    0    0 -0.44709928906E+01 -0.44239251647E+01  0.10291482078E+02  0.12061322270E+02  0.51100000000E-03 0.  1.
        -12    1    3    3    0    0 -0.32003779925E+01  0.30285250953E+01  0.24417382899E+02  0.24811750668E+02  0.00000000000E+00 0.  1.
</event>
<event>
 7    1  0.3250765E-011  0.5052886E+02  0.7816164E-02  0.1300439E+00
        -11   -1    0    0    0    0  0.00000000000E+00  0.00000000000E+00  0.45593999997E+02  0.45594000000E+02  0.51100000000E-03 0.  1.
         11   -1    0    0    0    0 -0.00000000000E+00 -0.00000000000E+00 -0.45593999997E+02  0.45594000000E+02  0.51100000000E-03 0. -1.
    9900012    2    1    2    0    0  0.38438460442E+02 -0.12874209893E+02 -0.31472486108E+01  0.50528859633E+02  0.29999999341E+02 0.  0.
         12    1    1    2    0    0 -0.38438460442E+02  0.12874209893E+02  0.31472486108E+01  0.40659140367E+02  0.00000000000E+00 0. -1.
         11    1    3    3    0    0  0.64190402347E+01  0.34380082174E+01 -0.14409358410E+01  0.74229559070E+01  0.51100000000E-03 0. -1.
        -11    1    3    3    0    0  0.23090367531E+02 -0.42237327299E+01  0.84713148922E+01  0.24955323423E+02  0.51100000000E-03 0.  1.
         12    1    3    3    0    0  0.89290526765E+01 -0.12088485381E+02 -0.10177627662E+02  0.18150580303E+02  0.00000000000E+00 0. -1.
</event>
<event>
 7    1  0.3250765E-011  0.5052886E+02  0.7816164E-02  0.1300439E+00
        -11   -1    0    0    0    0  0.00000000000E+00  0.00000000000E+00  0.45593999997E+02  0.45594000000E+02  0.51100000000E-03 0.  1.
         11   -1    0    0    0    0 -0.00000000000E+00 -0.00000000000E+00 -0.45593999997E+02  0.45594000000E+02  0.51100000000E-03 0. -1.
    9900012    2    1    2    0    0  0.24187863686E+02 -0.29499125891E+02  0.14068212670E+02  0.50528858521E+02  0.29999995961E+02 0.  0.
         12    1    1    2    0    0 -0.24187863686E+02  0.29499125891E+02 -0.14068212670E+02  0.40659141479E+02  0.00000000000E+00 0. -1.
         11    1    3    3    0    0 -0.29177250338E+01 -0.15248415746E+01  0.83109515439E+01  0.89392492429E+01  0.51100000000E-03 0. -1.
        -11    1    3    3    0    0 -0.11813050313E+01  0.98944504345E-01 -0.42643903035E+00  0.12598103427E+01  0.51100000000E-03 0.  1.
        -12    1    3    3    0    0  0.28286893751E+02 -0.28073228821E+02  0.61837001569E+01  0.40329798935E+02  0.00000000000E+00 0.  1.
</event>
<event>
 7    1  0.3250765E-011  0.5052886E+02  0.7816164E-02  0.1300439E+00
        -11   -1    0    0    0    0  0.00000000000E+00  0.00000000000E+00  0.45593999997E+02  0.45594000000E+02  0.51100000000E-03 0.  1.
         11   -1    0    0    0    0 -0.00000000000E+00 -0.00000000000E+00 -0.45593999997E+02  0.45594000000E+02  0.51100000000E-03 0. -1.
    9900012    2    1    2    0    0  0.20379520420E+02  0.16547008887E+02  0.31048944952E+02  0.50528864024E+02  0.30000012687E+02 0.  0.
         12    1    1    2    0    0 -0.20379520420E+02 -0.16547008887E+02 -0.31048944952E+02  0.40659135976E+02  0.00000000000E+00 0. -1.
         11    1    3    3    0    0  0.70667187134E+00  0.47421438129E+01 -0.16353726701E+01  0.50657434901E+01  0.51100000000E-03 0. -1.
        -11    1    3    3    0    0  0.16085242745E+02  0.28528104189E+01  0.65400071056E+01  0.17596739887E+02  0.51100000000E-03 0.  1.
        -12    1    3    3    0    0  0.35876058041E+01  0.89520546555E+01  0.26144310517E+02  0.27866380647E+02  0.00000000000E+00 0.  1.
</event>
<event>
 7    1  0.3250765E-011  0.5052886E+02  0.7816164E-02  0.1300439E+00
        -11   -1    0    0    0    0  0.00000000000E+00  0.00000000000E+00  0.45593999997E+02  0.45594000000E+02  0.51100000000E-03 0.  1.
         11   -1    0    0    0    0 -0.00000000000E+00 -0.00000000000E+00 -0.45593999997E+02  0.45594000000E+02  0.51100000000E-03 0. -1.
    9900012    2    1    2    0    0 -0.13018394338E+02 -0.62788196336E+01  0.38003464000E+02  0.50528862735E+02  0.30000008770E+02 0.  0.
         12    1    1    2    0    0  0.13018394338E+02  0.62788196336E+01 -0.38003464000E+02  0.40659137265E+02  0.00000000000E+00 0. -1.
         11    1    3    3    0    0 -0.33222917509E-01 -0.10684118345E+01 -0.63624999381E+00  0.12439541495E+01  0.51100000000E-03 0. -1.
        -11    1    3    3    0    0 -0.14086762957E+02 -0.10458931799E+02  0.40063001730E+02  0.43736372196E+02  0.51100000000E-03 0.  1.
         12    1    3    3    0    0  0.11015915359E+01  0.52485239995E+01 -0.14232877366E+01  0.55485363895E+01  0.00000000000E+00 0. -1.
</event>
<event>
 7    1  0.3250765E-011  0.5052886E+02  0.7816164E-02  0.1300439E+00
        -11   -1    0    0    0    0  0.00000000000E+00  0.00000000000E+00  0.45593999997E+02  0.45594000000E+02  0.51100000000E-03 0.  1.
         11   -1    0    0    0    0 -0.00000000000E+00 -0.00000000000E+00 -0.45593999997E+02  0.45594000000E+02  0.51100000000E-03 0. -1.
    9900012    2    1    2    0    0 -0.11209053657E+02  0.38952306253E+02  0.32000426654E+01  0.50528864257E+02  0.30000013396E+02 0.  0.
         12    1    1    2    0    0  0.11209053657E+02 -0.38952306253E+02 -0.32000426654E+01  0.40659135743E+02  0.00000000000E+00 0. -1.
         11    1    3    3    0    0 -0.11345031411E+02  0.20011241543E+02 -0.11371306740E+02  0.25660595142E+02  0.51100000000E-03 0. -1.
        -11    1    3    3    0    0  0.22047796036E+01  0.59051576669E+01  0.19302128916E+01  0.65922425805E+01  0.51100000000E-03 0.  1.
        -12    1    3    3    0    0 -0.20688018488E+01  0.13035907043E+02  0.12641136514E+02  0.18276026534E+02  0.00000000000E+00 0.  1.
</event>
<event>
 7    1  0.3250765E-011  0.5052885E+02  0.7816164E-02  0.1300439E+00
        -11   -1    0    0    0    0  0.00000000000E+00  0.00000000000E+00  0.45593999997E+02  0.45594000000E+02  0.51100000000E-03 0. -1.
         11   -1    0    0    0    0 -0.00000000000E+00 -0.00000000000E+00 -0.45593999997E+02  0.45594000000E+02  0.51100000000E-03 0.  1.
    9900012    2    1    2    0    0  0.28134431961E+02 -0.25981832036E+01 -0.29238149714E+02  0.50528853226E+02  0.29999979866E+02 0.  0.
         12    1    1    2    0    0 -0.28134431961E+02  0.25981832036E+01  0.29238149714E+02  0.40659146774E+02  0.00000000000E+00 0. -1.
         11    1    3    3    0    0  0.23617669593E+01  0.71741599521E+01 -0.41543095004E+01  0.86200233106E+01  0.51100000000E-03 0. -1.
        -11    1    3    3    0    0  0.68966386418E+01 -0.11514089865E+01 -0.19057955736E+02  0.20300124244E+02  0.51100000000E-03 0.  1.
        -12    1    3    3    0    0  0.18876026360E+02 -0.86209341693E+01 -0.60258844774E+01  0.21608705672E+02  0.00000000000E+00 0.  1.
</event>
<event>
 7    1  0.3250765E-011  0.5052886E+02  0.7816164E-02  0.1300439E+00
        -11   -1    0    0    0    0  0.00000000000E+00  0.00000000000E+00  0.45593999997E+02  0.45594000000E+02  0.51100000000E-03 0.  1.
         11   -1    0    0    0    0 -0.00000000000E+00 -0.00000000000E+00 -0.45593999997E+02  0.45594000000E+02  0.51100000000E-03 0. -1.
    9900012    2    1    2    0    0  0.33864188658E+02 -0.15414150854E+02  0.16394694540E+02  0.50528864137E+02  0.30000013032E+02 0.  0.
         12    1    1    2    0    0 -0.33864188658E+02  0.15414150854E+02 -0.16394694540E+02  0.40659135863E+02  0.00000000000E+00 0. -1.
         11    1    3    3    0    0 -0.10894521887E+01 -0.76965607494E+01  0.24086503719E+01  0.81379082273E+01  0.51100000000E-03 0. -1.
        -11    1    3    3    0    0  0.12099657092E+02 -0.72470159730E+01 -0.23452477804E+01  0.14297591744E+02  0.51100000000E-03 0.  1.
        -12    1    3    3    0    0  0.22853983754E+02 -0.47057413197E+00  0.16331291949E+02  0.28093364166E+02  0.00000000000E+00 0.  1.
</event>
<event>
 7    1  0.3250765E-011  0.5052886E+02  0.7816164E-02  0.1300439E+00
        -11   -1    0    0    0    0  0.00000000000E+00  0.00000000000E+00  0.45593999997E+02  0.45594000000E+02  0.51100000000E-03 0. -1.
         11   -1    0    0    0    0 -0.00000000000E+00 -0.00000000000E+00 -0.45593999997E+02  0.45594000000E+02  0.51100000000E-03 0.  1.
    9900012    2    1    2    0    0  0.70950308832E+00  0.38333301162E+02 -0.13535892892E+02  0.50528858728E+02  0.29999996588E+02 0.  0.
         12    1    1    2    0    0 -0.70950308832E+00 -0.38333301162E+02  0.13535892892E+02  0.40659141272E+02  0.00000000000E+00 0. -1.
         11    1    3    3    0    0 -0.65381150755E+01  0.17611755099E+02 -0.11239535091E+01  0.18819780503E+02  0.51100000000E-03 0. -1.
        -11    1    3    3    0    0 -0.50194794238E+01  0.13344186648E+02 -0.29760776060E+01  0.14564323848E+02  0.51100000000E-03 0.  1.
         12    1    3    3    0    0  0.12267097588E+02  0.73773594153E+01 -0.94358617768E+01  0.17144754377E+02  0.00000000000E+00 0. -1.
</event>
<event>
 7    1  0.3250765E-011  0.5052886E+02  0.7816164E-02  0.1300439E+00
        -11   -1    0    0    0    0  0.00000000000E+00  0.00000000000E+00  0.45593999997E+02  0.45594000000E+02  0.51100000000E-03 0.  1.
         11   -1    0    0    0    0 -0.00000000000E+00 -0.00000000000E+00 -0.45593999997E+02  0.45594000000E+02  0.51100000000E-03 0. -1.
    9900012    2    1    2    0    0  0.70522446264E+01 -0.39473278819E+02  0.67299169183E+01  0.50528859862E+02  0.30000000038E+02 0.  0.
         12    1    1    2    0    0 -0.70522446264E+01  0.39473278819E+02 -0.67299169183E+01  0.40659140138E+02  0.00000000000E+00 0. -1.
         11    1    3    3    0    0  0.14145711089E+01 -0.56664461520E+01  0.15788341117E+01  0.60499868453E+01  0.51100000000E-03 0.  1.
        -11    1    3    3    0    0  0.12232306666E+02 -0.31399742114E+02 -0.28691583546E+01  0.33820189253E+02  0.51100000000E-03 0. -1.
         12    1    3    3    0    0 -0.65946331487E+01 -0.24070905533E+01  0.80202411613E+01  0.10658683764E+02  0.00000000000E+00 0. -1.
</event>
<event>
 7    1  0.3250765E-011  0.5052887E+02  0.7816164E-02  0.1300439E+00
        -11   -1    0    0    0    0  0.00000000000E+00  0.00000000000E+00  0.45593999997E+02  0.45594000000E+02  0.51100000000E-03 0.  1.
         11   -1    0    0    0    0 -0.00000000000E+00 -0.00000000000E+00 -0.45593999997E+02  0.45594000000E+02  0.51100000000E-03 0. -1.
    9900012    2    1    2    0    0 -0.14389785967E+02 -0.49203062636E+01  0.37707954795E+02  0.50528865618E+02  0.30000017531E+02 0.  0.
         12    1    1    2    0    0  0.14389785967E+02  0.49203062636E+01 -0.37707954795E+02  0.40659134382E+02  0.00000000000E+00 0. -1.
         11    1    3    3    0    0 -0.27235814163E+01  0.56680475548E+01  0.20208685952E+02  0.21164490237E+02  0.51100000000E-03 0. -1.
        -11    1    3    3    0    0 -0.14057800004E+02 -0.73400907160E+01  0.19272136161E+02  0.24958243230E+02  0.51100000000E-03 0.  1.
         12    1    3    3    0    0  0.23915954533E+01 -0.32482631024E+01 -0.17728673185E+01  0.44061321501E+01  0.00000000000E+00 0. -1.
</event>
<event>
 7    1  0.3250765E-011  0.5052886E+02  0.7816164E-02  0.1300439E+00
        -11   -1    0    0    0    0  0.00000000000E+00  0.00000000000E+00  0.45593999997E+02  0.45594000000E+02  0.51100000000E-03 0.  1.
         11   -1    0    0    0    0 -0.00000000000E+00 -0.00000000000E+00 -0.45593999997E+02  0.45594000000E+02  0.51100000000E-03 0. -1.
    9900012    2    1    2    0    0 -0.23641582822E+02 -0.29916688805E+02  0.14114979256E+02  0.50528863920E+02  0.30000012372E+02 0.  0.
         12    1    1    2    0    0  0.23641582822E+02  0.29916688805E+02 -0.14114979256E+02  0.40659136080E+02  0.00000000000E+00 0. -1.
         11    1    3    3    0    0 -0.18764645480E+01  0.14995702889E+01 -0.11426091924E+00  0.24047632046E+01  0.51100000000E-03 0. -1.
        -11    1    3    3    0    0  0.22338039594E+01  0.30313544045E+01  0.25465675217E+01  0.45457668285E+01  0.51100000000E-03 0.  1.
        -12    1    3    3    0    0 -0.23998922233E+02 -0.34447613498E+02  0.11682672653E+02  0.43578333887E+02  0.00000000000E+00 0.  1.
</event>
<event>
 7    1  0.3250765E-011  0.5052879E+02  0.7816164E-02  0.1300439E+00
        -11   -1    0    0    0    0  0.00000000000E+00  0.00000000000E+00  0.45593999997E+02  0.45594000000E+02  0.51100000000E-03 0.  1.
         11   -1    0    0    0    0 -0.00000000000E+00 -0.00000000000E+00 -0.45593999997E+02  0.45594000000E+02  0.51100000000E-03 0. -1.
    9900012    2    1    2    0    0  0.17599460884E+02  0.31563697822E+02  0.18632314553E+02  0.50528792073E+02  0.29999793986E+02 0.  0.
         12    1    1    2    0    0 -0.17599460884E+02 -0.31563697822E+02 -0.18632314553E+02  0.40659207927E+02  0.00000000000E+00 0. -1.
         11    1    3    3    0    0  0.11805281675E+02  0.28714796978E+01  0.43578739203E+00  0.12157301592E+02  0.51100000000E-03 0. -1.
        -11    1    3    3    0    0  0.10435113994E+02  0.18903136318E+02  0.67767790322E+01  0.22630618662E+02  0.51100000000E-03 0.  1.
         12    1    3    3    0    0 -0.46409347855E+01  0.97890818063E+01  0.11419748129E+02  0.15740871819E+02  0.00000000000E+00 0. -1.
</event>
<event>
 7    1  0.3250765E-011  0.5052887E+02  0.7816164E-02  0.1300439E+00
        -11   -1    0    0    0    0  0.00000000000E+00  0.00000000000E+00  0.45593999997E+02  0.45594000000E+02  0.51100000000E-03 0. -1.
         11   -1    0    0    0    0 -0.00000000000E+00 -0.00000000000E+00 -0.45593999997E+02  0.45594000000E+02  0.51100000000E-03 0.  1.
    9900012    2    1    2    0    0  0.20518773786E+02 -0.29044646411E+01 -0.34981552499E+02  0.50528868088E+02  0.30000025041E+02 0.  0.
         12    1    1    2    0    0 -0.20518773786E+02  0.29044646411E+01  0.34981552499E+02  0.40659131912E+02  0.00000000000E+00 0. -1.
         11    1    3    3    0    0 -0.15128870811E+01 -0.42315517386E+01 -0.43392196163E+01  0.62468939943E+01  0.51100000000E-03 0. -1.
        -11    1    3    3    0    0  0.21118038898E+02 -0.52900906149E+01 -0.30658669396E+02  0.37602003071E+02  0.51100000000E-03 0.  1.
        -12    1    3    3    0    0  0.91362196961E+00  0.66171777125E+01  0.16336512663E-01  0.66799710227E+01  0.00000000000E+00 0.  1.
</event>
<event>
 7    1  0.3594868E-011  0.5052887E+02  0.7816164E-02  0.1300439E+00
        -11   -1    0    0    0    0  0.00000000000E+00  0.00000000000E+00  0.45593999997E+02  0.45594000000E+02  0.51100000000E-03 0. -1.
         11   -1    0    0    0    0 -0.00000000000E+00 -0.00000000000E+00 -0.45593999997E+02  0.45594000000E+02  0.51100000000E-03 0.  1.
    9900012    2    1    2    0    0  0.37417858811E+02 -0.15907990395E+02  0.66652144128E-01  0.50528871149E+02  0.30000034345E+02 0.  0.
         12    1    1    2    0    0 -0.37417858811E+02  0.15907990395E+02 -0.66652144128E-01  0.40659128851E+02  0.00000000000E+00 0. -1.
         11    1    3    3    0    0  0.12910948876E+02 -0.64542475095E+01 -0.11304558121E+02  0.18334201547E+02  0.51100000000E-03 0. -1.
        -11    1    3    3    0    0  0.16094296373E+02 -0.10889077413E+02  0.20231522718E+01  0.19536927292E+02  0.51100000000E-03 0.  1.
         12    1    3    3    0    0  0.84126135621E+01  0.14353345268E+01  0.93480579932E+01  0.12657742310E+02  0.00000000000E+00 0. -1.
</event>
<event>
 7    1  0.3250765E-011  0.5052885E+02  0.7816164E-02  0.1300439E+00
        -11   -1    0    0    0    0  0.00000000000E+00  0.00000000000E+00  0.45593999997E+02  0.45594000000E+02  0.51100000000E-03 0.  1.
         11   -1    0    0    0    0 -0.00000000000E+00 -0.00000000000E+00 -0.45593999997E+02  0.45594000000E+02  0.51100000000E-03 0. -1.
    9900012    2    1    2    0    0 -0.10185350440E+02  0.34939603226E+02  0.18128681993E+02  0.50528851608E+02  0.29999974947E+02 0.  0.
         12    1    1    2    0    0  0.10185350440E+02 -0.34939603226E+02 -0.18128681993E+02  0.40659148392E+02  0.00000000000E+00 0. -1.
         11    1    3    3    0    0  0.70595009168E+01  0.12056642779E+02  0.80770753647E+01  0.16138101964E+02  0.51100000000E-03 0. -1.
        -11    1    3    3    0    0 -0.69658724915E+01  0.15915296696E+02 -0.14909150267E+01  0.17436825295E+02  0.51100000000E-03 0.  1.
        -12    1    3    3    0    0 -0.10278978865E+02  0.69676637507E+01  0.11542521655E+02  0.16953924348E+02  0.00000000000E+00 0.  1.
</event>
<event>
 7    1  0.3250765E-011  0.5052886E+02  0.7816164E-02  0.1300439E+00
        -11   -1    0    0    0    0  0.00000000000E+00  0.00000000000E+00  0.45593999997E+02  0.45594000000E+02  0.51100000000E-03 0. -1.
         11   -1    0    0    0    0 -0.00000000000E+00 -0.00000000000E+00 -0.45593999997E+02  0.45594000000E+02  0.51100000000E-03 0.  1.
    9900012    2    1    2    0    0  0.14682772587E+02  0.28257527475E+02 -0.25280305479E+02  0.50528861852E+02  0.30000006084E+02 0.  0.
         12    1    1    2    0    0 -0.14682772587E+02 -0.28257527475E+02  0.25280305479E+02  0.40659138148E+02  0.00000000000E+00 0. -1.
         11    1    3    3    0    0  0.85839168398E+01  0.10437612227E+02 -0.69640915054E+01  0.15202826976E+02  0.51100000000E-03 0.  1.
        -11    1    3    3    0    0  0.87757143637E+00  0.22810306552E+02 -0.15404160423E+02  0.27538488978E+02  0.51100000000E-03 0. -1.
        -12    1    3    3    0    0  0.52212843104E+01 -0.49903913037E+01 -0.29120535515E+01  0.77875458972E+01  0.00000000000E+00 0.  1.
</event>
<event>
 7    1  0.3250765E-011  0.5052885E+02  0.7816164E-02  0.1300439E+00
        -11   -1    0    0    0    0  0.00000000000E+00  0.00000000000E+00  0.45593999997E+02  0.45594000000E+02  0.51100000000E-03 0.  1.
         11   -1    0    0    0    0 -0.00000000000E+00 -0.00000000000E+00 -0.45593999997E+02  0.45594000000E+02  0.51100000000E-03 0. -1.
    9900012    2    1    2    0    0 -0.12424223756E+02  0.72256934380E+01  0.38034122742E+02  0.50528850054E+02  0.29999970224E+02 0.  0.
         12    1    1    2    0    0  0.12424223756E+02 -0.72256934380E+01 -0.38034122742E+02  0.40659149946E+02  0.00000000000E+00 0. -1.
         11    1    3    3    0    0  0.54126193193E+01 -0.19913811368E+01  0.30181565725E+01  0.65093253172E+01  0.51100000000E-03 0. -1.
        -11    1    3    3    0    0 -0.10223352442E+02  0.13324122971E+02  0.28899469851E+02  0.33424968901E+02  0.51100000000E-03 0.  1.
         12    1    3    3    0    0 -0.76134906328E+01 -0.41070483958E+01  0.61164963182E+01  0.10594555835E+02  0.00000000000E+00 0. -1.
</event>
<event>
 7    1  0.3250765E-011  0.5052886E+02  0.7816164E-02  0.1300439E+00
        -11   -1    0    0    0    0  0.00000000000E+00  0.00000000000E+00  0.45593999997E+02  0.45594000000E+02  0.51100000000E-03 0.  1.
         11   -1    0    0    0    0 -0.00000000000E+00 -0.00000000000E+00 -0.45593999997E+02  0.45594000000E+02  0.51100000000E-03 0. -1.
    9900012    2    1    2    0    0 -0.69009411188E+01  0.12626849323E+02  0.38027686741E+02  0.50528864852E+02  0.30000015204E+02 0.  0.
         12    1    1    2    0    0  0.69009411188E+01 -0.12626849323E+02 -0.38027686741E+02  0.40659135148E+02  0.00000000000E+00 0. -1.
         11    1    3    3    0    0 -0.63765981701E+01 -0.59226330650E+01  0.76921386864E+01  0.11614972427E+02  0.51100000000E-03 0. -1.
        -11    1    3    3    0    0  0.87759728046E+00  0.58610427444E+01  0.23888448363E+02  0.24612597679E+02  0.51100000000E-03 0.  1.
        -12    1    3    3    0    0 -0.14019402292E+01  0.12688439644E+02  0.64470996913E+01  0.14301294746E+02  0.00000000000E+00 0.  1.
</event>
<event>
 7    1  0.3250765E-011  0.5052886E+02  0.7816164E-02  0.1300439E+00
        -11   -1    0    0    0    0  0.00000000000E+00  0.00000000000E+00  0.45593999997E+02  0.45594000000E+02  0.51100000000E-03 0.  1.
         11   -1    0    0    0    0 -0.00000000000E+00 -0.00000000000E+00 -0.45593999997E+02  0.45594000000E+02  0.51100000000E-03 0. -1.
    9900012    2    1    2    0    0 -0.64426314029E+01  0.10160876557E+02  0.38838313997E+02  0.50528861471E+02  0.30000004928E+02 0.  0.
         12    1    1    2    0    0  0.64426314029E+01 -0.10160876557E+02 -0.38838313997E+02  0.40659138529E+02  0.00000000000E+00 0. -1.
         11    1    3    3    0    0 -0.38530947039E+01  0.62362802758E+01  0.16882824534E+01  0.75224881774E+01  0.51100000000E-03 0. -1.
        -11    1    3    3    0    0 -0.48978752927E+01 -0.50982282907E+01  0.31247959274E+01  0.77295189977E+01  0.51100000000E-03 0.  1.
        -12    1    3    3    0    0  0.23083385937E+01  0.90228245716E+01  0.34025235616E+02  0.35276854296E+02  0.00000000000E+00 0.  1.
</event>
<event>
 7    1  0.3250765E-011  0.5052887E+02  0.7816164E-02  0.1300439E+00
        -11   -1    0    0    0    0  0.00000000000E+00  0.00000000000E+00  0.45593999997E+02  0.45594000000E+02  0.51100000000E-03 0. -1.
         11   -1    0    0    0    0 -0.00000000000E+00 -0.00000000000E+00 -0.45593999997E+02  0.45594000000E+02  0.51100000000E-03 0.  1.
    9900012    2    1    2    0    0 -0.24063190900E+02  0.81326856381E+01 -0.31748808009E+02  0.50528873817E+02  0.30000042454E+02 0.  0.
         12    1    1    2    0    0  0.24063190900E+02 -0.81326856381E+01  0.31748808009E+02  0.40659126183E+02  0.00000000000E+00 0. -1.
         11    1    3    3    0    0 -0.94090770989E+01 -0.52130488368E+01 -0.14796764645E+02  0.18293464796E+02  0.51100000000E-03 0.  1.
        -11    1    3    3    0    0 -0.16770366828E+02  0.57711324495E+01 -0.16709244580E+02  0.24366986436E+02  0.51100000000E-03 0. -1.
         12    1    3    3    0    0  0.21162530270E+01  0.75746020254E+01 -0.24279878412E+00  0.78684225844E+01  0.00000000000E+00 0. -1.
</event>
<event>
 7    1  0.3250765E-011  0.5052886E+02  0.7816164E-02  0.1300439E+00
        -11   -1    0    0    0    0  0.00000000000E+00  0.00000000000E+00  0.45593999997E+02  0.45594000000E+02  0.51100000000E-03 0.  1.
         11   -1    0    0    0    0 -0.00000000000E+00 -0.00000000000E+00 -0.45593999997E+02  0.45594000000E+02  0.51100000000E-03 0. -1.
    9900012    2    1    2    0    0  0.29841481878E+02  0.23988602035E+02  0.13682060476E+02  0.50528857767E+02  0.29999993668E+02 0.  0.
         12    1    1    2    0    0 -0.29841481878E+02 -0.23988602035E+02 -0.13682060476E+02  0.40659142233E+02  0.00000000000E+00 0. -1.
         11    1    3    3    0    0 -0.27974225178E+01  0.53701566451E+00 -0.29045807282E+01  0.40682364772E+01  0.51100000000E-03 0. -1.
        -11    1    3    3    0    0  0.73068452450E+01 -0.17324820434E+01  0.13664566553E+01  0.76327377472E+01  0.51100000000E-03 0.  1.
        -12    1    3    3    0    0  0.25332059150E+02  0.25184068414E+02  0.15220184549E+02  0.38827883542E+02  0.00000000000E+00 0.  1.
</event>
<event>
 7    1  0.3250765E-011  0.5052886E+02  0.7816164E-02  0.1300439E+00
        -11   -1    0    0    0    0  0.00000000000E+00  0.00000000000E+00  0.45593999997E+02  0.45594000000E+02  0.51100000000E-03 0.  1.
         11   -1    0    0    0    0 -0.00000000000E+00 -0.00000000000E+00 -0.45593999997E+02  0.45594000000E+02  0.51100000000E-03 0. -1.
    9900012    2    1    2    0    0  0.13481523349E+02 -0.18346581061E+02  0.33687046898E+02  0.50528860349E+02  0.30000001516E+02 0.  0.
         12    1    1    2    0    0 -0.13481523349E+02  0.18346581061E+02 -0.33687046898E+02  0.40659139651E+02  0.00000000000E+00 0. -1.
         11    1    3    3    0    0  0.71721695567E+01 -0.15638993812E+02  0.11816762804E+02  0.20872326824E+02  0.51100000000E-03 0. -1.
        -11    1    3    3    0    0  0.79640027621E+01 -0.33072573288E+00  0.38841535623E+00  0.79803249467E+01  0.51100000000E-03 0.  1.
        -12    1    3    3    0    0 -0.16546489694E+01 -0.23768615165E+01  0.21481868738E+02  0.21676208579E+02  0.00000000000E+00 0.  1.
</event>
<event>
 7    1  0.5805038E-011  0.5052884E+02  0.7816164E-02  0.1300439E+00
        -11   -1    0    0    0    0  0.00000000000E+00  0.00000000000E+00  0.45593999997E+02  0.45594000000E+02  0.51100000000E-03 0.  1.
         11   -1    0    0    0    0 -0.00000000000E+00 -0.00000000000E+00 -0.45593999997E+02  0.45594000000E+02  0.51100000000E-03 0. -1.
    9900012    2    1    2    0    0 -0.29153574286E+02  0.26911517029E+02  0.88885666128E+01  0.50528840406E+02  0.29999940898E+02 0.  0.
         12    1    1    2    0    0  0.29153574286E+02 -0.26911517029E+02 -0.88885666128E+01  0.40659159594E+02  0.00000000000E+00 0. -1.
         11    1    3    3    0    0  0.32643447086E+01  0.39504417637E+01  0.31461831692E+01  0.60133522515E+01  0.51100000000E-03 0. -1.
        -11    1    3    3    0    0 -0.21364601844E+02  0.24730249071E+02  0.64026221730E+01  0.33302026996E+02  0.51100000000E-03 0.  1.
         12    1    3    3    0    0 -0.11053317151E+02 -0.17691738057E+01 -0.66023872932E+00  0.11213461159E+02  0.00000000000E+00 0. -1.
</event>
<event>
 7    1  0.3250765E-011  0.5052885E+02  0.7816164E-02  0.1300439E+00
        -11   -1    0    0    0    0  0.00000000000E+00  0.00000000000E+00  0.45593999997E+02  0.45594000000E+02  0.51100000000E-03 0. -1.
         11   -1    0    0    0    0 -0.00000000000E+00 -0.00000000000E+00 -0.45593999997E+02  0.45594000000E+02  0.51100000000E-03 0.  1.
    9900012    2    1    2    0    0  0.32349189554E+02 -0.24013005666E+02 -0.54837828958E+01  0.50528851205E+02  0.29999973722E+02 0.  0.
         12    1    1    2    0    0 -0.32349189554E+02  0.24013005666E+02  0.54837828958E+01  0.40659148795E+02  0.00000000000E+00 0. -1.
         11    1    3    3    0    0  0.19255668109E+02 -0.11672902870E+02 -0.18412983969E+01  0.22592649154E+02  0.51100000000E-03 0. -1.
        -11    1    3    3    0    0  0.12899078558E+02  0.22456663264E+01 -0.12265484885E+01  0.13150424570E+02  0.51100000000E-03 0.  1.
        -12    1    3    3    0    0  0.19444288691E+00 -0.14585769122E+02 -0.24159360104E+01  0.14785777481E+02  0.00000000000E+00 0.  1.
</event>
<event>
 7    1  0.3772784E-011  0.5052887E+02  0.7816164E-02  0.1300439E+00
        -11   -1    0    0    0    0  0.00000000000E+00  0.00000000000E+00  0.45593999997E+02  0.45594000000E+02  0.51100000000E-03 0.  1.
         11   -1    0    0    0    0 -0.00000000000E+00 -0.00000000000E+00 -0.45593999997E+02  0.45594000000E+02  0.51100000000E-03 0. -1.
    9900012    2    1    2    0    0  0.17780282876E+02 -0.25652749377E+02  0.26056919015E+02  0.50528867713E+02  0.30000023901E+02 0.  0.
         12    1    1    2    0    0 -0.17780282876E+02  0.25652749377E+02 -0.26056919015E+02  0.40659132287E+02  0.00000000000E+00 0. -1.
         11    1    3    3    0    0 -0.12341214829E+01 -0.11775341409E+02  0.90630146613E+01  0.14910397585E+02  0.51100000000E-03 0. -1.
        -11    1    3    3    0    0  0.12795356004E+02 -0.19128837248E+02  0.14045532505E+02  0.26961278407E+02  0.51100000000E-03 0.  1.
         12    1    3    3    0    0  0.62190483554E+01  0.52514292802E+01  0.29483718487E+01  0.86571917207E+01  0.00000000000E+00 0. -1.
</event>
<event>
 7    1  0.3250765E-011  0.5052886E+02  0.7816164E-02  0.1300439E+00
        -11   -1    0    0    0    0  0.00000000000E+00  0.00000000000E+00  0.45593999997E+02  0.45594000000E+02  0.51100000000E-03 0. -1.
         11   -1    0    0    0    0 -0.00000000000E+00 -0.00000000000E+00 -0.45593999997E+02  0.45594000000E+02  0.51100000000E-03 0.  1.
    9900012    2    1    2    0    0 -0.10531924087E+02  0.65719687613E+01 -0.38717612691E+02  0.50528859196E+02  0.29999998013E+02 0.  0.
         12    1    1    2    0    0  0.10531924087E+02 -0.65719687613E+01  0.38717612691E+02  0.40659140804E+02  0.00000000000E+00 0. -1.
         11    1    3    3    0    0 -0.92525575653E+01 -0.45237531804E+01 -0.19831512080E+02  0.22346432288E+02  0.51100000000E-03 0. -1.
        -11    1    3    3    0    0  0.57999378854E+01  0.15950877885E+01 -0.14235532403E+02  0.15454254029E+02  0.51100000000E-03 0.  1.
         12    1    3    3    0    0 -0.70793044075E+01  0.95006341531E+01 -0.46505682079E+01  0.12728172880E+02  0.00000000000E+00 0. -1.
</event>
<event>
 7    1  0.3250765E-011  0.5052886E+02  0.7816164E-02  0.1300439E+00
        -11   -1    0    0    0    0  0.00000000000E+00  0.00000000000E+00  0.45593999997E+02  0.45594000000E+02  0.51100000000E-03 0.  1.
         11   -1    0    0    0    0 -0.00000000000E+00 -0.00000000000E+00 -0.45593999997E+02  0.45594000000E+02  0.51100000000E-03 0. -1.
    9900012    2    1    2    0    0  0.25279341295E+02 -0.34013762841E+01  0.31663084387E+02  0.50528863636E+02  0.30000011508E+02 0.  0.
         12    1    1    2    0    0 -0.25279341295E+02  0.34013762841E+01 -0.31663084387E+02  0.40659136364E+02  0.00000000000E+00 0. -1.
         11    1    3    3    0    0  0.17848952302E+01 -0.89345023892E+01  0.56775714699E+01  0.10735269069E+02  0.51100000000E-03 0. -1.
        -11    1    3    3    0    0 -0.18973888550E+01  0.81840399559E+00  0.81493627557E+01  0.84072577664E+01  0.51100000000E-03 0.  1.
        -12    1    3    3    0    0  0.25391834920E+02  0.47147221095E+01  0.17836150162E+02  0.31386336801E+02  0.00000000000E+00 0.  1.
</event>
<event>
 7    1  0.3250765E-011  0.5052886E+02  0.7816164E-02  0.1300439E+00
        -11   -1    0    0    0    0  0.00000000000E+00  0.00000000000E+00  0.45593999997E+02  0.45594000000E+02  0.51100000000E-03 0.  1.
         11   -1    0    0    0    0 -0.00000000000E+00 -0.00000000000E+00 -0.45593999997E+02  0.45594000000E+02  0.51100000000E-03 0. -1.
    9900012    2    1    2    0    0 -0.23196892047E+02 -0.15892212407E+02  0.29368473147E+02  0.50528862886E+02  0.30000009229E+02 0.  0.
         12    1    1    2    0    0  0.23196892047E+02  0.15892212407E+02 -0.29368473147E+02  0.40659137114E+02  0.00000000000E+00 0. -1.
         11    1    3    3    0    0 -0.18638467963E+01 -0.11450426849E+02  0.10322725050E+02  0.15528839384E+02  0.51100000000E-03 0. -1.
        -11    1    3    3    0    0 -0.55311304826E+01 -0.20335839698E+01  0.18046633198E+02  0.18984463075E+02  0.51100000000E-03 0.  1.
         12    1    3    3    0    0 -0.15801914768E+02 -0.24082015884E+01  0.99911489936E+00  0.16015560428E+02  0.00000000000E+00 0. -1.
</event>
<event>
 7    1  0.3250765E-011  0.5052886E+02  0.7816164E-02  0.1300439E+00
        -11   -1    0    0    0    0  0.00000000000E+00  0.00000000000E+00  0.45593999997E+02  0.45594000000E+02  0.51100000000E-03 0. -1.
         11   -1    0    0    0    0 -0.00000000000E+00 -0.00000000000E+00 -0.45593999997E+02  0.45594000000E+02  0.51100000000E-03 0.  1.
    9900012    2    1    2    0    0 -0.31370030366E+02 -0.12203548022E+02 -0.22807015577E+02  0.50528863893E+02  0.30000012288E+02 0.  0.
         12    1    1    2    0    0  0.31370030366E+02  0.12203548022E+02  0.22807015577E+02  0.40659136107E+02  0.00000000000E+00 0. -1.
         11    1    3    3    0    0  0.26215546246E+00 -0.11343666078E+01 -0.72453279129E+01  0.73382756772E+01  0.51100000000E-03 0.  1.
        -11    1    3    3    0    0 -0.17020797911E+02  0.22544705191E+01 -0.15918362298E+02  0.23413339304E+02  0.51100000000E-03 0. -1.
         12    1    3    3    0    0 -0.14611387917E+02 -0.13323651934E+02  0.35667463439E+00  0.19777248912E+02  0.00000000000E+00 0. -1.
</event>
<event>
 7    1  0.3250765E-011  0.5052886E+02  0.7816164E-02  0.1300439E+00
        -11   -1    0    0    0    0  0.00000000000E+00  0.00000000000E+00  0.45593999997E+02  0.45594000000E+02  0.51100000000E-03 0.  1.
         11   -1    0    0    0    0 -0.00000000000E+00 -0.00000000000E+00 -0.45593999997E+02  0.45594000000E+02  0.51100000000E-03 0. -1.
    9900012    2    1    2    0    0 -0.36514864347E+02  0.14225999969E+02  0.10837506459E+02  0.50528856629E+02  0.29999990211E+02 0.  0.
         12    1    1    2    0    0  0.36514864347E+02 -0.14225999969E+02 -0.10837506459E+02  0.40659143371E+02  0.00000000000E+00 0. -1.
         11    1    3    3    0    0 -0.87960032905E+01  0.14385820308E+02  0.39062307210E+01  0.17308383475E+02  0.51100000000E-03 0. -1.
        -11    1    3    3    0    0 -0.15949425357E+02  0.67013549822E+01  0.89008032706E+01  0.19455503770E+02  0.51100000000E-03 0.  1.
        -12    1    3    3    0    0 -0.11769435699E+02 -0.68611753205E+01 -0.19695275322E+01  0.13764969385E+02  0.00000000000E+00 0.  1.
</event>
<event>
 7    1  0.3250765E-011  0.5052886E+02  0.7816164E-02  0.1300439E+00
        -11   -1    0    0    0    0  0.00000000000E+00  0.00000000000E+00  0.45593999997E+02  0.45594000000E+02  0.51100000000E-03 0.  1.
         11   -1    0    0    0    0 -0.00000000000E+00 -0.00000000000E+00 -0.45593999997E+02  0.45594000000E+02  0.51100000000E-03 0. -1.
    9900012    2    1    2    0    0 -0.27569150157E+02  0.25849290263E+02  0.14997396547E+02  0.50528858953E+02  0.29999997275E+02 0.  0.
         12    1    1    2    0    0  0.27569150157E+02 -0.25849290263E+02 -0.14997396547E+02  0.40659141047E+02  0.00000000000E+00 0. -1.
         11    1    3    3    0    0 -0.44471848788E+00  0.15484015771E+02  0.11576853375E+02  0.19338460468E+02  0.51100000000E-03 0. -1.
        -11    1    3    3    0    0 -0.49283401255E+01  0.58922393376E+01  0.37447302742E+01  0.85457606971E+01  0.51100000000E-03 0.  1.
         12    1    3    3    0    0 -0.22196091544E+02  0.44730351537E+01 -0.32418710238E+00  0.22644637788E+02  0.00000000000E+00 0. -1.
</event>
<event>
 7    1  0.3250765E-011  0.5052885E+02  0.7816164E-02  0.1300439E+00
        -11   -1    0    0    0    0  0.00000000000E+00  0.00000000000E+00  0.45593999997E+02  0.45594000000E+02  0.51100000000E-03 0.  1.
         11   -1    0    0    0    0 -0.00000000000E+00 -0.00000000000E+00 -0.45593999997E+02  0.45594000000E+02  0.51100000000E-03 0. -1.
    9900012    2    1    2    0    0 -0.14714397753E+02 -0.33955857899E+02 -0.16841990928E+02  0.50528850411E+02  0.29999971310E+02 0.  0.
         12    1    1    2    0    0  0.14714397753E+02  0.33955857899E+02  0.16841990928E+02  0.40659149589E+02  0.00000000000E+00 0. -1.
         11    1    3    3    0    0  0.13284611191E+01  0.98825033673E+00  0.19183508934E+00  0.16668079180E+01  0.51100000000E-03 0. -1.
        -11    1    3    3    0    0 -0.14078258016E+02 -0.17126732423E+02  0.25460788810E+01  0.22316021827E+02  0.51100000000E-03 0.  1.
        -12    1    3    3    0    0 -0.19646008557E+01 -0.17817375812E+02 -0.19579904899E+02  0.26546020666E+02  0.00000000000E+00 0.  1.
</event>
<event>
 7    1  0.3250765E-011  0.5052886E+02  0.7816164E-02  0.1300439E+00
        -11   -1    0    0    0    0  0.00000000000E+00  0.00000000000E+00  0.45593999997E+02  0.45594000000E+02  0.51100000000E-03 0. -1.
         11   -1    0    0    0    0 -0.00000000000E+00 -0.00000000000E+00 -0.45593999997E+02  0.45594000000E+02  0.51100000000E-03 0.  1.
    9900012    2    1    2    0    0  0.40058650962E+02  0.43423934709E+01  0.54418336892E+01  0.50528862628E+02  0.30000008443E+02 0.  0.
         12    1    1    2    0    0 -0.40058650962E+02 -0.43423934709E+01 -0.54418336892E+01  0.40659137372E+02  0.00000000000E+00 0. -1.
         11    1    3    3    0    0  0.10369049855E+02 -0.17935006292E+01  0.82601820443E+01  0.13377759419E+02  0.51100000000E-03 0. -1.
        -11    1    3    3    0    0  0.29069234212E+02 -0.10195246836E+01 -0.52725399905E+01  0.29561114432E+02  0.51100000000E-03 0.  1.
         12    1    3    3    0    0  0.62036689555E+00  0.71554187837E+01  0.24541916355E+01  0.75899887772E+01  0.00000000000E+00 0. -1.
</event>
<event>
 7    1  0.3250765E-011  0.5052886E+02  0.7816164E-02  0.1300439E+00
        -11   -1    0    0    0    0  0.00000000000E+00  0.00000000000E+00  0.45593999997E+02  0.45594000000E+02  0.51100000000E-03 0.  1.
         11   -1    0    0    0    0 -0.00000000000E+00 -0.00000000000E+00 -0.45593999997E+02  0.45594000000E+02  0.51100000000E-03 0. -1.
    9900012    2    1    2    0    0  0.90336020641E+01  0.22145572798E+01  0.39580999285E+02  0.50528859151E+02  0.29999997874E+02 0.  0.
         12    1    1    2    0    0 -0.90336020641E+01 -0.22145572798E+01 -0.39580999285E+02  0.40659140849E+02  0.00000000000E+00 0. -1.
         11    1    3    3    0    0 -0.62152225790E+01 -0.10755598854E+01  0.10460699683E+02  0.12215238798E+02  0.51100000000E-03 0.  1.
        -11    1    3    3    0    0  0.13515858620E+02  0.10710250201E+02  0.19259735115E+02  0.25851988136E+02  0.51100000000E-03 0. -1.
         12    1    3    3    0    0  0.17329660234E+01 -0.74201330360E+01  0.98605644871E+01  0.12461632217E+02  0.00000000000E+00 0. -1.
</event>
<event>
 7    1  0.3250765E-011  0.5052886E+02  0.7816164E-02  0.1300439E+00
        -11   -1    0    0    0    0  0.00000000000E+00  0.00000000000E+00  0.45593999997E+02  0.45594000000E+02  0.51100000000E-03 0.  1.
         11   -1    0    0    0    0 -0.00000000000E+00 -0.00000000000E+00 -0.45593999997E+02  0.45594000000E+02  0.51100000000E-03 0. -1.
    9900012    2    1    2    0    0 -0.20555609697E+02  0.47109779164E+01  0.34762609133E+02  0.50528863307E+02  0.30000010507E+02 0.  0.
         12    1    1    2    0    0  0.20555609697E+02 -0.47109779164E+01 -0.34762609133E+02  0.40659136693E+02  0.00000000000E+00 0. -1.
         11    1    3    3    0    0 -0.47115408535E+01 -0.96041056591E+01  0.72197811001E+01  0.12905917330E+02  0.51100000000E-03 0. -1.
        -11    1    3    3    0    0 -0.57147107815E+01 -0.54533084225E+00  0.13933257387E+02  0.15069537707E+02  0.51100000000E-03 0.  1.
         12    1    3    3    0    0 -0.10129358062E+02  0.14860414418E+02  0.13609570646E+02  0.22553408270E+02  0.00000000000E+00 0. -1.
</event>
<event>
 7    1  0.3250765E-011  0.5052885E+02  0.7816164E-02  0.1300439E+00
        -11   -1    0    0    0    0  0.00000000000E+00  0.00000000000E+00  0.45593999997E+02  0.45594000000E+02  0.51100000000E-03 0. -1.
         11   -1    0    0    0    0 -0.00000000000E+00 -0.00000000000E+00 -0.45593999997E+02  0.45594000000E+02  0.51100000000E-03 0.  1.
    9900012    2    1    2    0    0  0.17935638663E+02 -0.35768935658E+02  0.72154499185E+01  0.50528848387E+02  0.29999965157E+02 0.  0.
         12    1    1    2    0    0 -0.17935638663E+02  0.35768935658E+02 -0.72154499185E+01  0.40659151613E+02  0.00000000000E+00 0. -1.
         11    1    3    3    0    0  0.80785920272E+01 -0.32962882888E+00  0.71294707408E+01  0.10779687269E+02  0.51100000000E-03 0. -1.
        -11    1    3    3    0    0 -0.32307834871E+01 -0.47140188106E+01  0.25578274701E+01  0.62611833478E+01  0.51100000000E-03 0.  1.
        -12    1    3    3    0    0  0.13087830123E+02 -0.30725288019E+02 -0.24718482925E+01  0.33487977770E+02  0.00000000000E+00 0.  1.
</event>
<event>
 7    1  0.3250765E-011  0.5052886E+02  0.7816164E-02  0.1300439E+00
        -11   -1    0    0    0    0  0.00000000000E+00  0.00000000000E+00  0.45593999997E+02  0.45594000000E+02  0.51100000000E-03 0.  1.
         11   -1    0    0    0    0 -0.00000000000E+00 -0.00000000000E+00 -0.45593999997E+02  0.45594000000E+02  0.51100000000E-03 0. -1.
    9900012    2    1    2    0    0  0.34601049988E+02 -0.85430602940E+01  0.19569093390E+02  0.50528856433E+02  0.29999989614E+02 0.  0.
         12    1    1    2    0    0 -0.34601049988E+02  0.85430602940E+01 -0.19569093390E+02  0.40659143567E+02  0.00000000000E+00 0. -1.
         11    1    3    3    0    0  0.30857969328E+02  0.37766146376E+00  0.14536328515E+02  0.34112486661E+02  0.51100000000E-03 0. -1.
        -11    1    3    3    0    0  0.31557415282E+01 -0.72024064375E+01  0.90612694820E+01  0.11997498405E+02  0.51100000000E-03 0.  1.
        -12    1    3    3    0    0  0.58733913196E+00 -0.17183153202E+01 -0.40285046067E+01  0.44188713674E+01  0.00000000000E+00 0.  1.
</event>
<event>
 7    1  0.3250765E-011  0.5052886E+02  0.7816164E-02  0.1300439E+00
        -11   -1    0    0    0    0  0.00000000000E+00  0.00000000000E+00  0.45593999997E+02  0.45594000000E+02  0.51100000000E-03 0. -1.
         11   -1    0    0    0    0 -0.00000000000E+00 -0.00000000000E+00 -0.45593999997E+02  0.45594000000E+02  0.51100000000E-03 0.  1.
    9900012    2    1    2    0    0  0.60657942406E+01  0.38990664078E+02 -0.98030619065E+01  0.50528858743E+02  0.29999996635E+02 0.  0.
         12    1    1    2    0    0 -0.60657942406E+01 -0.38990664078E+02  0.98030619065E+01  0.40659141257E+02  0.00000000000E+00 0. -1.
         11    1    3    3    0    0  0.46070885755E+01  0.67178350502E+01  0.35790008403E+01  0.88974052499E+01  0.51100000000E-03 0. -1.
        -11    1    3    3    0    0 -0.62317252442E+01  0.39552204324E-01 -0.29130446749E+01  0.68790837643E+01  0.51100000000E-03 0.  1.
        -12    1    3    3    0    0  0.76904309094E+01  0.32233276824E+02 -0.10469018072E+02  0.34752369729E+02  0.00000000000E+00 0.  1.
</event>
<event>
 7    1  0.3250765E-011  0.5052883E+02  0.7816164E-02  0.1300439E+00
        -11   -1    0    0    0    0  0.00000000000E+00  0.00000000000E+00  0.45593999997E+02  0.45594000000E+02  0.51100000000E-03 0. -1.
         11   -1    0    0    0    0 -0.00000000000E+00 -0.00000000000E+00 -0.45593999997E+02  0.45594000000E+02  0.51100000000E-03 0.  1.
    9900012    2    1    2    0    0 -0.29387288507E+02  0.25796743323E+02 -0.11139280334E+02  0.50528828117E+02  0.29999903546E+02 0.  0.
         12    1    1    2    0    0  0.29387288507E+02 -0.25796743323E+02  0.11139280334E+02  0.40659171883E+02  0.00000000000E+00 0. -1.
         11    1    3    3    0    0 -0.18938082337E+02  0.13035261636E+02  0.40571282431E+01  0.23345862553E+02  0.51100000000E-03 0.  1.
        -11    1    3    3    0    0 -0.61231393848E+01 -0.24648314668E+01 -0.32846577308E+01  0.73727340082E+01  0.51100000000E-03 0. -1.
        -12    1    3    3    0    0 -0.43260667848E+01  0.15226313154E+02 -0.11911750846E+02  0.19810231556E+02  0.00000000000E+00 0.  1.
</event>
<event>
 7    1  0.3250765E-011  0.5052886E+02  0.7816164E-02  0.1300439E+00
        -11   -1    0    0    0    0  0.00000000000E+00  0.00000000000E+00  0.45593999997E+02  0.45594000000E+02  0.51100000000E-03 0.  1.
         11   -1    0    0    0    0 -0.00000000000E+00 -0.00000000000E+00 -0.45593999997E+02  0.45594000000E+02  0.51100000000E-03 0. -1.
    9900012    2    1    2    0    0 -0.29953232545E+02 -0.22045732865E+01  0.27406371941E+02  0.50528861959E+02  0.30000006411E+02 0.  0.
         12    1    1    2    0    0  0.29953232545E+02  0.22045732865E+01 -0.27406371941E+02  0.40659138041E+02  0.00000000000E+00 0. -1.
         11    1    3    3    0    0 -0.20417534192E+02  0.23515962984E+01  0.24715270110E+02  0.32144210746E+02  0.51100000000E-03 0. -1.
        -11    1    3    3    0    0 -0.98221015854E+01 -0.52242208404E+01  0.75671912637E+01  0.13454684940E+02  0.51100000000E-03 0.  1.
         12    1    3    3    0    0  0.28640323212E+00  0.66805125555E+00 -0.48760894332E+01  0.49299662730E+01  0.00000000000E+00 0. -1.
</event>
<event>
 7    1  0.3250765E-011  0.5052887E+02  0.7816164E-02  0.1300439E+00
        -11   -1    0    0    0    0  0.00000000000E+00  0.00000000000E+00  0.45593999997E+02  0.45594000000E+02  0.51100000000E-03 0.  1.
         11   -1    0    0    0    0 -0.00000000000E+00 -0.00000000000E+00 -0.45593999997E+02  0.45594000000E+02  0.51100000000E-03 0. -1.
    9900012    2    1    2    0    0  0.10354971002E+02 -0.80774358608E+01  0.38479796345E+02  0.50528866693E+02  0.30000020799E+02 0.  0.
         12    1    1    2    0    0 -0.10354971002E+02  0.80774358608E+01 -0.38479796345E+02  0.40659133307E+02  0.00000000000E+00 0. -1.
         11    1    3    3    0    0  0.11578056089E+01 -0.88421796931E+01  0.24209711255E+02  0.25799898738E+02  0.51100000000E-03 0. -1.
        -11    1    3    3    0    0  0.70140182148E+01 -0.80419370486E+01  0.50937475326E+01  0.11824359061E+02  0.51100000000E-03 0.  1.
         12    1    3    3    0    0  0.21831471785E+01  0.88066808810E+01  0.91763375573E+01  0.12904608894E+02  0.00000000000E+00 0. -1.
</event>
<event>
 7    1  0.3250765E-011  0.5052886E+02  0.7816164E-02  0.1300439E+00
        -11   -1    0    0    0    0  0.00000000000E+00  0.00000000000E+00  0.45593999997E+02  0.45594000000E+02  0.51100000000E-03 0. -1.
         11   -1    0    0    0    0 -0.00000000000E+00 -0.00000000000E+00 -0.45593999997E+02  0.45594000000E+02  0.51100000000E-03 0.  1.
    9900012    2    1    2    0    0  0.20662591206E+02 -0.23684970725E+02  0.25792350213E+02  0.50528857817E+02  0.29999993820E+02 0.  0.
         12    1    1    2    0    0 -0.20662591206E+02  0.23684970725E+02 -0.25792350213E+02  0.40659142183E+02  0.00000000000E+00 0. -1.
         11    1    3    3    0    0 -0.14146199773E+01 -0.26175874369E+01  0.16410606019E+02  0.16678156488E+02  0.51100000000E-03 0. -1.
        -11    1    3    3    0    0  0.67397647630E+01 -0.50557483787E+01  0.80272625166E+01  0.11637094332E+02  0.51100000000E-03 0.  1.
        -12    1    3    3    0    0  0.15337446420E+02 -0.16011634909E+02  0.13544816768E+01  0.22213606996E+02  0.00000000000E+00 0.  1.
</event>
<event>
 7    1  0.3250765E-011  0.5052885E+02  0.7816164E-02  0.1300439E+00
        -11   -1    0    0    0    0  0.00000000000E+00  0.00000000000E+00  0.45593999997E+02  0.45594000000E+02  0.51100000000E-03 0. -1.
         11   -1    0    0    0    0 -0.00000000000E+00 -0.00000000000E+00 -0.45593999997E+02  0.45594000000E+02  0.51100000000E-03 0.  1.
    9900012    2    1    2    0    0  0.10019091168E+02 -0.55935438968E+01 -0.39006360561E+02  0.50528854837E+02  0.29999984763E+02 0.  0.
         12    1    1    2    0    0 -0.10019091168E+02  0.55935438968E+01  0.39006360561E+02  0.40659145163E+02  0.00000000000E+00 0. -1.
         11    1    3    3    0    0  0.18708823922E+02 -0.20402609795E+01 -0.20123412083E+02  0.27552395023E+02  0.51100000000E-03 0. -1.
        -11    1    3    3    0    0 -0.27003038789E+01 -0.48385738200E+01 -0.38611858321E+01  0.67536800295E+01  0.51100000000E-03 0.  1.
        -12    1    3    3    0    0 -0.59894288747E+01  0.12852909027E+01 -0.15021762646E+02  0.16222779785E+02  0.00000000000E+00 0.  1.
</event>
<event>
 7    1  0.3250765E-011  0.5052886E+02  0.7816164E-02  0.1300439E+00
        -11   -1    0    0    0    0  0.00000000000E+00  0.00000000000E+00  0.45593999997E+02  0.45594000000E+02  0.51100000000E-03 0.  1.
         11   -1    0    0    0    0 -0.00000000000E+00 -0.00000000000E+00 -0.45593999997E+02  0.45594000000E+02  0.51100000000E-03 0. -1.
    9900012    2    1    2    0    0  0.20198384327E+02  0.10822526807E+02  0.33586664243E+02  0.50528857967E+02  0.29999994278E+02 0.  0.
         12    1    1    2    0    0 -0.20198384327E+02 -0.10822526807E+02 -0.33586664243E+02  0.40659142033E+02  0.00000000000E+00 0. -1.
         11    1    3    3    0    0  0.84254683020E+00  0.93341804606E+01  0.15271899331E+02  0.17918362633E+02  0.51100000000E-03 0. -1.
        -11    1    3    3    0    0  0.22712104480E+02 -0.14877684542E+00  0.17767095105E+02  0.28836287785E+02  0.51100000000E-03 0.  1.
         12    1    3    3    0    0 -0.33562669836E+01  0.16371231914E+01  0.54766980705E+00  0.37742075495E+01  0.00000000000E+00 0. -1.
</event>
<event>
 7    1  0.3250765E-011  0.5052886E+02  0.7816164E-02  0.1300439E+00
        -11   -1    0    0    0    0  0.00000000000E+00  0.00000000000E+00  0.45593999997E+02  0.45594000000E+02  0.51100000000E-03 0. -1.
         11   -1    0    0    0    0 -0.00000000000E+00 -0.00000000000E+00 -0.45593999997E+02  0.45594000000E+02  0.51100000000E-03 0.  1.
    9900012    2    1    2    0    0 -0.37768882136E+02  0.11822707329E+02  0.93220608752E+01  0.50528859756E+02  0.29999999714E+02 0.  0.
         12    1    1    2    0    0  0.37768882136E+02 -0.11822707329E+02 -0.93220608752E+01  0.40659140244E+02  0.00000000000E+00 0. -1.
         11    1    3    3    0    0 -0.94002823156E+01 -0.49132766441E+01  0.43073320919E+01  0.11448087395E+02  0.51100000000E-03 0. -1.
        -11    1    3    3    0    0 -0.25174233292E+02  0.41503616954E+01  0.11785539939E+01  0.25541270795E+02  0.51100000000E-03 0.  1.
        -12    1    3    3    0    0 -0.31943665288E+01  0.12585622278E+02  0.38361747893E+01  0.13539501566E+02  0.00000000000E+00 0.  1.
</event>
<event>
 7    1  0.3250765E-011  0.5052885E+02  0.7816164E-02  0.1300439E+00
        -11   -1    0    0    0    0  0.00000000000E+00  0.00000000000E+00  0.45593999997E+02  0.45594000000E+02  0.51100000000E-03 0.  1.
         11   -1    0    0    0    0 -0.00000000000E+00 -0.00000000000E+00 -0.45593999997E+02  0.45594000000E+02  0.51100000000E-03 0. -1.
    9900012    2    1    2    0    0 -0.20431768777E+02  0.25483265120E+02  0.24213888604E+02  0.50528851241E+02  0.29999973832E+02 0.  0.
         12    1    1    2    0    0  0.20431768777E+02 -0.25483265120E+02 -0.24213888604E+02  0.40659148759E+02  0.00000000000E+00 0. -1.
         11    1    3    3    0    0 -0.10871689588E+00  0.93090171123E+01  0.12874421574E+01  0.93982512485E+01  0.51100000000E-03 0. -1.
        -11    1    3    3    0    0 -0.20025122882E+01  0.68328106484E+01  0.18871419387E+02  0.20169973396E+02  0.51100000000E-03 0.  1.
        -12    1    3    3    0    0 -0.18320539592E+02  0.93414373590E+01  0.40550270588E+01  0.20960626597E+02  0.00000000000E+00 0.  1.
</event>
<event>
 7    1  0.3250765E-011  0.5052895E+02  0.7816164E-02  0.1300438E+00
        -11   -1    0    0    0    0  0.00000000000E+00  0.00000000000E+00  0.45593999997E+02  0.45594000000E+02  0.51100000000E-03 0.  1.
         11   -1    0    0    0    0 -0.00000000000E+00 -0.00000000000E+00 -0.45593999997E+02  0.45594000000E+02  0.51100000000E-03 0. -1.
    9900012    2    1    2    0    0 -0.15459125680E+01 -0.34519320304E+02  0.21428598791E+02  0.50528952223E+02  0.30000280777E+02 0.  0.
         12    1    1    2    0    0  0.15459125680E+01  0.34519320304E+02 -0.21428598791E+02  0.40659047777E+02  0.00000000000E+00 0. -1.
         11    1    3    3    0    0 -0.19653307420E+01  0.10638609356E+00 -0.14544067446E+01  0.24472723931E+01  0.51100000000E-03 0. -1.
        -11    1    3    3    0    0 -0.10895463126E+01 -0.56439793663E+01  0.17689049814E+02  0.18599572518E+02  0.51100000000E-03 0.  1.
        -12    1    3    3    0    0  0.15089644865E+01 -0.28981727032E+02  0.51939557214E+01  0.29482107313E+02  0.00000000000E+00 0.  1.
</event>
<event>
 7    1  0.3250765E-011  0.5052887E+02  0.7816164E-02  0.1300439E+00
        -11   -1    0    0    0    0  0.00000000000E+00  0.00000000000E+00  0.45593999997E+02  0.45594000000E+02  0.51100000000E-03 0. -1.
         11   -1    0    0    0    0 -0.00000000000E+00 -0.00000000000E+00 -0.45593999997E+02  0.45594000000E+02  0.51100000000E-03 0.  1.
    9900012    2    1    2    0    0  0.39255849398E+02 -0.25229777477E+01  0.10284821567E+02  0.50528872079E+02  0.30000037170E+02 0.  0.
         12    1    1    2    0    0 -0.39255849398E+02  0.25229777477E+01 -0.10284821567E+02  0.40659127921E+02  0.00000000000E+00 0. -1.
         11    1    3    3    0    0 -0.33292574556E+01 -0.27793725166E+01  0.17398158701E+01  0.46728820138E+01  0.51100000000E-03 0. -1.
        -11    1    3    3    0    0  0.69942106220E+01  0.74772045864E+00  0.74483641839E+01  0.10244813194E+02  0.51100000000E-03 0.  1.
        -12    1    3    3    0    0  0.35590896232E+02 -0.49132568977E+00  0.10966415127E+01  0.35611176871E+02  0.00000000000E+00 0.  1.
</event>
<event>
 7    1  0.3250765E-011  0.5052884E+02  0.7816164E-02  0.1300439E+00
        -11   -1    0    0    0    0  0.00000000000E+00  0.00000000000E+00  0.45593999997E+02  0.45594000000E+02  0.51100000000E-03 0. -1.
         11   -1    0    0    0    0 -0.00000000000E+00 -0.00000000000E+00 -0.45593999997E+02  0.45594000000E+02  0.51100000000E-03 0.  1.
    9900012    2    1    2    0    0 -0.36285271400E+01 -0.38168242748E+02 -0.13534646025E+02  0.50528836128E+02  0.29999927896E+02 0.  0.
         12    1    1    2    0    0  0.36285271400E+01  0.38168242748E+02  0.13534646025E+02  0.40659163872E+02  0.00000000000E+00 0. -1.
         11    1    3    3    0    0  0.78048110189E+01 -0.19097960691E+02 -0.82802985520E+01  0.22230846182E+02  0.51100000000E-03 0. -1.
        -11    1    3    3    0    0 -0.24081913310E+01 -0.18613584895E+02 -0.34685206156E+01  0.19086528329E+02  0.51100000000E-03 0.  1.
        -12    1    3    3    0    0 -0.90251468280E+01 -0.45669716223E+00 -0.17858268576E+01  0.92114616174E+01  0.00000000000E+00 0.  1.
</event>
<event>
 7    1  0.3250765E-011  0.5052886E+02  0.7816164E-02  0.1300439E+00
        -11   -1    0    0    0    0  0.00000000000E+00  0.00000000000E+00  0.45593999997E+02  0.45594000000E+02  0.51100000000E-03 0. -1.
         11   -1    0    0    0    0 -0.00000000000E+00 -0.00000000000E+00 -0.45593999997E+02  0.45594000000E+02  0.51100000000E-03 0.  1.
    9900012    2    1    2    0    0  0.92185830364E+01  0.12321649646E+02 -0.37634563016E+02  0.50528860110E+02  0.30000000790E+02 0.  0.
         12    1    1    2    0    0 -0.92185830364E+01 -0.12321649646E+02  0.37634563016E+02  0.40659139890E+02  0.00000000000E+00 0. -1.
         11    1    3    3    0    0 -0.50800198238E+00 -0.11148168063E+01 -0.88485012824E+01  0.89329086937E+01  0.51100000000E-03 0. -1.
        -11    1    3    3    0    0 -0.11021601829E+01  0.15068941675E+02 -0.26354101313E+02  0.30378058143E+02  0.51100000000E-03 0.  1.
         12    1    3    3    0    0  0.10828745202E+02 -0.16324752231E+01 -0.24319604211E+01  0.11217893273E+02  0.00000000000E+00 0. -1.
</event>
<event>
 7    1  0.3250765E-011  0.5052885E+02  0.7816164E-02  0.1300439E+00
        -11   -1    0    0    0    0  0.00000000000E+00  0.00000000000E+00  0.45593999997E+02  0.45594000000E+02  0.51100000000E-03 0. -1.
         11   -1    0    0    0    0 -0.00000000000E+00 -0.00000000000E+00 -0.45593999997E+02  0.45594000000E+02  0.51100000000E-03 0.  1.
    9900012    2    1    2    0    0  0.24103581961E+02  0.21334170071E+02 -0.24840227007E+02  0.50528851537E+02  0.29999974733E+02 0.  0.
         12    1    1    2    0    0 -0.24103581961E+02 -0.21334170071E+02  0.24840227007E+02  0.40659148463E+02  0.00000000000E+00 0. -1.
         11    1    3    3    0    0  0.78252958661E+01  0.16348656438E+02 -0.74974607013E+01  0.19614426832E+02  0.51100000000E-03 0. -1.
        -11    1    3    3    0    0  0.10057036044E+02  0.31380036928E+01 -0.20978750591E+02  0.23475498244E+02  0.51100000000E-03 0.  1.
         12    1    3    3    0    0  0.62212500510E+01  0.18475099401E+01  0.36359842860E+01  0.74389264617E+01  0.00000000000E+00 0. -1.
</event>
<event>
 7    1  0.3250765E-011  0.5052886E+02  0.7816164E-02  0.1300439E+00
        -11   -1    0    0    0    0  0.00000000000E+00  0.00000000000E+00  0.45593999997E+02  0.45594000000E+02  0.51100000000E-03 0. -1.
         11   -1    0    0    0    0 -0.00000000000E+00 -0.00000000000E+00 -0.45593999997E+02  0.45594000000E+02  0.51100000000E-03 0.  1.
    9900012    2    1    2    0    0 -0.25860803350E+02  0.26440692829E+02  0.16890056485E+02  0.50528863324E+02  0.30000010560E+02 0.  0.
         12    1    1    2    0    0  0.25860803350E+02 -0.26440692829E+02 -0.16890056485E+02  0.40659136676E+02  0.00000000000E+00 0. -1.
         11    1    3    3    0    0  0.23333099894E+01  0.54613367888E+01  0.30086079676E+01  0.66574963155E+01  0.51100000000E-03 0. -1.
        -11    1    3    3    0    0 -0.23950901100E+02  0.60928514700E+01  0.28805531451E+01  0.24881038749E+02  0.51100000000E-03 0.  1.
         12    1    3    3    0    0 -0.42432122388E+01  0.14886504570E+02  0.11000895372E+02  0.18990328260E+02  0.00000000000E+00 0. -1.
</event>
<event>
 7    1  0.3250765E-011  0.5052886E+02  0.7816164E-02  0.1300439E+00
        -11   -1    0    0    0    0  0.00000000000E+00  0.00000000000E+00  0.45593999997E+02  0.45594000000E+02  0.51100000000E-03 0. -1.
         11   -1    0    0    0    0 -0.00000000000E+00 -0.00000000000E+00 -0.45593999997E+02  0.45594000000E+02  0.51100000000E-03 0.  1.
    9900012    2    1    2    0    0 -0.20385915608E+02 -0.10895111116E+02 -0.33449614452E+02  0.50528859473E+02  0.29999998854E+02 0.  0.
         12    1    1    2    0    0  0.20385915608E+02  0.10895111116E+02  0.33449614452E+02  0.40659140527E+02  0.00000000000E+00 0. -1.
         11    1    3    3    0    0 -0.45028063596E+00 -0.38567535121E+01  0.15543659803E+01  0.41825057281E+01  0.51100000000E-03 0. -1.
        -11    1    3    3    0    0 -0.18742856533E+02 -0.15607171181E+00 -0.11881963979E+02  0.22192343221E+02  0.51100000000E-03 0.  1.
         12    1    3    3    0    0 -0.11927784390E+01 -0.68822858923E+01 -0.23122016453E+02  0.24154010523E+02  0.00000000000E+00 0. -1.
</event>
<event>
 7    1  0.3250765E-011  0.5052886E+02  0.7816164E-02  0.1300439E+00
        -11   -1    0    0    0    0  0.00000000000E+00  0.00000000000E+00  0.45593999997E+02  0.45594000000E+02  0.51100000000E-03 0.  1.
         11   -1    0    0    0    0 -0.00000000000E+00 -0.00000000000E+00 -0.45593999997E+02  0.45594000000E+02  0.51100000000E-03 0. -1.
    9900012    2    1    2    0    0  0.19150575106E+02 -0.21763048532E+02  0.28509483095E+02  0.50528862839E+02  0.30000009087E+02 0.  0.
         12    1    1    2    0    0 -0.19150575106E+02  0.21763048532E+02 -0.28509483095E+02  0.40659137161E+02  0.00000000000E+00 0. -1.
         11    1    3    3    0    0  0.96173912530E+01  0.13289764746E+01 -0.23072554857E+01  0.99791693603E+01  0.51100000000E-03 0. -1.
        -11    1    3    3    0    0  0.97741218019E-01 -0.10042889321E+02  0.94137884382E+01  0.13765485545E+02  0.51100000000E-03 0.  1.
        -12    1    3    3    0    0  0.94354426346E+01 -0.13049135685E+02  0.21402950143E+02  0.26784207934E+02  0.00000000000E+00 0.  1.
</event>
<event>
 7    1  0.3250765E-011  0.5052887E+02  0.7816164E-02  0.1300439E+00
        -11   -1    0    0    0    0  0.00000000000E+00  0.00000000000E+00  0.45593999997E+02  0.45594000000E+02  0.51100000000E-03 0.  1.
         11   -1    0    0    0    0 -0.00000000000E+00 -0.00000000000E+00 -0.45593999997E+02  0.45594000000E+02  0.51100000000E-03 0. -1.
    9900012    2    1    2    0    0 -0.32434455166E+02 -0.86246860048E+01  0.22951813768E+02  0.50528870080E+02  0.30000031096E+02 0.  0.
         12    1    1    2    0    0  0.32434455166E+02  0.86246860048E+01 -0.22951813768E+02  0.40659129920E+02  0.00000000000E+00 0. -1.
         11    1    3    3    0    0 -0.18716550232E+02 -0.33664730404E+01  0.95615333703E+01  0.21285330958E+02  0.51100000000E-03 0.  1.
        -11    1    3    3    0    0 -0.10620543739E+02 -0.82784411827E+01 -0.16748274117E+01  0.13569583076E+02  0.51100000000E-03 0. -1.
         12    1    3    3    0    0 -0.30973611948E+01  0.30202282182E+01  0.15065107809E+02  0.15673956047E+02  0.00000000000E+00 0. -1.
</event>
<event>
 7    1  0.3250765E-011  0.5052886E+02  0.7816164E-02  0.1300439E+00
        -11   -1    0    0    0    0  0.00000000000E+00  0.00000000000E+00  0.45593999997E+02  0.45594000000E+02  0.51100000000E-03 0.  1.
         11   -1    0    0    0    0 -0.00000000000E+00 -0.00000000000E+00 -0.45593999997E+02  0.45594000000E+02  0.51100000000E-03 0. -1.
    9900012    2    1    2    0    0 -0.67699965326E+01  0.26960627728E+02  0.29672501891E+02  0.50528859957E+02  0.30000000326E+02 0.  0.
         12    1    1    2    0    0  0.67699965326E+01 -0.26960627728E+02 -0.29672501891E+02  0.40659140043E+02  0.00000000000E+00 0. -1.
         11    1    3    3    0    0  0.44697539042E+01  0.73482261082E+01 -0.14874199954E+01  0.87285477260E+01  0.51100000000E-03 0. -1.
        -11    1    3    3    0    0 -0.30723481212E+01  0.13487696878E+02  0.68551712967E+01  0.15438609517E+02  0.51100000000E-03 0.  1.
        -12    1    3    3    0    0 -0.81674023155E+01  0.61247047414E+01  0.24304750590E+02  0.26361702714E+02  0.00000000000E+00 0.  1.
</event>
<event>
 7    1  0.3250765E-011  0.5052894E+02  0.7816164E-02  0.1300439E+00
        -11   -1    0    0    0    0  0.00000000000E+00  0.00000000000E+00  0.45593999997E+02  0.45594000000E+02  0.51100000000E-03 0.  1.
         11   -1    0    0    0    0 -0.00000000000E+00 -0.00000000000E+00 -0.45593999997E+02  0.45594000000E+02  0.51100000000E-03 0. -1.
    9900012    2    1    2    0    0  0.36313326837E+02  0.67256730610E+01  0.17007839190E+02  0.50528942239E+02  0.30000250429E+02 0.  0.
         12    1    1    2    0    0 -0.36313326837E+02 -0.67256730610E+01 -0.17007839190E+02  0.40659057761E+02  0.00000000000E+00 0. -1.
         11    1    3    3    0    0 -0.22498822016E+01  0.19349272169E+01  0.16833029805E+00  0.29722463906E+01  0.51100000000E-03 0. -1.
        -11    1    3    3    0    0  0.18127815071E+02  0.12716433205E+02  0.52263282492E+01  0.22751700155E+02  0.51100000000E-03 0.  1.
        -12    1    3    3    0    0  0.20435393967E+02 -0.79256873604E+01  0.11613180642E+02  0.24804995694E+02  0.00000000000E+00 0.  1.
</event>
<event>
 7    1  0.3250765E-011  0.5052886E+02  0.7816164E-02  0.1300439E+00
        -11   -1    0    0    0    0  0.00000000000E+00  0.00000000000E+00  0.45593999997E+02  0.45594000000E+02  0.51100000000E-03 0.  1.
         11   -1    0    0    0    0 -0.00000000000E+00 -0.00000000000E+00 -0.45593999997E+02  0.45594000000E+02  0.51100000000E-03 0. -1.
    9900012    2    1    2    0    0  0.33856004728E+02  0.16715625968E+02 -0.15083924476E+02  0.50528856069E+02  0.29999988507E+02 0.  0.
         12    1    1    2    0    0 -0.33856004728E+02 -0.16715625968E+02  0.15083924476E+02  0.40659143931E+02  0.00000000000E+00 0. -1.
         11    1    3    3    0    0  0.11900781075E+02  0.38702550574E+01  0.31682252227E+01  0.12909109796E+02  0.51100000000E-03 0. -1.
        -11    1    3    3    0    0  0.20046592469E+02  0.15333070759E+02 -0.73662388088E+01  0.26291260962E+02  0.51100000000E-03 0.  1.
         12    1    3    3    0    0  0.19086311837E+01 -0.24876998487E+01 -0.10885910890E+02  0.11328485310E+02  0.00000000000E+00 0. -1.
</event>
<event>
 7    1  0.3250765E-011  0.5052888E+02  0.7816164E-02  0.1300439E+00
        -11   -1    0    0    0    0  0.00000000000E+00  0.00000000000E+00  0.45593999997E+02  0.45594000000E+02  0.51100000000E-03 0.  1.
         11   -1    0    0    0    0 -0.00000000000E+00 -0.00000000000E+00 -0.45593999997E+02  0.45594000000E+02  0.51100000000E-03 0. -1.
    9900012    2    1    2    0    0  0.23461055024E+02 -0.74707152292E+01  0.32356322107E+02  0.50528877171E+02  0.30000052649E+02 0.  0.
         12    1    1    2    0    0 -0.23461055024E+02  0.74707152292E+01 -0.32356322107E+02  0.40659122829E+02  0.00000000000E+00 0. -1.
         11    1    3    3    0    0  0.16349387098E+02 -0.13993479598E+01  0.11156035694E+02  0.19842322593E+02  0.51100000000E-03 0. -1.
        -11    1    3    3    0    0  0.37690760226E+01  0.72094614248E+01  0.53375490358E+01  0.97299382357E+01  0.51100000000E-03 0.  1.
        -12    1    3    3    0    0  0.33425919038E+01 -0.13280828694E+02  0.15862737377E+02  0.20956616343E+02  0.00000000000E+00 0.  1.
</event>
<event>
 7    1  0.3250765E-011  0.5052886E+02  0.7816164E-02  0.1300439E+00
        -11   -1    0    0    0    0  0.00000000000E+00  0.00000000000E+00  0.45593999997E+02  0.45594000000E+02  0.51100000000E-03 0. -1.
         11   -1    0    0    0    0 -0.00000000000E+00 -0.00000000000E+00 -0.45593999997E+02  0.45594000000E+02  0.51100000000E-03 0.  1.
    9900012    2    1    2    0    0 -0.36510216209E+02  0.15082884801E+02 -0.96268614211E+01  0.50528858809E+02  0.29999996837E+02 0.  0.
         12    1    1    2    0    0  0.36510216209E+02 -0.15082884801E+02  0.96268614211E+01  0.40659141191E+02  0.00000000000E+00 0. -1.
         11    1    3    3    0    0 -0.62901844763E+01  0.11995534827E+02 -0.68524579523E+00  0.13562036668E+02  0.51100000000E-03 0. -1.
        -11    1    3    3    0    0 -0.12231392530E+02 -0.52047807670E+01 -0.10723577438E+02  0.17078987657E+02  0.51100000000E-03 0.  1.
         12    1    3    3    0    0 -0.17988639202E+02  0.82921307414E+01  0.17819618118E+01  0.19887834484E+02  0.00000000000E+00 0. -1.
</event>
<event>
 7    1  0.3250765E-011  0.5052886E+02  0.7816164E-02  0.1300439E+00
        -11   -1    0    0    0    0  0.00000000000E+00  0.00000000000E+00  0.45593999997E+02  0.45594000000E+02  0.51100000000E-03 0.  1.
         11   -1    0    0    0    0 -0.00000000000E+00 -0.00000000000E+00 -0.45593999997E+02  0.45594000000E+02  0.51100000000E-03 0. -1.
    9900012    2    1    2    0    0  0.16620620574E+02 -0.24817135501E+02  0.27586779682E+02  0.50528860117E+02  0.30000000813E+02 0.  0.
         12    1    1    2    0    0 -0.16620620574E+02  0.24817135501E+02 -0.27586779682E+02  0.40659139883E+02  0.00000000000E+00 0. -1.
         11    1    3    3    0    0  0.59094036250E+01 -0.12619235757E+01 -0.22798124405E+00  0.60469395584E+01  0.51100000000E-03 0. -1.
        -11    1    3    3    0    0  0.59154590946E+01  0.21001393827E+01  0.13084505243E+02  0.14512323020E+02  0.51100000000E-03 0.  1.
        -12    1    3    3    0    0  0.47957578544E+01 -0.25655351308E+02  0.14730255684E+02  0.29969597539E+02  0.00000000000E+00 0.  1.
</event>
<event>
 7    1  0.3250765E-011  0.5052886E+02  0.7816164E-02  0.1300439E+00
        -11   -1    0    0    0    0  0.00000000000E+00  0.00000000000E+00  0.45593999997E+02  0.45594000000E+02  0.51100000000E-03 0. -1.
         11   -1    0    0    0    0 -0.00000000000E+00 -0.00000000000E+00 -0.45593999997E+02  0.45594000000E+02  0.51100000000E-03 0.  1.
    9900012    2    1    2    0    0 -0.18362853419E+02 -0.34431663767E+01 -0.36112541503E+02  0.50528862845E+02  0.30000009103E+02 0.  0.
         12    1    1    2    0    0  0.18362853419E+02  0.34431663767E+01  0.36112541503E+02  0.40659137155E+02  0.00000000000E+00 0. -1.
         11    1    3    3    0    0 -0.40075228806E+01 -0.24230205089E+01  0.14995331989E+01  0.49173029295E+01  0.51100000000E-03 0. -1.
        -11    1    3    3    0    0 -0.16309540309E+02  0.63916951484E+01 -0.21222813074E+02  0.27518405968E+02  0.51100000000E-03 0.  1.
         12    1    3    3    0    0  0.19542097701E+01 -0.74118410162E+01 -0.16389261628E+02  0.18093153948E+02  0.00000000000E+00 0. -1.
</event>
<event>
 7    1  0.3250765E-011  0.5052886E+02  0.7816164E-02  0.1300439E+00
        -11   -1    0    0    0    0  0.00000000000E+00  0.00000000000E+00  0.45593999997E+02  0.45594000000E+02  0.51100000000E-03 0.  1.
         11   -1    0    0    0    0 -0.00000000000E+00 -0.00000000000E+00 -0.45593999997E+02  0.45594000000E+02  0.51100000000E-03 0. -1.
    9900012    2    1    2    0    0  0.20283570131E+02 -0.15926895822E+02  0.31433686513E+02  0.50528857417E+02  0.29999992605E+02 0.  0.
         12    1    1    2    0    0 -0.20283570131E+02  0.15926895822E+02 -0.31433686513E+02  0.40659142583E+02  0.00000000000E+00 0. -1.
         11    1    3    3    0    0  0.42422726961E+01  0.66559897404E+01  0.65732537762E+01  0.10271647508E+02  0.51100000000E-03 0. -1.
        -11    1    3    3    0    0  0.29549165517E+01 -0.49193509043E+01 -0.15019225815E+01  0.59318898210E+01  0.51100000000E-03 0.  1.
        -12    1    3    3    0    0  0.13086380883E+02 -0.17663534658E+02  0.26362355318E+02  0.34325320088E+02  0.00000000000E+00 0.  1.
</event>
<event>
 7    1  0.3250765E-011  0.5052886E+02  0.7816164E-02  0.1300439E+00
        -11   -1    0    0    0    0  0.00000000000E+00  0.00000000000E+00  0.45593999997E+02  0.45594000000E+02  0.51100000000E-03 0.  1.
         11   -1    0    0    0    0 -0.00000000000E+00 -0.00000000000E+00 -0.45593999997E+02  0.45594000000E+02  0.51100000000E-03 0. -1.
    9900012    2    1    2    0    0  0.24629878271E+02  0.19380971449E+02  0.25901988918E+02  0.50528856036E+02  0.29999988408E+02 0.  0.
         12    1    1    2    0    0 -0.24629878271E+02 -0.19380971449E+02 -0.25901988918E+02  0.40659143964E+02  0.00000000000E+00 0. -1.
         11    1    3    3    0    0  0.22849780882E+00  0.10269757095E+02  0.78638053539E+01  0.12936752179E+02  0.51100000000E-03 0. -1.
        -11    1    3    3    0    0  0.16735811824E+02  0.15581939246E+02  0.11288872351E+02  0.25501428730E+02  0.51100000000E-03 0.  1.
        -12    1    3    3    0    0  0.76655686374E+01 -0.64707248916E+01  0.67493112138E+01  0.12090675127E+02  0.00000000000E+00 0.  1.
</event>
<event>
 7    1  0.3250765E-011  0.5052890E+02  0.7816164E-02  0.1300439E+00
        -11   -1    0    0    0    0  0.00000000000E+00  0.00000000000E+00  0.45593999997E+02  0.45594000000E+02  0.51100000000E-03 0.  1.
         11   -1    0    0    0    0 -0.00000000000E+00 -0.00000000000E+00 -0.45593999997E+02  0.45594000000E+02  0.51100000000E-03 0. -1.
    9900012    2    1    2    0    0  0.33064864932E+02  0.13282440029E+02  0.19581984412E+02  0.50528897457E+02  0.30000114311E+02 0.  0.
         12    1    1    2    0    0 -0.33064864932E+02 -0.13282440029E+02 -0.19581984412E+02  0.40659102543E+02  0.00000000000E+00 0. -1.
         11    1    3    3    0    0  0.20257722291E+00  0.24330539601E+01  0.57689801681E+01  0.62643372790E+01  0.51100000000E-03 0. -1.
        -11    1    3    3    0    0  0.28749870054E+02  0.14281215287E+02  0.18582972876E+02  0.37092250125E+02  0.51100000000E-03 0.  1.
        -12    1    3    3    0    0  0.41124176550E+01 -0.34318292179E+01 -0.47699686320E+01  0.71723100533E+01  0.00000000000E+00 0.  1.
</event>
<event>
 7    1  0.3250765E-011  0.5052886E+02  0.7816164E-02  0.1300439E+00
        -11   -1    0    0    0    0  0.00000000000E+00  0.00000000000E+00  0.45593999997E+02  0.45594000000E+02  0.51100000000E-03 0.  1.
         11   -1    0    0    0    0 -0.00000000000E+00 -0.00000000000E+00 -0.45593999997E+02  0.45594000000E+02  0.51100000000E-03 0. -1.
    9900012    2    1    2    0    0  0.35665590958E+02 -0.13984374507E+02 -0.13622362309E+02  0.50528857564E+02  0.29999993052E+02 0.  0.
         12    1    1    2    0    0 -0.35665590958E+02  0.13984374507E+02  0.13622362309E+02  0.40659142436E+02  0.00000000000E+00 0. -1.
         11    1    3    3    0    0  0.16036006786E+02 -0.64772677285E+01 -0.65673938889E+01  0.18499707393E+02  0.51100000000E-03 0. -1.
        -11    1    3    3    0    0  0.16120000575E+02 -0.12521843167E+02  0.26211211527E+01  0.20579631950E+02  0.51100000000E-03 0.  1.
         12    1    3    3    0    0  0.35095835974E+01  0.50147363890E+01 -0.96760895725E+01  0.11449518221E+02  0.00000000000E+00 0. -1.
</event>
<event>
 7    1  0.3250765E-011  0.5052887E+02  0.7816164E-02  0.1300439E+00
        -11   -1    0    0    0    0  0.00000000000E+00  0.00000000000E+00  0.45593999997E+02  0.45594000000E+02  0.51100000000E-03 0.  1.
         11   -1    0    0    0    0 -0.00000000000E+00 -0.00000000000E+00 -0.45593999997E+02  0.45594000000E+02  0.51100000000E-03 0. -1.
    9900012    2    1    2    0    0 -0.45313732515E+01  0.23919904823E+02  0.32564858502E+02  0.50528865731E+02  0.30000017876E+02 0.  0.
         12    1    1    2    0    0  0.45313732515E+01 -0.23919904823E+02 -0.32564858502E+02  0.40659134269E+02  0.00000000000E+00 0. -1.
         11    1    3    3    0    0 -0.24167157125E+01 -0.35728159396E+01  0.86029774346E+01  0.96237596383E+01  0.51100000000E-03 0. -1.
        -11    1    3    3    0    0 -0.94141802104E+01  0.86246424894E+01  0.11212139673E+02  0.16991860505E+02  0.51100000000E-03 0.  1.
         12    1    3    3    0    0  0.72995226714E+01  0.18868078273E+02  0.12749741394E+02  0.23913245588E+02  0.00000000000E+00 0. -1.
</event>
<event>
 7    1  0.3250765E-011  0.5052885E+02  0.7816164E-02  0.1300439E+00
        -11   -1    0    0    0    0  0.00000000000E+00  0.00000000000E+00  0.45593999997E+02  0.45594000000E+02  0.51100000000E-03 0.  1.
         11   -1    0    0    0    0 -0.00000000000E+00 -0.00000000000E+00 -0.45593999997E+02  0.45594000000E+02  0.51100000000E-03 0. -1.
    9900012    2    1    2    0    0 -0.32717972454E+02  0.21360753260E+02  0.11243605207E+02  0.50528853927E+02  0.29999981996E+02 0.  0.
         12    1    1    2    0    0  0.32717972454E+02 -0.21360753260E+02 -0.11243605207E+02  0.40659146073E+02  0.00000000000E+00 0. -1.
         11    1    3    3    0    0 -0.20941521218E+01  0.34354443573E+01  0.42962240136E+01  0.58860251509E+01  0.51100000000E-03 0. -1.
        -11    1    3    3    0    0 -0.31796078239E+02  0.98184461812E+01  0.11577089101E+02  0.35233811448E+02  0.51100000000E-03 0.  1.
        -12    1    3    3    0    0  0.11722579068E+01  0.81068627211E+01 -0.46297079070E+01  0.94090173282E+01  0.00000000000E+00 0.  1.
</event>
<event>
 7    1  0.3250765E-011  0.5052887E+02  0.7816164E-02  0.1300439E+00
        -11   -1    0    0    0    0  0.00000000000E+00  0.00000000000E+00  0.45593999997E+02  0.45594000000E+02  0.51100000000E-03 0.  1.
         11   -1    0    0    0    0 -0.00000000000E+00 -0.00000000000E+00 -0.45593999997E+02  0.45594000000E+02  0.51100000000E-03 0. -1.
    9900012    2    1    2    0    0  0.16177696315E+02  0.34910248654E+02  0.13142355738E+02  0.50528870232E+02  0.30000031557E+02 0.  0.
         12    1    1    2    0    0 -0.16177696315E+02 -0.34910248654E+02 -0.13142355738E+02  0.40659129768E+02  0.00000000000E+00 0. -1.
         11    1    3    3    0    0  0.80054055576E+01 -0.14551706020E+01  0.10963054089E+01  0.82101111706E+01  0.51100000000E-03 0. -1.
        -11    1    3    3    0    0  0.10066492854E+02  0.15485956301E+02  0.70730323785E+00  0.18483760415E+02  0.51100000000E-03 0.  1.
         12    1    3    3    0    0 -0.18942020974E+01  0.20879462955E+02  0.11338747091E+02  0.23834998647E+02  0.00000000000E+00 0. -1.
</event>
<event>
 7    1  0.3250765E-011  0.5052886E+02  0.7816164E-02  0.1300439E+00
        -11   -1    0    0    0    0  0.00000000000E+00  0.00000000000E+00  0.45593999997E+02  0.45594000000E+02  0.51100000000E-03 0.  1.
         11   -1    0    0    0    0 -0.00000000000E+00 -0.00000000000E+00 -0.45593999997E+02  0.45594000000E+02  0.51100000000E-03 0. -1.
    9900012    2    1    2    0    0  0.25673393722E+02  0.66694327729E+01  0.30814955684E+02  0.50528856225E+02  0.29999988981E+02 0.  0.
         12    1    1    2    0    0 -0.25673393722E+02 -0.66694327729E+01 -0.30814955684E+02  0.40659143775E+02  0.00000000000E+00 0. -1.
         11    1    3    3    0    0  0.45848585322E+01 -0.47651843770E+01 -0.12584446909E+01  0.67313886538E+01  0.51100000000E-03 0. -1.
        -11    1    3    3    0    0  0.23936142922E+01  0.31233790356E+01  0.19258127690E+02  0.19656051698E+02  0.51100000000E-03 0.  1.
         12    1    3    3    0    0  0.18694920898E+02  0.83112381142E+01  0.12815272685E+02  0.24141415873E+02  0.00000000000E+00 0. -1.
</event>
<event>
 7    1  0.3250765E-011  0.5052886E+02  0.7816164E-02  0.1300439E+00
        -11   -1    0    0    0    0  0.00000000000E+00  0.00000000000E+00  0.45593999997E+02  0.45594000000E+02  0.51100000000E-03 0. -1.
         11   -1    0    0    0    0 -0.00000000000E+00 -0.00000000000E+00 -0.45593999997E+02  0.45594000000E+02  0.51100000000E-03 0.  1.
    9900012    2    1    2    0    0 -0.73088364864E+01 -0.19650953867E+02 -0.34836570430E+02  0.50528859355E+02  0.29999998496E+02 0.  0.
         12    1    1    2    0    0  0.73088364864E+01  0.19650953867E+02  0.34836570430E+02  0.40659140645E+02  0.00000000000E+00 0. -1.
         11    1    3    3    0    0 -0.72875141660E+01  0.28856031667E+01 -0.14378011206E+02  0.16375645784E+02  0.51100000000E-03 0.  1.
        -11    1    3    3    0    0  0.12598084032E+01 -0.72217416956E+01  0.13695992642E+01  0.74576452541E+01  0.51100000000E-03 0. -1.
         12    1    3    3    0    0 -0.12811307236E+01 -0.15314815338E+02 -0.21828158488E+02  0.26695568317E+02  0.00000000000E+00 0. -1.
</event>
<event>
 7    1  0.3250765E-011  0.5052886E+02  0.7816164E-02  0.1300439E+00
        -11   -1    0    0    0    0  0.00000000000E+00  0.00000000000E+00  0.45593999997E+02  0.45594000000E+02  0.51100000000E-03 0.  1.
         11   -1    0    0    0    0 -0.00000000000E+00 -0.00000000000E+00 -0.45593999997E+02  0.45594000000E+02  0.51100000000E-03 0. -1.
    9900012    2    1    2    0    0  0.10075073564E+02  0.39373625459E+02  0.11730244538E+01  0.50528862337E+02  0.30000007561E+02 0.  0.
         12    1    1    2    0    0 -0.10075073564E+02 -0.39373625459E+02 -0.11730244538E+01  0.40659137663E+02  0.00000000000E+00 0. -1.
         11    1    3    3    0    0  0.15559290385E+02  0.10556178605E+02  0.34007136697E+01  0.19107309537E+02  0.51100000000E-03 0. -1.
        -11    1    3    3    0    0 -0.35754427045E+01  0.45013553106E+01  0.29887335040E+01  0.64790831438E+01  0.51100000000E-03 0.  1.
        -12    1    3    3    0    0 -0.19087741166E+01  0.24316091544E+02 -0.52164227199E+01  0.24942469657E+02  0.00000000000E+00 0.  1.
</event>
<event>
 7    1  0.3250765E-011  0.5052886E+02  0.7816164E-02  0.1300439E+00
        -11   -1    0    0    0    0  0.00000000000E+00  0.00000000000E+00  0.45593999997E+02  0.45594000000E+02  0.51100000000E-03 0. -1.
         11   -1    0    0    0    0 -0.00000000000E+00 -0.00000000000E+00 -0.45593999997E+02  0.45594000000E+02  0.51100000000E-03 0.  1.
    9900012    2    1    2    0    0 -0.90258331850E+01  0.49424603925E+01 -0.39335380566E+02  0.50528859039E+02  0.29999997534E+02 0.  0.
         12    1    1    2    0    0  0.90258331850E+01 -0.49424603925E+01  0.39335380566E+02  0.40659140961E+02  0.00000000000E+00 0. -1.
         11    1    3    3    0    0  0.39941551279E+01  0.97652518859E+01 -0.72305598304E+01  0.12790403250E+02  0.51100000000E-03 0. -1.
        -11    1    3    3    0    0 -0.21390142781E+01  0.21504002701E+01  0.10265107866E+00  0.30348213965E+01  0.51100000000E-03 0.  1.
         12    1    3    3    0    0 -0.10880974035E+02 -0.69731917635E+01 -0.32207471815E+02  0.34703634392E+02  0.00000000000E+00 0. -1.
</event>
<event>
 7    1  0.3250765E-011  0.5052886E+02  0.7816164E-02  0.1300439E+00
        -11   -1    0    0    0    0  0.00000000000E+00  0.00000000000E+00  0.45593999997E+02  0.45594000000E+02  0.51100000000E-03 0.  1.
         11   -1    0    0    0    0 -0.00000000000E+00 -0.00000000000E+00 -0.45593999997E+02  0.45594000000E+02  0.51100000000E-03 0. -1.
    9900012    2    1    2    0    0  0.35090828492E+02  0.20452202620E+02  0.18725941848E+01  0.50528862709E+02  0.30000008690E+02 0.  0.
         12    1    1    2    0    0 -0.35090828492E+02 -0.20452202620E+02 -0.18725941848E+01  0.40659137291E+02  0.00000000000E+00 0. -1.
         11    1    3    3    0    0  0.11388299511E+02  0.11915919009E+02 -0.46766507411E+01  0.17133404623E+02  0.51100000000E-03 0. -1.
        -11    1    3    3    0    0 -0.19228571373E+01 -0.38222215745E+01  0.12374976030E+01  0.44540047052E+01  0.51100000000E-03 0.  1.
         12    1    3    3    0    0  0.25625386119E+02  0.12358505186E+02  0.53117473229E+01  0.28941453381E+02  0.00000000000E+00 0. -1.
</event>
<event>
 7    1  0.3250765E-011  0.5052886E+02  0.7816164E-02  0.1300439E+00
        -11   -1    0    0    0    0  0.00000000000E+00  0.00000000000E+00  0.45593999997E+02  0.45594000000E+02  0.51100000000E-03 0.  1.
         11   -1    0    0    0    0 -0.00000000000E+00 -0.00000000000E+00 -0.45593999997E+02  0.45594000000E+02  0.51100000000E-03 0. -1.
    9900012    2    1    2    0    0 -0.23994124277E+02  0.32123431210E+02  0.67478097047E+01  0.50528858736E+02  0.29999996614E+02 0.  0.
         12    1    1    2    0    0  0.23994124277E+02 -0.32123431210E+02 -0.67478097047E+01  0.40659141264E+02  0.00000000000E+00 0. -1.
         11    1    3    3    0    0 -0.59896354706E+01 -0.16723659334E+01  0.95096209193E+01  0.11362457092E+02  0.51100000000E-03 0. -1.
        -11    1    3    3    0    0 -0.13168632669E+02  0.16507907194E+02 -0.13952360839E+01  0.21162952778E+02  0.51100000000E-03 0.  1.
        -12    1    3    3    0    0 -0.48358561379E+01  0.17287889949E+02 -0.13665751306E+01  0.18003448866E+02  0.00000000000E+00 0.  1.
</event>
<event>
 7    1  0.3250765E-011  0.5052878E+02  0.7816164E-02  0.1300439E+00
        -11   -1    0    0    0    0  0.00000000000E+00  0.00000000000E+00  0.45593999997E+02  0.45594000000E+02  0.51100000000E-03 0. -1.
         11   -1    0    0    0    0 -0.00000000000E+00 -0.00000000000E+00 -0.45593999997E+02  0.45594000000E+02  0.51100000000E-03 0.  1.
    9900012    2    1    2    0    0  0.22263971628E+02  0.24552957259E+02 -0.23550804214E+02  0.50528775684E+02  0.29999744169E+02 0.  0.
         12    1    1    2    0    0 -0.22263971628E+02 -0.24552957259E+02  0.23550804214E+02  0.40659224316E+02  0.00000000000E+00 0. -1.
         11    1    3    3    0    0  0.32885079632E+00 -0.15312989791E+01  0.96035555598E+00  0.18371996257E+01  0.51100000000E-03 0. -1.
        -11    1    3    3    0    0  0.89379867276E+01  0.74283749220E+01 -0.23162538795E+02  0.25914697846E+02  0.51100000000E-03 0.  1.
        -12    1    3    3    0    0  0.12997134104E+02  0.18655881316E+02 -0.13486209749E+01  0.22776878213E+02  0.00000000000E+00 0.  1.
</event>
<event>
 7    1  0.3250765E-011  0.5052888E+02  0.7816164E-02  0.1300439E+00
        -11   -1    0    0    0    0  0.00000000000E+00  0.00000000000E+00  0.45593999997E+02  0.45594000000E+02  0.51100000000E-03 0. -1.
         11   -1    0    0    0    0 -0.00000000000E+00 -0.00000000000E+00 -0.45593999997E+02  0.45594000000E+02  0.51100000000E-03 0.  1.
    9900012    2    1    2    0    0  0.15662123280E+02  0.33131224125E+02  0.17612037907E+02  0.50528880520E+02  0.30000062827E+02 0.  0.
         12    1    1    2    0    0 -0.15662123280E+02 -0.33131224125E+02 -0.17612037907E+02  0.40659119480E+02  0.00000000000E+00 0. -1.
         11    1    3    3    0    0  0.36378666951E+00  0.15119704854E+02  0.89039209165E+01  0.17550430865E+02  0.51100000000E-03 0. -1.
        -11    1    3    3    0    0  0.20006832172E+01  0.20942960983E+01 -0.65950536617E+01  0.72030231531E+01  0.51100000000E-03 0.  1.
         12    1    3    3    0    0  0.13297653394E+02  0.15917223173E+02  0.15303170652E+02  0.25775426501E+02  0.00000000000E+00 0. -1.
</event>
<event>
 7    1  0.3250765E-011  0.5052886E+02  0.7816164E-02  0.1300439E+00
        -11   -1    0    0    0    0  0.00000000000E+00  0.00000000000E+00  0.45593999997E+02  0.45594000000E+02  0.51100000000E-03 0.  1.
         11   -1    0    0    0    0 -0.00000000000E+00 -0.00000000000E+00 -0.45593999997E+02  0.45594000000E+02  0.51100000000E-03 0. -1.
    9900012    2    1    2    0    0  0.37573828673E+02 -0.15474056771E+02  0.13880101280E+01  0.50528860730E+02  0.30000002674E+02 0.  0.
         12    1    1    2    0    0 -0.37573828673E+02  0.15474056771E+02 -0.13880101280E+01  0.40659139270E+02  0.00000000000E+00 0. -1.
         11    1    3    3    0    0  0.81356598125E+01  0.13577204258E+01 -0.56392785847E+01  0.99916879734E+01  0.51100000000E-03 0. -1.
        -11    1    3    3    0    0  0.20521381343E+02 -0.30240991687E+01  0.11207840622E+02  0.23577276342E+02  0.51100000000E-03 0.  1.
        -12    1    3    3    0    0  0.89167875169E+01 -0.13807678028E+02 -0.41805519089E+01  0.16959896415E+02  0.00000000000E+00 0.  1.
</event>
<event>
 7    1  0.3250765E-011  0.5052886E+02  0.7816164E-02  0.1300439E+00
        -11   -1    0    0    0    0  0.00000000000E+00  0.00000000000E+00  0.45593999997E+02  0.45594000000E+02  0.51100000000E-03 0.  1.
         11   -1    0    0    0    0 -0.00000000000E+00 -0.00000000000E+00 -0.45593999997E+02  0.45594000000E+02  0.51100000000E-03 0. -1.
    9900012    2    1    2    0    0 -0.34499809770E+02 -0.10621156026E+01  0.21489556754E+02  0.50528855725E+02  0.29999987462E+02 0.  0.
         12    1    1    2    0    0  0.34499809770E+02  0.10621156026E+01 -0.21489556754E+02  0.40659144275E+02  0.00000000000E+00 0. -1.
         11    1    3    3    0    0 -0.24436707353E+01 -0.16276254505E+01 -0.13886601345E+01  0.32479329580E+01  0.51100000000E-03 0. -1.
        -11    1    3    3    0    0 -0.34353600438E+02  0.44014623530E+01  0.14032152556E+02  0.37369025134E+02  0.51100000000E-03 0.  1.
        -12    1    3    3    0    0  0.22974614031E+01 -0.38359525051E+01  0.88460643319E+01  0.99118976329E+01  0.00000000000E+00 0.  1.
</event>
<event>
 7    1  0.3250765E-011  0.5052884E+02  0.7816164E-02  0.1300439E+00
        -11   -1    0    0    0    0  0.00000000000E+00  0.00000000000E+00  0.45593999997E+02  0.45594000000E+02  0.51100000000E-03 0. -1.
         11   -1    0    0    0    0 -0.00000000000E+00 -0.00000000000E+00 -0.45593999997E+02  0.45594000000E+02  0.51100000000E-03 0.  1.
    9900012    2    1    2    0    0  0.21576373352E+02 -0.34269149502E+02 -0.36404529895E+01  0.50528838763E+02  0.29999935902E+02 0.  0.
         12    1    1    2    0    0 -0.21576373352E+02  0.34269149502E+02  0.36404529895E+01  0.40659161237E+02  0.00000000000E+00 0. -1.
         11    1    3    3    0    0  0.57136585483E+01 -0.15725178316E+02  0.67405746797E+01  0.18037806805E+02  0.51100000000E-03 0. -1.
        -11    1    3    3    0    0  0.17106688182E+02 -0.21550815847E+02 -0.89270270878E+01  0.28926946903E+02  0.51100000000E-03 0.  1.
        -12    1    3    3    0    0 -0.12439733788E+01  0.30068446613E+01 -0.14540005814E+01  0.35640850544E+01  0.00000000000E+00 0.  1.
</event>
<event>
 7    1  0.3250765E-011  0.5052886E+02  0.7816164E-02  0.1300439E+00
        -11   -1    0    0    0    0  0.00000000000E+00  0.00000000000E+00  0.45593999997E+02  0.45594000000E+02  0.51100000000E-03 0.  1.
         11   -1    0    0    0    0 -0.00000000000E+00 -0.00000000000E+00 -0.45593999997E+02  0.45594000000E+02  0.51100000000E-03 0. -1.
    9900012    2    1    2    0    0  0.21815128860E+02 -0.32820926062E+02  0.10002629761E+02  0.50528860353E+02  0.30000001528E+02 0.  0.
         12    1    1    2    0    0 -0.21815128860E+02  0.32820926062E+02 -0.10002629761E+02  0.40659139647E+02  0.00000000000E+00 0. -1.
         11    1    3    3    0    0  0.94611449173E+01 -0.16736183571E+02  0.10397216843E+02  0.21856697417E+02  0.51100000000E-03 0.  1.
        -11    1    3    3    0    0  0.22635154757E+01  0.38326935994E+01 -0.40851026616E+01  0.60416145650E+01  0.51100000000E-03 0. -1.
         12    1    3    3    0    0  0.10090468467E+02 -0.19917436091E+02  0.36905155797E+01  0.22630548370E+02  0.00000000000E+00 0. -1.
</event>
<event>
 7    1  0.3250765E-011  0.5052885E+02  0.7816164E-02  0.1300439E+00
        -11   -1    0    0    0    0  0.00000000000E+00  0.00000000000E+00  0.45593999997E+02  0.45594000000E+02  0.51100000000E-03 0.  1.
         11   -1    0    0    0    0 -0.00000000000E+00 -0.00000000000E+00 -0.45593999997E+02  0.45594000000E+02  0.51100000000E-03 0. -1.
    9900012    2    1    2    0    0  0.25819172467E+02  0.29716454177E+02  0.10171972589E+02  0.50528851680E+02  0.29999975167E+02 0.  0.
         12    1    1    2    0    0 -0.25819172467E+02 -0.29716454177E+02 -0.10171972589E+02  0.40659148320E+02  0.00000000000E+00 0. -1.
         11    1    3    3    0    0  0.16728507538E+02  0.21702808001E+02 -0.40106880400E+00  0.27404665589E+02  0.51100000000E-03 0. -1.
        -11    1    3    3    0    0  0.12876473111E+02  0.95841978525E+01  0.10177781962E+02  0.19006516097E+02  0.51100000000E-03 0.  1.
         12    1    3    3    0    0 -0.37858081822E+01 -0.15705516762E+01  0.39525943132E+00  0.41176699938E+01  0.00000000000E+00 0. -1.
</event>
<event>
 7    1  0.3250765E-011  0.5052885E+02  0.7816164E-02  0.1300439E+00
        -11   -1    0    0    0    0  0.00000000000E+00  0.00000000000E+00  0.45593999997E+02  0.45594000000E+02  0.51100000000E-03 0.  1.
         11   -1    0    0    0    0 -0.00000000000E+00 -0.00000000000E+00 -0.45593999997E+02  0.45594000000E+02  0.51100000000E-03 0. -1.
    9900012    2    1    2    0    0  0.14641052209E+02  0.14640456736E+02  0.34992327128E+02  0.50528851693E+02  0.29999975205E+02 0.  0.
         12    1    1    2    0    0 -0.14641052209E+02 -0.14640456736E+02 -0.34992327128E+02  0.40659148307E+02  0.00000000000E+00 0. -1.
         11    1    3    3    0    0  0.10728380647E+02  0.20818394186E+02  0.24673766888E+02  0.34019089649E+02  0.51100000000E-03 0.  1.
        -11    1    3    3    0    0  0.30960444746E+01  0.12880081825E+01 -0.44736048887E+00  0.33829850924E+01  0.51100000000E-03 0. -1.
        -12    1    3    3    0    0  0.81662708705E+00 -0.74659456331E+01  0.10765920729E+02  0.13126776952E+02  0.00000000000E+00 0.  1.
</event>
<event>
 7    1  0.3250765E-011  0.5052887E+02  0.7816164E-02  0.1300439E+00
        -11   -1    0    0    0    0  0.00000000000E+00  0.00000000000E+00  0.45593999997E+02  0.45594000000E+02  0.51100000000E-03 0.  1.
         11   -1    0    0    0    0 -0.00000000000E+00 -0.00000000000E+00 -0.45593999997E+02  0.45594000000E+02  0.51100000000E-03 0. -1.
    9900012    2    1    2    0    0  0.34243355091E+02  0.21397983339E+02 -0.47627178216E+01  0.50528873842E+02  0.30000042531E+02 0.  0.
         12    1    1    2    0    0 -0.34243355091E+02 -0.21397983339E+02  0.47627178216E+01  0.40659126158E+02  0.00000000000E+00 0. -1.
         11    1    3    3    0    0  0.11616786897E+02  0.31614454105E+01  0.62226529949E+01  0.13552338745E+02  0.51100000000E-03 0. -1.
        -11    1    3    3    0    0  0.26295714007E+01  0.99183085234E+01  0.35898282886E+01  0.10870802966E+02  0.51100000000E-03 0.  1.
         12    1    3    3    0    0  0.19996996794E+02  0.83182294048E+01 -0.14575199105E+02  0.26105732132E+02  0.00000000000E+00 0. -1.
</event>
<event>
 7    1  0.3250765E-011  0.5052885E+02  0.7816164E-02  0.1300439E+00
        -11   -1    0    0    0    0  0.00000000000E+00  0.00000000000E+00  0.45593999997E+02  0.45594000000E+02  0.51100000000E-03 0.  1.
         11   -1    0    0    0    0 -0.00000000000E+00 -0.00000000000E+00 -0.45593999997E+02  0.45594000000E+02  0.51100000000E-03 0. -1.
    9900012    2    1    2    0    0 -0.68242427007E+01 -0.39695952647E+02 -0.55522713576E+01  0.50528847743E+02  0.29999963200E+02 0.  0.
         12    1    1    2    0    0  0.68242427007E+01  0.39695952647E+02  0.55522713576E+01  0.40659152257E+02  0.00000000000E+00 0. -1.
         11    1    3    3    0    0 -0.25915662904E+01 -0.11326543961E+02 -0.44909671624E+01  0.12456949877E+02  0.51100000000E-03 0. -1.
        -11    1    3    3    0    0 -0.10110216616E+02 -0.26520058414E+02 -0.72976572088E+01  0.29305046994E+02  0.51100000000E-03 0.  1.
         12    1    3    3    0    0  0.58775402058E+01 -0.18493502723E+01  0.62363530136E+01  0.87668508719E+01  0.00000000000E+00 0. -1.
</event>
<event>
 7    1  0.3250765E-011  0.5052886E+02  0.7816164E-02  0.1300439E+00
        -11   -1    0    0    0    0  0.00000000000E+00  0.00000000000E+00  0.45593999997E+02  0.45594000000E+02  0.51100000000E-03 0.  1.
         11   -1    0    0    0    0 -0.00000000000E+00 -0.00000000000E+00 -0.45593999997E+02  0.45594000000E+02  0.51100000000E-03 0. -1.
    9900012    2    1    2    0    0  0.36047013132E+02 -0.17730986634E+02  0.62761878393E+01  0.50528861095E+02  0.30000003783E+02 0.  0.
         12    1    1    2    0    0 -0.36047013132E+02  0.17730986634E+02 -0.62761878393E+01  0.40659138905E+02  0.00000000000E+00 0. -1.
         11    1    3    3    0    0  0.31029464649E+01  0.33394132958E+01 -0.61075176153E-01  0.45589130681E+01  0.51100000000E-03 0.  1.
        -11    1    3    3    0    0  0.18941294553E+02 -0.14500770403E+02 -0.77162928418E+01  0.25071620552E+02  0.51100000000E-03 0. -1.
        -12    1    3    3    0    0  0.14002772114E+02 -0.65696295271E+01  0.14053555857E+02  0.20898327475E+02  0.00000000000E+00 0.  1.
</event>
<event>
 7    1  0.3250765E-011  0.5052886E+02  0.7816164E-02  0.1300439E+00
        -11   -1    0    0    0    0  0.00000000000E+00  0.00000000000E+00  0.45593999997E+02  0.45594000000E+02  0.51100000000E-03 0.  1.
         11   -1    0    0    0    0 -0.00000000000E+00 -0.00000000000E+00 -0.45593999997E+02  0.45594000000E+02  0.51100000000E-03 0. -1.
    9900012    2    1    2    0    0 -0.35041940492E+02 -0.13725055115E+02 -0.15389969636E+02  0.50528857157E+02  0.29999991814E+02 0.  0.
         12    1    1    2    0    0  0.35041940492E+02  0.13725055115E+02  0.15389969636E+02  0.40659142843E+02  0.00000000000E+00 0. -1.
         11    1    3    3    0    0 -0.37830979814E+01 -0.11534497475E+02 -0.10054457586E+02  0.15762251741E+02  0.51100000000E-03 0. -1.
        -11    1    3    3    0    0 -0.17791028964E+02 -0.76044843502E+01 -0.13716855871E+00  0.19348584168E+02  0.51100000000E-03 0.  1.
        -12    1    3    3    0    0 -0.13467813547E+02  0.54139267104E+01 -0.51983434906E+01  0.15418021248E+02  0.00000000000E+00 0.  1.
</event>
<event>
 7    1  0.3250765E-011  0.5052884E+02  0.7816164E-02  0.1300439E+00
        -11   -1    0    0    0    0  0.00000000000E+00  0.00000000000E+00  0.45593999997E+02  0.45594000000E+02  0.51100000000E-03 0. -1.
         11   -1    0    0    0    0 -0.00000000000E+00 -0.00000000000E+00 -0.45593999997E+02  0.45594000000E+02  0.51100000000E-03 0.  1.
    9900012    2    1    2    0    0  0.36007701534E+02 -0.60259048928E+01  0.17896957539E+02  0.50528841270E+02  0.29999943523E+02 0.  0.
         12    1    1    2    0    0 -0.36007701534E+02  0.60259048928E+01 -0.17896957539E+02  0.40659158730E+02  0.00000000000E+00 0. -1.
         11    1    3    3    0    0 -0.14668823341E+01 -0.68849261043E+00  0.10560408690E+01  0.19341634974E+01  0.51100000000E-03 0. -1.
        -11    1    3    3    0    0  0.17113422901E+02 -0.10544006305E+02 -0.22187027378E+01  0.20222956125E+02  0.51100000000E-03 0.  1.
        -12    1    3    3    0    0  0.20361160967E+02  0.52065940227E+01  0.19059619407E+02  0.28371721647E+02  0.00000000000E+00 0.  1.
</event>
<event>
 7    1  0.3250765E-011  0.5052888E+02  0.7816164E-02  0.1300439E+00
        -11   -1    0    0    0    0  0.00000000000E+00  0.00000000000E+00  0.45593999997E+02  0.45594000000E+02  0.51100000000E-03 0. -1.
         11   -1    0    0    0    0 -0.00000000000E+00 -0.00000000000E+00 -0.45593999997E+02  0.45594000000E+02  0.51100000000E-03 0.  1.
    9900012    2    1    2    0    0 -0.19396198367E+01  0.29234478106E+02 -0.28191255199E+02  0.50528884110E+02  0.30000073741E+02 0.  0.
         12    1    1    2    0    0  0.19396198367E+01 -0.29234478106E+02  0.28191255199E+02  0.40659115890E+02  0.00000000000E+00 0. -1.
         11    1    3    3    0    0 -0.36989523326E+01  0.21099088771E+02 -0.70411740198E+01  0.22548435138E+02  0.51100000000E-03 0.  1.
        -11    1    3    3    0    0  0.31541853738E+01 -0.64445703113E+00  0.15709261160E+01  0.35821808107E+01  0.51100000000E-03 0. -1.
        -12    1    3    3    0    0 -0.13948528778E+01  0.87798463663E+01 -0.22721007296E+02  0.24398268162E+02  0.00000000000E+00 0.  1.
</event>
<event>
 7    1  0.3250765E-011  0.5052886E+02  0.7816164E-02  0.1300439E+00
        -11   -1    0    0    0    0  0.00000000000E+00  0.00000000000E+00  0.45593999997E+02  0.45594000000E+02  0.51100000000E-03 0.  1.
         11   -1    0    0    0    0 -0.00000000000E+00 -0.00000000000E+00 -0.45593999997E+02  0.45594000000E+02  0.51100000000E-03 0. -1.
    9900012    2    1    2    0    0 -0.49657330495E+01  0.27195195572E+02  0.29814904911E+02  0.50528859308E+02  0.29999998353E+02 0.  0.
         12    1    1    2    0    0  0.49657330495E+01 -0.27195195572E+02 -0.29814904911E+02  0.40659140692E+02  0.00000000000E+00 0. -1.
         11    1    3    3    0    0  0.22676642713E+01 -0.33118811028E+01  0.84461354884E+01  0.93513668860E+01  0.51100000000E-03 0. -1.
        -11    1    3    3    0    0  0.50966290727E+01  0.10234459468E+02  0.60625320631E+01  0.12941177836E+02  0.51100000000E-03 0.  1.
         12    1    3    3    0    0 -0.12330026394E+02  0.20272617207E+02  0.15306237360E+02  0.28236314586E+02  0.00000000000E+00 0. -1.
</event>
<event>
 7    1  0.3250765E-011  0.5052887E+02  0.7816164E-02  0.1300439E+00
        -11   -1    0    0    0    0  0.00000000000E+00  0.00000000000E+00  0.45593999997E+02  0.45594000000E+02  0.51100000000E-03 0.  1.
         11   -1    0    0    0    0 -0.00000000000E+00 -0.00000000000E+00 -0.45593999997E+02  0.45594000000E+02  0.51100000000E-03 0. -1.
    9900012    2    1    2    0    0  0.15241948274E+02 -0.16815677906E+02  0.33735459669E+02  0.50528865114E+02  0.30000016000E+02 0.  0.
         12    1    1    2    0    0 -0.15241948274E+02  0.16815677906E+02 -0.33735459669E+02  0.40659134886E+02  0.00000000000E+00 0. -1.
         11    1    3    3    0    0 -0.33548603073E+01 -0.10524892304E+02  0.55152402053E+01  0.12346915424E+02  0.51100000000E-03 0. -1.
        -11    1    3    3    0    0  0.15052005719E+02 -0.11813976008E+02  0.21686857891E+02  0.28921492194E+02  0.51100000000E-03 0.  1.
        -12    1    3    3    0    0  0.35448028619E+01  0.55231904067E+01  0.65333615722E+01  0.92604574958E+01  0.00000000000E+00 0.  1.
</event>
<event>
 7    1  0.3250765E-011  0.5052885E+02  0.7816164E-02  0.1300439E+00
        -11   -1    0    0    0    0  0.00000000000E+00  0.00000000000E+00  0.45593999997E+02  0.45594000000E+02  0.51100000000E-03 0. -1.
         11   -1    0    0    0    0 -0.00000000000E+00 -0.00000000000E+00 -0.45593999997E+02  0.45594000000E+02  0.51100000000E-03 0.  1.
    9900012    2    1    2    0    0 -0.17735646183E+02 -0.33527446416E+02 -0.14646617509E+02  0.50528853266E+02  0.29999979987E+02 0.  0.
         12    1    1    2    0    0  0.17735646183E+02  0.33527446416E+02  0.14646617509E+02  0.40659146734E+02  0.00000000000E+00 0. -1.
         11    1    3    3    0    0 -0.10498824368E+02 -0.12690209012E+02 -0.13433276290E+02  0.21253696856E+02  0.51100000000E-03 0. -1.
        -11    1    3    3    0    0 -0.26024424097E+00 -0.16535186631E+02 -0.82424786921E+01  0.18477515505E+02  0.51100000000E-03 0.  1.
        -12    1    3    3    0    0 -0.69765775732E+01 -0.43020507719E+01  0.70291374735E+01  0.10797640904E+02  0.00000000000E+00 0.  1.
</event>
<event>
 7    1  0.3250765E-011  0.5052886E+02  0.7816164E-02  0.1300439E+00
        -11   -1    0    0    0    0  0.00000000000E+00  0.00000000000E+00  0.45593999997E+02  0.45594000000E+02  0.51100000000E-03 0. -1.
         11   -1    0    0    0    0 -0.00000000000E+00 -0.00000000000E+00 -0.45593999997E+02  0.45594000000E+02  0.51100000000E-03 0.  1.
    9900012    2    1    2    0    0  0.18546663620E+02  0.11492678042E+02 -0.34308973881E+02  0.50528855041E+02  0.29999985383E+02 0.  0.
         12    1    1    2    0    0 -0.18546663620E+02 -0.11492678042E+02  0.34308973881E+02  0.40659144959E+02  0.00000000000E+00 0. -1.
         11    1    3    3    0    0 -0.26657161008E+01 -0.35834589952E+01  0.11816961162E+01  0.46199163058E+01  0.51100000000E-03 0. -1.
        -11    1    3    3    0    0  0.56561697648E+01  0.79894509429E+01 -0.22178069914E+02  0.24242325964E+02  0.51100000000E-03 0.  1.
        -12    1    3    3    0    0  0.15556209956E+02  0.70866860946E+01 -0.13312600084E+02  0.21666612771E+02  0.00000000000E+00 0.  1.
</event>
<event>
 7    1  0.3250765E-011  0.5052887E+02  0.7816164E-02  0.1300439E+00
        -11   -1    0    0    0    0  0.00000000000E+00  0.00000000000E+00  0.45593999997E+02  0.45594000000E+02  0.51100000000E-03 0. -1.
         11   -1    0    0    0    0 -0.00000000000E+00 -0.00000000000E+00 -0.45593999997E+02  0.45594000000E+02  0.51100000000E-03 0.  1.
    9900012    2    1    2    0    0 -0.84523623300E+01 -0.38907756483E+02 -0.82406633897E+01  0.50528874620E+02  0.30000044896E+02 0.  0.
         12    1    1    2    0    0  0.84523623300E+01  0.38907756483E+02  0.82406633897E+01  0.40659125380E+02  0.00000000000E+00 0. -1.
         11    1    3    3    0    0 -0.81380630920E+01 -0.33005427275E+01 -0.91034950564E+01  0.12648923894E+02  0.51100000000E-03 0.  1.
        -11    1    3    3    0    0  0.58600873259E+01 -0.15291793044E+02 -0.18248282179E+01  0.16477547034E+02  0.51100000000E-03 0. -1.
        -12    1    3    3    0    0 -0.61743865639E+01 -0.20315420711E+02  0.26876598847E+01  0.21402403692E+02  0.00000000000E+00 0.  1.
</event>
<event>
 7    1  0.3250765E-011  0.5052886E+02  0.7816164E-02  0.1300439E+00
        -11   -1    0    0    0    0  0.00000000000E+00  0.00000000000E+00  0.45593999997E+02  0.45594000000E+02  0.51100000000E-03 0. -1.
         11   -1    0    0    0    0 -0.00000000000E+00 -0.00000000000E+00 -0.45593999997E+02  0.45594000000E+02  0.51100000000E-03 0.  1.
    9900012    2    1    2    0    0  0.15374725971E+02  0.26144649486E+02 -0.27078416807E+02  0.50528861394E+02  0.30000004693E+02 0.  0.
         12    1    1    2    0    0 -0.15374725971E+02 -0.26144649486E+02  0.27078416807E+02  0.40659138606E+02  0.00000000000E+00 0. -1.
         11    1    3    3    0    0  0.16984614056E+02  0.22273908488E+02 -0.12710257952E+02  0.30759628922E+02  0.51100000000E-03 0. -1.
        -11    1    3    3    0    0 -0.33134850984E+01  0.47857816095E+00  0.13421224553E+01  0.36068703192E+01  0.51100000000E-03 0.  1.
        -12    1    3    3    0    0  0.17035970127E+01  0.33921628371E+01 -0.15710281310E+02  0.16162362152E+02  0.00000000000E+00 0.  1.
</event>
<event>
 7    1  0.3250765E-011  0.5052886E+02  0.7816164E-02  0.1300439E+00
        -11   -1    0    0    0    0  0.00000000000E+00  0.00000000000E+00  0.45593999997E+02  0.45594000000E+02  0.51100000000E-03 0.  1.
         11   -1    0    0    0    0 -0.00000000000E+00 -0.00000000000E+00 -0.45593999997E+02  0.45594000000E+02  0.51100000000E-03 0. -1.
    9900012    2    1    2    0    0  0.35259724187E+02  0.18527746802E+02  0.81633310391E+01  0.50528861729E+02  0.30000005711E+02 0.  0.
         12    1    1    2    0    0 -0.35259724187E+02 -0.18527746802E+02 -0.81633310391E+01  0.40659138271E+02  0.00000000000E+00 0. -1.
         11    1    3    3    0    0  0.44802276314E+01 -0.24350289841E+01  0.59178072914E+01  0.78116739039E+01  0.51100000000E-03 0. -1.
        -11    1    3    3    0    0  0.26129515247E+02  0.91032974694E+01  0.79066906890E+01  0.28777375658E+02  0.51100000000E-03 0.  1.
        -12    1    3    3    0    0  0.46499813088E+01  0.11859478316E+02 -0.56611669413E+01  0.13939812167E+02  0.00000000000E+00 0.  1.
</event>
<event>
 7    1  0.3250765E-011  0.5052886E+02  0.7816164E-02  0.1300439E+00
        -11   -1    0    0    0    0  0.00000000000E+00  0.00000000000E+00  0.45593999997E+02  0.45594000000E+02  0.51100000000E-03 0.  1.
         11   -1    0    0    0    0 -0.00000000000E+00 -0.00000000000E+00 -0.45593999997E+02  0.45594000000E+02  0.51100000000E-03 0. -1.
    9900012    2    1    2    0    0  0.24784932653E+02  0.29177230207E+02  0.13695334764E+02  0.50528857812E+02  0.29999993806E+02 0.  0.
         12    1    1    2    0    0 -0.24784932653E+02 -0.29177230207E+02 -0.13695334764E+02  0.40659142188E+02  0.00000000000E+00 0. -1.
         11    1    3    3    0    0  0.18968312345E+02  0.11620228279E+02  0.10151149839E+02  0.24451429851E+02  0.51100000000E-03 0. -1.
        -11    1    3    3    0    0  0.35001096000E+01  0.20822676168E+02  0.51984139086E+01  0.21745301043E+02  0.51100000000E-03 0.  1.
         12    1    3    3    0    0  0.23165107085E+01 -0.32656742401E+01 -0.16542289836E+01  0.43321269182E+01  0.00000000000E+00 0. -1.
</event>
<event>
 7    1  0.3250765E-011  0.5052885E+02  0.7816164E-02  0.1300439E+00
        -11   -1    0    0    0    0  0.00000000000E+00  0.00000000000E+00  0.45593999997E+02  0.45594000000E+02  0.51100000000E-03 0. -1.
         11   -1    0    0    0    0 -0.00000000000E+00 -0.00000000000E+00 -0.45593999997E+02  0.45594000000E+02  0.51100000000E-03 0.  1.
    9900012    2    1    2    0    0  0.12065293252E+02 -0.20906969367E+02 -0.32718398288E+02  0.50528852740E+02  0.29999978388E+02 0.  0.
         12    1    1    2    0    0 -0.12065293252E+02  0.20906969367E+02  0.32718398288E+02  0.40659147260E+02  0.00000000000E+00 0. -1.
         11    1    3    3    0    0 -0.33435850794E+01 -0.90388084285E+01 -0.18252689918E+02  0.20640743894E+02  0.51100000000E-03 0. -1.
        -11    1    3    3    0    0  0.39083386073E+01 -0.13496718972E+02 -0.10753971204E+02  0.17694192001E+02  0.51100000000E-03 0.  1.
        -12    1    3    3    0    0  0.11500539724E+02  0.16285580331E+01 -0.37117371664E+01  0.12193916844E+02  0.00000000000E+00 0.  1.
</event>
<event>
 7    1  0.3250765E-011  0.5052886E+02  0.7816164E-02  0.1300439E+00
        -11   -1    0    0    0    0  0.00000000000E+00  0.00000000000E+00  0.45593999997E+02  0.45594000000E+02  0.51100000000E-03 0.  1.
         11   -1    0    0    0    0 -0.00000000000E+00 -0.00000000000E+00 -0.45593999997E+02  0.45594000000E+02  0.51100000000E-03 0. -1.
    9900012    2    1    2    0    0  0.36212824803E+02 -0.18371047452E+02 -0.20741101336E+01  0.50528855917E+02  0.29999988046E+02 0.  0.
         12    1    1    2    0    0 -0.36212824803E+02  0.18371047452E+02  0.20741101336E+01  0.40659144083E+02  0.00000000000E+00 0. -1.
         11    1    3    3    0    0  0.15751615947E+01 -0.48003106332E+01 -0.22825042935E+01  0.55438201933E+01  0.51100000000E-03 0. -1.
        -11    1    3    3    0    0  0.31250861187E+02 -0.12965119285E+02  0.94460624903E+01  0.35127464181E+02  0.51100000000E-03 0.  1.
         12    1    3    3    0    0  0.33868020216E+01 -0.60561753387E+00 -0.92376683305E+01  0.98575715424E+01  0.00000000000E+00 0. -1.
</event>
<event>
 7    1  0.3250765E-011  0.5052886E+02  0.7816164E-02  0.1300439E+00
        -11   -1    0    0    0    0  0.00000000000E+00  0.00000000000E+00  0.45593999997E+02  0.45594000000E+02  0.51100000000E-03 0. -1.
         11   -1    0    0    0    0 -0.00000000000E+00 -0.00000000000E+00 -0.45593999997E+02  0.45594000000E+02  0.51100000000E-03 0.  1.
    9900012    2    1    2    0    0 -0.11004439929E+02  0.79861228821E+01 -0.38318271565E+02  0.50528858438E+02  0.29999995708E+02 0.  0.
         12    1    1    2    0    0  0.11004439929E+02 -0.79861228821E+01  0.38318271565E+02  0.40659141562E+02  0.00000000000E+00 0. -1.
         11    1    3    3    0    0  0.22532235619E+01 -0.19831615252E+01 -0.45000343188E+01  0.54092749224E+01  0.51100000000E-03 0. -1.
        -11    1    3    3    0    0 -0.12549173615E+02 -0.49397664429E+01 -0.91846576860E+01  0.16316892719E+02  0.51100000000E-03 0.  1.
        -12    1    3    3    0    0 -0.70848987564E+00  0.14909050850E+02 -0.24633579560E+02  0.28802690797E+02  0.00000000000E+00 0.  1.
</event>
<event>
 7    1  0.3250765E-011  0.5052886E+02  0.7816164E-02  0.1300439E+00
        -11   -1    0    0    0    0  0.00000000000E+00  0.00000000000E+00  0.45593999997E+02  0.45594000000E+02  0.51100000000E-03 0. -1.
         11   -1    0    0    0    0 -0.00000000000E+00 -0.00000000000E+00 -0.45593999997E+02  0.45594000000E+02  0.51100000000E-03 0.  1.
    9900012    2    1    2    0    0  0.45553906487E+01  0.12641759619E+02 -0.38374473704E+02  0.50528857089E+02  0.29999991608E+02 0.  0.
         12    1    1    2    0    0 -0.45553906487E+01 -0.12641759619E+02  0.38374473704E+02  0.40659142911E+02  0.00000000000E+00 0. -1.
         11    1    3    3    0    0 -0.58709290913E+01  0.17202115457E+01 -0.16223949664E+02  0.17339073768E+02  0.51100000000E-03 0. -1.
        -11    1    3    3    0    0 -0.11832508583E+01  0.12417942000E+02 -0.14850645628E+02  0.19394510613E+02  0.51100000000E-03 0.  1.
        -12    1    3    3    0    0  0.11609570598E+02 -0.14963939263E+01 -0.72998784114E+01  0.13795272708E+02  0.00000000000E+00 0.  1.
</event>
<event>
 7    1  0.3250765E-011  0.5052887E+02  0.7816164E-02  0.1300439E+00
        -11   -1    0    0    0    0  0.00000000000E+00  0.00000000000E+00  0.45593999997E+02  0.45594000000E+02  0.51100000000E-03 0. -1.
         11   -1    0    0    0    0 -0.00000000000E+00 -0.00000000000E+00 -0.45593999997E+02  0.45594000000E+02  0.51100000000E-03 0.  1.
    9900012    2    1    2    0    0 -0.10240799204E+02 -0.36659503621E+02  0.14295849238E+02  0.50528874585E+02  0.30000044787E+02 0.  0.
         12    1    1    2    0    0  0.10240799204E+02  0.36659503621E+02 -0.14295849238E+02  0.40659125415E+02  0.00000000000E+00 0. -1.
         11    1    3    3    0    0  0.46021780826E+01 -0.10024917983E+00  0.15992728034E+00  0.46060471120E+01  0.51100000000E-03 0.  1.
        -11    1    3    3    0    0 -0.11339135529E+02 -0.82894034411E+01  0.97563978570E+01  0.17101973668E+02  0.51100000000E-03 0. -1.
         12    1    3    3    0    0 -0.35038417579E+01 -0.28269851000E+02  0.43795241011E+01  0.28820853804E+02  0.00000000000E+00 0. -1.
</event>
<event>
 7    1  0.3250765E-011  0.5052886E+02  0.7816164E-02  0.1300439E+00
        -11   -1    0    0    0    0  0.00000000000E+00  0.00000000000E+00  0.45593999997E+02  0.45594000000E+02  0.51100000000E-03 0. -1.
         11   -1    0    0    0    0 -0.00000000000E+00 -0.00000000000E+00 -0.45593999997E+02  0.45594000000E+02  0.51100000000E-03 0.  1.
    9900012    2    1    2    0    0 -0.17903857947E+02  0.97951437758E+01 -0.35166359983E+02  0.50528857788E+02  0.29999993731E+02 0.  0.
         12    1    1    2    0    0  0.17903857947E+02 -0.97951437758E+01  0.35166359983E+02  0.40659142212E+02  0.00000000000E+00 0. -1.
         11    1    3    3    0    0  0.20021934782E+01 -0.61333228271E+01 -0.33629879079E+01  0.72757209647E+01  0.51100000000E-03 0. -1.
        -11    1    3    3    0    0 -0.55894683674E+00  0.86129887044E+01 -0.93134948520E+01  0.12697920405E+02  0.51100000000E-03 0.  1.
        -12    1    3    3    0    0 -0.19347104588E+02  0.73154778986E+01 -0.22489877224E+02  0.30555216418E+02  0.00000000000E+00 0.  1.
</event>
<event>
 7    1  0.3250765E-011  0.5052889E+02  0.7816164E-02  0.1300439E+00
        -11   -1    0    0    0    0  0.00000000000E+00  0.00000000000E+00  0.45593999997E+02  0.45594000000E+02  0.51100000000E-03 0.  1.
         11   -1    0    0    0    0 -0.00000000000E+00 -0.00000000000E+00 -0.45593999997E+02  0.45594000000E+02  0.51100000000E-03 0. -1.
    9900012    2    1    2    0    0  0.51537500606E+01 -0.27828534067E+02  0.29192029869E+02  0.50528892092E+02  0.30000098002E+02 0.  0.
         12    1    1    2    0    0 -0.51537500606E+01  0.27828534067E+02 -0.29192029869E+02  0.40659107908E+02  0.00000000000E+00 0. -1.
         11    1    3    3    0    0 -0.37741645548E+01  0.27723459046E+01  0.17008159554E+01  0.49822680656E+01  0.51100000000E-03 0. -1.
        -11    1    3    3    0    0  0.11670422625E+02 -0.11169617655E+02  0.16332959902E+02  0.22972259407E+02  0.51100000000E-03 0.  1.
        -12    1    3    3    0    0 -0.27425080100E+01 -0.19431262316E+02  0.11158254011E+02  0.22574364619E+02  0.00000000000E+00 0.  1.
</event>
<event>
 7    1  0.3250765E-011  0.5052886E+02  0.7816164E-02  0.1300439E+00
        -11   -1    0    0    0    0  0.00000000000E+00  0.00000000000E+00  0.45593999997E+02  0.45594000000E+02  0.51100000000E-03 0.  1.
         11   -1    0    0    0    0 -0.00000000000E+00 -0.00000000000E+00 -0.45593999997E+02  0.45594000000E+02  0.51100000000E-03 0. -1.
    9900012    2    1    2    0    0 -0.40471045261E+02 -0.21687296862E+01 -0.32490940689E+01  0.50528861972E+02  0.30000006449E+02 0.  0.
         12    1    1    2    0    0  0.40471045261E+02  0.21687296862E+01  0.32490940689E+01  0.40659138028E+02  0.00000000000E+00 0. -1.
         11    1    3    3    0    0 -0.75549481897E+01 -0.39629234981E+00  0.11935860365E+01  0.76589123029E+01  0.51100000000E-03 0. -1.
        -11    1    3    3    0    0 -0.87652499625E+01 -0.13172976800E+02 -0.31433958456E+01  0.16131889610E+02  0.51100000000E-03 0.  1.
         12    1    3    3    0    0 -0.24150847108E+02  0.11400539464E+02 -0.12992842597E+01  0.26738060059E+02  0.00000000000E+00 0. -1.
</event>
<event>
 7    1  0.3250765E-011  0.5052886E+02  0.7816164E-02  0.1300439E+00
        -11   -1    0    0    0    0  0.00000000000E+00  0.00000000000E+00  0.45593999997E+02  0.45594000000E+02  0.51100000000E-03 0.  1.
         11   -1    0    0    0    0 -0.00000000000E+00 -0.00000000000E+00 -0.45593999997E+02  0.45594000000E+02  0.51100000000E-03 0. -1.
    9900012    2    1    2    0    0 -0.21699314939E+02  0.61762304183E+01  0.33825431186E+02  0.50528857290E+02  0.29999992219E+02 0.  0.
         12    1    1    2    0    0  0.21699314939E+02 -0.61762304183E+01 -0.33825431186E+02  0.40659142710E+02  0.00000000000E+00 0. -1.
         11    1    3    3    0    0  0.51239863875E+01  0.57977851046E+01  0.66242390319E+01  0.10185778892E+02  0.51100000000E-03 0. -1.
        -11    1    3    3    0    0 -0.29562324894E+01 -0.15409278018E+01 -0.87169893663E+00  0.34458131579E+01  0.51100000000E-03 0.  1.
        -12    1    3    3    0    0 -0.23867068837E+02  0.19193731155E+01  0.28072891091E+02  0.36897265240E+02  0.00000000000E+00 0.  1.
</event>
<event>
 7    1  0.3250765E-011  0.5052877E+02  0.7816164E-02  0.1300439E+00
        -11   -1    0    0    0    0  0.00000000000E+00  0.00000000000E+00  0.45593999997E+02  0.45594000000E+02  0.51100000000E-03 0. -1.
         11   -1    0    0    0    0 -0.00000000000E+00 -0.00000000000E+00 -0.45593999997E+02  0.45594000000E+02  0.51100000000E-03 0.  1.
    9900012    2    1    2    0    0 -0.21288999662E+02 -0.29510886620E+02 -0.18139988802E+02  0.50528768214E+02  0.29999721461E+02 0.  0.
         12    1    1    2    0    0  0.21288999662E+02  0.29510886620E+02  0.18139988802E+02  0.40659231786E+02  0.00000000000E+00 0. -1.
         11    1    3    3    0    0 -0.20954422374E+02 -0.19302795191E+02 -0.72784864568E+01  0.29405137044E+02  0.51100000000E-03 0. -1.
        -11    1    3    3    0    0 -0.29269363779E+01 -0.13555039244E+02 -0.86958242742E+01  0.16368366001E+02  0.51100000000E-03 0.  1.
         12    1    3    3    0    0  0.25923590898E+01  0.33469478142E+01 -0.21656780715E+01  0.47552651694E+01  0.00000000000E+00 0. -1.
</event>
<event>
 7    1  0.3250765E-011  0.5052886E+02  0.7816164E-02  0.1300439E+00
        -11   -1    0    0    0    0  0.00000000000E+00  0.00000000000E+00  0.45593999997E+02  0.45594000000E+02  0.51100000000E-03 0.  1.
         11   -1    0    0    0    0 -0.00000000000E+00 -0.00000000000E+00 -0.45593999997E+02  0.45594000000E+02  0.51100000000E-03 0. -1.
    9900012    2    1    2    0    0 -0.24977043213E+02  0.23736636006E+02  0.21584365478E+02  0.50528863147E+02  0.30000010022E+02 0.  0.
         12    1    1    2    0    0  0.24977043213E+02 -0.23736636006E+02 -0.21584365478E+02  0.40659136853E+02  0.00000000000E+00 0. -1.
         11    1    3    3    0    0 -0.13753271261E+02  0.12700920725E+02  0.15995204123E+01  0.18788941520E+02  0.51100000000E-03 0. -1.
        -11    1    3    3    0    0 -0.58765813899E+01  0.82492155045E+01 -0.74038138656E+00  0.10155389216E+02  0.51100000000E-03 0.  1.
        -12    1    3    3    0    0 -0.53471905623E+01  0.27864997770E+01  0.20725226452E+02  0.21584532411E+02  0.00000000000E+00 0.  1.
</event>
<event>
 7    1  0.3250765E-011  0.5052886E+02  0.7816164E-02  0.1300439E+00
        -11   -1    0    0    0    0  0.00000000000E+00  0.00000000000E+00  0.45593999997E+02  0.45594000000E+02  0.51100000000E-03 0.  1.
         11   -1    0    0    0    0 -0.00000000000E+00 -0.00000000000E+00 -0.45593999997E+02  0.45594000000E+02  0.51100000000E-03 0. -1.
    9900012    2    1    2    0    0  0.19088476859E+02 -0.35861891294E+02  0.16494433113E+01  0.50528857619E+02  0.29999993218E+02 0.  0.
         12    1    1    2    0    0 -0.19088476859E+02  0.35861891294E+02 -0.16494433113E+01  0.40659142381E+02  0.00000000000E+00 0. -1.
         11    1    3    3    0    0  0.60523927011E+01 -0.62323372037E+01 -0.97324788008E+01  0.13045866330E+02  0.51100000000E-03 0. -1.
        -11    1    3    3    0    0 -0.73996861520E+00  0.13252665071E+00  0.37318565697E+01  0.38068189584E+01  0.51100000000E-03 0.  1.
         12    1    3    3    0    0  0.13776052773E+02 -0.29762080741E+02  0.76500655424E+01  0.33676172330E+02  0.00000000000E+00 0. -1.
</event>
<event>
 7    1  0.3250765E-011  0.5052886E+02  0.7816164E-02  0.1300439E+00
        -11   -1    0    0    0    0  0.00000000000E+00  0.00000000000E+00  0.45593999997E+02  0.45594000000E+02  0.51100000000E-03 0. -1.
         11   -1    0    0    0    0 -0.00000000000E+00 -0.00000000000E+00 -0.45593999997E+02  0.45594000000E+02  0.51100000000E-03 0.  1.
    9900012    2    1    2    0    0 -0.30061069803E+02  0.14631577523E+02 -0.23139037040E+02  0.50528855719E+02  0.29999987443E+02 0.  0.
         12    1    1    2    0    0  0.30061069803E+02 -0.14631577523E+02  0.23139037040E+02  0.40659144281E+02  0.00000000000E+00 0. -1.
         11    1    3    3    0    0 -0.87242345087E+01  0.13380722440E+02 -0.13395268419E+02  0.20846803521E+02  0.51100000000E-03 0.  1.
        -11    1    3    3    0    0 -0.51307307977E+01 -0.49221579086E+01 -0.10081878402E+02  0.12336786833E+02  0.51100000000E-03 0. -1.
        -12    1    3    3    0    0 -0.16206104497E+02  0.61730129908E+01  0.33810978006E+00  0.17345265365E+02  0.00000000000E+00 0.  1.
</event>
<event>
 7    1  0.3250765E-011  0.5052884E+02  0.7816164E-02  0.1300439E+00
        -11   -1    0    0    0    0  0.00000000000E+00  0.00000000000E+00  0.45593999997E+02  0.45594000000E+02  0.51100000000E-03 0. -1.
         11   -1    0    0    0    0 -0.00000000000E+00 -0.00000000000E+00 -0.45593999997E+02  0.45594000000E+02  0.51100000000E-03 0.  1.
    9900012    2    1    2    0    0 -0.42304230146E+01  0.15637935004E+02 -0.37292438958E+02  0.50528837520E+02  0.29999932126E+02 0.  0.
         12    1    1    2    0    0  0.42304230146E+01 -0.15637935004E+02  0.37292438958E+02  0.40659162480E+02  0.00000000000E+00 0. -1.
         11    1    3    3    0    0 -0.10050356793E+02 -0.63618923091E+00 -0.26009798238E+02  0.27891289197E+02  0.51100000000E-03 0.  1.
        -11    1    3    3    0    0  0.49302204076E+01  0.23602189983E+01 -0.47461656877E+01  0.72390466212E+01  0.51100000000E-03 0. -1.
        -12    1    3    3    0    0  0.88971337038E+00  0.13913905237E+02 -0.65364750325E+01  0.15398501702E+02  0.00000000000E+00 0.  1.
</event>
<event>
 7    1  0.3250765E-011  0.5052886E+02  0.7816164E-02  0.1300439E+00
        -11   -1    0    0    0    0  0.00000000000E+00  0.00000000000E+00  0.45593999997E+02  0.45594000000E+02  0.51100000000E-03 0.  1.
         11   -1    0    0    0    0 -0.00000000000E+00 -0.00000000000E+00 -0.45593999997E+02  0.45594000000E+02  0.51100000000E-03 0. -1.
    9900012    2    1    2    0    0  0.21316249529E+02 -0.17421847536E+02  0.29920934168E+02  0.50528861212E+02  0.30000004139E+02 0.  0.
         12    1    1    2    0    0 -0.21316249529E+02  0.17421847536E+02 -0.29920934168E+02  0.40659138788E+02  0.00000000000E+00 0. -1.
         11    1    3    3    0    0  0.14689850682E+01 -0.13665814417E+02  0.36984070490E+01  0.14233433028E+02  0.51100000000E-03 0. -1.
        -11    1    3    3    0    0  0.12917256889E+02 -0.94047696347E+01  0.18820561299E+02  0.24688433432E+02  0.51100000000E-03 0.  1.
        -12    1    3    3    0    0  0.69300075714E+01  0.56487365160E+01  0.74019658198E+01  0.11606994752E+02  0.00000000000E+00 0.  1.
</event>
<event>
 7    1  0.3250765E-011  0.5052887E+02  0.7816164E-02  0.1300439E+00
        -11   -1    0    0    0    0  0.00000000000E+00  0.00000000000E+00  0.45593999997E+02  0.45594000000E+02  0.51100000000E-03 0.  1.
         11   -1    0    0    0    0 -0.00000000000E+00 -0.00000000000E+00 -0.45593999997E+02  0.45594000000E+02  0.51100000000E-03 0. -1.
    9900012    2    1    2    0    0  0.28777738659E+02 -0.23100606814E+02  0.17069519796E+02  0.50528870846E+02  0.30000033422E+02 0.  0.
         12    1    1    2    0    0 -0.28777738659E+02  0.23100606814E+02 -0.17069519796E+02  0.40659129154E+02  0.00000000000E+00 0. -1.
         11    1    3    3    0    0  0.18610164120E+02  0.72379663412E+00  0.85964226051E+01  0.20512449196E+02  0.51100000000E-03 0. -1.
        -11    1    3    3    0    0  0.98849396456E+01 -0.73746134370E+01  0.32254268432E+01  0.12747561874E+02  0.51100000000E-03 0.  1.
        -12    1    3    3    0    0  0.28263489400E+00 -0.16449790011E+02  0.52476703479E+01  0.17268859776E+02  0.00000000000E+00 0.  1.
</event>
<event>
 7    1  0.3250765E-011  0.5052890E+02  0.7816164E-02  0.1300439E+00
        -11   -1    0    0    0    0  0.00000000000E+00  0.00000000000E+00  0.45593999997E+02  0.45594000000E+02  0.51100000000E-03 0. -1.
         11   -1    0    0    0    0 -0.00000000000E+00 -0.00000000000E+00 -0.45593999997E+02  0.45594000000E+02  0.51100000000E-03 0.  1.
    9900012    2    1    2    0    0 -0.81828970183E+01  0.17311491808E+02 -0.35868024389E+02  0.50528896151E+02  0.30000110341E+02 0.  0.
         12    1    1    2    0    0  0.81828970183E+01 -0.17311491808E+02  0.35868024389E+02  0.40659103849E+02  0.00000000000E+00 0. -1.
         11    1    3    3    0    0  0.54683559612E+01  0.54277110709E+01 -0.12300487215E+02  0.14514301580E+02  0.51100000000E-03 0.  1.
        -11    1    3    3    0    0 -0.22281519434E+00  0.11578320815E+01  0.36440948333E+01  0.38300977997E+01  0.51100000000E-03 0. -1.
         12    1    3    3    0    0 -0.13428437785E+02  0.10725948656E+02 -0.27211632007E+02  0.32184496771E+02  0.00000000000E+00 0. -1.
</event>
<event>
 7    1  0.3250765E-011  0.5052886E+02  0.7816164E-02  0.1300439E+00
        -11   -1    0    0    0    0  0.00000000000E+00  0.00000000000E+00  0.45593999997E+02  0.45594000000E+02  0.51100000000E-03 0. -1.
         11   -1    0    0    0    0 -0.00000000000E+00 -0.00000000000E+00 -0.45593999997E+02  0.45594000000E+02  0.51100000000E-03 0.  1.
    9900012    2    1    2    0    0 -0.28686420677E+02  0.10813852940E+02 -0.26707966237E+02  0.50528860717E+02  0.30000002636E+02 0.  0.
         12    1    1    2    0    0  0.28686420677E+02 -0.10813852940E+02  0.26707966237E+02  0.40659139283E+02  0.00000000000E+00 0. -1.
         11    1    3    3    0    0 -0.12448932651E+02  0.24656970462E+01 -0.19193234394E+02  0.23009472676E+02  0.51100000000E-03 0.  1.
        -11    1    3    3    0    0  0.23565152498E+01 -0.68411267374E-01 -0.66892433625E+01  0.70925186815E+01  0.51100000000E-03 0. -1.
         12    1    3    3    0    0 -0.18594003276E+02  0.84165671614E+01 -0.82548848092E+00  0.20426869360E+02  0.00000000000E+00 0. -1.
</event>
<event>
 7    1  0.3250765E-011  0.5052884E+02  0.7816164E-02  0.1300439E+00
        -11   -1    0    0    0    0  0.00000000000E+00  0.00000000000E+00  0.45593999997E+02  0.45594000000E+02  0.51100000000E-03 0. -1.
         11   -1    0    0    0    0 -0.00000000000E+00 -0.00000000000E+00 -0.45593999997E+02  0.45594000000E+02  0.51100000000E-03 0.  1.
    9900012    2    1    2    0    0  0.37616638831E+01  0.28899940916E+02 -0.28351557108E+02  0.50528837557E+02  0.29999932237E+02 0.  0.
         12    1    1    2    0    0 -0.37616638831E+01 -0.28899940916E+02  0.28351557108E+02  0.40659162443E+02  0.00000000000E+00 0. -1.
         11    1    3    3    0    0  0.73625393089E+00  0.94789227115E+01 -0.17009034709E+01  0.96584221538E+01  0.51100000000E-03 0. -1.
        -11    1    3    3    0    0  0.66082261289E+01  0.23562888377E+02 -0.17077733773E+02  0.29841704916E+02  0.51100000000E-03 0.  1.
         12    1    3    3    0    0 -0.35828161768E+01 -0.41418701719E+01 -0.95729198637E+01  0.11028710486E+02  0.00000000000E+00 0. -1.
</event>
<event>
 7    1  0.3250765E-011  0.5052886E+02  0.7816164E-02  0.1300439E+00
        -11   -1    0    0    0    0  0.00000000000E+00  0.00000000000E+00  0.45593999997E+02  0.45594000000E+02  0.51100000000E-03 0.  1.
         11   -1    0    0    0    0 -0.00000000000E+00 -0.00000000000E+00 -0.45593999997E+02  0.45594000000E+02  0.51100000000E-03 0. -1.
    9900012    2    1    2    0    0 -0.98897684161E+01  0.32162748585E+02 -0.22823580233E+02  0.50528859201E+02  0.29999998027E+02 0.  0.
         12    1    1    2    0    0  0.98897684161E+01 -0.32162748585E+02  0.22823580233E+02  0.40659140799E+02  0.00000000000E+00 0. -1.
         11    1    3    3    0    0 -0.48155217225E+01  0.10166170538E+02 -0.69020026166E-01  0.11249223835E+02  0.51100000000E-03 0. -1.
        -11    1    3    3    0    0  0.36309447270E+01  0.20829740885E+02 -0.90435017367E+01  0.22996669082E+02  0.51100000000E-03 0.  1.
        -12    1    3    3    0    0 -0.87051914206E+01  0.11668371626E+01 -0.13711058471E+02  0.16282966284E+02  0.00000000000E+00 0.  1.
</event>
<event>
 7    1  0.3250765E-011  0.5052886E+02  0.7816164E-02  0.1300439E+00
        -11   -1    0    0    0    0  0.00000000000E+00  0.00000000000E+00  0.45593999997E+02  0.45594000000E+02  0.51100000000E-03 0.  1.
         11   -1    0    0    0    0 -0.00000000000E+00 -0.00000000000E+00 -0.45593999997E+02  0.45594000000E+02  0.51100000000E-03 0. -1.
    9900012    2    1    2    0    0 -0.10829428741E+02 -0.66211111070E+01  0.38627062100E+02  0.50528861228E+02  0.30000004190E+02 0.  0.
         12    1    1    2    0    0  0.10829428741E+02  0.66211111070E+01 -0.38627062100E+02  0.40659138772E+02  0.00000000000E+00 0. -1.
         11    1    3    3    0    0  0.11394439270E+01  0.62881817894E+01  0.19665712445E+02  0.20678003021E+02  0.51100000000E-03 0. -1.
        -11    1    3    3    0    0  0.32971170220E+00 -0.45326973587E+01  0.13085925528E+02  0.13852635213E+02  0.51100000000E-03 0.  1.
        -12    1    3    3    0    0 -0.12298584371E+02 -0.83765955377E+01  0.58754241268E+01  0.15998222995E+02  0.00000000000E+00 0.  1.
</event>
<event>
 7    1  0.3250765E-011  0.5052886E+02  0.7816164E-02  0.1300439E+00
        -11   -1    0    0    0    0  0.00000000000E+00  0.00000000000E+00  0.45593999997E+02  0.45594000000E+02  0.51100000000E-03 0. -1.
         11   -1    0    0    0    0 -0.00000000000E+00 -0.00000000000E+00 -0.45593999997E+02  0.45594000000E+02  0.51100000000E-03 0.  1.
    9900012    2    1    2    0    0  0.76319685962E+01 -0.27503394333E+02 -0.28956556243E+02  0.50528858421E+02  0.29999995656E+02 0.  0.
         12    1    1    2    0    0 -0.76319685962E+01  0.27503394333E+02  0.28956556243E+02  0.40659141579E+02  0.00000000000E+00 0. -1.
         11    1    3    3    0    0 -0.39813985990E+01 -0.10371000623E+02 -0.56842509530E+01  0.12478777900E+02  0.51100000000E-03 0. -1.
        -11    1    3    3    0    0  0.70871467062E+00 -0.13609121976E+02 -0.22822540482E+02  0.26581550590E+02  0.51100000000E-03 0.  1.
        -12    1    3    3    0    0  0.10904652525E+02 -0.35232717344E+01 -0.44976480786E+00  0.11468529931E+02  0.00000000000E+00 0.  1.
</event>
<event>
 7    1  0.3250765E-011  0.5052886E+02  0.7816164E-02  0.1300439E+00
        -11   -1    0    0    0    0  0.00000000000E+00  0.00000000000E+00  0.45593999997E+02  0.45594000000E+02  0.51100000000E-03 0.  1.
         11   -1    0    0    0    0 -0.00000000000E+00 -0.00000000000E+00 -0.45593999997E+02  0.45594000000E+02  0.51100000000E-03 0. -1.
    9900012    2    1    2    0    0 -0.27042418789E+01 -0.24091247070E+02  0.32641455736E+02  0.50528859059E+02  0.29999997595E+02 0.  0.
         12    1    1    2    0    0  0.27042418789E+01  0.24091247070E+02 -0.32641455736E+02  0.40659140941E+02  0.00000000000E+00 0. -1.
         11    1    3    3    0    0 -0.16676436347E+00 -0.61977562203E+01  0.19579323329E+02  0.20537524067E+02  0.51100000000E-03 0. -1.
        -11    1    3    3    0    0 -0.89525864162E+01 -0.10791112467E+02  0.14662750981E+02  0.20287759325E+02  0.51100000000E-03 0.  1.
         12    1    3    3    0    0  0.64151089008E+01 -0.71023783830E+01 -0.16006185749E+01  0.97035756671E+01  0.00000000000E+00 0. -1.
</event>
<event>
 7    1  0.3250765E-011  0.5052887E+02  0.7816164E-02  0.1300439E+00
        -11   -1    0    0    0    0  0.00000000000E+00  0.00000000000E+00  0.45593999997E+02  0.45594000000E+02  0.51100000000E-03 0.  1.
         11   -1    0    0    0    0 -0.00000000000E+00 -0.00000000000E+00 -0.45593999997E+02  0.45594000000E+02  0.51100000000E-03 0. -1.
    9900012    2    1    2    0    0  0.13294553580E+02 -0.11238756084E+02  0.36743848477E+02  0.50528865797E+02  0.30000018078E+02 0.  0.
         12    1    1    2    0    0 -0.13294553580E+02  0.11238756084E+02 -0.36743848477E+02  0.40659134203E+02  0.00000000000E+00 0. -1.
         11    1    3    3    0    0  0.52782372520E+00 -0.75198339438E+01  0.26057577280E+02  0.27126072963E+02  0.51100000000E-03 0. -1.
        -11    1    3    3    0    0  0.52018991498E+01  0.19516694593E+01  0.12587644650E+02  0.13759272020E+02  0.51100000000E-03 0.  1.
         12    1    3    3    0    0  0.75648307051E+01 -0.56705915998E+01 -0.19013734526E+01  0.96435208143E+01  0.00000000000E+00 0. -1.
</event>
<event>
 7    1  0.3250765E-011  0.5052888E+02  0.7816164E-02  0.1300439E+00
        -11   -1    0    0    0    0  0.00000000000E+00  0.00000000000E+00  0.45593999997E+02  0.45594000000E+02  0.51100000000E-03 0. -1.
         11   -1    0    0    0    0 -0.00000000000E+00 -0.00000000000E+00 -0.45593999997E+02  0.45594000000E+02  0.51100000000E-03 0.  1.
    9900012    2    1    2    0    0 -0.23822030667E+02  0.31804505204E+02  0.86109600065E+01  0.50528876441E+02  0.30000050430E+02 0.  0.
         12    1    1    2    0    0  0.23822030667E+02 -0.31804505204E+02 -0.86109600065E+01  0.40659123559E+02  0.00000000000E+00 0. -1.
         11    1    3    3    0    0 -0.54511972111E+01  0.66013412708E+00  0.89881367898E+01  0.10532707691E+02  0.51100000000E-03 0. -1.
        -11    1    3    3    0    0 -0.13558236763E+02  0.14268301601E+02  0.70953664141E+01  0.20922582047E+02  0.51100000000E-03 0.  1.
         12    1    3    3    0    0 -0.48125966931E+01  0.16876069475E+02 -0.74725431974E+01  0.19073586703E+02  0.00000000000E+00 0. -1.
</event>
<event>
 7    1  0.3250765E-011  0.5052887E+02  0.7816164E-02  0.1300439E+00
        -11   -1    0    0    0    0  0.00000000000E+00  0.00000000000E+00  0.45593999997E+02  0.45594000000E+02  0.51100000000E-03 0. -1.
         11   -1    0    0    0    0 -0.00000000000E+00 -0.00000000000E+00 -0.45593999997E+02  0.45594000000E+02  0.51100000000E-03 0.  1.
    9900012    2    1    2    0    0  0.47412603625E+01 -0.18324719837E+02 -0.35984575158E+02  0.50528873642E+02  0.30000041922E+02 0.  0.
         12    1    1    2    0    0 -0.47412603625E+01  0.18324719837E+02  0.35984575158E+02  0.40659126358E+02  0.00000000000E+00 0. -1.
         11    1    3    3    0    0 -0.48717853752E+01  0.30849201255E+01 -0.56641786005E+01  0.80829415687E+01  0.51100000000E-03 0. -1.
        -11    1    3    3    0    0  0.28708614985E+01 -0.23317682548E+01 -0.18803380580E+02  0.19163666414E+02  0.51100000000E-03 0.  1.
        -12    1    3    3    0    0  0.67421842393E+01 -0.19077871708E+02 -0.11517015978E+02  0.23282265659E+02  0.00000000000E+00 0.  1.
</event>
<event>
 7    1  0.3250765E-011  0.5052886E+02  0.7816164E-02  0.1300439E+00
        -11   -1    0    0    0    0  0.00000000000E+00  0.00000000000E+00  0.45593999997E+02  0.45594000000E+02  0.51100000000E-03 0.  1.
         11   -1    0    0    0    0 -0.00000000000E+00 -0.00000000000E+00 -0.45593999997E+02  0.45594000000E+02  0.51100000000E-03 0. -1.
    9900012    2    1    2    0    0  0.33115581172E+02 -0.17747390961E+02 -0.15542004466E+02  0.50528861974E+02  0.30000006455E+02 0.  0.
         12    1    1    2    0    0 -0.33115581172E+02  0.17747390961E+02  0.15542004466E+02  0.40659138026E+02  0.00000000000E+00 0. -1.
         11    1    3    3    0    0  0.41403578938E+00  0.47656771399E+01 -0.39903550557E+01  0.62294492508E+01  0.51100000000E-03 0. -1.
        -11    1    3    3    0    0  0.10191738398E+02 -0.37410194951E+01  0.34257550824E+01  0.11384311862E+02  0.51100000000E-03 0.  1.
         12    1    3    3    0    0  0.22509806984E+02 -0.18772048605E+02 -0.14977404493E+02  0.32915100860E+02  0.00000000000E+00 0. -1.
</event>
<event>
 7    1  0.3250765E-011  0.5052886E+02  0.7816164E-02  0.1300439E+00
        -11   -1    0    0    0    0  0.00000000000E+00  0.00000000000E+00  0.45593999997E+02  0.45594000000E+02  0.51100000000E-03 0.  1.
         11   -1    0    0    0    0 -0.00000000000E+00 -0.00000000000E+00 -0.45593999997E+02  0.45594000000E+02  0.51100000000E-03 0. -1.
    9900012    2    1    2    0    0 -0.17967925398E+02 -0.50702781911E+01  0.36119411566E+02  0.50528856429E+02  0.29999989601E+02 0.  0.
         12    1    1    2    0    0  0.17967925398E+02  0.50702781911E+01 -0.36119411566E+02  0.40659143571E+02  0.00000000000E+00 0. -1.
         11    1    3    3    0    0 -0.15964236238E+02  0.64697447399E+01  0.26476861584E+02  0.31587001049E+02  0.51100000000E-03 0.  1.
        -11    1    3    3    0    0  0.30668048760E+00  0.48635745192E+00  0.61921262635E+01  0.62187638978E+01  0.51100000000E-03 0. -1.
        -12    1    3    3    0    0 -0.23103696480E+01 -0.12026380383E+02  0.34504237184E+01  0.12723091482E+02  0.00000000000E+00 0.  1.
</event>
<event>
 7    1  0.3250765E-011  0.5052886E+02  0.7816164E-02  0.1300439E+00
        -11   -1    0    0    0    0  0.00000000000E+00  0.00000000000E+00  0.45593999997E+02  0.45594000000E+02  0.51100000000E-03 0.  1.
         11   -1    0    0    0    0 -0.00000000000E+00 -0.00000000000E+00 -0.45593999997E+02  0.45594000000E+02  0.51100000000E-03 0. -1.
    9900012    2    1    2    0    0  0.14083791683E+02  0.12096686214E+02  0.36172950575E+02  0.50528863772E+02  0.30000011922E+02 0.  0.
         12    1    1    2    0    0 -0.14083791683E+02 -0.12096686214E+02 -0.36172950575E+02  0.40659136228E+02  0.00000000000E+00 0. -1.
         11    1    3    3    0    0  0.96415427410E+01 -0.79071492327E+01  0.19826780596E+02  0.23421861251E+02  0.51100000000E-03 0.  1.
        -11    1    3    3    0    0  0.24862663725E+01  0.57585851185E+01  0.89728639126E+01  0.10947835864E+02  0.51100000000E-03 0. -1.
        -12    1    3    3    0    0  0.19559825693E+01  0.14245250328E+02  0.73733060666E+01  0.16159166658E+02  0.00000000000E+00 0.  1.
</event>
<event>
 7    1  0.5334116E-011  0.5052885E+02  0.7816164E-02  0.1300439E+00
        -11   -1    0    0    0    0  0.00000000000E+00  0.00000000000E+00  0.45593999997E+02  0.45594000000E+02  0.51100000000E-03 0.  1.
         11   -1    0    0    0    0 -0.00000000000E+00 -0.00000000000E+00 -0.45593999997E+02  0.45594000000E+02  0.51100000000E-03 0. -1.
    9900012    2    1    2    0    0  0.12437335783E+02 -0.30313512007E+02  0.24074259255E+02  0.50528852318E+02  0.29999977106E+02 0.  0.
         12    1    1    2    0    0 -0.12437335783E+02  0.30313512007E+02 -0.24074259255E+02  0.40659147682E+02  0.00000000000E+00 0. -1.
         11    1    3    3    0    0  0.94246470141E+01 -0.10688166313E+02  0.62481521240E+00  0.14263634347E+02  0.51100000000E-03 0. -1.
        -11    1    3    3    0    0  0.98629148615E+01 -0.11321828336E+02  0.19902734547E+02  0.24931500740E+02  0.51100000000E-03 0.  1.
         12    1    3    3    0    0 -0.68502260926E+01 -0.83035173572E+01  0.35467094951E+01  0.11333717231E+02  0.00000000000E+00 0. -1.
</event>
<event>
 7    1  0.3250765E-011  0.5052886E+02  0.7816164E-02  0.1300439E+00
        -11   -1    0    0    0    0  0.00000000000E+00  0.00000000000E+00  0.45593999997E+02  0.45594000000E+02  0.51100000000E-03 0.  1.
         11   -1    0    0    0    0 -0.00000000000E+00 -0.00000000000E+00 -0.45593999997E+02  0.45594000000E+02  0.51100000000E-03 0. -1.
    9900012    2    1    2    0    0  0.10596848919E+02  0.32129224580E+02  0.22551829466E+02  0.50528864601E+02  0.30000014442E+02 0.  0.
         12    1    1    2    0    0 -0.10596848919E+02 -0.32129224580E+02 -0.22551829466E+02  0.40659135399E+02  0.00000000000E+00 0. -1.
         11    1    3    3    0    0  0.76617206681E+01  0.94869592188E+01 -0.32989583245E+01  0.12632794034E+02  0.51100000000E-03 0. -1.
        -11    1    3    3    0    0 -0.59548509732E+01  0.50847092559E+01  0.53848462640E+01  0.95032146076E+01  0.51100000000E-03 0.  1.
        -12    1    3    3    0    0  0.88899792242E+01  0.17557556105E+02  0.20465941526E+02  0.28392855960E+02  0.00000000000E+00 0.  1.
</event>
<event>
 7    1  0.3250765E-011  0.5052886E+02  0.7816164E-02  0.1300439E+00
        -11   -1    0    0    0    0  0.00000000000E+00  0.00000000000E+00  0.45593999997E+02  0.45594000000E+02  0.51100000000E-03 0.  1.
         11   -1    0    0    0    0 -0.00000000000E+00 -0.00000000000E+00 -0.45593999997E+02  0.45594000000E+02  0.51100000000E-03 0. -1.
    9900012    2    1    2    0    0  0.10066049918E+02  0.24920802773E+01  0.39314501475E+02  0.50528857716E+02  0.29999993514E+02 0.  0.
         12    1    1    2    0    0 -0.10066049918E+02 -0.24920802773E+01 -0.39314501475E+02  0.40659142284E+02  0.00000000000E+00 0. -1.
         11    1    3    3    0    0 -0.80290544016E+00  0.23477155502E+01  0.45174564707E+01  0.51540119010E+01  0.51100000000E-03 0.  1.
        -11    1    3    3    0    0  0.68696688653E+01 -0.13029974628E+02  0.13295108453E+02  0.19842693823E+02  0.51100000000E-03 0. -1.
         12    1    3    3    0    0  0.39992864925E+01  0.13174339355E+02  0.21501936551E+02  0.25532151992E+02  0.00000000000E+00 0. -1.
</event>
<event>
 7    1  0.3250765E-011  0.5052886E+02  0.7816164E-02  0.1300439E+00
        -11   -1    0    0    0    0  0.00000000000E+00  0.00000000000E+00  0.45593999997E+02  0.45594000000E+02  0.51100000000E-03 0. -1.
         11   -1    0    0    0    0 -0.00000000000E+00 -0.00000000000E+00 -0.45593999997E+02  0.45594000000E+02  0.51100000000E-03 0.  1.
    9900012    2    1    2    0    0  0.27308988749E+02  0.22290161853E+01 -0.30040249483E+02  0.50528856273E+02  0.29999989127E+02 0.  0.
         12    1    1    2    0    0 -0.27308988749E+02 -0.22290161853E+01  0.30040249483E+02  0.40659143727E+02  0.00000000000E+00 0. -1.
         11    1    3    3    0    0  0.66858603036E+01 -0.57487794225E+01 -0.21129534760E+01  0.90671806809E+01  0.51100000000E-03 0. -1.
        -11    1    3    3    0    0  0.66158322680E+01 -0.64633310246E+01 -0.36784693827E+01  0.99536436440E+01  0.51100000000E-03 0.  1.
         12    1    3    3    0    0  0.14007296177E+02  0.14441126632E+02 -0.24248826624E+02  0.31508031948E+02  0.00000000000E+00 0. -1.
</event>
<event>
 7    1  0.3250765E-011  0.5052886E+02  0.7816164E-02  0.1300439E+00
        -11   -1    0    0    0    0  0.00000000000E+00  0.00000000000E+00  0.45593999997E+02  0.45594000000E+02  0.51100000000E-03 0.  1.
         11   -1    0    0    0    0 -0.00000000000E+00 -0.00000000000E+00 -0.45593999997E+02  0.45594000000E+02  0.51100000000E-03 0. -1.
    9900012    2    1    2    0    0  0.12464410046E+02 -0.32061953484E+02  0.21675689454E+02  0.50528857211E+02  0.29999991978E+02 0.  0.
         12    1    1    2    0    0 -0.12464410046E+02  0.32061953484E+02 -0.21675689454E+02  0.40659142789E+02  0.00000000000E+00 0. -1.
         11    1    3    3    0    0 -0.58730089710E+01 -0.99359527827E+00  0.58452989476E+01  0.83454769784E+01  0.51100000000E-03 0. -1.
        -11    1    3    3    0    0 -0.20022492123E+01 -0.19054031876E+01 -0.87498298943E+00  0.28991651744E+01  0.51100000000E-03 0.  1.
        -12    1    3    3    0    0  0.20339668230E+02 -0.29162955018E+02  0.16705373496E+02  0.39284215058E+02  0.00000000000E+00 0.  1.
</event>
<event>
 7    1  0.3250765E-011  0.5052888E+02  0.7816164E-02  0.1300439E+00
        -11   -1    0    0    0    0  0.00000000000E+00  0.00000000000E+00  0.45593999997E+02  0.45594000000E+02  0.51100000000E-03 0.  1.
         11   -1    0    0    0    0 -0.00000000000E+00 -0.00000000000E+00 -0.45593999997E+02  0.45594000000E+02  0.51100000000E-03 0. -1.
    9900012    2    1    2    0    0  0.21495099145E+02  0.33093092286E+02  0.97965127280E+01  0.50528884098E+02  0.30000073703E+02 0.  0.
         12    1    1    2    0    0 -0.21495099145E+02 -0.33093092286E+02 -0.97965127280E+01  0.40659115902E+02  0.00000000000E+00 0. -1.
         11    1    3    3    0    0 -0.10078581717E+01  0.12114155870E+02  0.65572734981E+01  0.13811820536E+02  0.51100000000E-03 0. -1.
        -11    1    3    3    0    0  0.98784623990E+01  0.21483995203E+02  0.43150244662E+01  0.24036753226E+02  0.51100000000E-03 0.  1.
         12    1    3    3    0    0  0.12624494918E+02 -0.50505878710E+00 -0.10757852363E+01  0.12680310335E+02  0.00000000000E+00 0. -1.
</event>
<event>
 7    1  0.3250765E-011  0.5052886E+02  0.7816164E-02  0.1300439E+00
        -11   -1    0    0    0    0  0.00000000000E+00  0.00000000000E+00  0.45593999997E+02  0.45594000000E+02  0.51100000000E-03 0.  1.
         11   -1    0    0    0    0 -0.00000000000E+00 -0.00000000000E+00 -0.45593999997E+02  0.45594000000E+02  0.51100000000E-03 0. -1.
    9900012    2    1    2    0    0  0.41915413274E+00  0.40129998945E+02  0.65248160559E+01  0.50528859206E+02  0.29999998043E+02 0.  0.
         12    1    1    2    0    0 -0.41915413274E+00 -0.40129998945E+02 -0.65248160559E+01  0.40659140794E+02  0.00000000000E+00 0. -1.
         11    1    3    3    0    0  0.67548310174E+01  0.11971351117E+02  0.44523868328E+01  0.14448693312E+02  0.51100000000E-03 0.  1.
        -11    1    3    3    0    0 -0.12310184930E+02  0.26890951970E+02  0.35764542664E+01  0.29790182548E+02  0.51100000000E-03 0. -1.
         12    1    3    3    0    0  0.59745080453E+01  0.12676958581E+01 -0.15040250433E+01  0.62899833468E+01  0.00000000000E+00 0. -1.
</event>
<event>
 7    1  0.3250765E-011  0.5052884E+02  0.7816164E-02  0.1300439E+00
        -11   -1    0    0    0    0  0.00000000000E+00  0.00000000000E+00  0.45593999997E+02  0.45594000000E+02  0.51100000000E-03 0.  1.
         11   -1    0    0    0    0 -0.00000000000E+00 -0.00000000000E+00 -0.45593999997E+02  0.45594000000E+02  0.51100000000E-03 0. -1.
    9900012    2    1    2    0    0  0.12189779899E+02 -0.20859149345E+02  0.32702783792E+02  0.50528844658E+02  0.29999953823E+02 0.  0.
         12    1    1    2    0    0 -0.12189779899E+02  0.20859149345E+02 -0.32702783792E+02  0.40659155342E+02  0.00000000000E+00 0. -1.
         11    1    3    3    0    0  0.64102740238E+01  0.25618564672E+01  0.11563849193E+02  0.13467640107E+02  0.51100000000E-03 0. -1.
        -11    1    3    3    0    0  0.72531744043E+01 -0.16009612028E+02  0.23314943946E+02  0.29197651064E+02  0.51100000000E-03 0.  1.
         12    1    3    3    0    0 -0.14736685295E+01 -0.74113937843E+01 -0.21760093474E+01  0.78635534869E+01  0.00000000000E+00 0. -1.
</event>
<event>
 7    1  0.3250765E-011  0.5052884E+02  0.7816164E-02  0.1300439E+00
        -11   -1    0    0    0    0  0.00000000000E+00  0.00000000000E+00  0.45593999997E+02  0.45594000000E+02  0.51100000000E-03 0.  1.
         11   -1    0    0    0    0 -0.00000000000E+00 -0.00000000000E+00 -0.45593999997E+02  0.45594000000E+02  0.51100000000E-03 0. -1.
    9900012    2    1    2    0    0  0.19449072141E+02 -0.10593577201E+02  0.34098047107E+02  0.50528842341E+02  0.29999946779E+02 0.  0.
         12    1    1    2    0    0 -0.19449072141E+02  0.10593577201E+02 -0.34098047107E+02  0.40659157659E+02  0.00000000000E+00 0. -1.
         11    1    3    3    0    0 -0.17173383968E+01 -0.94049794520E+01  0.15161934603E+02  0.17924484674E+02  0.51100000000E-03 0. -1.
        -11    1    3    3    0    0  0.15834146226E+02 -0.78399367498E+01  0.15157917054E+02  0.23279760407E+02  0.51100000000E-03 0.  1.
        -12    1    3    3    0    0  0.53322643119E+01  0.66513390007E+01  0.37781954489E+01  0.93245972591E+01  0.00000000000E+00 0.  1.
</event>
<event>
 7    1  0.3250765E-011  0.5052886E+02  0.7816164E-02  0.1300439E+00
        -11   -1    0    0    0    0  0.00000000000E+00  0.00000000000E+00  0.45593999997E+02  0.45594000000E+02  0.51100000000E-03 0.  1.
         11   -1    0    0    0    0 -0.00000000000E+00 -0.00000000000E+00 -0.45593999997E+02  0.45594000000E+02  0.51100000000E-03 0. -1.
    9900012    2    1    2    0    0  0.11815028787E+02  0.38647586778E+02 -0.44648756834E+01  0.50528856086E+02  0.29999988558E+02 0.  0.
         12    1    1    2    0    0 -0.11815028787E+02 -0.38647586778E+02  0.44648756834E+01  0.40659143914E+02  0.00000000000E+00 0. -1.
         11    1    3    3    0    0  0.17752264783E+02  0.24253091076E+02 -0.28423853803E+01  0.30189973279E+02  0.51100000000E-03 0. -1.
        -11    1    3    3    0    0 -0.28656815360E+01  0.15566032102E+02 -0.39474231694E+01  0.16312438076E+02  0.51100000000E-03 0.  1.
        -12    1    3    3    0    0 -0.30715544599E+01 -0.11715364001E+01  0.23249328663E+01  0.40264447307E+01  0.00000000000E+00 0.  1.
</event>
<event>
 7    1  0.3250765E-011  0.5052885E+02  0.7816164E-02  0.1300439E+00
        -11   -1    0    0    0    0  0.00000000000E+00  0.00000000000E+00  0.45593999997E+02  0.45594000000E+02  0.51100000000E-03 0.  1.
         11   -1    0    0    0    0 -0.00000000000E+00 -0.00000000000E+00 -0.45593999997E+02  0.45594000000E+02  0.51100000000E-03 0. -1.
    9900012    2    1    2    0    0  0.41080872013E+01  0.37280153904E+02  0.15699678913E+02  0.50528853753E+02  0.29999981468E+02 0.  0.
         12    1    1    2    0    0 -0.41080872013E+01 -0.37280153904E+02 -0.15699678913E+02  0.40659146247E+02  0.00000000000E+00 0. -1.
         11    1    3    3    0    0  0.42491999166E+01  0.30827826035E+02  0.11475959535E+02  0.33167879122E+02  0.51100000000E-03 0. -1.
        -11    1    3    3    0    0  0.44501038631E+00  0.35603341509E+01  0.10136494536E+02  0.10752791974E+02  0.51100000000E-03 0.  1.
        -12    1    3    3    0    0 -0.58612310160E+00  0.28919937181E+01 -0.59127751575E+01  0.66081826563E+01  0.00000000000E+00 0.  1.
</event>
<event>
 7    1  0.3250765E-011  0.5052886E+02  0.7816164E-02  0.1300439E+00
        -11   -1    0    0    0    0  0.00000000000E+00  0.00000000000E+00  0.45593999997E+02  0.45594000000E+02  0.51100000000E-03 0.  1.
         11   -1    0    0    0    0 -0.00000000000E+00 -0.00000000000E+00 -0.45593999997E+02  0.45594000000E+02  0.51100000000E-03 0. -1.
    9900012    2    1    2    0    0 -0.14098824763E+02 -0.36327896145E+02  0.11604842926E+02  0.50528864773E+02  0.30000014965E+02 0.  0.
         12    1    1    2    0    0  0.14098824763E+02  0.36327896145E+02 -0.11604842926E+02  0.40659135227E+02  0.00000000000E+00 0. -1.
         11    1    3    3    0    0  0.44669419928E+01 -0.16660250181E+02 -0.18479454614E+01  0.17347403539E+02  0.51100000000E-03 0. -1.
        -11    1    3    3    0    0 -0.39740149322E+01 -0.12546536799E+02  0.10130711711E+02  0.16608422572E+02  0.51100000000E-03 0.  1.
        -12    1    3    3    0    0 -0.14591751824E+02 -0.71211091656E+01  0.33220766769E+01  0.16573038662E+02  0.00000000000E+00 0.  1.
</event>
<event>
 7    1  0.3250765E-011  0.5052887E+02  0.7816164E-02  0.1300439E+00
        -11   -1    0    0    0    0  0.00000000000E+00  0.00000000000E+00  0.45593999997E+02  0.45594000000E+02  0.51100000000E-03 0.  1.
         11   -1    0    0    0    0 -0.00000000000E+00 -0.00000000000E+00 -0.45593999997E+02  0.45594000000E+02  0.51100000000E-03 0. -1.
    9900012    2    1    2    0    0  0.42194816381E+01 -0.39239365541E+02  0.97791965361E+01  0.50528874109E+02  0.30000043341E+02 0.  0.
         12    1    1    2    0    0 -0.42194816381E+01  0.39239365541E+02 -0.97791965361E+01  0.40659125891E+02  0.00000000000E+00 0. -1.
         11    1    3    3    0    0  0.83135396237E+01 -0.16997196089E+01 -0.25526613665E+01  0.88611550114E+01  0.51100000000E-03 0. -1.
        -11    1    3    3    0    0 -0.39182396992E+01 -0.29978946316E+01 -0.15993328495E+00  0.49361476355E+01  0.51100000000E-03 0.  1.
         12    1    3    3    0    0 -0.17581828641E+00 -0.34541751301E+02  0.12491791188E+02  0.36731571462E+02  0.00000000000E+00 0. -1.
</event>
<event>
 7    1  0.3250765E-011  0.5052886E+02  0.7816164E-02  0.1300439E+00
        -11   -1    0    0    0    0  0.00000000000E+00  0.00000000000E+00  0.45593999997E+02  0.45594000000E+02  0.51100000000E-03 0.  1.
         11   -1    0    0    0    0 -0.00000000000E+00 -0.00000000000E+00 -0.45593999997E+02  0.45594000000E+02  0.51100000000E-03 0. -1.
    9900012    2    1    2    0    0 -0.46367087628E+01 -0.39118106512E+02  0.10071751997E+02  0.50528861870E+02  0.30000006139E+02 0.  0.
         12    1    1    2    0    0  0.46367087628E+01  0.39118106512E+02 -0.10071751997E+02  0.40659138130E+02  0.00000000000E+00 0. -1.
         11    1    3    3    0    0  0.70031026798E+01 -0.68693669771E+01 -0.22235113203E+01  0.10058610871E+02  0.51100000000E-03 0. -1.
        -11    1    3    3    0    0  0.18054265368E+01 -0.20830093465E+02  0.62230629302E+01  0.21814648089E+02  0.51100000000E-03 0.  1.
        -12    1    3    3    0    0 -0.13445237979E+02 -0.11418646070E+02  0.60722003867E+01  0.18655602910E+02  0.00000000000E+00 0.  1.
</event>
<event>
 7    1  0.3250765E-011  0.5052885E+02  0.7816164E-02  0.1300439E+00
        -11   -1    0    0    0    0  0.00000000000E+00  0.00000000000E+00  0.45593999997E+02  0.45594000000E+02  0.51100000000E-03 0.  1.
         11   -1    0    0    0    0 -0.00000000000E+00 -0.00000000000E+00 -0.45593999997E+02  0.45594000000E+02  0.51100000000E-03 0. -1.
    9900012    2    1    2    0    0  0.24007467785E+02 -0.15124708936E+02  0.29121314512E+02  0.50528852336E+02  0.29999977160E+02 0.  0.
         12    1    1    2    0    0 -0.24007467785E+02  0.15124708936E+02 -0.29121314512E+02  0.40659147664E+02  0.00000000000E+00 0. -1.
         11    1    3    3    0    0 -0.19549219228E+01 -0.85182698814E+00 -0.51436662140E+00  0.21936048469E+01  0.51100000000E-03 0. -1.
        -11    1    3    3    0    0  0.11601994507E+02  0.51925280830E+01  0.16439864814E+02  0.20780706913E+02  0.51100000000E-03 0.  1.
         12    1    3    3    0    0  0.14360395202E+02 -0.19465410031E+02  0.13195816320E+02  0.27554540576E+02  0.00000000000E+00 0. -1.
</event>
<event>
 7    1  0.3250765E-011  0.5052888E+02  0.7816164E-02  0.1300439E+00
        -11   -1    0    0    0    0  0.00000000000E+00  0.00000000000E+00  0.45593999997E+02  0.45594000000E+02  0.51100000000E-03 0. -1.
         11   -1    0    0    0    0 -0.00000000000E+00 -0.00000000000E+00 -0.45593999997E+02  0.45594000000E+02  0.51100000000E-03 0.  1.
    9900012    2    1    2    0    0  0.77040771867E+01 -0.25358526237E+02 -0.30834344159E+02  0.50528875096E+02  0.30000046343E+02 0.  0.
         12    1    1    2    0    0 -0.77040771867E+01  0.25358526237E+02  0.30834344159E+02  0.40659124904E+02  0.00000000000E+00 0. -1.
         11    1    3    3    0    0 -0.94415673185E+01 -0.52040799745E+01 -0.37542614590E+01  0.11415783862E+02  0.51100000000E-03 0. -1.
        -11    1    3    3    0    0  0.11006910413E+02 -0.11924844172E+02 -0.96404090448E+01  0.18875684681E+02  0.51100000000E-03 0.  1.
        -12    1    3    3    0    0  0.61387340923E+01 -0.82296020911E+01 -0.17439673655E+02  0.20237406554E+02  0.00000000000E+00 0.  1.
</event>
<event>
 7    1  0.3250765E-011  0.5052887E+02  0.7816164E-02  0.1300439E+00
        -11   -1    0    0    0    0  0.00000000000E+00  0.00000000000E+00  0.45593999997E+02  0.45594000000E+02  0.51100000000E-03 0. -1.
         11   -1    0    0    0    0 -0.00000000000E+00 -0.00000000000E+00 -0.45593999997E+02  0.45594000000E+02  0.51100000000E-03 0.  1.
    9900012    2    1    2    0    0  0.34383416044E+02  0.10614271620E+02 -0.18928352056E+02  0.50528873443E+02  0.30000041316E+02 0.  0.
         12    1    1    2    0    0 -0.34383416044E+02 -0.10614271620E+02  0.18928352056E+02  0.40659126557E+02  0.00000000000E+00 0. -1.
         11    1    3    3    0    0  0.10284773121E+02 -0.87020890341E+01 -0.50986693233E+01  0.14404837411E+02  0.51100000000E-03 0. -1.
        -11    1    3    3    0    0  0.85103152065E+01 -0.50842382117E-01 -0.34781987126E+01  0.91937977141E+01  0.51100000000E-03 0.  1.
        -12    1    3    3    0    0  0.15588327716E+02  0.19367203036E+02 -0.10351484020E+02  0.26930238317E+02  0.00000000000E+00 0.  1.
</event>
<event>
 7    1  0.3250765E-011  0.5052885E+02  0.7816164E-02  0.1300439E+00
        -11   -1    0    0    0    0  0.00000000000E+00  0.00000000000E+00  0.45593999997E+02  0.45594000000E+02  0.51100000000E-03 0.  1.
         11   -1    0    0    0    0 -0.00000000000E+00 -0.00000000000E+00 -0.45593999997E+02  0.45594000000E+02  0.51100000000E-03 0. -1.
    9900012    2    1    2    0    0  0.28673144460E+02 -0.18014209401E+02  0.22505674040E+02  0.50528851982E+02  0.29999976085E+02 0.  0.
         12    1    1    2    0    0 -0.28673144460E+02  0.18014209401E+02 -0.22505674040E+02  0.40659148018E+02  0.00000000000E+00 0. -1.
         11    1    3    3    0    0 -0.33096632044E+01  0.93009353160E+00  0.60908773164E+01  0.69941211920E+01  0.51100000000E-03 0.  1.
        -11    1    3    3    0    0  0.13072842972E+02 -0.11322274385E+02 -0.10371817314E+00  0.17294619925E+02  0.51100000000E-03 0. -1.
         12    1    3    3    0    0  0.18909964692E+02 -0.76220285479E+01  0.16518514896E+02  0.26240110866E+02  0.00000000000E+00 0. -1.
</event>
<event>
 7    1  0.3250765E-011  0.5052886E+02  0.7816164E-02  0.1300439E+00
        -11   -1    0    0    0    0  0.00000000000E+00  0.00000000000E+00  0.45593999997E+02  0.45594000000E+02  0.51100000000E-03 0.  1.
         11   -1    0    0    0    0 -0.00000000000E+00 -0.00000000000E+00 -0.45593999997E+02  0.45594000000E+02  0.51100000000E-03 0. -1.
    9900012    2    1    2    0    0 -0.33936417576E+02 -0.14669117442E+02  0.16920466612E+02  0.50528860378E+02  0.30000001606E+02 0.  0.
         12    1    1    2    0    0  0.33936417576E+02  0.14669117442E+02 -0.16920466612E+02  0.40659139622E+02  0.00000000000E+00 0. -1.
         11    1    3    3    0    0 -0.12534632132E+02 -0.45465872568E+01  0.51307333171E+01  0.14286808006E+02  0.51100000000E-03 0. -1.
        -11    1    3    3    0    0 -0.70189323752E+01 -0.16808229997E+02  0.82238834929E+01  0.19985351318E+02  0.51100000000E-03 0.  1.
         12    1    3    3    0    0 -0.14382853068E+02  0.66856998121E+01  0.35658498022E+01  0.16256701054E+02  0.00000000000E+00 0. -1.
</event>
<event>
 7    1  0.3250765E-011  0.5052886E+02  0.7816164E-02  0.1300439E+00
        -11   -1    0    0    0    0  0.00000000000E+00  0.00000000000E+00  0.45593999997E+02  0.45594000000E+02  0.51100000000E-03 0. -1.
         11   -1    0    0    0    0 -0.00000000000E+00 -0.00000000000E+00 -0.45593999997E+02  0.45594000000E+02  0.51100000000E-03 0.  1.
    9900012    2    1    2    0    0 -0.40589393337E+02  0.23632562763E+01  0.28626854265E+00  0.50528858575E+02  0.29999996126E+02 0.  0.
         12    1    1    2    0    0  0.40589393337E+02 -0.23632562763E+01 -0.28626854265E+00  0.40659141425E+02  0.00000000000E+00 0. -1.
         11    1    3    3    0    0 -0.18947695779E+01  0.53881932734E+01 -0.62446026999E+00  0.57456704913E+01  0.51100000000E-03 0. -1.
        -11    1    3    3    0    0 -0.14777944558E+02  0.17632747074E+01 -0.10136468080E+02  0.18006797840E+02  0.51100000000E-03 0.  1.
         12    1    3    3    0    0 -0.23916679201E+02 -0.47882117046E+01  0.11047196892E+02  0.26776390244E+02  0.00000000000E+00 0. -1.
</event>
<event>
 7    1  0.3250765E-011  0.5052886E+02  0.7816164E-02  0.1300439E+00
        -11   -1    0    0    0    0  0.00000000000E+00  0.00000000000E+00  0.45593999997E+02  0.45594000000E+02  0.51100000000E-03 0.  1.
         11   -1    0    0    0    0 -0.00000000000E+00 -0.00000000000E+00 -0.45593999997E+02  0.45594000000E+02  0.51100000000E-03 0. -1.
    9900012    2    1    2    0    0  0.22844978098E+02  0.14404737644E+02  0.30393682094E+02  0.50528863239E+02  0.30000010303E+02 0.  0.
         12    1    1    2    0    0 -0.22844978098E+02 -0.14404737644E+02 -0.30393682094E+02  0.40659136761E+02  0.00000000000E+00 0. -1.
         11    1    3    3    0    0  0.79604601829E+01  0.13398586198E+02  0.44071082730E+01  0.16196099593E+02  0.51100000000E-03 0. -1.
        -11    1    3    3    0    0  0.21223235798E+01  0.75895169139E+01  0.11444588500E+02  0.13895453593E+02  0.51100000000E-03 0.  1.
         12    1    3    3    0    0  0.12762194336E+02 -0.65833654684E+01  0.14541985321E+02  0.20437310054E+02  0.00000000000E+00 0. -1.
</event>
<event>
 7    1  0.3250765E-011  0.5052886E+02  0.7816164E-02  0.1300439E+00
        -11   -1    0    0    0    0  0.00000000000E+00  0.00000000000E+00  0.45593999997E+02  0.45594000000E+02  0.51100000000E-03 0.  1.
         11   -1    0    0    0    0 -0.00000000000E+00 -0.00000000000E+00 -0.45593999997E+02  0.45594000000E+02  0.51100000000E-03 0. -1.
    9900012    2    1    2    0    0 -0.15137109575E+02 -0.92511292564E+00  0.37725029185E+02  0.50528858996E+02  0.29999997404E+02 0.  0.
         12    1    1    2    0    0  0.15137109575E+02  0.92511292564E+00 -0.37725029185E+02  0.40659141004E+02  0.00000000000E+00 0. -1.
         11    1    3    3    0    0 -0.40773250519E+01 -0.11340019468E+02  0.20676458400E+02  0.23931914953E+02  0.51100000000E-03 0. -1.
        -11    1    3    3    0    0 -0.51165712453E+01 -0.22448414113E+01  0.17177793287E+01  0.58454580961E+01  0.51100000000E-03 0.  1.
        -12    1    3    3    0    0 -0.59432132778E+01  0.12659747954E+02  0.15330791456E+02  0.20751485946E+02  0.00000000000E+00 0.  1.
</event>
<event>
 7    1  0.3250765E-011  0.5052886E+02  0.7816164E-02  0.1300439E+00
        -11   -1    0    0    0    0  0.00000000000E+00  0.00000000000E+00  0.45593999997E+02  0.45594000000E+02  0.51100000000E-03 0.  1.
         11   -1    0    0    0    0 -0.00000000000E+00 -0.00000000000E+00 -0.45593999997E+02  0.45594000000E+02  0.51100000000E-03 0. -1.
    9900012    2    1    2    0    0 -0.30832487223E+02 -0.56799760648E+01  0.25889402172E+02  0.50528861528E+02  0.30000005100E+02 0.  0.
         12    1    1    2    0    0  0.30832487223E+02  0.56799760648E+01 -0.25889402172E+02  0.40659138472E+02  0.00000000000E+00 0. -1.
         11    1    3    3    0    0  0.15092986830E+01  0.19324780050E+01  0.12427762172E+02  0.12667348839E+02  0.51100000000E-03 0. -1.
        -11    1    3    3    0    0 -0.18009569891E+02 -0.32948033510E+01  0.13739500524E+02  0.22890482994E+02  0.51100000000E-03 0.  1.
        -12    1    3    3    0    0 -0.14332216015E+02 -0.43176507188E+01 -0.27786052415E+00  0.14971029695E+02  0.00000000000E+00 0.  1.
</event>
<event>
 7    1  0.3250765E-011  0.5052886E+02  0.7816164E-02  0.1300439E+00
        -11   -1    0    0    0    0  0.00000000000E+00  0.00000000000E+00  0.45593999997E+02  0.45594000000E+02  0.51100000000E-03 0. -1.
         11   -1    0    0    0    0 -0.00000000000E+00 -0.00000000000E+00 -0.45593999997E+02  0.45594000000E+02  0.51100000000E-03 0.  1.
    9900012    2    1    2    0    0  0.33404316282E+00 -0.39059498962E+02  0.11287587609E+02  0.50528859846E+02  0.29999999989E+02 0.  0.
         12    1    1    2    0    0 -0.33404316282E+00  0.39059498962E+02 -0.11287587609E+02  0.40659140154E+02  0.00000000000E+00 0. -1.
         11    1    3    3    0    0  0.12949409735E+02 -0.18706683199E+02  0.82416322052E+01  0.24198175767E+02  0.51100000000E-03 0. -1.
        -11    1    3    3    0    0 -0.12147242537E+01 -0.11457835054E+02  0.28497252937E+01  0.11869223802E+02  0.51100000000E-03 0.  1.
         12    1    3    3    0    0 -0.11400642319E+02 -0.88949807086E+01  0.19623011030E+00  0.14461460277E+02  0.00000000000E+00 0. -1.
</event>
<event>
 7    1  0.3250765E-011  0.5052886E+02  0.7816164E-02  0.1300439E+00
        -11   -1    0    0    0    0  0.00000000000E+00  0.00000000000E+00  0.45593999997E+02  0.45594000000E+02  0.51100000000E-03 0.  1.
         11   -1    0    0    0    0 -0.00000000000E+00 -0.00000000000E+00 -0.45593999997E+02  0.45594000000E+02  0.51100000000E-03 0. -1.
    9900012    2    1    2    0    0 -0.12305434353E+02  0.26816833551E+02  0.27974981828E+02  0.50528857306E+02  0.29999992267E+02 0.  0.
         12    1    1    2    0    0  0.12305434353E+02 -0.26816833551E+02 -0.27974981828E+02  0.40659142694E+02  0.00000000000E+00 0. -1.
         11    1    3    3    0    0 -0.79255122151E+01  0.98577751153E+01 -0.21176597709E+01  0.12824740047E+02  0.51100000000E-03 0. -1.
        -11    1    3    3    0    0 -0.29512513748E+01  0.12537157639E+02  0.80759045649E+01  0.15202316966E+02  0.51100000000E-03 0.  1.
         12    1    3    3    0    0 -0.14286707633E+01  0.44219007967E+01  0.22016737034E+02  0.22501800293E+02  0.00000000000E+00 0. -1.
</event>
<event>
 7    1  0.3250765E-011  0.5052885E+02  0.7816164E-02  0.1300439E+00
        -11   -1    0    0    0    0  0.00000000000E+00  0.00000000000E+00  0.45593999997E+02  0.45594000000E+02  0.51100000000E-03 0. -1.
         11   -1    0    0    0    0 -0.00000000000E+00 -0.00000000000E+00 -0.45593999997E+02  0.45594000000E+02  0.51100000000E-03 0.  1.
    9900012    2    1    2    0    0 -0.35962952722E+02 -0.18281162888E+02  0.50627386873E+01  0.50528853329E+02  0.29999980179E+02 0.  0.
         12    1    1    2    0    0  0.35962952722E+02  0.18281162888E+02 -0.50627386873E+01  0.40659146671E+02  0.00000000000E+00 0. -1.
         11    1    3    3    0    0 -0.14329530354E+02  0.29718360087E+01  0.43470032561E+01  0.15266423517E+02  0.51100000000E-03 0.  1.
        -11    1    3    3    0    0  0.12127686384E+01  0.12609380001E+01 -0.24727033171E+01  0.30290319189E+01  0.51100000000E-03 0. -1.
        -12    1    3    3    0    0 -0.22846191006E+02 -0.22513936897E+02  0.31884387483E+01  0.32233397893E+02  0.00000000000E+00 0.  1.
</event>
<event>
 7    1  0.3250765E-011  0.5052886E+02  0.7816164E-02  0.1300439E+00
        -11   -1    0    0    0    0  0.00000000000E+00  0.00000000000E+00  0.45593999997E+02  0.45594000000E+02  0.51100000000E-03 0.  1.
         11   -1    0    0    0    0 -0.00000000000E+00 -0.00000000000E+00 -0.45593999997E+02  0.45594000000E+02  0.51100000000E-03 0. -1.
    9900012    2    1    2    0    0 -0.20397831028E+02 -0.87783657113E+01  0.34059272717E+02  0.50528864825E+02  0.30000015122E+02 0.  0.
         12    1    1    2    0    0  0.20397831028E+02  0.87783657113E+01 -0.34059272717E+02  0.40659135175E+02  0.00000000000E+00 0. -1.
         11    1    3    3    0    0 -0.17129335859E+02 -0.90960277902E+01  0.25068125109E+02  0.31694838148E+02  0.51100000000E-03 0.  1.
        -11    1    3    3    0    0 -0.74708989663E+01 -0.73341623090E+00 -0.13454484821E+01  0.76264318401E+01  0.51100000000E-03 0. -1.
        -12    1    3    3    0    0  0.42024037976E+01  0.10510783098E+01  0.10336596090E+02  0.11207594836E+02  0.00000000000E+00 0.  1.
</event>
<event>
 7    1  0.3250765E-011  0.5052884E+02  0.7816164E-02  0.1300439E+00
        -11   -1    0    0    0    0  0.00000000000E+00  0.00000000000E+00  0.45593999997E+02  0.45594000000E+02  0.51100000000E-03 0.  1.
         11   -1    0    0    0    0 -0.00000000000E+00 -0.00000000000E+00 -0.45593999997E+02  0.45594000000E+02  0.51100000000E-03 0. -1.
    9900012    2    1    2    0    0  0.74392415389E+01  0.27140435970E+02  0.29346573169E+02  0.50528844376E+02  0.29999952964E+02 0.  0.
         12    1    1    2    0    0 -0.74392415389E+01 -0.27140435970E+02 -0.29346573169E+02  0.40659155624E+02  0.00000000000E+00 0. -1.
         11    1    3    3    0    0 -0.30646338208E+00  0.20841189391E+02  0.88956456945E+01  0.22662338970E+02  0.51100000000E-03 0. -1.
        -11    1    3    3    0    0  0.50446625932E+01  0.93256248030E+01  0.21235173707E+02  0.23734963688E+02  0.51100000000E-03 0.  1.
        -12    1    3    3    0    0  0.27010423277E+01 -0.30263782238E+01 -0.78424623201E+00  0.41315417173E+01  0.00000000000E+00 0.  1.
</event>
<event>
 7    1  0.3250765E-011  0.5052886E+02  0.7816164E-02  0.1300439E+00
        -11   -1    0    0    0    0  0.00000000000E+00  0.00000000000E+00  0.45593999997E+02  0.45594000000E+02  0.51100000000E-03 0.  1.
         11   -1    0    0    0    0 -0.00000000000E+00 -0.00000000000E+00 -0.45593999997E+02  0.45594000000E+02  0.51100000000E-03 0. -1.
    9900012    2    1    2    0    0 -0.23274211319E+01 -0.40514797958E+02  0.25099831215E+01  0.50528858863E+02  0.29999997000E+02 0.  0.
         12    1    1    2    0    0  0.23274211319E+01  0.40514797958E+02 -0.25099831215E+01  0.40659141137E+02  0.00000000000E+00 0. -1.
         11    1    3    3    0    0 -0.70319781355E-01  0.18313861740E+01 -0.34377560093E+01  0.38957780777E+01  0.51100000000E-03 0. -1.
        -11    1    3    3    0    0  0.71939182508E+01 -0.15380820014E+02 -0.16684645963E+01  0.17061824594E+02  0.51100000000E-03 0.  1.
         12    1    3    3    0    0 -0.94510196013E+01 -0.26965364118E+02  0.76162037271E+01  0.29571256191E+02  0.00000000000E+00 0. -1.
</event>
<event>
 7    1  0.3250765E-011  0.5052887E+02  0.7816164E-02  0.1300439E+00
        -11   -1    0    0    0    0  0.00000000000E+00  0.00000000000E+00  0.45593999997E+02  0.45594000000E+02  0.51100000000E-03 0.  1.
         11   -1    0    0    0    0 -0.00000000000E+00 -0.00000000000E+00 -0.45593999997E+02  0.45594000000E+02  0.51100000000E-03 0. -1.
    9900012    2    1    2    0    0 -0.11257871154E+02 -0.37048169796E+02 -0.12403969465E+02  0.50528868102E+02  0.30000025084E+02 0.  0.
         12    1    1    2    0    0  0.11257871154E+02  0.37048169796E+02  0.12403969465E+02  0.40659131898E+02  0.00000000000E+00 0. -1.
         11    1    3    3    0    0  0.59952914175E+00  0.31966867758E+00 -0.10479853989E+01  0.12489583311E+01  0.51100000000E-03 0. -1.
        -11    1    3    3    0    0 -0.46627997593E+01 -0.39888635482E+02 -0.79942885550E+01  0.40948181791E+02  0.51100000000E-03 0.  1.
        -12    1    3    3    0    0 -0.71946005361E+01  0.25207970082E+01 -0.33616955111E+01  0.83317279804E+01  0.00000000000E+00 0.  1.
</event>
<event>
 7    1  0.3250765E-011  0.5052886E+02  0.7816164E-02  0.1300439E+00
        -11   -1    0    0    0    0  0.00000000000E+00  0.00000000000E+00  0.45593999997E+02  0.45594000000E+02  0.51100000000E-03 0.  1.
         11   -1    0    0    0    0 -0.00000000000E+00 -0.00000000000E+00 -0.45593999997E+02  0.45594000000E+02  0.51100000000E-03 0. -1.
    9900012    2    1    2    0    0 -0.43523202871E+01 -0.24941457258E+02  0.31814248207E+02  0.50528863622E+02  0.30000011466E+02 0.  0.
         12    1    1    2    0    0  0.43523202871E+01  0.24941457258E+02 -0.31814248207E+02  0.40659136378E+02  0.00000000000E+00 0. -1.
         11    1    3    3    0    0  0.12931576510E+01  0.60183186353E+00 -0.12568425160E+01  0.19010817114E+01  0.51100000000E-03 0. -1.
        -11    1    3    3    0    0 -0.58324615582E+01  0.12194113883E+01  0.15515549503E+02  0.16620374503E+02  0.51100000000E-03 0.  1.
        -12    1    3    3    0    0  0.18698362009E+00 -0.26762700510E+02  0.17555541219E+02  0.32007407408E+02  0.00000000000E+00 0.  1.
</event>
<event>
 7    1  0.3250765E-011  0.5052872E+02  0.7816164E-02  0.1300439E+00
        -11   -1    0    0    0    0  0.00000000000E+00  0.00000000000E+00  0.45593999997E+02  0.45594000000E+02  0.51100000000E-03 0.  1.
         11   -1    0    0    0    0 -0.00000000000E+00 -0.00000000000E+00 -0.45593999997E+02  0.45594000000E+02  0.51100000000E-03 0. -1.
    9900012    2    1    2    0    0  0.19993942824E+02  0.23873737153E+02  0.26143144225E+02  0.50528719814E+02  0.29999574344E+02 0.  0.
         12    1    1    2    0    0 -0.19993942824E+02 -0.23873737153E+02 -0.26143144225E+02  0.40659280186E+02  0.00000000000E+00 0. -1.
         11    1    3    3    0    0 -0.41131195549E+00  0.14219240037E+02  0.92635735810E+01  0.16975563629E+02  0.51100000000E-03 0.  1.
        -11    1    3    3    0    0 -0.28406404028E+01 -0.13533289259E+01  0.89909361067E+00  0.32724771446E+01  0.51100000000E-03 0. -1.
         12    1    3    3    0    0  0.23245895182E+02  0.11007826041E+02  0.15980477034E+02  0.30280679041E+02  0.00000000000E+00 0. -1.
</event>
<event>
 7    1  0.3250765E-011  0.5052885E+02  0.7816164E-02  0.1300439E+00
        -11   -1    0    0    0    0  0.00000000000E+00  0.00000000000E+00  0.45593999997E+02  0.45594000000E+02  0.51100000000E-03 0.  1.
         11   -1    0    0    0    0 -0.00000000000E+00 -0.00000000000E+00 -0.45593999997E+02  0.45594000000E+02  0.51100000000E-03 0. -1.
    9900012    2    1    2    0    0  0.11400798004E+02  0.22372873469E+02  0.31978783018E+02  0.50528853111E+02  0.29999979518E+02 0.  0.
         12    1    1    2    0    0 -0.11400798004E+02 -0.22372873469E+02 -0.31978783018E+02  0.40659146889E+02  0.00000000000E+00 0. -1.
         11    1    3    3    0    0  0.21099933112E+01  0.12156842224E+02  0.53292325618E+01  0.13440297786E+02  0.51100000000E-03 0. -1.
        -11    1    3    3    0    0  0.73818215549E+01  0.10253163167E+02  0.30377542525E+02  0.32900056756E+02  0.51100000000E-03 0.  1.
         12    1    3    3    0    0  0.19089831381E+01 -0.37131922168E-01 -0.37279920688E+01  0.41884985695E+01  0.00000000000E+00 0. -1.
</event>
<event>
 7    1  0.3250765E-011  0.5052887E+02  0.7816164E-02  0.1300439E+00
        -11   -1    0    0    0    0  0.00000000000E+00  0.00000000000E+00  0.45593999997E+02  0.45594000000E+02  0.51100000000E-03 0.  1.
         11   -1    0    0    0    0 -0.00000000000E+00 -0.00000000000E+00 -0.45593999997E+02  0.45594000000E+02  0.51100000000E-03 0. -1.
    9900012    2    1    2    0    0 -0.88225177936E+01 -0.22859925964E+02  0.32446134732E+02  0.50528871943E+02  0.30000036759E+02 0.  0.
         12    1    1    2    0    0  0.88225177936E+01  0.22859925964E+02 -0.32446134732E+02  0.40659128057E+02  0.00000000000E+00 0. -1.
         11    1    3    3    0    0 -0.38578229891E+00 -0.17209636432E+02  0.21344087107E+02  0.27420621233E+02  0.51100000000E-03 0. -1.
        -11    1    3    3    0    0 -0.37268521414E+00  0.41795886429E+01  0.93825366808E+01  0.10278124845E+02  0.51100000000E-03 0.  1.
         12    1    3    3    0    0 -0.80640502805E+01 -0.98298781747E+01  0.17195109443E+01  0.12830125866E+02  0.00000000000E+00 0. -1.
</event>
<event>
 7    1  0.3250765E-011  0.5052887E+02  0.7816164E-02  0.1300439E+00
        -11   -1    0    0    0    0  0.00000000000E+00  0.00000000000E+00  0.45593999997E+02  0.45594000000E+02  0.51100000000E-03 0.  1.
         11   -1    0    0    0    0 -0.00000000000E+00 -0.00000000000E+00 -0.45593999997E+02  0.45594000000E+02  0.51100000000E-03 0. -1.
    9900012    2    1    2    0    0  0.11170195321E+02 -0.37527674616E+02  0.10957419202E+02  0.50528872351E+02  0.30000037997E+02 0.  0.
         12    1    1    2    0    0 -0.11170195321E+02  0.37527674616E+02 -0.10957419202E+02  0.40659127649E+02  0.00000000000E+00 0. -1.
         11    1    3    3    0    0  0.54905522027E+01 -0.34005951642E+01 -0.17951538225E+01  0.67031924088E+01  0.51100000000E-03 0. -1.
        -11    1    3    3    0    0 -0.73306164167E+01 -0.29162839571E+01  0.66962985293E+00  0.79177682189E+01  0.51100000000E-03 0.  1.
        -12    1    3    3    0    0  0.13010259535E+02 -0.31210795495E+02  0.12082943172E+02  0.35907911723E+02  0.00000000000E+00 0.  1.
</event>
<event>
 7    1  0.3250765E-011  0.5052886E+02  0.7816164E-02  0.1300439E+00
        -11   -1    0    0    0    0  0.00000000000E+00  0.00000000000E+00  0.45593999997E+02  0.45594000000E+02  0.51100000000E-03 0. -1.
         11   -1    0    0    0    0 -0.00000000000E+00 -0.00000000000E+00 -0.45593999997E+02  0.45594000000E+02  0.51100000000E-03 0.  1.
    9900012    2    1    2    0    0  0.32135580349E+02  0.14864815306E+02 -0.19987672658E+02  0.50528864289E+02  0.30000013494E+02 0.  0.
         12    1    1    2    0    0 -0.32135580349E+02 -0.14864815306E+02  0.19987672658E+02  0.40659135711E+02  0.00000000000E+00 0. -1.
         11    1    3    3    0    0  0.14380172827E+01  0.43942355198E+01 -0.44241720396E+00  0.46446671304E+01  0.51100000000E-03 0. -1.
        -11    1    3    3    0    0  0.19874658882E+02  0.95575855901E+01  0.16013137612E+01  0.22111393307E+02  0.51100000000E-03 0.  1.
        -12    1    3    3    0    0  0.10822904185E+02  0.91299419604E+00 -0.21146569215E+02  0.23772803852E+02  0.00000000000E+00 0.  1.
</event>
<event>
 7    1  0.3250765E-011  0.5052886E+02  0.7816164E-02  0.1300439E+00
        -11   -1    0    0    0    0  0.00000000000E+00  0.00000000000E+00  0.45593999997E+02  0.45594000000E+02  0.51100000000E-03 0. -1.
         11   -1    0    0    0    0 -0.00000000000E+00 -0.00000000000E+00 -0.45593999997E+02  0.45594000000E+02  0.51100000000E-03 0.  1.
    9900012    2    1    2    0    0  0.31768868211E+02 -0.23468595461E+02 -0.96503919830E+01  0.50528855570E+02  0.29999986991E+02 0.  0.
         12    1    1    2    0    0 -0.31768868211E+02  0.23468595461E+02  0.96503919830E+01  0.40659144430E+02  0.00000000000E+00 0. -1.
         11    1    3    3    0    0  0.12529581725E+01  0.32913943266E-01  0.32353710370E+01  0.34696705201E+01  0.51100000000E-03 0. -1.
        -11    1    3    3    0    0  0.13499075166E+02  0.27399604096E+01 -0.60524324632E+01  0.15045409677E+02  0.51100000000E-03 0.  1.
        -12    1    3    3    0    0  0.17016834873E+02 -0.26241469814E+02 -0.68333305568E+01  0.32013775373E+02  0.00000000000E+00 0.  1.
</event>
<event>
 7    1  0.3250765E-011  0.5052886E+02  0.7816164E-02  0.1300439E+00
        -11   -1    0    0    0    0  0.00000000000E+00  0.00000000000E+00  0.45593999997E+02  0.45594000000E+02  0.51100000000E-03 0. -1.
         11   -1    0    0    0    0 -0.00000000000E+00 -0.00000000000E+00 -0.45593999997E+02  0.45594000000E+02  0.51100000000E-03 0.  1.
    9900012    2    1    2    0    0 -0.38255636088E+02 -0.13772034200E+02 -0.53531565191E-01  0.50528862231E+02  0.30000007236E+02 0.  0.
         12    1    1    2    0    0  0.38255636088E+02  0.13772034200E+02  0.53531565191E-01  0.40659137769E+02  0.00000000000E+00 0. -1.
         11    1    3    3    0    0 -0.17192236857E+01 -0.24398086606E+01 -0.98048775234E+01  0.10249098492E+02  0.51100000000E-03 0. -1.
        -11    1    3    3    0    0 -0.11566573617E+02 -0.74915275040E+01  0.42861420685E+01  0.14431896053E+02  0.51100000000E-03 0.  1.
        -12    1    3    3    0    0 -0.24969838786E+02 -0.38406980358E+01  0.54652038896E+01  0.25847867686E+02  0.00000000000E+00 0.  1.
</event>
<event>
 7    1  0.3250765E-011  0.5052886E+02  0.7816164E-02  0.1300439E+00
        -11   -1    0    0    0    0  0.00000000000E+00  0.00000000000E+00  0.45593999997E+02  0.45594000000E+02  0.51100000000E-03 0. -1.
         11   -1    0    0    0    0 -0.00000000000E+00 -0.00000000000E+00 -0.45593999997E+02  0.45594000000E+02  0.51100000000E-03 0.  1.
    9900012    2    1    2    0    0 -0.79180853028E+01 -0.99696391984E+01 -0.38614446542E+02  0.50528864958E+02  0.30000015528E+02 0.  0.
         12    1    1    2    0    0  0.79180853028E+01  0.99696391984E+01  0.38614446542E+02  0.40659135042E+02  0.00000000000E+00 0. -1.
         11    1    3    3    0    0 -0.61644541209E+00 -0.12919334690E+01  0.13994513693E+01  0.20018894651E+01  0.51100000000E-03 0. -1.
        -11    1    3    3    0    0  0.28657770311E+01 -0.87125054719E+01 -0.22849856823E+01  0.94520679970E+01  0.51100000000E-03 0.  1.
        -12    1    3    3    0    0 -0.10167416922E+02  0.34799742491E-01 -0.37728912229E+02  0.39074907496E+02  0.00000000000E+00 0.  1.
</event>
<event>
 7    1  0.3250765E-011  0.5052886E+02  0.7816164E-02  0.1300439E+00
        -11   -1    0    0    0    0  0.00000000000E+00  0.00000000000E+00  0.45593999997E+02  0.45594000000E+02  0.51100000000E-03 0.  1.
         11   -1    0    0    0    0 -0.00000000000E+00 -0.00000000000E+00 -0.45593999997E+02  0.45594000000E+02  0.51100000000E-03 0. -1.
    9900012    2    1    2    0    0 -0.95732980064E+01  0.19025321234E+02  0.34634586709E+02  0.50528862290E+02  0.30000007418E+02 0.  0.
         12    1    1    2    0    0  0.95732980064E+01 -0.19025321234E+02 -0.34634586709E+02  0.40659137710E+02  0.00000000000E+00 0. -1.
         11    1    3    3    0    0 -0.79134944572E+01  0.99717953703E+01  0.61733899468E+01  0.14148174480E+02  0.51100000000E-03 0. -1.
        -11    1    3    3    0    0 -0.78411318496E+01  0.10249718573E+02  0.26987811470E+02  0.29914579183E+02  0.51100000000E-03 0.  1.
         12    1    3    3    0    0  0.61813283004E+01 -0.11961927093E+01  0.14733852927E+01  0.64661086270E+01  0.00000000000E+00 0. -1.
</event>
<event>
 7    1  0.3250765E-011  0.5052886E+02  0.7816164E-02  0.1300439E+00
        -11   -1    0    0    0    0  0.00000000000E+00  0.00000000000E+00  0.45593999997E+02  0.45594000000E+02  0.51100000000E-03 0. -1.
         11   -1    0    0    0    0 -0.00000000000E+00 -0.00000000000E+00 -0.45593999997E+02  0.45594000000E+02  0.51100000000E-03 0.  1.
    9900012    2    1    2    0    0 -0.83410231507E+01 -0.39056139339E+02 -0.76296126028E+01  0.50528859875E+02  0.30000000075E+02 0.  0.
         12    1    1    2    0    0  0.83410231507E+01  0.39056139339E+02  0.76296126028E+01  0.40659140125E+02  0.00000000000E+00 0. -1.
         11    1    3    3    0    0 -0.42908236557E+01  0.38482634195E+00 -0.18193556682E+01  0.46764638635E+01  0.51100000000E-03 0. -1.
        -11    1    3    3    0    0  0.79379591109E+00 -0.16652885133E+02 -0.13357848143E+02  0.21363070998E+02  0.51100000000E-03 0.  1.
        -12    1    3    3    0    0 -0.48439954061E+01 -0.22788080548E+02  0.75475912080E+01  0.24489325013E+02  0.00000000000E+00 0.  1.
</event>
<event>
 7    1  0.3250765E-011  0.5052886E+02  0.7816164E-02  0.1300439E+00
        -11   -1    0    0    0    0  0.00000000000E+00  0.00000000000E+00  0.45593999997E+02  0.45594000000E+02  0.51100000000E-03 0.  1.
         11   -1    0    0    0    0 -0.00000000000E+00 -0.00000000000E+00 -0.45593999997E+02  0.45594000000E+02  0.51100000000E-03 0. -1.
    9900012    2    1    2    0    0  0.28773279197E+02  0.12728114045E+02  0.25753825162E+02  0.50528855968E+02  0.29999988201E+02 0.  0.
         12    1    1    2    0    0 -0.28773279197E+02 -0.12728114045E+02 -0.25753825162E+02  0.40659144032E+02  0.00000000000E+00 0. -1.
         11    1    3    3    0    0  0.21249843496E+02 -0.60240520438E+00  0.16020793430E+01  0.21318663165E+02  0.51100000000E-03 0. -1.
        -11    1    3    3    0    0  0.35890861578E+01  0.10073944231E+02  0.12264226875E+02  0.16271974463E+02  0.51100000000E-03 0.  1.
        -12    1    3    3    0    0  0.39343495434E+01  0.32565750180E+01  0.11887518944E+02  0.12938218340E+02  0.00000000000E+00 0.  1.
</event>
<event>
 7    1  0.3250765E-011  0.5052886E+02  0.7816164E-02  0.1300439E+00
        -11   -1    0    0    0    0  0.00000000000E+00  0.00000000000E+00  0.45593999997E+02  0.45594000000E+02  0.51100000000E-03 0. -1.
         11   -1    0    0    0    0 -0.00000000000E+00 -0.00000000000E+00 -0.45593999997E+02  0.45594000000E+02  0.51100000000E-03 0.  1.
    9900012    2    1    2    0    0 -0.30199431540E+02 -0.33635068547E+01 -0.27015677815E+02  0.50528859681E+02  0.29999999485E+02 0.  0.
         12    1    1    2    0    0  0.30199431540E+02  0.33635068547E+01  0.27015677815E+02  0.40659140319E+02  0.00000000000E+00 0. -1.
         11    1    3    3    0    0 -0.75486429264E+01  0.24290427020E+01 -0.60003837185E+01  0.99441874233E+01  0.51100000000E-03 0. -1.
        -11    1    3    3    0    0 -0.22406612504E+02 -0.14017266998E+02 -0.14976872674E+02  0.30378393199E+02  0.51100000000E-03 0.  1.
         12    1    3    3    0    0 -0.24417611017E+00  0.82247174408E+01 -0.60384214221E+01  0.10206279059E+02  0.00000000000E+00 0. -1.
</event>
<event>
 7    1  0.3250765E-011  0.5052887E+02  0.7816164E-02  0.1300439E+00
        -11   -1    0    0    0    0  0.00000000000E+00  0.00000000000E+00  0.45593999997E+02  0.45594000000E+02  0.51100000000E-03 0.  1.
         11   -1    0    0    0    0 -0.00000000000E+00 -0.00000000000E+00 -0.45593999997E+02  0.45594000000E+02  0.51100000000E-03 0. -1.
    9900012    2    1    2    0    0 -0.13332143254E+02  0.33405262401E+02  0.18960682691E+02  0.50528867103E+02  0.30000022045E+02 0.  0.
         12    1    1    2    0    0  0.13332143254E+02 -0.33405262401E+02 -0.18960682691E+02  0.40659132897E+02  0.00000000000E+00 0. -1.
         11    1    3    3    0    0 -0.43676712674E+01  0.60986233538E+01  0.72105567192E+01  0.10404897288E+02  0.51100000000E-03 0. -1.
        -11    1    3    3    0    0  0.60799807354E+01  0.17431582066E+02  0.12189663588E+02  0.22122705931E+02  0.51100000000E-03 0.  1.
         12    1    3    3    0    0 -0.15044452722E+02  0.98750569817E+01 -0.43953761583E+00  0.18001263884E+02  0.00000000000E+00 0. -1.
</event>
<event>
 7    1  0.3250765E-011  0.5052886E+02  0.7816164E-02  0.1300439E+00
        -11   -1    0    0    0    0  0.00000000000E+00  0.00000000000E+00  0.45593999997E+02  0.45594000000E+02  0.51100000000E-03 0.  1.
         11   -1    0    0    0    0 -0.00000000000E+00 -0.00000000000E+00 -0.45593999997E+02  0.45594000000E+02  0.51100000000E-03 0. -1.
    9900012    2    1    2    0    0 -0.20426325711E+02  0.90999974042E+01  0.33957633072E+02  0.50528861068E+02  0.30000003704E+02 0.  0.
         12    1    1    2    0    0  0.20426325711E+02 -0.90999974042E+01 -0.33957633072E+02  0.40659138932E+02  0.00000000000E+00 0. -1.
         11    1    3    3    0    0 -0.12150604625E+02  0.57442964593E+01  0.71325806186E+01  0.15215381727E+02  0.51100000000E-03 0. -1.
        -11    1    3    3    0    0 -0.73368267801E+01 -0.83277924654E+01  0.11060209502E+02  0.15668739229E+02  0.51100000000E-03 0.  1.
        -12    1    3    3    0    0 -0.93889430601E+00  0.11683493410E+02  0.15764842951E+02  0.19644740112E+02  0.00000000000E+00 0.  1.
</event>
<event>
 7    1  0.3250765E-011  0.5052886E+02  0.7816164E-02  0.1300439E+00
        -11   -1    0    0    0    0  0.00000000000E+00  0.00000000000E+00  0.45593999997E+02  0.45594000000E+02  0.51100000000E-03 0. -1.
         11   -1    0    0    0    0 -0.00000000000E+00 -0.00000000000E+00 -0.45593999997E+02  0.45594000000E+02  0.51100000000E-03 0.  1.
    9900012    2    1    2    0    0 -0.40512901401E+02 -0.33165540174E+01 -0.93341944285E+00  0.50528856104E+02  0.29999988614E+02 0.  0.
         12    1    1    2    0    0  0.40512901401E+02  0.33165540174E+01  0.93341944285E+00  0.40659143896E+02  0.00000000000E+00 0. -1.
         11    1    3    3    0    0  0.16052623797E+01 -0.30874550039E+01  0.78591149910E+00  0.35674785009E+01  0.51100000000E-03 0. -1.
        -11    1    3    3    0    0 -0.69582192336E+01  0.71957371371E+01  0.35938120620E+01  0.10635362394E+02  0.51100000000E-03 0.  1.
        -12    1    3    3    0    0 -0.35159944547E+02 -0.74248361505E+01 -0.53131430040E+01  0.36326015209E+02  0.00000000000E+00 0.  1.
</event>
<event>
 7    1  0.3250765E-011  0.5052886E+02  0.7816164E-02  0.1300439E+00
        -11   -1    0    0    0    0  0.00000000000E+00  0.00000000000E+00  0.45593999997E+02  0.45594000000E+02  0.51100000000E-03 0. -1.
         11   -1    0    0    0    0 -0.00000000000E+00 -0.00000000000E+00 -0.45593999997E+02  0.45594000000E+02  0.51100000000E-03 0.  1.
    9900012    2    1    2    0    0  0.82305834213E+01 -0.20060576082E+02 -0.34394716041E+02  0.50528859481E+02  0.29999998878E+02 0.  0.
         12    1    1    2    0    0 -0.82305834213E+01  0.20060576082E+02  0.34394716041E+02  0.40659140519E+02  0.00000000000E+00 0. -1.
         11    1    3    3    0    0  0.91915866662E+01 -0.18089441275E+02 -0.10709414165E+02  0.22943511133E+02  0.51100000000E-03 0. -1.
        -11    1    3    3    0    0  0.40922316701E+01 -0.62081555310E+01 -0.14260006658E+02  0.16082143678E+02  0.51100000000E-03 0.  1.
        -12    1    3    3    0    0 -0.50532349150E+01  0.42370207242E+01 -0.94252952187E+01  0.11503204670E+02  0.00000000000E+00 0.  1.
</event>
<event>
 7    1  0.3250765E-011  0.5052886E+02  0.7816164E-02  0.1300439E+00
        -11   -1    0    0    0    0  0.00000000000E+00  0.00000000000E+00  0.45593999997E+02  0.45594000000E+02  0.51100000000E-03 0.  1.
         11   -1    0    0    0    0 -0.00000000000E+00 -0.00000000000E+00 -0.45593999997E+02  0.45594000000E+02  0.51100000000E-03 0. -1.
    9900012    2    1    2    0    0  0.30872746527E+02  0.25370760486E+02  0.75076003787E+01  0.50528855528E+02  0.29999986862E+02 0.  0.
         12    1    1    2    0    0 -0.30872746527E+02 -0.25370760486E+02 -0.75076003787E+01  0.40659144472E+02  0.00000000000E+00 0. -1.
         11    1    3    3    0    0  0.22145782902E+02  0.22022558628E+02  0.84197683352E+01  0.32346889927E+02  0.51100000000E-03 0. -1.
        -11    1    3    3    0    0  0.12916244717E+02  0.18143463321E+01 -0.27958448254E+01  0.13339339517E+02  0.51100000000E-03 0.  1.
         12    1    3    3    0    0 -0.41892810917E+01  0.15338555260E+01  0.18836768690E+01  0.48426260837E+01  0.00000000000E+00 0. -1.
</event>
<event>
 7    1  0.5308972E-011  0.5052887E+02  0.7816164E-02  0.1300439E+00
        -11   -1    0    0    0    0  0.00000000000E+00  0.00000000000E+00  0.45593999997E+02  0.45594000000E+02  0.51100000000E-03 0.  1.
         11   -1    0    0    0    0 -0.00000000000E+00 -0.00000000000E+00 -0.45593999997E+02  0.45594000000E+02  0.51100000000E-03 0. -1.
    9900012    2    1    2    0    0  0.31892482773E+02  0.19731538366E+00  0.25218951018E+02  0.50528869645E+02  0.30000029772E+02 0.  0.
         12    1    1    2    0    0 -0.31892482773E+02 -0.19731538366E+00 -0.25218951018E+02  0.40659130355E+02  0.00000000000E+00 0. -1.
         11    1    3    3    0    0 -0.15656629297E+01  0.51211822802E+01  0.81195641410E+01  0.97265168718E+01  0.51100000000E-03 0. -1.
        -11    1    3    3    0    0  0.16554738943E+02  0.38190542452E+00  0.16040239569E+02  0.23054164893E+02  0.51100000000E-03 0.  1.
         12    1    3    3    0    0  0.16903406760E+02 -0.53057723211E+01  0.10591473085E+01  0.17748187880E+02  0.00000000000E+00 0. -1.
</event>
<event>
 7    1  0.3250765E-011  0.5052886E+02  0.7816164E-02  0.1300439E+00
        -11   -1    0    0    0    0  0.00000000000E+00  0.00000000000E+00  0.45593999997E+02  0.45594000000E+02  0.51100000000E-03 0.  1.
         11   -1    0    0    0    0 -0.00000000000E+00 -0.00000000000E+00 -0.45593999997E+02  0.45594000000E+02  0.51100000000E-03 0. -1.
    9900012    2    1    2    0    0  0.29142701179E+02  0.28343458326E+02  0.71914225965E+00  0.50528858009E+02  0.29999994403E+02 0.  0.
         12    1    1    2    0    0 -0.29142701179E+02 -0.28343458326E+02 -0.71914225965E+00  0.40659141991E+02  0.00000000000E+00 0. -1.
         11    1    3    3    0    0  0.10676496931E+02  0.17397513203E+01 -0.95434143633E+01  0.14425362365E+02  0.51100000000E-03 0. -1.
        -11    1    3    3    0    0  0.18278257660E+01 -0.57477193709E+00  0.27690033407E+01  0.33672970722E+01  0.51100000000E-03 0.  1.
        -12    1    3    3    0    0  0.16638378482E+02  0.27178478942E+02  0.74935532822E+01  0.32736198572E+02  0.00000000000E+00 0.  1.
</event>
<event>
 7    1  0.3250765E-011  0.5052886E+02  0.7816164E-02  0.1300439E+00
        -11   -1    0    0    0    0  0.00000000000E+00  0.00000000000E+00  0.45593999997E+02  0.45594000000E+02  0.51100000000E-03 0.  1.
         11   -1    0    0    0    0 -0.00000000000E+00 -0.00000000000E+00 -0.45593999997E+02  0.45594000000E+02  0.51100000000E-03 0. -1.
    9900012    2    1    2    0    0  0.57191157655E-01  0.37354232809E+02  0.16056888606E+02  0.50528860176E+02  0.30000000990E+02 0.  0.
         12    1    1    2    0    0 -0.57191157655E-01 -0.37354232809E+02 -0.16056888606E+02  0.40659139824E+02  0.00000000000E+00 0. -1.
         11    1    3    3    0    0 -0.11963178478E+02  0.22848096178E+02  0.45960649757E+01  0.26196888208E+02  0.51100000000E-03 0. -1.
        -11    1    3    3    0    0  0.98837669461E+01  0.16033873860E+02  0.99558564831E+01  0.21304765630E+02  0.51100000000E-03 0.  1.
        -12    1    3    3    0    0  0.21366026893E+01 -0.15277372292E+01  0.15049671473E+01  0.30272063372E+01  0.00000000000E+00 0.  1.
</event>
<event>
 7    1  0.3250765E-011  0.5052884E+02  0.7816164E-02  0.1300439E+00
        -11   -1    0    0    0    0  0.00000000000E+00  0.00000000000E+00  0.45593999997E+02  0.45594000000E+02  0.51100000000E-03 0.  1.
         11   -1    0    0    0    0 -0.00000000000E+00 -0.00000000000E+00 -0.45593999997E+02  0.45594000000E+02  0.51100000000E-03 0. -1.
    9900012    2    1    2    0    0 -0.25809023674E+02  0.21337548157E+02  0.23060146768E+02  0.50528843180E+02  0.29999949330E+02 0.  0.
         12    1    1    2    0    0  0.25809023674E+02 -0.21337548157E+02 -0.23060146768E+02  0.40659156820E+02  0.00000000000E+00 0. -1.
         11    1    3    3    0    0  0.13393121208E+01 -0.15337023952E+00 -0.26177472734E+01  0.29444660697E+01  0.51100000000E-03 0. -1.
        -11    1    3    3    0    0 -0.18853722412E+02  0.12688878761E+02  0.44569895796E+01  0.23158912957E+02  0.51100000000E-03 0.  1.
        -12    1    3    3    0    0 -0.82946133826E+01  0.88020396358E+01  0.21220904462E+02  0.24425464153E+02  0.00000000000E+00 0.  1.
</event>
<event>
 7    1  0.3250765E-011  0.5052886E+02  0.7816164E-02  0.1300439E+00
        -11   -1    0    0    0    0  0.00000000000E+00  0.00000000000E+00  0.45593999997E+02  0.45594000000E+02  0.51100000000E-03 0. -1.
         11   -1    0    0    0    0 -0.00000000000E+00 -0.00000000000E+00 -0.45593999997E+02  0.45594000000E+02  0.51100000000E-03 0.  1.
    9900012    2    1    2    0    0 -0.34453776958E+02  0.86579128633E+01 -0.19777347955E+02  0.50528859651E+02  0.29999999394E+02 0.  0.
         12    1    1    2    0    0  0.34453776958E+02 -0.86579128633E+01  0.19777347955E+02  0.40659140349E+02  0.00000000000E+00 0. -1.
         11    1    3    3    0    0  0.21908004003E+01 -0.40988934744E+01  0.42973060105E+00  0.46674621326E+01  0.51100000000E-03 0. -1.
        -11    1    3    3    0    0 -0.11642709571E+02 -0.19607299333E+01 -0.32027872908E+01  0.12233355824E+02  0.51100000000E-03 0.  1.
        -12    1    3    3    0    0 -0.25001867788E+02  0.14717536271E+02 -0.17004291265E+02  0.33628041694E+02  0.00000000000E+00 0.  1.
</event>
<event>
 7    1  0.3250765E-011  0.5052886E+02  0.7816164E-02  0.1300439E+00
        -11   -1    0    0    0    0  0.00000000000E+00  0.00000000000E+00  0.45593999997E+02  0.45594000000E+02  0.51100000000E-03 0.  1.
         11   -1    0    0    0    0 -0.00000000000E+00 -0.00000000000E+00 -0.45593999997E+02  0.45594000000E+02  0.51100000000E-03 0. -1.
    9900012    2    1    2    0    0  0.23038542771E+02  0.13267542820E+02  0.30763019129E+02  0.50528862142E+02  0.30000006966E+02 0.  0.
         12    1    1    2    0    0 -0.23038542771E+02 -0.13267542820E+02 -0.30763019129E+02  0.40659137858E+02  0.00000000000E+00 0. -1.
         11    1    3    3    0    0  0.59950332317E+01  0.56392842914E+01  0.78409657284E+01  0.11367616047E+02  0.51100000000E-03 0. -1.
        -11    1    3    3    0    0  0.80278466462E+01  0.16376414676E+02  0.18128857438E+02  0.25715535221E+02  0.51100000000E-03 0.  1.
         12    1    3    3    0    0  0.90156628929E+01 -0.87481561479E+01  0.47931959620E+01  0.13445710874E+02  0.00000000000E+00 0. -1.
</event>
<event>
 7    1  0.3250765E-011  0.5052885E+02  0.7816164E-02  0.1300439E+00
        -11   -1    0    0    0    0  0.00000000000E+00  0.00000000000E+00  0.45593999997E+02  0.45594000000E+02  0.51100000000E-03 0.  1.
         11   -1    0    0    0    0 -0.00000000000E+00 -0.00000000000E+00 -0.45593999997E+02  0.45594000000E+02  0.51100000000E-03 0. -1.
    9900012    2    1    2    0    0 -0.15766555742E+02 -0.12849079494E+01  0.37455722115E+02  0.50528851121E+02  0.29999973468E+02 0.  0.
         12    1    1    2    0    0  0.15766555742E+02  0.12849079494E+01 -0.37455722115E+02  0.40659148879E+02  0.00000000000E+00 0. -1.
         11    1    3    3    0    0 -0.28616032600E+01  0.70180526923E+01  0.42011431961E+01  0.86655317913E+01  0.51100000000E-03 0. -1.
        -11    1    3    3    0    0 -0.16241023672E+02 -0.44474331689E+00  0.26006441070E+02  0.30664370594E+02  0.51100000000E-03 0.  1.
        -12    1    3    3    0    0  0.33360711907E+01 -0.78582173248E+01  0.72481378486E+01  0.11198948736E+02  0.00000000000E+00 0.  1.
</event>
<event>
 7    1  0.3250765E-011  0.5052886E+02  0.7816164E-02  0.1300439E+00
        -11   -1    0    0    0    0  0.00000000000E+00  0.00000000000E+00  0.45593999997E+02  0.45594000000E+02  0.51100000000E-03 0. -1.
         11   -1    0    0    0    0 -0.00000000000E+00 -0.00000000000E+00 -0.45593999997E+02  0.45594000000E+02  0.51100000000E-03 0.  1.
    9900012    2    1    2    0    0 -0.43982866314E+01  0.34248187345E+02 -0.21468167205E+02  0.50528862468E+02  0.30000007957E+02 0.  0.
         12    1    1    2    0    0  0.43982866314E+01 -0.34248187345E+02  0.21468167205E+02  0.40659137532E+02  0.00000000000E+00 0. -1.
         11    1    3    3    0    0 -0.35863325527E+01  0.16499480818E+02 -0.48951899258E+01  0.17580032227E+02  0.51100000000E-03 0. -1.
        -11    1    3    3    0    0 -0.16344517010E+01  0.66188915134E+01  0.51383037564E+01  0.85371730089E+01  0.51100000000E-03 0.  1.
        -12    1    3    3    0    0  0.82249762225E+00  0.11129815014E+02 -0.21711281035E+02  0.24411657231E+02  0.00000000000E+00 0.  1.
</event>
<event>
 7    1  0.3250765E-011  0.5052886E+02  0.7816164E-02  0.1300439E+00
        -11   -1    0    0    0    0  0.00000000000E+00  0.00000000000E+00  0.45593999997E+02  0.45594000000E+02  0.51100000000E-03 0.  1.
         11   -1    0    0    0    0 -0.00000000000E+00 -0.00000000000E+00 -0.45593999997E+02  0.45594000000E+02  0.51100000000E-03 0. -1.
    9900012    2    1    2    0    0  0.29782898753E+02 -0.27410369192E+02  0.38491769683E+01  0.50528861289E+02  0.30000004373E+02 0.  0.
         12    1    1    2    0    0 -0.29782898753E+02  0.27410369192E+02 -0.38491769683E+01  0.40659138711E+02  0.00000000000E+00 0. -1.
         11    1    3    3    0    0  0.46778438930E+00 -0.74579876209E+01  0.52418283321E+01  0.91278237337E+01  0.51100000000E-03 0. -1.
        -11    1    3    3    0    0  0.32883653499E+01  0.21814059609E+01 -0.57339516865E+01  0.69606092295E+01  0.51100000000E-03 0.  1.
        -12    1    3    3    0    0  0.26026749014E+02 -0.22133787532E+02  0.43413003227E+01  0.34440428326E+02  0.00000000000E+00 0.  1.
</event>
<event>
 7    1  0.3250765E-011  0.5052886E+02  0.7816164E-02  0.1300439E+00
        -11   -1    0    0    0    0  0.00000000000E+00  0.00000000000E+00  0.45593999997E+02  0.45594000000E+02  0.51100000000E-03 0.  1.
         11   -1    0    0    0    0 -0.00000000000E+00 -0.00000000000E+00 -0.45593999997E+02  0.45594000000E+02  0.51100000000E-03 0. -1.
    9900012    2    1    2    0    0  0.39673436063E+02 -0.27527529987E+00 -0.88942803480E+01  0.50528861686E+02  0.30000005582E+02 0.  0.
         12    1    1    2    0    0 -0.39673436063E+02  0.27527529987E+00  0.88942803480E+01  0.40659138314E+02  0.00000000000E+00 0. -1.
         11    1    3    3    0    0  0.12781370594E+02 -0.50108325500E+01 -0.83290276711E+00  0.13753748739E+02  0.51100000000E-03 0. -1.
        -11    1    3    3    0    0  0.89878811757E+01 -0.70419181451E+01  0.41030479600E+01  0.12132832399E+02  0.51100000000E-03 0.  1.
         12    1    3    3    0    0  0.17904184293E+02  0.11777475395E+02 -0.12164425541E+02  0.24642280548E+02  0.00000000000E+00 0. -1.
</event>
<event>
 7    1  0.3250765E-011  0.5052887E+02  0.7816164E-02  0.1300439E+00
        -11   -1    0    0    0    0  0.00000000000E+00  0.00000000000E+00  0.45593999997E+02  0.45594000000E+02  0.51100000000E-03 0. -1.
         11   -1    0    0    0    0 -0.00000000000E+00 -0.00000000000E+00 -0.45593999997E+02  0.45594000000E+02  0.51100000000E-03 0.  1.
    9900012    2    1    2    0    0 -0.10318356556E+02 -0.21146053379E+02 -0.33159325637E+02  0.50528869018E+02  0.30000027866E+02 0.  0.
         12    1    1    2    0    0  0.10318356556E+02  0.21146053379E+02  0.33159325637E+02  0.40659130982E+02  0.00000000000E+00 0. -1.
         11    1    3    3    0    0 -0.34913473851E+01 -0.17946939408E+01  0.48943495580E+00  0.39560055285E+01  0.51100000000E-03 0. -1.
        -11    1    3    3    0    0 -0.16052915967E+02 -0.11707940907E+02 -0.24219127623E+02  0.31326316962E+02  0.51100000000E-03 0.  1.
         12    1    3    3    0    0  0.92259067962E+01 -0.76434185312E+01 -0.94296329703E+01  0.15246546527E+02  0.00000000000E+00 0. -1.
</event>
<event>
 7    1  0.3250765E-011  0.5052887E+02  0.7816164E-02  0.1300439E+00
        -11   -1    0    0    0    0  0.00000000000E+00  0.00000000000E+00  0.45593999997E+02  0.45594000000E+02  0.51100000000E-03 0.  1.
         11   -1    0    0    0    0 -0.00000000000E+00 -0.00000000000E+00 -0.45593999997E+02  0.45594000000E+02  0.51100000000E-03 0. -1.
    9900012    2    1    2    0    0 -0.14468539650E+01  0.11473532235E+02  0.38979864737E+02  0.50528865931E+02  0.30000018483E+02 0.  0.
         12    1    1    2    0    0  0.14468539650E+01 -0.11473532235E+02 -0.38979864737E+02  0.40659134069E+02  0.00000000000E+00 0. -1.
         11    1    3    3    0    0 -0.94980156065E+01 -0.13131060424E+01  0.19105985042E+02  0.21376978566E+02  0.51100000000E-03 0. -1.
        -11    1    3    3    0    0  0.27834322783E+01 -0.29372005202E+00  0.13304094301E+02  0.13595318758E+02  0.51100000000E-03 0.  1.
         12    1    3    3    0    0  0.52677293633E+01  0.13080358329E+02  0.65697853945E+01  0.15556568606E+02  0.00000000000E+00 0. -1.
</event>
<event>
 7    1  0.3250765E-011  0.5052887E+02  0.7816164E-02  0.1300439E+00
        -11   -1    0    0    0    0  0.00000000000E+00  0.00000000000E+00  0.45593999997E+02  0.45594000000E+02  0.51100000000E-03 0. -1.
         11   -1    0    0    0    0 -0.00000000000E+00 -0.00000000000E+00 -0.45593999997E+02  0.45594000000E+02  0.51100000000E-03 0.  1.
    9900012    2    1    2    0    0 -0.24469732326E+02  0.14001611453E+02 -0.29297649088E+02  0.50528866149E+02  0.30000019148E+02 0.  0.
         12    1    1    2    0    0  0.24469732326E+02 -0.14001611453E+02  0.29297649088E+02  0.40659133851E+02  0.00000000000E+00 0. -1.
         11    1    3    3    0    0 -0.29009502955E+01  0.60095850328E+01 -0.20992869099E+02  0.22027963550E+02  0.51100000000E-03 0.  1.
        -11    1    3    3    0    0 -0.31376252442E+01  0.81935563150E+01 -0.35539508405E+01  0.94662360048E+01  0.51100000000E-03 0. -1.
         12    1    3    3    0    0 -0.18431156786E+02 -0.20152989495E+00 -0.47508291488E+01  0.19034666595E+02  0.00000000000E+00 0. -1.
</event>
<event>
 7    1  0.3250765E-011  0.5052886E+02  0.7816164E-02  0.1300439E+00
        -11   -1    0    0    0    0  0.00000000000E+00  0.00000000000E+00  0.45593999997E+02  0.45594000000E+02  0.51100000000E-03 0. -1.
         11   -1    0    0    0    0 -0.00000000000E+00 -0.00000000000E+00 -0.45593999997E+02  0.45594000000E+02  0.51100000000E-03 0.  1.
    9900012    2    1    2    0    0  0.34334293159E+02  0.18993291408E+01 -0.21695955302E+02  0.50528860629E+02  0.30000002368E+02 0.  0.
         12    1    1    2    0    0 -0.34334293159E+02 -0.18993291408E+01  0.21695955302E+02  0.40659139371E+02  0.00000000000E+00 0. -1.
         11    1    3    3    0    0  0.53138635813E+01  0.90887985228E+01 -0.68552002427E+01  0.12563326605E+02  0.51100000000E-03 0. -1.
        -11    1    3    3    0    0 -0.23324265241E+01 -0.18115088828E+01 -0.23697973679E+00  0.29627584410E+01  0.51100000000E-03 0.  1.
        -12    1    3    3    0    0  0.31352856102E+02 -0.53779604992E+01 -0.14603775322E+02  0.35002775583E+02  0.00000000000E+00 0.  1.
</event>
<event>
 7    1  0.3250765E-011  0.5052887E+02  0.7816164E-02  0.1300439E+00
        -11   -1    0    0    0    0  0.00000000000E+00  0.00000000000E+00  0.45593999997E+02  0.45594000000E+02  0.51100000000E-03 0.  1.
         11   -1    0    0    0    0 -0.00000000000E+00 -0.00000000000E+00 -0.45593999997E+02  0.45594000000E+02  0.51100000000E-03 0. -1.
    9900012    2    1    2    0    0 -0.29243169118E+02  0.22127524065E+02  0.17560604775E+02  0.50528866938E+02  0.30000021544E+02 0.  0.
         12    1    1    2    0    0  0.29243169118E+02 -0.22127524065E+02 -0.17560604775E+02  0.40659133062E+02  0.00000000000E+00 0. -1.
         11    1    3    3    0    0 -0.23540277143E+01 -0.43072684266E+01  0.13361606731E+01  0.50871734179E+01  0.51100000000E-03 0. -1.
        -11    1    3    3    0    0 -0.79505093405E+01  0.17551673443E+02  0.50461237055E+00  0.19275022006E+02  0.51100000000E-03 0.  1.
        -12    1    3    3    0    0 -0.18938632063E+02  0.88831190491E+01  0.15719831731E+02  0.26166671514E+02  0.00000000000E+00 0.  1.
</event>
<event>
 7    1  0.3250765E-011  0.5052885E+02  0.7816164E-02  0.1300439E+00
        -11   -1    0    0    0    0  0.00000000000E+00  0.00000000000E+00  0.45593999997E+02  0.45594000000E+02  0.51100000000E-03 0.  1.
         11   -1    0    0    0    0 -0.00000000000E+00 -0.00000000000E+00 -0.45593999997E+02  0.45594000000E+02  0.51100000000E-03 0. -1.
    9900012    2    1    2    0    0  0.12449872469E+02 -0.26633893440E+01  0.38614416491E+02  0.50528854310E+02  0.29999983162E+02 0.  0.
         12    1    1    2    0    0 -0.12449872469E+02  0.26633893440E+01 -0.38614416491E+02  0.40659145690E+02  0.00000000000E+00 0. -1.
         11    1    3    3    0    0 -0.99922599632E-02  0.10959814407E+01  0.60883020923E+00  0.12537741616E+01  0.51100000000E-03 0. -1.
        -11    1    3    3    0    0  0.18868056969E+01 -0.14073191568E+02  0.28120688324E+02  0.31502188316E+02  0.51100000000E-03 0.  1.
        -12    1    3    3    0    0  0.10573059032E+02  0.10313820784E+02  0.98848979576E+01  0.17772891832E+02  0.00000000000E+00 0.  1.
</event>
<event>
 7    1  0.3250765E-011  0.5052888E+02  0.7816164E-02  0.1300439E+00
        -11   -1    0    0    0    0  0.00000000000E+00  0.00000000000E+00  0.45593999997E+02  0.45594000000E+02  0.51100000000E-03 0.  1.
         11   -1    0    0    0    0 -0.00000000000E+00 -0.00000000000E+00 -0.45593999997E+02  0.45594000000E+02  0.51100000000E-03 0. -1.
    9900012    2    1    2    0    0 -0.20887619164E+02 -0.24308935058E+02  0.25018934057E+02  0.50528880244E+02  0.30000061990E+02 0.  0.
         12    1    1    2    0    0  0.20887619164E+02  0.24308935058E+02 -0.25018934057E+02  0.40659119756E+02  0.00000000000E+00 0. -1.
         11    1    3    3    0    0 -0.39641569038E+01 -0.12273778875E+02  0.19826230299E+02  0.23652475472E+02  0.51100000000E-03 0. -1.
        -11    1    3    3    0    0 -0.11081232146E+02 -0.14228479738E+02  0.83603491135E+01  0.19878097975E+02  0.51100000000E-03 0.  1.
        -12    1    3    3    0    0 -0.58422301141E+01  0.21933235549E+01 -0.31676453561E+01  0.69983067970E+01  0.00000000000E+00 0.  1.
</event>
<event>
 7    1  0.3250765E-011  0.5052886E+02  0.7816164E-02  0.1300439E+00
        -11   -1    0    0    0    0  0.00000000000E+00  0.00000000000E+00  0.45593999997E+02  0.45594000000E+02  0.51100000000E-03 0.  1.
         11   -1    0    0    0    0 -0.00000000000E+00 -0.00000000000E+00 -0.45593999997E+02  0.45594000000E+02  0.51100000000E-03 0. -1.
    9900012    2    1    2    0    0  0.30606816324E+02 -0.13038898161E+02  0.23374679583E+02  0.50528859375E+02  0.29999998557E+02 0.  0.
         12    1    1    2    0    0 -0.30606816324E+02  0.13038898161E+02 -0.23374679583E+02  0.40659140625E+02  0.00000000000E+00 0. -1.
         11    1    3    3    0    0  0.15982872702E+02 -0.14320520056E+02  0.26920551872E+02  0.34427396472E+02  0.51100000000E-03 0.  1.
        -11    1    3    3    0    0  0.74291267748E+01  0.82856535964E+00  0.10551152477E+01  0.75492856376E+01  0.51100000000E-03 0. -1.
        -12    1    3    3    0    0  0.71948168468E+01  0.45305653452E+00 -0.46009875361E+01  0.85521772660E+01  0.00000000000E+00 0.  1.
</event>
<event>
 7    1  0.3250765E-011  0.5052885E+02  0.7816164E-02  0.1300439E+00
        -11   -1    0    0    0    0  0.00000000000E+00  0.00000000000E+00  0.45593999997E+02  0.45594000000E+02  0.51100000000E-03 0. -1.
         11   -1    0    0    0    0 -0.00000000000E+00 -0.00000000000E+00 -0.45593999997E+02  0.45594000000E+02  0.51100000000E-03 0.  1.
    9900012    2    1    2    0    0 -0.15492772246E+02 -0.19071950357E+02  0.32394457064E+02  0.50528854279E+02  0.29999983065E+02 0.  0.
         12    1    1    2    0    0  0.15492772246E+02  0.19071950357E+02 -0.32394457064E+02  0.40659145721E+02  0.00000000000E+00 0. -1.
         11    1    3    3    0    0 -0.82649931193E+01 -0.33865126839E+01  0.16446127916E+00  0.89333995318E+01  0.51100000000E-03 0. -1.
        -11    1    3    3    0    0 -0.20805820999E+01 -0.14706984128E+02  0.81306643995E+01  0.16933160008E+02  0.51100000000E-03 0.  1.
         12    1    3    3    0    0 -0.51471970271E+01 -0.97845354564E+00  0.24099331386E+02  0.24662294739E+02  0.00000000000E+00 0. -1.
</event>
<event>
 7    1  0.3250765E-011  0.5052886E+02  0.7816164E-02  0.1300439E+00
        -11   -1    0    0    0    0  0.00000000000E+00  0.00000000000E+00  0.45593999997E+02  0.45594000000E+02  0.51100000000E-03 0. -1.
         11   -1    0    0    0    0 -0.00000000000E+00 -0.00000000000E+00 -0.45593999997E+02  0.45594000000E+02  0.51100000000E-03 0.  1.
    9900012    2    1    2    0    0 -0.25099082599E+02 -0.13366427232E+00 -0.31987244623E+02  0.50528860412E+02  0.30000001708E+02 0.  0.
         12    1    1    2    0    0  0.25099082599E+02  0.13366427232E+00  0.31987244623E+02  0.40659139588E+02  0.00000000000E+00 0. -1.
         11    1    3    3    0    0 -0.20068560251E+02 -0.25119677403E+00 -0.11611792098E+02  0.23187150027E+02  0.51100000000E-03 0. -1.
        -11    1    3    3    0    0 -0.82842725521E+01  0.57935435444E+01 -0.17467976633E+02  0.20182282488E+02  0.51100000000E-03 0.  1.
         12    1    3    3    0    0  0.32537502045E+01 -0.56760110427E+01 -0.29074758925E+01  0.71594278972E+01  0.00000000000E+00 0. -1.
</event>
<event>
 7    1  0.3250765E-011  0.5052884E+02  0.7816164E-02  0.1300439E+00
        -11   -1    0    0    0    0  0.00000000000E+00  0.00000000000E+00  0.45593999997E+02  0.45594000000E+02  0.51100000000E-03 0.  1.
         11   -1    0    0    0    0 -0.00000000000E+00 -0.00000000000E+00 -0.45593999997E+02  0.45594000000E+02  0.51100000000E-03 0. -1.
    9900012    2    1    2    0    0  0.49540216087E+01 -0.27961214201E+02  0.29099746263E+02  0.50528842824E+02  0.29999948248E+02 0.  0.
         12    1    1    2    0    0 -0.49540216087E+01  0.27961214201E+02 -0.29099746263E+02  0.40659157176E+02  0.00000000000E+00 0. -1.
         11    1    3    3    0    0  0.68989852762E+01 -0.48480687945E+00  0.51572586614E+00  0.69352007167E+01  0.51100000000E-03 0. -1.
        -11    1    3    3    0    0 -0.68187732350E+01 -0.58290545015E+01  0.15288562024E+02  0.17726073277E+02  0.51100000000E-03 0.  1.
        -12    1    3    3    0    0  0.48738095675E+01 -0.21647352820E+02  0.13295458373E+02  0.25867568830E+02  0.00000000000E+00 0.  1.
</event>
<event>
 7    1  0.3250765E-011  0.5052886E+02  0.7816164E-02  0.1300439E+00
        -11   -1    0    0    0    0  0.00000000000E+00  0.00000000000E+00  0.45593999997E+02  0.45594000000E+02  0.51100000000E-03 0.  1.
         11   -1    0    0    0    0 -0.00000000000E+00 -0.00000000000E+00 -0.45593999997E+02  0.45594000000E+02  0.51100000000E-03 0. -1.
    9900012    2    1    2    0    0 -0.81387237434E+01  0.32736665670E+01  0.39701512795E+02  0.50528857914E+02  0.29999994117E+02 0.  0.
         12    1    1    2    0    0  0.81387237434E+01 -0.32736665670E+01 -0.39701512795E+02  0.40659142086E+02  0.00000000000E+00 0. -1.
         11    1    3    3    0    0  0.37499639881E+01  0.42990315570E+01  0.93321048268E+00  0.57805522493E+01  0.51100000000E-03 0. -1.
        -11    1    3    3    0    0 -0.76559346779E+01  0.24224338217E+01  0.30099575805E+01  0.85756262926E+01  0.51100000000E-03 0.  1.
        -12    1    3    3    0    0 -0.42327530537E+01 -0.34477988117E+01  0.35758344731E+02  0.36172679373E+02  0.00000000000E+00 0.  1.
</event>
<event>
 7    1  0.3250765E-011  0.5052884E+02  0.7816164E-02  0.1300439E+00
        -11   -1    0    0    0    0  0.00000000000E+00  0.00000000000E+00  0.45593999997E+02  0.45594000000E+02  0.51100000000E-03 0.  1.
         11   -1    0    0    0    0 -0.00000000000E+00 -0.00000000000E+00 -0.45593999997E+02  0.45594000000E+02  0.51100000000E-03 0. -1.
    9900012    2    1    2    0    0  0.35988198784E+02 -0.17664736861E+02 -0.67803777705E+01  0.50528844785E+02  0.29999954209E+02 0.  0.
         12    1    1    2    0    0 -0.35988198784E+02  0.17664736861E+02  0.67803777705E+01  0.40659155215E+02  0.00000000000E+00 0. -1.
         11    1    3    3    0    0  0.32113989343E+01 -0.17506949622E+01  0.57661830672E+01  0.68283880522E+01  0.51100000000E-03 0. -1.
        -11    1    3    3    0    0  0.28077844385E+01 -0.83886246709E+01 -0.89642745162E+01  0.12594081752E+02  0.51100000000E-03 0.  1.
        -12    1    3    3    0    0  0.29969015411E+02 -0.75254172282E+01 -0.35822863215E+01  0.31106374981E+02  0.00000000000E+00 0.  1.
</event>
<event>
 7    1  0.3250765E-011  0.5052886E+02  0.7816164E-02  0.1300439E+00
        -11   -1    0    0    0    0  0.00000000000E+00  0.00000000000E+00  0.45593999997E+02  0.45594000000E+02  0.51100000000E-03 0.  1.
         11   -1    0    0    0    0 -0.00000000000E+00 -0.00000000000E+00 -0.45593999997E+02  0.45594000000E+02  0.51100000000E-03 0. -1.
    9900012    2    1    2    0    0  0.21659635020E+02  0.26743608879E+02  0.21651909641E+02  0.50528860853E+02  0.30000003049E+02 0.  0.
         12    1    1    2    0    0 -0.21659635020E+02 -0.26743608879E+02 -0.21651909641E+02  0.40659139147E+02  0.00000000000E+00 0. -1.
         11    1    3    3    0    0  0.11243525637E+02  0.46630626015E+01  0.18303252937E+01  0.12308985032E+02  0.51100000000E-03 0.  1.
        -11    1    3    3    0    0  0.53404597646E+01  0.28454785670E-01  0.13809437330E+02  0.14806143313E+02  0.51100000000E-03 0. -1.
        -12    1    3    3    0    0  0.50756496183E+01  0.22052091492E+02  0.60121470174E+01  0.23413732508E+02  0.00000000000E+00 0.  1.
</event>
<event>
 7    1  0.3250765E-011  0.5052882E+02  0.7816164E-02  0.1300439E+00
        -11   -1    0    0    0    0  0.00000000000E+00  0.00000000000E+00  0.45593999997E+02  0.45594000000E+02  0.51100000000E-03 0.  1.
         11   -1    0    0    0    0 -0.00000000000E+00 -0.00000000000E+00 -0.45593999997E+02  0.45594000000E+02  0.51100000000E-03 0. -1.
    9900012    2    1    2    0    0 -0.39244484559E+02  0.10329310874E+02 -0.25187875145E+01  0.50528824874E+02  0.29999893686E+02 0.  0.
         12    1    1    2    0    0  0.39244484559E+02 -0.10329310874E+02  0.25187875145E+01  0.40659175126E+02  0.00000000000E+00 0. -1.
         11    1    3    3    0    0 -0.16068828606E+02 -0.66477273421E+01  0.87537411050E+01  0.19468629001E+02  0.51100000000E-03 0. -1.
        -11    1    3    3    0    0 -0.11908538162E+02  0.94178823782E+01 -0.41656243560E+01  0.15743640500E+02  0.51100000000E-03 0.  1.
        -12    1    3    3    0    0 -0.11267117791E+02  0.75591558380E+01 -0.71069042635E+01  0.15316555373E+02  0.00000000000E+00 0.  1.
</event>
<event>
 7    1  0.3250765E-011  0.5052890E+02  0.7816164E-02  0.1300439E+00
        -11   -1    0    0    0    0  0.00000000000E+00  0.00000000000E+00  0.45593999997E+02  0.45594000000E+02  0.51100000000E-03 0. -1.
         11   -1    0    0    0    0 -0.00000000000E+00 -0.00000000000E+00 -0.45593999997E+02  0.45594000000E+02  0.51100000000E-03 0.  1.
    9900012    2    1    2    0    0  0.28886479173E+02  0.28438110779E+02 -0.31634722129E+01  0.50528900402E+02  0.30000123262E+02 0.  0.
         12    1    1    2    0    0 -0.28886479173E+02 -0.28438110779E+02  0.31634722129E+01  0.40659099598E+02  0.00000000000E+00 0. -1.
         11    1    3    3    0    0  0.28611924580E+01  0.73466163812E+01  0.86485753383E+01  0.11702865041E+02  0.51100000000E-03 0. -1.
        -11    1    3    3    0    0  0.49052995859E+00  0.73985610289E+01 -0.53399170263E+01  0.91375072666E+01  0.51100000000E-03 0.  1.
        -12    1    3    3    0    0  0.25534756757E+02  0.13692933369E+02 -0.64721305250E+01  0.29688528094E+02  0.00000000000E+00 0.  1.
</event>
<event>
 7    1  0.3250765E-011  0.5052886E+02  0.7816164E-02  0.1300439E+00
        -11   -1    0    0    0    0  0.00000000000E+00  0.00000000000E+00  0.45593999997E+02  0.45594000000E+02  0.51100000000E-03 0.  1.
         11   -1    0    0    0    0 -0.00000000000E+00 -0.00000000000E+00 -0.45593999997E+02  0.45594000000E+02  0.51100000000E-03 0. -1.
    9900012    2    1    2    0    0  0.68122834849E+01 -0.13705781315E+02  0.37668420332E+02  0.50528861568E+02  0.30000005222E+02 0.  0.
         12    1    1    2    0    0 -0.68122834849E+01  0.13705781315E+02 -0.37668420332E+02  0.40659138432E+02  0.00000000000E+00 0. -1.
         11    1    3    3    0    0  0.64963760650E+01 -0.19241560764E+01  0.73550678565E+01  0.10000115100E+02  0.51100000000E-03 0.  1.
        -11    1    3    3    0    0 -0.12443297632E+01  0.36316270763E+01 -0.22630289878E+01  0.44562733580E+01  0.51100000000E-03 0. -1.
        -12    1    3    3    0    0  0.15602371831E+01 -0.15413252315E+02  0.32576381463E+02  0.36072473110E+02  0.00000000000E+00 0.  1.
</event>
<event>
 7    1  0.3250765E-011  0.5052886E+02  0.7816164E-02  0.1300439E+00
        -11   -1    0    0    0    0  0.00000000000E+00  0.00000000000E+00  0.45593999997E+02  0.45594000000E+02  0.51100000000E-03 0.  1.
         11   -1    0    0    0    0 -0.00000000000E+00 -0.00000000000E+00 -0.45593999997E+02  0.45594000000E+02  0.51100000000E-03 0. -1.
    9900012    2    1    2    0    0 -0.40617656550E+02 -0.23171043183E+00 -0.18214558839E+01  0.50528863083E+02  0.30000009827E+02 0.  0.
         12    1    1    2    0    0  0.40617656550E+02  0.23171043183E+00  0.18214558839E+01  0.40659136917E+02  0.00000000000E+00 0. -1.
         11    1    3    3    0    0 -0.73832195475E-01  0.59541086193E+01  0.43015318536E+01  0.73457496004E+01  0.51100000000E-03 0. -1.
        -11    1    3    3    0    0 -0.25305584522E+02 -0.65705597699E+01  0.14050680675E+01  0.26182419297E+02  0.51100000000E-03 0.  1.
        -12    1    3    3    0    0 -0.15238239832E+02  0.38474071872E+00 -0.75280558049E+01  0.17000694186E+02  0.00000000000E+00 0.  1.
</event>
<event>
 7    1  0.3250765E-011  0.5052887E+02  0.7816164E-02  0.1300439E+00
        -11   -1    0    0    0    0  0.00000000000E+00  0.00000000000E+00  0.45593999997E+02  0.45594000000E+02  0.51100000000E-03 0. -1.
         11   -1    0    0    0    0 -0.00000000000E+00 -0.00000000000E+00 -0.45593999997E+02  0.45594000000E+02  0.51100000000E-03 0.  1.
    9900012    2    1    2    0    0  0.16086993861E+02 -0.28696885236E+02 -0.23892723712E+02  0.50528870150E+02  0.30000031309E+02 0.  0.
         12    1    1    2    0    0 -0.16086993861E+02  0.28696885236E+02  0.23892723712E+02  0.40659129850E+02  0.00000000000E+00 0. -1.
         11    1    3    3    0    0  0.84048133482E+00 -0.91690229556E+01  0.29393727370E+01  0.96652627063E+01  0.51100000000E-03 0. -1.
        -11    1    3    3    0    0  0.13173319073E+02 -0.15441484288E+02 -0.85645756897E+01  0.22030155002E+02  0.51100000000E-03 0.  1.
         12    1    3    3    0    0  0.20731934535E+01 -0.40863779931E+01 -0.18267520759E+02  0.18833452442E+02  0.00000000000E+00 0. -1.
</event>
<event>
 7    1  0.3250765E-011  0.5052884E+02  0.7816164E-02  0.1300439E+00
        -11   -1    0    0    0    0  0.00000000000E+00  0.00000000000E+00  0.45593999997E+02  0.45594000000E+02  0.51100000000E-03 0.  1.
         11   -1    0    0    0    0 -0.00000000000E+00 -0.00000000000E+00 -0.45593999997E+02  0.45594000000E+02  0.51100000000E-03 0. -1.
    9900012    2    1    2    0    0 -0.13446587430E+02  0.36534321601E+02 -0.11730296402E+02  0.50528840859E+02  0.29999942276E+02 0.  0.
         12    1    1    2    0    0  0.13446587430E+02 -0.36534321601E+02  0.11730296402E+02  0.40659159141E+02  0.00000000000E+00 0. -1.
         11    1    3    3    0    0  0.35161078155E+01  0.36537710739E+01 -0.84726776875E+01  0.98741746333E+01  0.51100000000E-03 0. -1.
        -11    1    3    3    0    0 -0.12384716249E+02  0.74333818277E+01 -0.32206822208E+01  0.14798957943E+02  0.51100000000E-03 0.  1.
         12    1    3    3    0    0 -0.45779789966E+01  0.25447168699E+02 -0.36936493511E-01  0.25855708283E+02  0.00000000000E+00 0. -1.
</event>
<event>
 7    1  0.3250765E-011  0.5052885E+02  0.7816164E-02  0.1300439E+00
        -11   -1    0    0    0    0  0.00000000000E+00  0.00000000000E+00  0.45593999997E+02  0.45594000000E+02  0.51100000000E-03 0.  1.
         11   -1    0    0    0    0 -0.00000000000E+00 -0.00000000000E+00 -0.45593999997E+02  0.45594000000E+02  0.51100000000E-03 0. -1.
    9900012    2    1    2    0    0  0.33930438812E+01 -0.37968567990E+02  0.14143591411E+02  0.50528854903E+02  0.29999984963E+02 0.  0.
         12    1    1    2    0    0 -0.33930438812E+01  0.37968567990E+02 -0.14143591411E+02  0.40659145097E+02  0.00000000000E+00 0. -1.
         11    1    3    3    0    0  0.61064029783E+00 -0.82996784775E+01  0.12148500947E+02  0.14725611021E+02  0.51100000000E-03 0. -1.
        -11    1    3    3    0    0 -0.75219514280E+01 -0.10488624167E+02  0.49642251224E+01  0.13828757049E+02  0.51100000000E-03 0.  1.
         12    1    3    3    0    0  0.10304355011E+02 -0.19180265346E+02 -0.29691346587E+01  0.21974486833E+02  0.00000000000E+00 0. -1.
</event>
<event>
 7    1  0.3250765E-011  0.5052883E+02  0.7816164E-02  0.1300439E+00
        -11   -1    0    0    0    0  0.00000000000E+00  0.00000000000E+00  0.45593999997E+02  0.45594000000E+02  0.51100000000E-03 0. -1.
         11   -1    0    0    0    0 -0.00000000000E+00 -0.00000000000E+00 -0.45593999997E+02  0.45594000000E+02  0.51100000000E-03 0.  1.
    9900012    2    1    2    0    0 -0.31512843673E+02 -0.57779873838E+01 -0.25034445647E+02  0.50528832234E+02  0.29999916058E+02 0.  0.
         12    1    1    2    0    0  0.31512843673E+02  0.57779873838E+01  0.25034445647E+02  0.40659167766E+02  0.00000000000E+00 0. -1.
         11    1    3    3    0    0  0.22063580871E+01  0.22446893715E+01 -0.11788775277E+02  0.12201715829E+02  0.51100000000E-03 0. -1.
        -11    1    3    3    0    0 -0.80653553648E+01 -0.62876184426E+01 -0.31101026357E+01  0.10689099191E+02  0.51100000000E-03 0.  1.
        -12    1    3    3    0    0 -0.25653846395E+02 -0.17350583128E+01 -0.10135567734E+02  0.27638017214E+02  0.00000000000E+00 0.  1.
</event>
<event>
 7    1  0.3250765E-011  0.5052886E+02  0.7816164E-02  0.1300439E+00
        -11   -1    0    0    0    0  0.00000000000E+00  0.00000000000E+00  0.45593999997E+02  0.45594000000E+02  0.51100000000E-03 0. -1.
         11   -1    0    0    0    0 -0.00000000000E+00 -0.00000000000E+00 -0.45593999997E+02  0.45594000000E+02  0.51100000000E-03 0.  1.
    9900012    2    1    2    0    0  0.27905392483E+02 -0.27929996646E+02 -0.97144300465E+01  0.50528858428E+02  0.29999995677E+02 0.  0.
         12    1    1    2    0    0 -0.27905392483E+02  0.27929996646E+02  0.97144300465E+01  0.40659141572E+02  0.00000000000E+00 0. -1.
         11    1    3    3    0    0  0.21543242777E+02 -0.23834161315E+02  0.25443125758E+01  0.32228125631E+02  0.51100000000E-03 0. -1.
        -11    1    3    3    0    0  0.65060355581E+01 -0.58229320383E+00 -0.11292722713E+01  0.66289380886E+01  0.51100000000E-03 0.  1.
        -12    1    3    3    0    0 -0.14388585210E+00 -0.35135421274E+01 -0.11129470351E+02  0.11671794708E+02  0.00000000000E+00 0.  1.
</event>
<event>
 7    1  0.3250765E-011  0.5052886E+02  0.7816164E-02  0.1300439E+00
        -11   -1    0    0    0    0  0.00000000000E+00  0.00000000000E+00  0.45593999997E+02  0.45594000000E+02  0.51100000000E-03 0. -1.
         11   -1    0    0    0    0 -0.00000000000E+00 -0.00000000000E+00 -0.45593999997E+02  0.45594000000E+02  0.51100000000E-03 0.  1.
    9900012    2    1    2    0    0  0.67301525696E+01  0.16771990112E+02 -0.36422124946E+02  0.50528858451E+02  0.29999995748E+02 0.  0.
         12    1    1    2    0    0 -0.67301525696E+01 -0.16771990112E+02  0.36422124946E+02  0.40659141549E+02  0.00000000000E+00 0. -1.
         11    1    3    3    0    0  0.28435463563E+01  0.12958800960E+01 -0.14847602428E+02  0.15172882364E+02  0.51100000000E-03 0. -1.
        -11    1    3    3    0    0 -0.82756313615E+01  0.39045415452E+00 -0.91185796652E+01  0.12320187671E+02  0.51100000000E-03 0.  1.
         12    1    3    3    0    0  0.12162237575E+02  0.15085655862E+02 -0.12455942852E+02  0.23035788416E+02  0.00000000000E+00 0. -1.
</event>
<event>
 7    1  0.3250765E-011  0.5052887E+02  0.7816164E-02  0.1300439E+00
        -11   -1    0    0    0    0  0.00000000000E+00  0.00000000000E+00  0.45593999997E+02  0.45594000000E+02  0.51100000000E-03 0. -1.
         11   -1    0    0    0    0 -0.00000000000E+00 -0.00000000000E+00 -0.45593999997E+02  0.45594000000E+02  0.51100000000E-03 0.  1.
    9900012    2    1    2    0    0  0.21589401751E+02 -0.28683931795E+02 -0.19086510089E+02  0.50528867218E+02  0.30000022397E+02 0.  0.
         12    1    1    2    0    0 -0.21589401751E+02  0.28683931795E+02  0.19086510089E+02  0.40659132782E+02  0.00000000000E+00 0. -1.
         11    1    3    3    0    0  0.14400212367E+02 -0.26996200095E+02 -0.88165253510E+01  0.31841671679E+02  0.51100000000E-03 0.  1.
        -11    1    3    3    0    0 -0.20277256851E+01 -0.36651638852E+01  0.67455637605E+00  0.42426553389E+01  0.51100000000E-03 0. -1.
        -12    1    3    3    0    0  0.92169150685E+01  0.19774321844E+01 -0.10944541114E+02  0.14444540201E+02  0.00000000000E+00 0.  1.
</event>
<event>
 7    1  0.3250765E-011  0.5052885E+02  0.7816164E-02  0.1300439E+00
        -11   -1    0    0    0    0  0.00000000000E+00  0.00000000000E+00  0.45593999997E+02  0.45594000000E+02  0.51100000000E-03 0.  1.
         11   -1    0    0    0    0 -0.00000000000E+00 -0.00000000000E+00 -0.45593999997E+02  0.45594000000E+02  0.51100000000E-03 0. -1.
    9900012    2    1    2    0    0 -0.13060990230E+02 -0.30634506463E+02  0.23326043525E+02  0.50528846559E+02  0.29999959602E+02 0.  0.
         12    1    1    2    0    0  0.13060990230E+02  0.30634506463E+02 -0.23326043525E+02  0.40659153441E+02  0.00000000000E+00 0. -1.
         11    1    3    3    0    0 -0.25558096053E+01 -0.24921707999E+02  0.13726091087E+02  0.28566226022E+02  0.51100000000E-03 0. -1.
        -11    1    3    3    0    0 -0.95699470898E+01 -0.74556654119E+01 -0.30205223439E-01  0.12131436298E+02  0.51100000000E-03 0.  1.
        -12    1    3    3    0    0 -0.93523353459E+00  0.17428669486E+01  0.96301576615E+01  0.98311842395E+01  0.00000000000E+00 0.  1.
</event>
<event>
 7    1  0.3250765E-011  0.5052885E+02  0.7816164E-02  0.1300439E+00
        -11   -1    0    0    0    0  0.00000000000E+00  0.00000000000E+00  0.45593999997E+02  0.45594000000E+02  0.51100000000E-03 0.  1.
         11   -1    0    0    0    0 -0.00000000000E+00 -0.00000000000E+00 -0.45593999997E+02  0.45594000000E+02  0.51100000000E-03 0. -1.
    9900012    2    1    2    0    0 -0.61528156044E+01 -0.31657001524E+02  0.24761729371E+02  0.50528854328E+02  0.29999983216E+02 0.  0.
         12    1    1    2    0    0  0.61528156044E+01  0.31657001524E+02 -0.24761729371E+02  0.40659145672E+02  0.00000000000E+00 0. -1.
         11    1    3    3    0    0 -0.13183490523E+02 -0.10193360922E+02  0.12437191604E+02  0.20794055990E+02  0.51100000000E-03 0. -1.
        -11    1    3    3    0    0  0.16834652427E+01 -0.18241023136E+01  0.87164800770E+01  0.90630254148E+01  0.51100000000E-03 0.  1.
         12    1    3    3    0    0  0.53472096761E+01 -0.19639538288E+02  0.36080576896E+01  0.20671772923E+02  0.00000000000E+00 0. -1.
</event>
<event>
 7    1  0.3250765E-011  0.5052886E+02  0.7816164E-02  0.1300439E+00
        -11   -1    0    0    0    0  0.00000000000E+00  0.00000000000E+00  0.45593999997E+02  0.45594000000E+02  0.51100000000E-03 0.  1.
         11   -1    0    0    0    0 -0.00000000000E+00 -0.00000000000E+00 -0.45593999997E+02  0.45594000000E+02  0.51100000000E-03 0. -1.
    9900012    2    1    2    0    0 -0.31204815164E+02 -0.25985569310E+02 -0.20433548516E+01  0.50528860796E+02  0.30000002875E+02 0.  0.
         12    1    1    2    0    0  0.31204815164E+02  0.25985569310E+02  0.20433548516E+01  0.40659139204E+02  0.00000000000E+00 0. -1.
         11    1    3    3    0    0  0.38502254324E+00  0.33404175008E+01  0.19632487904E+01  0.38937099934E+01  0.51100000000E-03 0. -1.
        -11    1    3    3    0    0 -0.10749714759E+02 -0.40190160182E+01  0.51764517332E+01  0.12589857424E+02  0.51100000000E-03 0.  1.
         12    1    3    3    0    0 -0.20840122948E+02 -0.25306970793E+02 -0.91830553753E+01  0.34045293378E+02  0.00000000000E+00 0. -1.
</event>
<event>
 7    1  0.3250765E-011  0.5052886E+02  0.7816164E-02  0.1300439E+00
        -11   -1    0    0    0    0  0.00000000000E+00  0.00000000000E+00  0.45593999997E+02  0.45594000000E+02  0.51100000000E-03 0.  1.
         11   -1    0    0    0    0 -0.00000000000E+00 -0.00000000000E+00 -0.45593999997E+02  0.45594000000E+02  0.51100000000E-03 0. -1.
    9900012    2    1    2    0    0 -0.37393545586E+02 -0.13893549974E+02  0.78649816831E+01  0.50528856881E+02  0.29999990974E+02 0.  0.
         12    1    1    2    0    0  0.37393545586E+02  0.13893549974E+02 -0.78649816831E+01  0.40659143119E+02  0.00000000000E+00 0. -1.
         11    1    3    3    0    0 -0.27490043915E+02 -0.62934839181E+01  0.13448997745E+02  0.31243975337E+02  0.51100000000E-03 0. -1.
        -11    1    3    3    0    0 -0.11130788572E+02 -0.42195921087E+00 -0.39764688856E+01  0.11827290851E+02  0.51100000000E-03 0.  1.
         12    1    3    3    0    0  0.12272869015E+01 -0.71781068447E+01 -0.16075471760E+01  0.74575906924E+01  0.00000000000E+00 0. -1.
</event>
<event>
 7    1  0.3250765E-011  0.5052888E+02  0.7816164E-02  0.1300439E+00
        -11   -1    0    0    0    0  0.00000000000E+00  0.00000000000E+00  0.45593999997E+02  0.45594000000E+02  0.51100000000E-03 0. -1.
         11   -1    0    0    0    0 -0.00000000000E+00 -0.00000000000E+00 -0.45593999997E+02  0.45594000000E+02  0.51100000000E-03 0.  1.
    9900012    2    1    2    0    0  0.37032506229E+02  0.32633238119E+01 -0.16465368497E+02  0.50528878518E+02  0.30000056745E+02 0.  0.
         12    1    1    2    0    0 -0.37032506229E+02 -0.32633238119E+01  0.16465368497E+02  0.40659121482E+02  0.00000000000E+00 0. -1.
         11    1    3    3    0    0  0.25510038286E+02  0.43637740285E+01 -0.27859066553E+01  0.26030095146E+02  0.51100000000E-03 0. -1.
        -11    1    3    3    0    0  0.14026001174E+02 -0.46336957678E+01 -0.65530823956E+01  0.16159911341E+02  0.51100000000E-03 0.  1.
         12    1    3    3    0    0 -0.25035332308E+01  0.35332455511E+01 -0.71263794459E+01  0.83388720322E+01  0.00000000000E+00 0. -1.
</event>
<event>
 7    1  0.3250765E-011  0.5052887E+02  0.7816164E-02  0.1300439E+00
        -11   -1    0    0    0    0  0.00000000000E+00  0.00000000000E+00  0.45593999997E+02  0.45594000000E+02  0.51100000000E-03 0. -1.
         11   -1    0    0    0    0 -0.00000000000E+00 -0.00000000000E+00 -0.45593999997E+02  0.45594000000E+02  0.51100000000E-03 0.  1.
    9900012    2    1    2    0    0  0.37634724084E+02  0.30789435054E+01 -0.15076893215E+02  0.50528867459E+02  0.30000023129E+02 0.  0.
         12    1    1    2    0    0 -0.37634724084E+02 -0.30789435054E+01  0.15076893215E+02  0.40659132541E+02  0.00000000000E+00 0. -1.
         11    1    3    3    0    0  0.35319120664E+02  0.27750815793E+01 -0.98736498432E+01  0.36778122896E+02  0.51100000000E-03 0. -1.
        -11    1    3    3    0    0  0.45306684021E+01  0.28422179151E+01  0.20701258839E+01  0.57350309749E+01  0.51100000000E-03 0.  1.
         12    1    3    3    0    0 -0.22150649824E+01 -0.25383559890E+01 -0.72733692554E+01  0.80157135883E+01  0.00000000000E+00 0. -1.
</event>
<event>
 7    1  0.3250765E-011  0.5052886E+02  0.7816164E-02  0.1300439E+00
        -11   -1    0    0    0    0  0.00000000000E+00  0.00000000000E+00  0.45593999997E+02  0.45594000000E+02  0.51100000000E-03 0. -1.
         11   -1    0    0    0    0 -0.00000000000E+00 -0.00000000000E+00 -0.45593999997E+02  0.45594000000E+02  0.51100000000E-03 0.  1.
    9900012    2    1    2    0    0 -0.12717838728E+01  0.76881585885E+01 -0.39905393330E+02  0.50528860394E+02  0.30000001654E+02 0.  0.
         12    1    1    2    0    0  0.12717838728E+01 -0.76881585885E+01  0.39905393330E+02  0.40659139606E+02  0.00000000000E+00 0. -1.
         11    1    3    3    0    0  0.52468665002E+01 -0.85949053086E+00 -0.74035346484E+01  0.91148591649E+01  0.51100000000E-03 0. -1.
        -11    1    3    3    0    0 -0.11842882771E+02  0.10377405770E+02 -0.32118980997E+02  0.35771124715E+02  0.51100000000E-03 0.  1.
         12    1    3    3    0    0  0.53242323983E+01 -0.18297566510E+01 -0.38287768451E+00  0.56428765142E+01  0.00000000000E+00 0. -1.
</event>
<event>
 7    1  0.3250765E-011  0.5052886E+02  0.7816164E-02  0.1300439E+00
        -11   -1    0    0    0    0  0.00000000000E+00  0.00000000000E+00  0.45593999997E+02  0.45594000000E+02  0.51100000000E-03 0. -1.
         11   -1    0    0    0    0 -0.00000000000E+00 -0.00000000000E+00 -0.45593999997E+02  0.45594000000E+02  0.51100000000E-03 0.  1.
    9900012    2    1    2    0    0 -0.29503029669E+02  0.26961961929E+02 -0.74692137407E+01  0.50528864438E+02  0.30000013947E+02 0.  0.
         12    1    1    2    0    0  0.29503029669E+02 -0.26961961929E+02  0.74692137407E+01  0.40659135562E+02  0.00000000000E+00 0. -1.
         11    1    3    3    0    0  0.46732834016E-01  0.45821970707E+01  0.19885556405E+01  0.49953045702E+01  0.51100000000E-03 0. -1.
        -11    1    3    3    0    0 -0.23308747304E+01  0.14549157560E+02  0.22137797980E+01  0.14900059864E+02  0.51100000000E-03 0.  1.
         12    1    3    3    0    0 -0.27218887773E+02  0.78306072988E+01 -0.11671549179E+02  0.30633500004E+02  0.00000000000E+00 0. -1.
</event>
<event>
 7    1  0.3250765E-011  0.5052887E+02  0.7816164E-02  0.1300439E+00
        -11   -1    0    0    0    0  0.00000000000E+00  0.00000000000E+00  0.45593999997E+02  0.45594000000E+02  0.51100000000E-03 0. -1.
         11   -1    0    0    0    0 -0.00000000000E+00 -0.00000000000E+00 -0.45593999997E+02  0.45594000000E+02  0.51100000000E-03 0.  1.
    9900012    2    1    2    0    0 -0.60076967098E+01 -0.27991486220E+02 -0.28871256912E+02  0.50528865771E+02  0.30000017998E+02 0.  0.
         12    1    1    2    0    0  0.60076967098E+01  0.27991486220E+02  0.28871256912E+02  0.40659134229E+02  0.00000000000E+00 0. -1.
         11    1    3    3    0    0 -0.29789857274E+01 -0.95748793844E+01 -0.10113297439E+01  0.10078465126E+02  0.51100000000E-03 0. -1.
        -11    1    3    3    0    0 -0.12178763121E+02 -0.54359014803E+01 -0.14456741830E+02  0.19668977621E+02  0.51100000000E-03 0.  1.
        -12    1    3    3    0    0  0.91500521389E+01 -0.12980705355E+02 -0.13403185338E+02  0.20781423023E+02  0.00000000000E+00 0.  1.
</event>
<event>
 7    1  0.3250765E-011  0.5052884E+02  0.7816164E-02  0.1300439E+00
        -11   -1    0    0    0    0  0.00000000000E+00  0.00000000000E+00  0.45593999997E+02  0.45594000000E+02  0.51100000000E-03 0.  1.
         11   -1    0    0    0    0 -0.00000000000E+00 -0.00000000000E+00 -0.45593999997E+02  0.45594000000E+02  0.51100000000E-03 0. -1.
    9900012    2    1    2    0    0 -0.34417370048E+02 -0.11835269529E+02  0.18125623348E+02  0.50528841283E+02  0.29999943563E+02 0.  0.
         12    1    1    2    0    0  0.34417370048E+02  0.11835269529E+02 -0.18125623348E+02  0.40659158717E+02  0.00000000000E+00 0. -1.
         11    1    3    3    0    0 -0.62081834506E+01  0.49188513988E+01  0.31914253266E+01  0.85394283600E+01  0.51100000000E-03 0. -1.
        -11    1    3    3    0    0 -0.27065303318E+02 -0.51116294069E+01  0.10651915814E+02  0.29531723784E+02  0.51100000000E-03 0.  1.
        -12    1    3    3    0    0 -0.11438832796E+01 -0.11642491521E+02  0.42822822077E+01  0.12457689139E+02  0.00000000000E+00 0.  1.
</event>
<event>
 7    1  0.3250765E-011  0.5052886E+02  0.7816164E-02  0.1300439E+00
        -11   -1    0    0    0    0  0.00000000000E+00  0.00000000000E+00  0.45593999997E+02  0.45594000000E+02  0.51100000000E-03 0. -1.
         11   -1    0    0    0    0 -0.00000000000E+00 -0.00000000000E+00 -0.45593999997E+02  0.45594000000E+02  0.51100000000E-03 0.  1.
    9900012    2    1    2    0    0 -0.91555743618E+01  0.11923599278E+02 -0.37777888310E+02  0.50528860722E+02  0.30000002651E+02 0.  0.
         12    1    1    2    0    0  0.91555743618E+01 -0.11923599278E+02  0.37777888310E+02  0.40659139278E+02  0.00000000000E+00 0. -1.
         11    1    3    3    0    0  0.12763341153E+01  0.88527995542E+01 -0.21793001822E+02  0.23557079985E+02  0.51100000000E-03 0. -1.
        -11    1    3    3    0    0 -0.12842002121E+02  0.76316037112E+01 -0.15894301632E+02  0.21812547268E+02  0.51100000000E-03 0.  1.
         12    1    3    3    0    0  0.24100936437E+01 -0.45608039870E+01 -0.90584855792E-01  0.51592334697E+01  0.00000000000E+00 0. -1.
</event>
<event>
 7    1  0.3250765E-011  0.5052886E+02  0.7816164E-02  0.1300439E+00
        -11   -1    0    0    0    0  0.00000000000E+00  0.00000000000E+00  0.45593999997E+02  0.45594000000E+02  0.51100000000E-03 0.  1.
         11   -1    0    0    0    0 -0.00000000000E+00 -0.00000000000E+00 -0.45593999997E+02  0.45594000000E+02  0.51100000000E-03 0. -1.
    9900012    2    1    2    0    0  0.10833878424E+02 -0.21064945645E+02  0.33046342481E+02  0.50528860706E+02  0.30000002602E+02 0.  0.
         12    1    1    2    0    0 -0.10833878424E+02  0.21064945645E+02 -0.33046342481E+02  0.40659139294E+02  0.00000000000E+00 0. -1.
         11    1    3    3    0    0 -0.23393860163E+01 -0.10373458038E+01 -0.33711589988E+01  0.42324374190E+01  0.51100000000E-03 0. -1.
        -11    1    3    3    0    0  0.19945095410E+01  0.21216306944E+01  0.83093429357E+01  0.88048035411E+01  0.51100000000E-03 0.  1.
        -12    1    3    3    0    0  0.11178754900E+02 -0.22149230536E+02  0.28108158544E+02  0.37491619746E+02  0.00000000000E+00 0.  1.
</event>
<event>
 7    1  0.3250765E-011  0.5052886E+02  0.7816164E-02  0.1300439E+00
        -11   -1    0    0    0    0  0.00000000000E+00  0.00000000000E+00  0.45593999997E+02  0.45594000000E+02  0.51100000000E-03 0.  1.
         11   -1    0    0    0    0 -0.00000000000E+00 -0.00000000000E+00 -0.45593999997E+02  0.45594000000E+02  0.51100000000E-03 0. -1.
    9900012    2    1    2    0    0  0.83197788914E+01 -0.19605342212E+02  0.34634913770E+02  0.50528863070E+02  0.30000009787E+02 0.  0.
         12    1    1    2    0    0 -0.83197788914E+01  0.19605342212E+02 -0.34634913770E+02  0.40659136930E+02  0.00000000000E+00 0. -1.
         11    1    3    3    0    0 -0.50149445023E+01 -0.51451013432E+01  0.48267222164E+00  0.72010213808E+01  0.51100000000E-03 0. -1.
        -11    1    3    3    0    0  0.71182661954E+01  0.32956669697E+01  0.10484105034E+02  0.13093799794E+02  0.51100000000E-03 0.  1.
         12    1    3    3    0    0  0.62164571983E+01 -0.17755907839E+02  0.23668136514E+02  0.30234041895E+02  0.00000000000E+00 0. -1.
</event>
<event>
 7    1  0.3250765E-011  0.5052886E+02  0.7816164E-02  0.1300439E+00
        -11   -1    0    0    0    0  0.00000000000E+00  0.00000000000E+00  0.45593999997E+02  0.45594000000E+02  0.51100000000E-03 0. -1.
         11   -1    0    0    0    0 -0.00000000000E+00 -0.00000000000E+00 -0.45593999997E+02  0.45594000000E+02  0.51100000000E-03 0.  1.
    9900012    2    1    2    0    0 -0.27331136780E+02 -0.14401837417E+02 -0.26434102341E+02  0.50528859265E+02  0.29999998223E+02 0.  0.
         12    1    1    2    0    0  0.27331136780E+02  0.14401837417E+02  0.26434102341E+02  0.40659140735E+02  0.00000000000E+00 0. -1.
         11    1    3    3    0    0  0.67414200926E+00 -0.49980519822E+01  0.21459854405E+01  0.54808981780E+01  0.51100000000E-03 0. -1.
        -11    1    3    3    0    0 -0.21550866574E+00 -0.20920452115E+01 -0.11348722180E+02  0.11541949252E+02  0.51100000000E-03 0.  1.
        -12    1    3    3    0    0 -0.27789770124E+02 -0.73117402237E+01 -0.17231365601E+02  0.33506011835E+02  0.00000000000E+00 0.  1.
</event>
<event>
 7    1  0.3250765E-011  0.5052886E+02  0.7816164E-02  0.1300439E+00
        -11   -1    0    0    0    0  0.00000000000E+00  0.00000000000E+00  0.45593999997E+02  0.45594000000E+02  0.51100000000E-03 0.  1.
         11   -1    0    0    0    0 -0.00000000000E+00 -0.00000000000E+00 -0.45593999997E+02  0.45594000000E+02  0.51100000000E-03 0. -1.
    9900012    2    1    2    0    0 -0.57929119991E+01 -0.20041495043E+02  0.34899090144E+02  0.50528857783E+02  0.29999993716E+02 0.  0.
         12    1    1    2    0    0  0.57929119991E+01  0.20041495043E+02 -0.34899090144E+02  0.40659142217E+02  0.00000000000E+00 0. -1.
         11    1    3    3    0    0 -0.55613937198E+01 -0.31059569522E+01  0.26728376781E+02  0.27476939318E+02  0.51100000000E-03 0.  1.
        -11    1    3    3    0    0  0.33286635881E+01 -0.54006456299E+01 -0.26166971120E+01  0.68625125530E+01  0.51100000000E-03 0. -1.
        -12    1    3    3    0    0 -0.35601818675E+01 -0.11534892460E+02  0.10787410475E+02  0.16189405911E+02  0.00000000000E+00 0.  1.
</event>
<event>
 7    1  0.3250765E-011  0.5052886E+02  0.7816164E-02  0.1300439E+00
        -11   -1    0    0    0    0  0.00000000000E+00  0.00000000000E+00  0.45593999997E+02  0.45594000000E+02  0.51100000000E-03 0.  1.
         11   -1    0    0    0    0 -0.00000000000E+00 -0.00000000000E+00 -0.45593999997E+02  0.45594000000E+02  0.51100000000E-03 0. -1.
    9900012    2    1    2    0    0  0.39922793319E+02 -0.64627991915E+01  0.41914616452E+01  0.50528861415E+02  0.30000004757E+02 0.  0.
         12    1    1    2    0    0 -0.39922793319E+02  0.64627991915E+01 -0.41914616452E+01  0.40659138585E+02  0.00000000000E+00 0. -1.
         11    1    3    3    0    0  0.30356777374E+02 -0.29933982624E+01 -0.81350025176E+01  0.31570122457E+02  0.51100000000E-03 0.  1.
        -11    1    3    3    0    0 -0.11149129229E+01  0.18438868094E+01  0.61374463249E+00  0.22404535538E+01  0.51100000000E-03 0. -1.
        -12    1    3    3    0    0  0.10680928867E+02 -0.53132877385E+01  0.11712719530E+02  0.16718285404E+02  0.00000000000E+00 0.  1.
</event>
<event>
 7    1  0.3250765E-011  0.5052886E+02  0.7816164E-02  0.1300439E+00
        -11   -1    0    0    0    0  0.00000000000E+00  0.00000000000E+00  0.45593999997E+02  0.45594000000E+02  0.51100000000E-03 0.  1.
         11   -1    0    0    0    0 -0.00000000000E+00 -0.00000000000E+00 -0.45593999997E+02  0.45594000000E+02  0.51100000000E-03 0. -1.
    9900012    2    1    2    0    0  0.28903491977E+02 -0.26143857350E+02 -0.11586734003E+02  0.50528861661E+02  0.30000005505E+02 0.  0.
         12    1    1    2    0    0 -0.28903491977E+02  0.26143857350E+02  0.11586734003E+02  0.40659138339E+02  0.00000000000E+00 0. -1.
         11    1    3    3    0    0 -0.49435507833E+01 -0.28526223236E+01  0.41259559518E+00  0.57224456183E+01  0.51100000000E-03 0. -1.
        -11    1    3    3    0    0  0.78494247767E+01  0.74345900425E-01 -0.71869103616E-03  0.78497769023E+01  0.51100000000E-03 0.  1.
         12    1    3    3    0    0  0.25997617983E+02 -0.23365580927E+02 -0.11998610907E+02  0.36956639141E+02  0.00000000000E+00 0. -1.
</event>
<event>
 7    1  0.3250765E-011  0.5052886E+02  0.7816164E-02  0.1300439E+00
        -11   -1    0    0    0    0  0.00000000000E+00  0.00000000000E+00  0.45593999997E+02  0.45594000000E+02  0.51100000000E-03 0.  1.
         11   -1    0    0    0    0 -0.00000000000E+00 -0.00000000000E+00 -0.45593999997E+02  0.45594000000E+02  0.51100000000E-03 0. -1.
    9900012    2    1    2    0    0  0.19442473436E+02 -0.99998089573E+01  0.34280600867E+02  0.50528861442E+02  0.30000004838E+02 0.  0.
         12    1    1    2    0    0 -0.19442473436E+02  0.99998089573E+01 -0.34280600867E+02  0.40659138558E+02  0.00000000000E+00 0. -1.
         11    1    3    3    0    0  0.77674522767E+01 -0.36212855494E+01  0.16006988759E+01  0.87183290288E+01  0.51100000000E-03 0. -1.
        -11    1    3    3    0    0  0.84343315173E+01 -0.46872787897E+01  0.75689499275E+00  0.96789163075E+01  0.51100000000E-03 0.  1.
        -12    1    3    3    0    0  0.32406896417E+01 -0.16912446182E+01  0.31923006999E+02  0.32131616105E+02  0.00000000000E+00 0.  1.
</event>
<event>
 7    1  0.3250765E-011  0.5052883E+02  0.7816164E-02  0.1300439E+00
        -11   -1    0    0    0    0  0.00000000000E+00  0.00000000000E+00  0.45593999997E+02  0.45594000000E+02  0.51100000000E-03 0. -1.
         11   -1    0    0    0    0 -0.00000000000E+00 -0.00000000000E+00 -0.45593999997E+02  0.45594000000E+02  0.51100000000E-03 0.  1.
    9900012    2    1    2    0    0 -0.38445808623E+02 -0.10583355812E+01 -0.13189697487E+02  0.50528826439E+02  0.29999898444E+02 0.  0.
         12    1    1    2    0    0  0.38445808623E+02  0.10583355812E+01  0.13189697487E+02  0.40659173561E+02  0.00000000000E+00 0. -1.
         11    1    3    3    0    0 -0.27459328846E+02 -0.11148082922E+01 -0.14366250062E+02  0.31010428557E+02  0.51100000000E-03 0. -1.
        -11    1    3    3    0    0 -0.86702641319E+01 -0.47321137844E+01 -0.52418288949E+01  0.11182269511E+02  0.51100000000E-03 0.  1.
         12    1    3    3    0    0 -0.23162156450E+01  0.47885864954E+01  0.64183814692E+01  0.83361283713E+01  0.00000000000E+00 0. -1.
</event>
<event>
 7    1  0.3250765E-011  0.5052887E+02  0.7816164E-02  0.1300439E+00
        -11   -1    0    0    0    0  0.00000000000E+00  0.00000000000E+00  0.45593999997E+02  0.45594000000E+02  0.51100000000E-03 0.  1.
         11   -1    0    0    0    0 -0.00000000000E+00 -0.00000000000E+00 -0.45593999997E+02  0.45594000000E+02  0.51100000000E-03 0. -1.
    9900012    2    1    2    0    0  0.22558846188E+02 -0.19934492002E+02  0.27329098027E+02  0.50528866811E+02  0.30000021159E+02 0.  0.
         12    1    1    2    0    0 -0.22558846188E+02  0.19934492002E+02 -0.27329098027E+02  0.40659133189E+02  0.00000000000E+00 0. -1.
         11    1    3    3    0    0  0.16521288823E+02 -0.96971475101E+01  0.16332412585E+02  0.25174100884E+02  0.51100000000E-03 0.  1.
        -11    1    3    3    0    0  0.78068389990E+01 -0.15268956868E+02  0.10224135129E+02  0.19965488183E+02  0.51100000000E-03 0. -1.
         12    1    3    3    0    0 -0.17692816346E+01  0.50316123764E+01  0.77255031293E+00  0.53892777434E+01  0.00000000000E+00 0. -1.
</event>
<event>
 7    1  0.3250765E-011  0.5052890E+02  0.7816164E-02  0.1300439E+00
        -11   -1    0    0    0    0  0.00000000000E+00  0.00000000000E+00  0.45593999997E+02  0.45594000000E+02  0.51100000000E-03 0.  1.
         11   -1    0    0    0    0 -0.00000000000E+00 -0.00000000000E+00 -0.45593999997E+02  0.45594000000E+02  0.51100000000E-03 0. -1.
    9900012    2    1    2    0    0  0.63715363222E+00 -0.15527741942E+02  0.37571877194E+02  0.50528896586E+02  0.30000111664E+02 0.  0.
         12    1    1    2    0    0 -0.63715363222E+00  0.15527741942E+02 -0.37571877194E+02  0.40659103414E+02  0.00000000000E+00 0. -1.
         11    1    3    3    0    0 -0.19166464797E+01 -0.84487298663E+00 -0.23050628965E+01  0.31145881444E+01  0.51100000000E-03 0. -1.
        -11    1    3    3    0    0 -0.75799574282E+01 -0.10830713346E+02  0.29853111037E+02  0.32649170664E+02  0.51100000000E-03 0.  1.
        -12    1    3    3    0    0  0.10133757540E+02 -0.38521556088E+01  0.10023829053E+02  0.14765137778E+02  0.00000000000E+00 0.  1.
</event>
<event>
 7    1  0.3250765E-011  0.5052885E+02  0.7816164E-02  0.1300439E+00
        -11   -1    0    0    0    0  0.00000000000E+00  0.00000000000E+00  0.45593999997E+02  0.45594000000E+02  0.51100000000E-03 0.  1.
         11   -1    0    0    0    0 -0.00000000000E+00 -0.00000000000E+00 -0.45593999997E+02  0.45594000000E+02  0.51100000000E-03 0. -1.
    9900012    2    1    2    0    0  0.27800123092E+01  0.36546610479E+02  0.17600650533E+02  0.50528854594E+02  0.29999984025E+02 0.  0.
         12    1    1    2    0    0 -0.27800123092E+01 -0.36546610479E+02 -0.17600650533E+02  0.40659145406E+02  0.00000000000E+00 0. -1.
         11    1    3    3    0    0  0.14215048259E+01 -0.11665379285E+01  0.11321002661E+01  0.21594300133E+01  0.51100000000E-03 0. -1.
        -11    1    3    3    0    0 -0.94917702410E+01  0.20031529033E+02  0.16484389899E+02  0.27624101222E+02  0.51100000000E-03 0.  1.
         12    1    3    3    0    0  0.10850277724E+02  0.17681619374E+02 -0.15839632224E-01  0.20745323359E+02  0.00000000000E+00 0. -1.
</event>
<event>
 7    1  0.3250765E-011  0.5052886E+02  0.7816164E-02  0.1300439E+00
        -11   -1    0    0    0    0  0.00000000000E+00  0.00000000000E+00  0.45593999997E+02  0.45594000000E+02  0.51100000000E-03 0.  1.
         11   -1    0    0    0    0 -0.00000000000E+00 -0.00000000000E+00 -0.45593999997E+02  0.45594000000E+02  0.51100000000E-03 0. -1.
    9900012    2    1    2    0    0 -0.18086983180E+02  0.75569983267E+01  0.35621885919E+02  0.50528856617E+02  0.29999990172E+02 0.  0.
         12    1    1    2    0    0  0.18086983180E+02 -0.75569983267E+01 -0.35621885919E+02  0.40659143383E+02  0.00000000000E+00 0. -1.
         11    1    3    3    0    0  0.29510234246E+01  0.64878234130E+01  0.14652691814E+02  0.16294225037E+02  0.51100000000E-03 0. -1.
        -11    1    3    3    0    0 -0.87774157637E+01  0.88787522827E+01  0.87686452391E+01  0.15256618537E+02  0.51100000000E-03 0.  1.
         12    1    3    3    0    0 -0.12260590841E+02 -0.78095773690E+01  0.12200548866E+02  0.18978013043E+02  0.00000000000E+00 0. -1.
</event>
<event>
 7    1  0.3250765E-011  0.5052886E+02  0.7816164E-02  0.1300439E+00
        -11   -1    0    0    0    0  0.00000000000E+00  0.00000000000E+00  0.45593999997E+02  0.45594000000E+02  0.51100000000E-03 0.  1.
         11   -1    0    0    0    0 -0.00000000000E+00 -0.00000000000E+00 -0.45593999997E+02  0.45594000000E+02  0.51100000000E-03 0. -1.
    9900012    2    1    2    0    0  0.31280659146E+02 -0.24669028108E+01  0.25857311231E+02  0.50528858467E+02  0.29999995797E+02 0.  0.
         12    1    1    2    0    0 -0.31280659146E+02  0.24669028108E+01 -0.25857311231E+02  0.40659141533E+02  0.00000000000E+00 0. -1.
         11    1    3    3    0    0  0.67609718420E+01  0.41922087831E+01  0.35957699605E+01  0.87301154975E+01  0.51100000000E-03 0. -1.
        -11    1    3    3    0    0  0.22510270414E+02  0.49584388493E+01  0.18059908775E+02  0.29282395652E+02  0.51100000000E-03 0.  1.
         12    1    3    3    0    0  0.20094168906E+01 -0.11617550443E+02  0.42016324954E+01  0.12516347317E+02  0.00000000000E+00 0. -1.
</event>
<event>
 7    1  0.3250765E-011  0.5052888E+02  0.7816164E-02  0.1300439E+00
        -11   -1    0    0    0    0  0.00000000000E+00  0.00000000000E+00  0.45593999997E+02  0.45594000000E+02  0.51100000000E-03 0.  1.
         11   -1    0    0    0    0 -0.00000000000E+00 -0.00000000000E+00 -0.45593999997E+02  0.45594000000E+02  0.51100000000E-03 0. -1.
    9900012    2    1    2    0    0 -0.36934957160E+02  0.96460477522E+01 -0.13997397550E+02  0.50528875122E+02  0.30000046421E+02 0.  0.
         12    1    1    2    0    0  0.36934957160E+02 -0.96460477522E+01  0.13997397550E+02  0.40659124878E+02  0.00000000000E+00 0. -1.
         11    1    3    3    0    0 -0.17277544805E+02 -0.69279186937E+01 -0.13299161202E+01  0.18662215545E+02  0.51100000000E-03 0. -1.
        -11    1    3    3    0    0 -0.14504677280E+02  0.37923193658E+01 -0.37572268517E+01  0.15455876004E+02  0.51100000000E-03 0.  1.
        -12    1    3    3    0    0 -0.51527350753E+01  0.12781647080E+02 -0.89102545777E+01  0.16410783573E+02  0.00000000000E+00 0.  1.
</event>
<event>
 7    1  0.3250765E-011  0.5052886E+02  0.7816164E-02  0.1300439E+00
        -11   -1    0    0    0    0  0.00000000000E+00  0.00000000000E+00  0.45593999997E+02  0.45594000000E+02  0.51100000000E-03 0.  1.
         11   -1    0    0    0    0 -0.00000000000E+00 -0.00000000000E+00 -0.45593999997E+02  0.45594000000E+02  0.51100000000E-03 0. -1.
    9900012    2    1    2    0    0 -0.61905922922E+01 -0.35857886287E+01  0.40024800307E+02  0.50528856469E+02  0.29999989724E+02 0.  0.
         12    1    1    2    0    0  0.61905922922E+01  0.35857886287E+01 -0.40024800307E+02  0.40659143531E+02  0.00000000000E+00 0. -1.
         11    1    3    3    0    0 -0.12917043795E+02  0.62802643871E+01  0.25804275137E+02  0.29532225734E+02  0.51100000000E-03 0.  1.
        -11    1    3    3    0    0  0.46903369401E+01 -0.15024236950E+00  0.80210132991E+01  0.92929267718E+01  0.51100000000E-03 0. -1.
        -12    1    3    3    0    0  0.20361145627E+01 -0.97158106464E+01  0.61995118713E+01  0.11703703964E+02  0.00000000000E+00 0.  1.
</event>
<event>
 7    1  0.3250765E-011  0.5052888E+02  0.7816164E-02  0.1300439E+00
        -11   -1    0    0    0    0  0.00000000000E+00  0.00000000000E+00  0.45593999997E+02  0.45594000000E+02  0.51100000000E-03 0. -1.
         11   -1    0    0    0    0 -0.00000000000E+00 -0.00000000000E+00 -0.45593999997E+02  0.45594000000E+02  0.51100000000E-03 0.  1.
    9900012    2    1    2    0    0  0.34599935541E+02  0.20815185573E+02  0.47683144246E+01  0.50528876641E+02  0.30000051039E+02 0.  0.
         12    1    1    2    0    0 -0.34599935541E+02 -0.20815185573E+02 -0.47683144246E+01  0.40659123359E+02  0.00000000000E+00 0. -1.
         11    1    3    3    0    0 -0.22475910360E+01  0.83941487043E+00 -0.12887321762E+01  0.27234378409E+01  0.51100000000E-03 0. -1.
        -11    1    3    3    0    0  0.23855660053E+02  0.20884786152E+02 -0.31410684192E+01  0.31861153781E+02  0.51100000000E-03 0.  1.
         12    1    3    3    0    0  0.12991866524E+02 -0.90901544988E+00  0.91981150199E+01  0.15944285019E+02  0.00000000000E+00 0. -1.
</event>
<event>
 7    1  0.3250765E-011  0.5052886E+02  0.7816164E-02  0.1300439E+00
        -11   -1    0    0    0    0  0.00000000000E+00  0.00000000000E+00  0.45593999997E+02  0.45594000000E+02  0.51100000000E-03 0.  1.
         11   -1    0    0    0    0 -0.00000000000E+00 -0.00000000000E+00 -0.45593999997E+02  0.45594000000E+02  0.51100000000E-03 0. -1.
    9900012    2    1    2    0    0 -0.17846406091E+01  0.40385445065E+02  0.43584960333E+01  0.50528860771E+02  0.30000002799E+02 0.  0.
         12    1    1    2    0    0  0.17846406091E+01 -0.40385445065E+02 -0.43584960333E+01  0.40659139229E+02  0.00000000000E+00 0. -1.
         11    1    3    3    0    0  0.71195122073E+01  0.64392755196E+01  0.71673628398E+01  0.11980100735E+02  0.51100000000E-03 0. -1.
        -11    1    3    3    0    0  0.22795849901E+01  0.12858632407E+02 -0.61705211524E+01  0.14443554502E+02  0.51100000000E-03 0.  1.
         12    1    3    3    0    0 -0.11183737806E+02  0.21087537139E+02  0.33616543459E+01  0.24105205534E+02  0.00000000000E+00 0. -1.
</event>
<event>
 7    1  0.3250765E-011  0.5052886E+02  0.7816164E-02  0.1300439E+00
        -11   -1    0    0    0    0  0.00000000000E+00  0.00000000000E+00  0.45593999997E+02  0.45594000000E+02  0.51100000000E-03 0.  1.
         11   -1    0    0    0    0 -0.00000000000E+00 -0.00000000000E+00 -0.45593999997E+02  0.45594000000E+02  0.51100000000E-03 0. -1.
    9900012    2    1    2    0    0 -0.21162230499E+02  0.14080388749E+02  0.31734335419E+02  0.50528863370E+02  0.30000010699E+02 0.  0.
         12    1    1    2    0    0  0.21162230499E+02 -0.14080388749E+02 -0.31734335419E+02  0.40659136630E+02  0.00000000000E+00 0. -1.
         11    1    3    3    0    0 -0.34206444572E+01 -0.40406490056E+01  0.39443432302E+01  0.66019312832E+01  0.51100000000E-03 0. -1.
        -11    1    3    3    0    0 -0.19875880841E+02  0.98646808380E+01  0.10288666266E+02  0.24458520418E+02  0.51100000000E-03 0.  1.
         12    1    3    3    0    0  0.21342947998E+01  0.82563569169E+01  0.17501325923E+02  0.19468411668E+02  0.00000000000E+00 0. -1.
</event>
<event>
 7    1  0.3250765E-011  0.5052886E+02  0.7816164E-02  0.1300439E+00
        -11   -1    0    0    0    0  0.00000000000E+00  0.00000000000E+00  0.45593999997E+02  0.45594000000E+02  0.51100000000E-03 0. -1.
         11   -1    0    0    0    0 -0.00000000000E+00 -0.00000000000E+00 -0.45593999997E+02  0.45594000000E+02  0.51100000000E-03 0.  1.
    9900012    2    1    2    0    0  0.33697561233E+02 -0.35001106868E+01 -0.22480858757E+02  0.50528863040E+02  0.30000009697E+02 0.  0.
         12    1    1    2    0    0 -0.33697561233E+02  0.35001106868E+01  0.22480858757E+02  0.40659136960E+02  0.00000000000E+00 0. -1.
         11    1    3    3    0    0  0.17245310253E+02 -0.22079459004E+01 -0.19127844277E+01  0.17490983258E+02  0.51100000000E-03 0. -1.
        -11    1    3    3    0    0  0.21093855888E+02 -0.13139848069E+01 -0.15836465736E+02  0.26409675491E+02  0.51100000000E-03 0.  1.
         12    1    3    3    0    0 -0.46416049077E+01  0.21820020430E-01 -0.47316085937E+01  0.66282042905E+01  0.00000000000E+00 0. -1.
</event>
<event>
 7    1  0.3250765E-011  0.5052886E+02  0.7816164E-02  0.1300439E+00
        -11   -1    0    0    0    0  0.00000000000E+00  0.00000000000E+00  0.45593999997E+02  0.45594000000E+02  0.51100000000E-03 0. -1.
         11   -1    0    0    0    0 -0.00000000000E+00 -0.00000000000E+00 -0.45593999997E+02  0.45594000000E+02  0.51100000000E-03 0.  1.
    9900012    2    1    2    0    0 -0.39173925845E+02 -0.10604591888E+02  0.24722070418E+01  0.50528860279E+02  0.30000001303E+02 0.  0.
         12    1    1    2    0    0  0.39173925845E+02  0.10604591888E+02 -0.24722070418E+01  0.40659139721E+02  0.00000000000E+00 0. -1.
         11    1    3    3    0    0 -0.20601621457E+02 -0.10513856290E+02  0.16263016926E+01  0.23186479642E+02  0.51100000000E-03 0. -1.
        -11    1    3    3    0    0 -0.13288016836E+02 -0.44659079659E+01 -0.80057725610E+01  0.16143361483E+02  0.51100000000E-03 0.  1.
        -12    1    3    3    0    0 -0.52842875518E+01  0.43751723677E+01  0.88516779102E+01  0.11199019154E+02  0.00000000000E+00 0.  1.
</event>
<event>
 7    1  0.3250765E-011  0.5052886E+02  0.7816164E-02  0.1300439E+00
        -11   -1    0    0    0    0  0.00000000000E+00  0.00000000000E+00  0.45593999997E+02  0.45594000000E+02  0.51100000000E-03 0.  1.
         11   -1    0    0    0    0 -0.00000000000E+00 -0.00000000000E+00 -0.45593999997E+02  0.45594000000E+02  0.51100000000E-03 0. -1.
    9900012    2    1    2    0    0  0.25013298287E+02 -0.12539997594E+02  0.29499989005E+02  0.50528856106E+02  0.29999988621E+02 0.  0.
         12    1    1    2    0    0 -0.25013298287E+02  0.12539997594E+02 -0.29499989005E+02  0.40659143894E+02  0.00000000000E+00 0. -1.
         11    1    3    3    0    0  0.17623919085E+02  0.43640690421E+01  0.63497131640E+01  0.19234512732E+02  0.51100000000E-03 0. -1.
        -11    1    3    3    0    0 -0.38140878323E-01 -0.61786088641E+01  0.20938569063E+01  0.65238714907E+01  0.51100000000E-03 0.  1.
        -12    1    3    3    0    0  0.74275200802E+01 -0.10725457772E+02  0.21056418935E+02  0.24770471884E+02  0.00000000000E+00 0.  1.
</event>
<event>
 7    1  0.3250765E-011  0.5052886E+02  0.7816164E-02  0.1300439E+00
        -11   -1    0    0    0    0  0.00000000000E+00  0.00000000000E+00  0.45593999997E+02  0.45594000000E+02  0.51100000000E-03 0.  1.
         11   -1    0    0    0    0 -0.00000000000E+00 -0.00000000000E+00 -0.45593999997E+02  0.45594000000E+02  0.51100000000E-03 0. -1.
    9900012    2    1    2    0    0 -0.39029682958E+02 -0.21349738692E+01  0.11193358113E+02  0.50528861653E+02  0.30000005481E+02 0.  0.
         12    1    1    2    0    0  0.39029682958E+02  0.21349738692E+01 -0.11193358113E+02  0.40659138347E+02  0.00000000000E+00 0. -1.
         11    1    3    3    0    0 -0.38478662801E+01  0.54394369014E+01  0.41104772045E+01  0.78287656641E+01  0.51100000000E-03 0. -1.
        -11    1    3    3    0    0 -0.18585043045E+02 -0.55081855952E+01  0.14694778623E+02  0.24324482575E+02  0.51100000000E-03 0.  1.
         12    1    3    3    0    0 -0.16596773633E+02 -0.20662251754E+01 -0.76118977144E+01  0.18375613414E+02  0.00000000000E+00 0. -1.
</event>
<event>
 7    1  0.3250765E-011  0.5052887E+02  0.7816164E-02  0.1300439E+00
        -11   -1    0    0    0    0  0.00000000000E+00  0.00000000000E+00  0.45593999997E+02  0.45594000000E+02  0.51100000000E-03 0.  1.
         11   -1    0    0    0    0 -0.00000000000E+00 -0.00000000000E+00 -0.45593999997E+02  0.45594000000E+02  0.51100000000E-03 0. -1.
    9900012    2    1    2    0    0 -0.30341366186E+02 -0.25329882135E+02  0.95374927621E+01  0.50528865735E+02  0.30000017889E+02 0.  0.
         12    1    1    2    0    0  0.30341366186E+02  0.25329882135E+02 -0.95374927621E+01  0.40659134265E+02  0.00000000000E+00 0. -1.
         11    1    3    3    0    0 -0.10771210637E+02 -0.18209780062E+00 -0.17640869056E+01  0.10916232916E+02  0.51100000000E-03 0. -1.
        -11    1    3    3    0    0 -0.29323770700E+01 -0.42376571826E+01  0.11810783333E+02  0.12886084622E+02  0.51100000000E-03 0.  1.
         12    1    3    3    0    0 -0.16637778478E+02 -0.20910127151E+02 -0.50920366547E+00  0.26726548197E+02  0.00000000000E+00 0. -1.
</event>
<event>
 7    1  0.3250765E-011  0.5052887E+02  0.7816164E-02  0.1300439E+00
        -11   -1    0    0    0    0  0.00000000000E+00  0.00000000000E+00  0.45593999997E+02  0.45594000000E+02  0.51100000000E-03 0.  1.
         11   -1    0    0    0    0 -0.00000000000E+00 -0.00000000000E+00 -0.45593999997E+02  0.45594000000E+02  0.51100000000E-03 0. -1.
    9900012    2    1    2    0    0  0.69314916263E+01  0.24771976009E+02  0.31487596829E+02  0.50528866639E+02  0.30000020637E+02 0.  0.
         12    1    1    2    0    0 -0.69314916263E+01 -0.24771976009E+02 -0.31487596829E+02  0.40659133361E+02  0.00000000000E+00 0. -1.
         11    1    3    3    0    0 -0.10590465815E+01 -0.85361451277E+00  0.24449780345E+01  0.27978840663E+01  0.51100000000E-03 0. -1.
        -11    1    3    3    0    0  0.85266080569E+01  0.17633437700E+02  0.33319864838E+02  0.38650414786E+02  0.51100000000E-03 0.  1.
         12    1    3    3    0    0 -0.53606984907E+00  0.79921528222E+01 -0.42772460434E+01  0.90805677869E+01  0.00000000000E+00 0. -1.
</event>
<event>
 7    1  0.3250765E-011  0.5052886E+02  0.7816164E-02  0.1300439E+00
        -11   -1    0    0    0    0  0.00000000000E+00  0.00000000000E+00  0.45593999997E+02  0.45594000000E+02  0.51100000000E-03 0. -1.
         11   -1    0    0    0    0 -0.00000000000E+00 -0.00000000000E+00 -0.45593999997E+02  0.45594000000E+02  0.51100000000E-03 0.  1.
    9900012    2    1    2    0    0  0.43187204549E+01 -0.26445314587E+02 -0.30580377575E+02  0.50528862004E+02  0.30000006546E+02 0.  0.
         12    1    1    2    0    0 -0.43187204549E+01  0.26445314587E+02  0.30580377575E+02  0.40659137996E+02  0.00000000000E+00 0. -1.
         11    1    3    3    0    0  0.15845582269E+01 -0.14891937886E+02 -0.84133734969E+00  0.14999616248E+02  0.51100000000E-03 0. -1.
        -11    1    3    3    0    0  0.24797300048E+01 -0.12965206133E+02 -0.12335965002E+02  0.18067143210E+02  0.51100000000E-03 0.  1.
         12    1    3    3    0    0  0.25443222324E+00  0.14118294321E+01 -0.17403075223E+02  0.17462102546E+02  0.00000000000E+00 0. -1.
</event>
<event>
 7    1  0.3250765E-011  0.5052886E+02  0.7816164E-02  0.1300439E+00
        -11   -1    0    0    0    0  0.00000000000E+00  0.00000000000E+00  0.45593999997E+02  0.45594000000E+02  0.51100000000E-03 0.  1.
         11   -1    0    0    0    0 -0.00000000000E+00 -0.00000000000E+00 -0.45593999997E+02  0.45594000000E+02  0.51100000000E-03 0. -1.
    9900012    2    1    2    0    0  0.10179891976E+02 -0.38523810325E+02 -0.80901957337E+01  0.50528862901E+02  0.30000009275E+02 0.  0.
         12    1    1    2    0    0 -0.10179891976E+02  0.38523810325E+02  0.80901957337E+01  0.40659137099E+02  0.00000000000E+00 0. -1.
         11    1    3    3    0    0  0.45267461330E+01 -0.17976085982E+02 -0.15963283612E+02  0.24463391460E+02  0.51100000000E-03 0. -1.
        -11    1    3    3    0    0 -0.19676841262E+01 -0.11596692980E+02 -0.26882534080E+00  0.11765514703E+02  0.51100000000E-03 0.  1.
         12    1    3    3    0    0  0.76208299693E+01 -0.89510313631E+01  0.81419132186E+01  0.14299956739E+02  0.00000000000E+00 0. -1.
</event>
<event>
 7    1  0.3250765E-011  0.5052886E+02  0.7816164E-02  0.1300439E+00
        -11   -1    0    0    0    0  0.00000000000E+00  0.00000000000E+00  0.45593999997E+02  0.45594000000E+02  0.51100000000E-03 0.  1.
         11   -1    0    0    0    0 -0.00000000000E+00 -0.00000000000E+00 -0.45593999997E+02  0.45594000000E+02  0.51100000000E-03 0. -1.
    9900012    2    1    2    0    0 -0.30439018781E+02 -0.17187134493E+02 -0.20766182184E+02  0.50528858606E+02  0.29999996218E+02 0.  0.
         12    1    1    2    0    0  0.30439018781E+02  0.17187134493E+02  0.20766182184E+02  0.40659141394E+02  0.00000000000E+00 0. -1.
         11    1    3    3    0    0  0.41552408047E+01 -0.35838342521E+01 -0.35296944426E+00  0.54985890718E+01  0.51100000000E-03 0. -1.
        -11    1    3    3    0    0 -0.15137354630E+02  0.59807926725E+00 -0.33622240117E+01  0.15517788327E+02  0.51100000000E-03 0.  1.
        -12    1    3    3    0    0 -0.19456904956E+02 -0.14201379508E+02 -0.17050988728E+02  0.29512481207E+02  0.00000000000E+00 0.  1.
</event>
<event>
 7    1  0.3250765E-011  0.5052887E+02  0.7816164E-02  0.1300439E+00
        -11   -1    0    0    0    0  0.00000000000E+00  0.00000000000E+00  0.45593999997E+02  0.45594000000E+02  0.51100000000E-03 0. -1.
         11   -1    0    0    0    0 -0.00000000000E+00 -0.00000000000E+00 -0.45593999997E+02  0.45594000000E+02  0.51100000000E-03 0.  1.
    9900012    2    1    2    0    0  0.69425501555E+01 -0.39930283416E+02  0.32463133347E+01  0.50528867119E+02  0.30000022095E+02 0.  0.
         12    1    1    2    0    0 -0.69425501555E+01  0.39930283416E+02 -0.32463133347E+01  0.40659132881E+02  0.00000000000E+00 0. -1.
         11    1    3    3    0    0  0.77726598380E+01 -0.41156803698E+00  0.44856334003E+01  0.89835703631E+01  0.51100000000E-03 0. -1.
        -11    1    3    3    0    0  0.40256737625E+00 -0.53697020233E+01 -0.47680049869E+01  0.71923314807E+01  0.51100000000E-03 0.  1.
        -12    1    3    3    0    0 -0.12326770587E+01 -0.34149013356E+02  0.35286849213E+01  0.34352965275E+02  0.00000000000E+00 0.  1.
</event>
<event>
 7    1  0.3250765E-011  0.5052886E+02  0.7816164E-02  0.1300439E+00
        -11   -1    0    0    0    0  0.00000000000E+00  0.00000000000E+00  0.45593999997E+02  0.45594000000E+02  0.51100000000E-03 0. -1.
         11   -1    0    0    0    0 -0.00000000000E+00 -0.00000000000E+00 -0.45593999997E+02  0.45594000000E+02  0.51100000000E-03 0.  1.
    9900012    2    1    2    0    0  0.63677213203E+01 -0.39914313203E+02 -0.44119406289E+01  0.50528862117E+02  0.30000006892E+02 0.  0.
         12    1    1    2    0    0 -0.63677213203E+01  0.39914313203E+02  0.44119406289E+01  0.40659137883E+02  0.00000000000E+00 0. -1.
         11    1    3    3    0    0  0.49099159852E+01 -0.20237551595E+02 -0.50309036725E+01  0.21423719601E+02  0.51100000000E-03 0. -1.
        -11    1    3    3    0    0  0.92581905774E+01 -0.64900850869E+01 -0.55421598497E+01  0.12591696997E+02  0.51100000000E-03 0.  1.
         12    1    3    3    0    0 -0.78003852424E+01 -0.13186676521E+02  0.61611228934E+01  0.16513445519E+02  0.00000000000E+00 0. -1.
</event>
<event>
 7    1  0.3250765E-011  0.5052885E+02  0.7816164E-02  0.1300439E+00
        -11   -1    0    0    0    0  0.00000000000E+00  0.00000000000E+00  0.45593999997E+02  0.45594000000E+02  0.51100000000E-03 0.  1.
         11   -1    0    0    0    0 -0.00000000000E+00 -0.00000000000E+00 -0.45593999997E+02  0.45594000000E+02  0.51100000000E-03 0. -1.
    9900012    2    1    2    0    0 -0.76245819149E+01  0.35280266635E+01  0.39781722594E+02  0.50528847598E+02  0.29999962759E+02 0.  0.
         12    1    1    2    0    0  0.76245819149E+01 -0.35280266635E+01 -0.39781722594E+02  0.40659152402E+02  0.00000000000E+00 0. -1.
         11    1    3    3    0    0 -0.15627892848E+02  0.58904503382E+01  0.27810410839E+02  0.32439904306E+02  0.51100000000E-03 0. -1.
        -11    1    3    3    0    0  0.13004011018E+01  0.27138676591E+01  0.84559244919E+01  0.89754543044E+01  0.51100000000E-03 0.  1.
         12    1    3    3    0    0  0.67029098318E+01 -0.50762913338E+01  0.35153872625E+01  0.91134889875E+01  0.00000000000E+00 0. -1.
</event>
<event>
 7    1  0.3250765E-011  0.5052885E+02  0.7816164E-02  0.1300439E+00
        -11   -1    0    0    0    0  0.00000000000E+00  0.00000000000E+00  0.45593999997E+02  0.45594000000E+02  0.51100000000E-03 0.  1.
         11   -1    0    0    0    0 -0.00000000000E+00 -0.00000000000E+00 -0.45593999997E+02  0.45594000000E+02  0.51100000000E-03 0. -1.
    9900012    2    1    2    0    0 -0.27233273924E+02 -0.29832147855E+02  0.46430404423E+01  0.50528854918E+02  0.29999985009E+02 0.  0.
         12    1    1    2    0    0  0.27233273924E+02  0.29832147855E+02 -0.46430404423E+01  0.40659145082E+02  0.00000000000E+00 0. -1.
         11    1    3    3    0    0  0.22241993165E+00  0.23813989780E+01  0.26969419354E+01  0.36047229828E+01  0.51100000000E-03 0. -1.
        -11    1    3    3    0    0 -0.50124521739E+01 -0.21382434269E+02  0.72065655390E+00  0.21973905392E+02  0.51100000000E-03 0.  1.
        -12    1    3    3    0    0 -0.22443241682E+02 -0.10831112564E+02  0.12254419530E+01  0.24950226543E+02  0.00000000000E+00 0.  1.
</event>
<event>
 7    1  0.3250765E-011  0.5052886E+02  0.7816164E-02  0.1300439E+00
        -11   -1    0    0    0    0  0.00000000000E+00  0.00000000000E+00  0.45593999997E+02  0.45594000000E+02  0.51100000000E-03 0. -1.
         11   -1    0    0    0    0 -0.00000000000E+00 -0.00000000000E+00 -0.45593999997E+02  0.45594000000E+02  0.51100000000E-03 0.  1.
    9900012    2    1    2    0    0  0.29049693146E+02  0.16078096762E+02 -0.23468610818E+02  0.50528861284E+02  0.30000004360E+02 0.  0.
         12    1    1    2    0    0 -0.29049693146E+02 -0.16078096762E+02  0.23468610818E+02  0.40659138716E+02  0.00000000000E+00 0. -1.
         11    1    3    3    0    0  0.79090686372E+01  0.76302118546E+01  0.11904206837E+01  0.11053985766E+02  0.51100000000E-03 0. -1.
        -11    1    3    3    0    0  0.22222583731E+02  0.11836291835E+02 -0.15299166868E+02  0.29461933732E+02  0.51100000000E-03 0.  1.
         12    1    3    3    0    0 -0.10819592219E+01 -0.33884069279E+01 -0.93598646331E+01  0.10012941786E+02  0.00000000000E+00 0. -1.
</event>
<event>
 7    1  0.3250765E-011  0.5052886E+02  0.7816164E-02  0.1300439E+00
        -11   -1    0    0    0    0  0.00000000000E+00  0.00000000000E+00  0.45593999997E+02  0.45594000000E+02  0.51100000000E-03 0.  1.
         11   -1    0    0    0    0 -0.00000000000E+00 -0.00000000000E+00 -0.45593999997E+02  0.45594000000E+02  0.51100000000E-03 0. -1.
    9900012    2    1    2    0    0  0.35355878579E+02 -0.15517181941E+02  0.12741450709E+02  0.50528860171E+02  0.30000000976E+02 0.  0.
         12    1    1    2    0    0 -0.35355878579E+02  0.15517181941E+02 -0.12741450709E+02  0.40659139829E+02  0.00000000000E+00 0. -1.
         11    1    3    3    0    0  0.20676404981E+02 -0.78326239837E+01  0.12644997027E+02  0.25470761109E+02  0.51100000000E-03 0.  1.
        -11    1    3    3    0    0  0.18960559432E+01  0.55596833535E+01 -0.26552281058E+01  0.64463434353E+01  0.51100000000E-03 0. -1.
        -12    1    3    3    0    0  0.12783417655E+02 -0.13244241311E+02  0.27516817870E+01  0.18611755627E+02  0.00000000000E+00 0.  1.
</event>
<event>
 7    1  0.3250765E-011  0.5052887E+02  0.7816164E-02  0.1300439E+00
        -11   -1    0    0    0    0  0.00000000000E+00  0.00000000000E+00  0.45593999997E+02  0.45594000000E+02  0.51100000000E-03 0.  1.
         11   -1    0    0    0    0 -0.00000000000E+00 -0.00000000000E+00 -0.45593999997E+02  0.45594000000E+02  0.51100000000E-03 0. -1.
    9900012    2    1    2    0    0  0.74539923510E+01 -0.38772975073E+02  0.97087177404E+01  0.50528870666E+02  0.30000032877E+02 0.  0.
         12    1    1    2    0    0 -0.74539923510E+01  0.38772975073E+02 -0.97087177404E+01  0.40659129334E+02  0.00000000000E+00 0. -1.
         11    1    3    3    0    0 -0.24542882772E+01 -0.56552678121E+01  0.85821269980E+00  0.62243163699E+01  0.51100000000E-03 0.  1.
        -11    1    3    3    0    0  0.18670061435E+02 -0.24832432407E+02  0.86275780256E+01  0.32243696998E+02  0.51100000000E-03 0. -1.
         12    1    3    3    0    0 -0.87617808069E+01 -0.82852748543E+01  0.22292701504E+00  0.12060857298E+02  0.00000000000E+00 0. -1.
</event>
<event>
 7    1  0.3250765E-011  0.5052886E+02  0.7816164E-02  0.1300439E+00
        -11   -1    0    0    0    0  0.00000000000E+00  0.00000000000E+00  0.45593999997E+02  0.45594000000E+02  0.51100000000E-03 0.  1.
         11   -1    0    0    0    0 -0.00000000000E+00 -0.00000000000E+00 -0.45593999997E+02  0.45594000000E+02  0.51100000000E-03 0. -1.
    9900012    2    1    2    0    0  0.15397136336E+02  0.26759434777E+02  0.26458007815E+02  0.50528864071E+02  0.30000012831E+02 0.  0.
         12    1    1    2    0    0 -0.15397136336E+02 -0.26759434777E+02 -0.26458007815E+02  0.40659135929E+02  0.00000000000E+00 0. -1.
         11    1    3    3    0    0  0.33419243332E+01 -0.27537367345E+01 -0.25028216684E+00  0.43375299049E+01  0.51100000000E-03 0. -1.
        -11    1    3    3    0    0  0.14986634376E+02  0.13152085876E+02  0.89129690120E+01  0.21840732352E+02  0.51100000000E-03 0.  1.
        -12    1    3    3    0    0 -0.29314223734E+01  0.16361085635E+02  0.17795320970E+02  0.24350601814E+02  0.00000000000E+00 0.  1.
</event>
<event>
 7    1  0.3250765E-011  0.5052886E+02  0.7816164E-02  0.1300439E+00
        -11   -1    0    0    0    0  0.00000000000E+00  0.00000000000E+00  0.45593999997E+02  0.45594000000E+02  0.51100000000E-03 0. -1.
         11   -1    0    0    0    0 -0.00000000000E+00 -0.00000000000E+00 -0.45593999997E+02  0.45594000000E+02  0.51100000000E-03 0.  1.
    9900012    2    1    2    0    0  0.31340221500E+02 -0.25809878102E+02 -0.21923191837E+01  0.50528861363E+02  0.30000004599E+02 0.  0.
         12    1    1    2    0    0 -0.31340221500E+02  0.25809878102E+02  0.21923191837E+01  0.40659138637E+02  0.00000000000E+00 0. -1.
         11    1    3    3    0    0  0.13073688229E+02 -0.14689657568E+02  0.81366227759E+00  0.19681702415E+02  0.51100000000E-03 0.  1.
        -11    1    3    3    0    0 -0.17029575548E+01 -0.10574321640E+02 -0.14744961792E+01  0.10811590162E+02  0.51100000000E-03 0. -1.
         12    1    3    3    0    0  0.19969490826E+02 -0.54589889351E+00 -0.15314852821E+01  0.20035568787E+02  0.00000000000E+00 0. -1.
</event>
<event>
 7    1 -0.3250765E-011  0.5052886E+02  0.7816164E-02  0.1300439E+00
        -11   -1    0    0    0    0  0.00000000000E+00  0.00000000000E+00  0.45593999997E+02  0.45594000000E+02  0.51100000000E-03 0.  1.
         11   -1    0    0    0    0 -0.00000000000E+00 -0.00000000000E+00 -0.45593999997E+02  0.45594000000E+02  0.51100000000E-03 0. -1.
    9900012    2    1    2    0    0  0.34194925749E+02  0.77116472278E+01  0.20601051841E+02  0.50528858508E+02  0.29999995921E+02 0.  0.
         12    1    1    2    0    0 -0.34194925749E+02 -0.77116472278E+01 -0.20601051841E+02  0.40659141492E+02  0.00000000000E+00 0. -1.
         11    1    3    3    0    0  0.36144950436E+01 -0.50072519778E+01  0.16911354936E+01  0.64028967123E+01  0.51100000000E-03 0. -1.
        -11    1    3    3    0    0  0.19829585907E+02 -0.31258007642E+01  0.13627433264E+02  0.24262935628E+02  0.51100000000E-03 0.  1.
         12    1    3    3    0    0  0.10750844798E+02  0.15844699970E+02  0.52824830826E+01  0.19863026167E+02  0.00000000000E+00 0. -1.
</event>
<event>
 7    1  0.3250765E-011  0.5052878E+02  0.7816164E-02  0.1300439E+00
        -11   -1    0    0    0    0  0.00000000000E+00  0.00000000000E+00  0.45593999997E+02  0.45594000000E+02  0.51100000000E-03 0. -1.
         11   -1    0    0    0    0 -0.00000000000E+00 -0.00000000000E+00 -0.45593999997E+02  0.45594000000E+02  0.51100000000E-03 0.  1.
    9900012    2    1    2    0    0 -0.37534341252E+02  0.10921649182E+02  0.11183144929E+02  0.50528783030E+02  0.29999766496E+02 0.  0.
         12    1    1    2    0    0  0.37534341252E+02 -0.10921649182E+02 -0.11183144929E+02  0.40659216970E+02  0.00000000000E+00 0. -1.
         11    1    3    3    0    0 -0.32997273596E+02  0.18237705717E+02  0.97199866333E+01  0.38934716064E+02  0.51100000000E-03 0.  1.
        -11    1    3    3    0    0  0.59092561630E+00 -0.26870920569E+01 -0.24244333581E+01  0.36670879694E+01  0.51100000000E-03 0. -1.
        -12    1    3    3    0    0 -0.51279932728E+01 -0.46289644774E+01  0.38875916542E+01  0.79269789964E+01  0.00000000000E+00 0.  1.
</event>
<event>
 7    1  0.3250765E-011  0.5052887E+02  0.7816164E-02  0.1300439E+00
        -11   -1    0    0    0    0  0.00000000000E+00  0.00000000000E+00  0.45593999997E+02  0.45594000000E+02  0.51100000000E-03 0.  1.
         11   -1    0    0    0    0 -0.00000000000E+00 -0.00000000000E+00 -0.45593999997E+02  0.45594000000E+02  0.51100000000E-03 0. -1.
    9900012    2    1    2    0    0 -0.32309886113E+02 -0.19208736399E+02 -0.15500352375E+02  0.50528865498E+02  0.30000017168E+02 0.  0.
         12    1    1    2    0    0  0.32309886113E+02  0.19208736399E+02  0.15500352375E+02  0.40659134502E+02  0.00000000000E+00 0. -1.
         11    1    3    3    0    0 -0.28914713403E+00 -0.29507517469E+01 -0.34233424928E+01  0.45287764375E+01  0.51100000000E-03 0.  1.
        -11    1    3    3    0    0  0.23101742784E+01 -0.55702146420E+01  0.33225784887E+01  0.68850362693E+01  0.51100000000E-03 0. -1.
        -12    1    3    3    0    0 -0.34330913257E+02 -0.10687770010E+02 -0.15399588371E+02  0.39115052791E+02  0.00000000000E+00 0.  1.
</event>
<event>
 7    1  0.3250765E-011  0.5052886E+02  0.7816164E-02  0.1300439E+00
        -11   -1    0    0    0    0  0.00000000000E+00  0.00000000000E+00  0.45593999997E+02  0.45594000000E+02  0.51100000000E-03 0.  1.
         11   -1    0    0    0    0 -0.00000000000E+00 -0.00000000000E+00 -0.45593999997E+02  0.45594000000E+02  0.51100000000E-03 0. -1.
    9900012    2    1    2    0    0 -0.28068843504E+02 -0.15960159504E+02 -0.24709898812E+02  0.50528858761E+02  0.29999996689E+02 0.  0.
         12    1    1    2    0    0  0.28068843504E+02  0.15960159504E+02  0.24709898812E+02  0.40659141239E+02  0.00000000000E+00 0. -1.
         11    1    3    3    0    0 -0.19122083407E+02 -0.10427866380E+02 -0.14495877694E+02  0.26163427556E+02  0.51100000000E-03 0. -1.
        -11    1    3    3    0    0 -0.67000917687E+01 -0.12010210667E+02 -0.23840932023E+01  0.13957803933E+02  0.51100000000E-03 0.  1.
         12    1    3    3    0    0 -0.22466683274E+01  0.64779175429E+01 -0.78299279156E+01  0.10407627272E+02  0.00000000000E+00 0. -1.
</event>
<event>
 7    1  0.3250765E-011  0.5052885E+02  0.7816164E-02  0.1300439E+00
        -11   -1    0    0    0    0  0.00000000000E+00  0.00000000000E+00  0.45593999997E+02  0.45594000000E+02  0.51100000000E-03 0.  1.
         11   -1    0    0    0    0 -0.00000000000E+00 -0.00000000000E+00 -0.45593999997E+02  0.45594000000E+02  0.51100000000E-03 0. -1.
    9900012    2    1    2    0    0 -0.33204867958E+02  0.21381808341E+02  0.96654726514E+01  0.50528851637E+02  0.29999975036E+02 0.  0.
         12    1    1    2    0    0  0.33204867958E+02 -0.21381808341E+02 -0.96654726514E+01  0.40659148363E+02  0.00000000000E+00 0. -1.
         11    1    3    3    0    0 -0.23534554979E+01  0.33353733768E+01  0.10316262892E+02  0.11094536884E+02  0.51100000000E-03 0. -1.
        -11    1    3    3    0    0 -0.21539292949E+02  0.90557357005E+01  0.70084379492E+01  0.24393968365E+02  0.51100000000E-03 0.  1.
         12    1    3    3    0    0 -0.93121195108E+01  0.89906992638E+01 -0.76592281899E+01  0.15040346389E+02  0.00000000000E+00 0. -1.
</event>
<event>
 7    1  0.3250765E-011  0.5052886E+02  0.7816164E-02  0.1300439E+00
        -11   -1    0    0    0    0  0.00000000000E+00  0.00000000000E+00  0.45593999997E+02  0.45594000000E+02  0.51100000000E-03 0.  1.
         11   -1    0    0    0    0 -0.00000000000E+00 -0.00000000000E+00 -0.45593999997E+02  0.45594000000E+02  0.51100000000E-03 0. -1.
    9900012    2    1    2    0    0 -0.32593741825E+02 -0.17610705504E+02  0.16753406438E+02  0.50528861030E+02  0.30000003587E+02 0.  0.
         12    1    1    2    0    0  0.32593741825E+02  0.17610705504E+02 -0.16753406438E+02  0.40659138970E+02  0.00000000000E+00 0. -1.
         11    1    3    3    0    0 -0.11003850108E+01  0.50155667401E+01 -0.17211241057E+01  0.54156278809E+01  0.51100000000E-03 0. -1.
        -11    1    3    3    0    0 -0.27039320101E+01 -0.30365775216E+01  0.76226536085E+01  0.86392649951E+01  0.51100000000E-03 0.  1.
         12    1    3    3    0    0 -0.28789424804E+02 -0.19589694723E+02  0.10851876935E+02  0.36473968154E+02  0.00000000000E+00 0. -1.
</event>
<event>
 7    1  0.3250765E-011  0.5052887E+02  0.7816164E-02  0.1300439E+00
        -11   -1    0    0    0    0  0.00000000000E+00  0.00000000000E+00  0.45593999997E+02  0.45594000000E+02  0.51100000000E-03 0.  1.
         11   -1    0    0    0    0 -0.00000000000E+00 -0.00000000000E+00 -0.45593999997E+02  0.45594000000E+02  0.51100000000E-03 0. -1.
    9900012    2    1    2    0    0  0.28237820880E+02 -0.11362130788E+02  0.26957231131E+02  0.50528869976E+02  0.30000030778E+02 0.  0.
         12    1    1    2    0    0 -0.28237820880E+02  0.11362130788E+02 -0.26957231131E+02  0.40659130024E+02  0.00000000000E+00 0. -1.
         11    1    3    3    0    0  0.13426031067E+02 -0.13383181549E+02  0.26188598276E+02  0.32329716029E+02  0.51100000000E-03 0.  1.
        -11    1    3    3    0    0  0.85838121788E+00 -0.15603156983E+01 -0.28365115316E+01  0.33492090594E+01  0.51100000000E-03 0. -1.
        -12    1    3    3    0    0  0.13953408595E+02  0.35813664587E+01  0.36051443864E+01  0.14849944888E+02  0.00000000000E+00 0.  1.
</event>
<event>
 7    1  0.3250765E-011  0.5052885E+02  0.7816164E-02  0.1300439E+00
        -11   -1    0    0    0    0  0.00000000000E+00  0.00000000000E+00  0.45593999997E+02  0.45594000000E+02  0.51100000000E-03 0.  1.
         11   -1    0    0    0    0 -0.00000000000E+00 -0.00000000000E+00 -0.45593999997E+02  0.45594000000E+02  0.51100000000E-03 0. -1.
    9900012    2    1    2    0    0 -0.34244438818E+02 -0.69787741177E+01  0.20779347082E+02  0.50528854125E+02  0.29999982598E+02 0.  0.
         12    1    1    2    0    0  0.34244438818E+02  0.69787741177E+01 -0.20779347082E+02  0.40659145875E+02  0.00000000000E+00 0. -1.
         11    1    3    3    0    0 -0.15450819017E+02 -0.50282392735E+01  0.14744946511E+01  0.16315181066E+02  0.51100000000E-03 0. -1.
        -11    1    3    3    0    0 -0.73101364793E+01 -0.99530961098E+01  0.15286496359E+02  0.19651442408E+02  0.51100000000E-03 0.  1.
         12    1    3    3    0    0 -0.11483483321E+02  0.80025612656E+01  0.40183560715E+01  0.14562230651E+02  0.00000000000E+00 0. -1.
</event>
<event>
 7    1  0.3250765E-011  0.5052884E+02  0.7816164E-02  0.1300439E+00
        -11   -1    0    0    0    0  0.00000000000E+00  0.00000000000E+00  0.45593999997E+02  0.45594000000E+02  0.51100000000E-03 0. -1.
         11   -1    0    0    0    0 -0.00000000000E+00 -0.00000000000E+00 -0.45593999997E+02  0.45594000000E+02  0.51100000000E-03 0.  1.
    9900012    2    1    2    0    0 -0.29031449860E+02 -0.80262691558E+01 -0.27311553483E+02  0.50528843206E+02  0.29999949410E+02 0.  0.
         12    1    1    2    0    0  0.29031449860E+02  0.80262691558E+01  0.27311553483E+02  0.40659156794E+02  0.00000000000E+00 0. -1.
         11    1    3    3    0    0  0.27639736989E+00  0.15175564153E+01  0.26605350006E+01  0.30753568460E+01  0.51100000000E-03 0.  1.
        -11    1    3    3    0    0 -0.10618530051E+01  0.48583826279E+01 -0.28635078507E+01  0.57385617567E+01  0.51100000000E-03 0. -1.
        -12    1    3    3    0    0 -0.28245994225E+02 -0.14402208199E+02 -0.27108580633E+02  0.41714924603E+02  0.00000000000E+00 0.  1.
</event>
<event>
 7    1  0.3250765E-011  0.5052882E+02  0.7816164E-02  0.1300439E+00
        -11   -1    0    0    0    0  0.00000000000E+00  0.00000000000E+00  0.45593999997E+02  0.45594000000E+02  0.51100000000E-03 0. -1.
         11   -1    0    0    0    0 -0.00000000000E+00 -0.00000000000E+00 -0.45593999997E+02  0.45594000000E+02  0.51100000000E-03 0.  1.
    9900012    2    1    2    0    0 -0.11996233611E+02  0.33536052596E+02 -0.19611024484E+02  0.50528822366E+02  0.29999886064E+02 0.  0.
         12    1    1    2    0    0  0.11996233611E+02 -0.33536052596E+02  0.19611024484E+02  0.40659177634E+02  0.00000000000E+00 0. -1.
         11    1    3    3    0    0  0.24192512068E+01  0.26953113501E+00  0.55008506222E+00  0.24955995815E+01  0.51100000000E-03 0. -1.
        -11    1    3    3    0    0 -0.54514656142E+01  0.20814981765E+02  0.14090721780E+01  0.21563103391E+02  0.51100000000E-03 0.  1.
         12    1    3    3    0    0 -0.89640192036E+01  0.12451539696E+02 -0.21570181724E+02  0.26470119393E+02  0.00000000000E+00 0. -1.
</event>
<event>
 7    1  0.3250765E-011  0.5052887E+02  0.7816164E-02  0.1300439E+00
        -11   -1    0    0    0    0  0.00000000000E+00  0.00000000000E+00  0.45593999997E+02  0.45594000000E+02  0.51100000000E-03 0.  1.
         11   -1    0    0    0    0 -0.00000000000E+00 -0.00000000000E+00 -0.45593999997E+02  0.45594000000E+02  0.51100000000E-03 0. -1.
    9900012    2    1    2    0    0  0.37835409068E+01  0.21936358980E+02  0.34024199128E+02  0.50528866298E+02  0.30000019601E+02 0.  0.
         12    1    1    2    0    0 -0.37835409068E+01 -0.21936358980E+02 -0.34024199128E+02  0.40659133702E+02  0.00000000000E+00 0. -1.
         11    1    3    3    0    0 -0.16017380261E+00  0.11138590676E+01 -0.14045044714E+01  0.17997140720E+01  0.51100000000E-03 0. -1.
        -11    1    3    3    0    0 -0.10245031733E+02  0.91528459730E+01  0.22138416771E+02  0.26054649527E+02  0.51100000000E-03 0.  1.
         12    1    3    3    0    0  0.14188746443E+02  0.11669653939E+02  0.13290286828E+02  0.22674502699E+02  0.00000000000E+00 0. -1.
</event>
<event>
 7    1  0.3250765E-011  0.5052886E+02  0.7816164E-02  0.1300439E+00
        -11   -1    0    0    0    0  0.00000000000E+00  0.00000000000E+00  0.45593999997E+02  0.45594000000E+02  0.51100000000E-03 0.  1.
         11   -1    0    0    0    0 -0.00000000000E+00 -0.00000000000E+00 -0.45593999997E+02  0.45594000000E+02  0.51100000000E-03 0. -1.
    9900012    2    1    2    0    0  0.13924814166E+01 -0.34224976910E+02  0.21906110252E+02  0.50528859387E+02  0.29999998593E+02 0.  0.
         12    1    1    2    0    0 -0.13924814166E+01  0.34224976910E+02 -0.21906110252E+02  0.40659140613E+02  0.00000000000E+00 0. -1.
         11    1    3    3    0    0  0.99068291141E+00 -0.25849323632E+02  0.43673024495E+01  0.26234372793E+02  0.51100000000E-03 0. -1.
        -11    1    3    3    0    0  0.42492994348E+01 -0.11093147705E+02  0.14237383717E+02  0.18542318276E+02  0.51100000000E-03 0.  1.
        -12    1    3    3    0    0 -0.38475009296E+01  0.27174944274E+01  0.33014240856E+01  0.57521683181E+01  0.00000000000E+00 0.  1.
</event>
<event>
 7    1  0.3250765E-011  0.5052886E+02  0.7816164E-02  0.1300439E+00
        -11   -1    0    0    0    0  0.00000000000E+00  0.00000000000E+00  0.45593999997E+02  0.45594000000E+02  0.51100000000E-03 0.  1.
         11   -1    0    0    0    0 -0.00000000000E+00 -0.00000000000E+00 -0.45593999997E+02  0.45594000000E+02  0.51100000000E-03 0. -1.
    9900012    2    1    2    0    0 -0.33559787195E+01 -0.30805275546E+02  0.26323717074E+02  0.50528859881E+02  0.30000000093E+02 0.  0.
         12    1    1    2    0    0  0.33559787195E+01  0.30805275546E+02 -0.26323717074E+02  0.40659140119E+02  0.00000000000E+00 0. -1.
         11    1    3    3    0    0  0.53897713738E+01 -0.22799711290E+01  0.12893486190E+02  0.14159445264E+02  0.51100000000E-03 0. -1.
        -11    1    3    3    0    0 -0.61035392678E+01 -0.13743007480E+01  0.43445371562E+01  0.76168824005E+01  0.51100000000E-03 0.  1.
        -12    1    3    3    0    0 -0.26422108255E+01 -0.27151003669E+02  0.90856937281E+01  0.28752532216E+02  0.00000000000E+00 0.  1.
</event>
<event>
 7    1  0.3250765E-011  0.5052886E+02  0.7816164E-02  0.1300439E+00
        -11   -1    0    0    0    0  0.00000000000E+00  0.00000000000E+00  0.45593999997E+02  0.45594000000E+02  0.51100000000E-03 0.  1.
         11   -1    0    0    0    0 -0.00000000000E+00 -0.00000000000E+00 -0.45593999997E+02  0.45594000000E+02  0.51100000000E-03 0. -1.
    9900012    2    1    2    0    0  0.20468648808E+02  0.16937480036E+02  0.30778595074E+02  0.50528859223E+02  0.29999998094E+02 0.  0.
         12    1    1    2    0    0 -0.20468648808E+02 -0.16937480036E+02 -0.30778595074E+02  0.40659140777E+02  0.00000000000E+00 0. -1.
         11    1    3    3    0    0  0.70192330840E+01  0.68783089055E+01  0.25208750201E+00  0.98307840408E+01  0.51100000000E-03 0. -1.
        -11    1    3    3    0    0  0.40004770071E+01  0.14568321705E+02  0.11519904736E+02  0.18998632029E+02  0.51100000000E-03 0.  1.
         12    1    3    3    0    0  0.94489387169E+01 -0.45091505743E+01  0.19006602836E+02  0.21699443153E+02  0.00000000000E+00 0. -1.
</event>
<event>
 7    1  0.3250765E-011  0.5052886E+02  0.7816164E-02  0.1300439E+00
        -11   -1    0    0    0    0  0.00000000000E+00  0.00000000000E+00  0.45593999997E+02  0.45594000000E+02  0.51100000000E-03 0. -1.
         11   -1    0    0    0    0 -0.00000000000E+00 -0.00000000000E+00 -0.45593999997E+02  0.45594000000E+02  0.51100000000E-03 0.  1.
    9900012    2    1    2    0    0  0.10368282932E+02  0.22317291028E+02 -0.32366699586E+02  0.50528855741E+02  0.29999987511E+02 0.  0.
         12    1    1    2    0    0 -0.10368282932E+02 -0.22317291028E+02  0.32366699586E+02  0.40659144259E+02  0.00000000000E+00 0. -1.
         11    1    3    3    0    0 -0.59367214679E+00 -0.17943712850E+01 -0.25185193754E+01  0.31488339162E+01  0.51100000000E-03 0. -1.
        -11    1    3    3    0    0 -0.38928302415E+01  0.17451925911E+02 -0.24323701211E+02  0.30188843736E+02  0.51100000000E-03 0.  1.
        -12    1    3    3    0    0  0.14854785321E+02  0.66597364016E+01 -0.55244789997E+01  0.17191178089E+02  0.00000000000E+00 0.  1.
</event>
<event>
 7    1  0.3250765E-011  0.5052888E+02  0.7816164E-02  0.1300439E+00
        -11   -1    0    0    0    0  0.00000000000E+00  0.00000000000E+00  0.45593999997E+02  0.45594000000E+02  0.51100000000E-03 0. -1.
         11   -1    0    0    0    0 -0.00000000000E+00 -0.00000000000E+00 -0.45593999997E+02  0.45594000000E+02  0.51100000000E-03 0.  1.
    9900012    2    1    2    0    0  0.11900944993E+02  0.22654446652E+02 -0.31596010762E+02  0.50528876290E+02  0.30000049970E+02 0.  0.
         12    1    1    2    0    0 -0.11900944993E+02 -0.22654446652E+02  0.31596010762E+02  0.40659123710E+02  0.00000000000E+00 0. -1.
         11    1    3    3    0    0  0.88863165335E+01 -0.33128148607E+01 -0.58765097633E+01  0.11156824418E+02  0.51100000000E-03 0. -1.
        -11    1    3    3    0    0 -0.12539240516E+01  0.10736331284E+01 -0.88426020363E+01  0.89953668438E+01  0.51100000000E-03 0.  1.
         12    1    3    3    0    0  0.42685525108E+01  0.24893628385E+02 -0.16876898962E+02  0.30376685028E+02  0.00000000000E+00 0. -1.
</event>
<event>
 7    1  0.3250765E-011  0.5052886E+02  0.7816164E-02  0.1300439E+00
        -11   -1    0    0    0    0  0.00000000000E+00  0.00000000000E+00  0.45593999997E+02  0.45594000000E+02  0.51100000000E-03 0. -1.
         11   -1    0    0    0    0 -0.00000000000E+00 -0.00000000000E+00 -0.45593999997E+02  0.45594000000E+02  0.51100000000E-03 0.  1.
    9900012    2    1    2    0    0  0.33680618599E+02 -0.21861999818E+02 -0.63901841274E+01  0.50528861317E+02  0.30000004460E+02 0.  0.
         12    1    1    2    0    0 -0.33680618599E+02  0.21861999818E+02  0.63901841274E+01  0.40659138683E+02  0.00000000000E+00 0. -1.
         11    1    3    3    0    0  0.70447104428E+01  0.31717182367E+01 -0.83305044537E+01  0.11361560039E+02  0.51100000000E-03 0. -1.
        -11    1    3    3    0    0  0.10848975954E+02 -0.17568955616E+01  0.30954351148E+00  0.10994670469E+02  0.51100000000E-03 0.  1.
         12    1    3    3    0    0  0.15786932202E+02 -0.23276822493E+02  0.16307768149E+01  0.28172630810E+02  0.00000000000E+00 0. -1.
</event>
<event>
 7    1  0.3250765E-011  0.5052886E+02  0.7816164E-02  0.1300439E+00
        -11   -1    0    0    0    0  0.00000000000E+00  0.00000000000E+00  0.45593999997E+02  0.45594000000E+02  0.51100000000E-03 0.  1.
         11   -1    0    0    0    0 -0.00000000000E+00 -0.00000000000E+00 -0.45593999997E+02  0.45594000000E+02  0.51100000000E-03 0. -1.
    9900012    2    1    2    0    0 -0.22744177879E+02  0.18959087815E+02  0.27864331326E+02  0.50528860825E+02  0.30000002965E+02 0.  0.
         12    1    1    2    0    0  0.22744177879E+02 -0.18959087815E+02 -0.27864331326E+02  0.40659139175E+02  0.00000000000E+00 0. -1.
         11    1    3    3    0    0 -0.17511645354E+01  0.25147123026E+01  0.16037888548E+02  0.16328019614E+02  0.51100000000E-03 0. -1.
        -11    1    3    3    0    0 -0.41952046365E+01  0.99433188722E+01 -0.26265721073E+01  0.11107124445E+02  0.51100000000E-03 0.  1.
        -12    1    3    3    0    0 -0.16797808707E+02  0.65010566407E+01  0.14453014885E+02  0.23093716766E+02  0.00000000000E+00 0.  1.
</event>
<event>
 7    1  0.3255720E-011  0.5052885E+02  0.7816164E-02  0.1300439E+00
        -11   -1    0    0    0    0  0.00000000000E+00  0.00000000000E+00  0.45593999997E+02  0.45594000000E+02  0.51100000000E-03 0.  1.
         11   -1    0    0    0    0 -0.00000000000E+00 -0.00000000000E+00 -0.45593999997E+02  0.45594000000E+02  0.51100000000E-03 0. -1.
    9900012    2    1    2    0    0 -0.20323878500E+02  0.35057031760E+02 -0.33333174588E+01  0.50528849512E+02  0.29999968576E+02 0.  0.
         12    1    1    2    0    0  0.20323878500E+02 -0.35057031760E+02  0.33333174588E+01  0.40659150488E+02  0.00000000000E+00 0. -1.
         11    1    3    3    0    0 -0.12216851609E+02  0.29338569376E+01  0.12981142698E+01  0.12631075990E+02  0.51100000000E-03 0. -1.
        -11    1    3    3    0    0 -0.11405875021E+02  0.31211951836E+02 -0.66991636436E+01  0.33899243594E+02  0.51100000000E-03 0.  1.
         12    1    3    3    0    0  0.32988481292E+01  0.91122298650E+00  0.20677319150E+01  0.39985299277E+01  0.00000000000E+00 0. -1.
</event>
<event>
 7    1  0.3250765E-011  0.5052880E+02  0.7816164E-02  0.1300439E+00
        -11   -1    0    0    0    0  0.00000000000E+00  0.00000000000E+00  0.45593999997E+02  0.45594000000E+02  0.51100000000E-03 0.  1.
         11   -1    0    0    0    0 -0.00000000000E+00 -0.00000000000E+00 -0.45593999997E+02  0.45594000000E+02  0.51100000000E-03 0. -1.
    9900012    2    1    2    0    0 -0.27322729904E+02 -0.12089886912E+01  0.30086169025E+02  0.50528796987E+02  0.29999808920E+02 0.  0.
         12    1    1    2    0    0  0.27322729904E+02  0.12089886912E+01 -0.30086169025E+02  0.40659203013E+02  0.00000000000E+00 0. -1.
         11    1    3    3    0    0 -0.84002393561E+01  0.10172396441E+02  0.29254351748E+01  0.13512950892E+02  0.51100000000E-03 0. -1.
        -11    1    3    3    0    0 -0.40628745750E+01 -0.49128218937E+01  0.16311616332E+02  0.17513183503E+02  0.51100000000E-03 0.  1.
        -12    1    3    3    0    0 -0.14859615973E+02 -0.64685632388E+01  0.10849117518E+02  0.19502662592E+02  0.00000000000E+00 0.  1.
</event>
<event>
 7    1  0.3250765E-011  0.5052887E+02  0.7816164E-02  0.1300439E+00
        -11   -1    0    0    0    0  0.00000000000E+00  0.00000000000E+00  0.45593999997E+02  0.45594000000E+02  0.51100000000E-03 0.  1.
         11   -1    0    0    0    0 -0.00000000000E+00 -0.00000000000E+00 -0.45593999997E+02  0.45594000000E+02  0.51100000000E-03 0. -1.
    9900012    2    1    2    0    0 -0.59705078401E+01  0.11456614287E+02  0.38552090791E+02  0.50528872130E+02  0.30000037326E+02 0.  0.
         12    1    1    2    0    0  0.59705078401E+01 -0.11456614287E+02 -0.38552090791E+02  0.40659127870E+02  0.00000000000E+00 0. -1.
         11    1    3    3    0    0  0.80420236735E+01 -0.86318565202E-01  0.12071360910E+02  0.14505149091E+02  0.51100000000E-03 0. -1.
        -11    1    3    3    0    0 -0.56611779584E+01 -0.19817442583E+01  0.11326228302E+01  0.61040217004E+01  0.51100000000E-03 0.  1.
        -12    1    3    3    0    0 -0.83513535552E+01  0.13524677111E+02  0.25348107050E+02  0.29919701339E+02  0.00000000000E+00 0.  1.
</event>
<event>
 7    1  0.3250765E-011  0.5052881E+02  0.7816164E-02  0.1300439E+00
        -11   -1    0    0    0    0  0.00000000000E+00  0.00000000000E+00  0.45593999997E+02  0.45594000000E+02  0.51100000000E-03 0.  1.
         11   -1    0    0    0    0 -0.00000000000E+00 -0.00000000000E+00 -0.45593999997E+02  0.45594000000E+02  0.51100000000E-03 0. -1.
    9900012    2    1    2    0    0 -0.25569974229E+02  0.29882652625E+02  0.10313755144E+02  0.50528806019E+02  0.29999836376E+02 0.  0.
         12    1    1    2    0    0  0.25569974229E+02 -0.29882652625E+02 -0.10313755144E+02  0.40659193981E+02  0.00000000000E+00 0. -1.
         11    1    3    3    0    0 -0.12483323886E+02  0.53170572133E+01  0.16964514585E+01  0.13674151544E+02  0.51100000000E-03 0. -1.
        -11    1    3    3    0    0 -0.12402355734E+02  0.28179247013E+02  0.10741057067E+02  0.32607647832E+02  0.51100000000E-03 0.  1.
        -12    1    3    3    0    0 -0.68429460895E+00 -0.36136516007E+01 -0.21237533807E+01  0.42470066429E+01  0.00000000000E+00 0.  1.
</event>
<event>
 7    1  0.3250765E-011  0.5052886E+02  0.7816164E-02  0.1300439E+00
        -11   -1    0    0    0    0  0.00000000000E+00  0.00000000000E+00  0.45593999997E+02  0.45594000000E+02  0.51100000000E-03 0.  1.
         11   -1    0    0    0    0 -0.00000000000E+00 -0.00000000000E+00 -0.45593999997E+02  0.45594000000E+02  0.51100000000E-03 0. -1.
    9900012    2    1    2    0    0 -0.23404371895E+02 -0.29077983560E+02  0.16120536930E+02  0.50528862495E+02  0.30000008041E+02 0.  0.
         12    1    1    2    0    0  0.23404371895E+02  0.29077983560E+02 -0.16120536930E+02  0.40659137505E+02  0.00000000000E+00 0. -1.
         11    1    3    3    0    0 -0.20015809554E+01 -0.20427999305E+02  0.10523640761E+02  0.23066349886E+02  0.51100000000E-03 0. -1.
        -11    1    3    3    0    0 -0.89745855323E-01 -0.46155979073E+01 -0.11283379527E+01  0.47523620608E+01  0.51100000000E-03 0.  1.
         12    1    3    3    0    0 -0.21313045084E+02 -0.40343863478E+01  0.67252341211E+01  0.22710150548E+02  0.00000000000E+00 0. -1.
</event>
<event>
 7    1  0.3250765E-011  0.5052888E+02  0.7816164E-02  0.1300439E+00
        -11   -1    0    0    0    0  0.00000000000E+00  0.00000000000E+00  0.45593999997E+02  0.45594000000E+02  0.51100000000E-03 0.  1.
         11   -1    0    0    0    0 -0.00000000000E+00 -0.00000000000E+00 -0.45593999997E+02  0.45594000000E+02  0.51100000000E-03 0. -1.
    9900012    2    1    2    0    0  0.18495683653E+02 -0.34965532963E+02  0.94066576582E+01  0.50528880267E+02  0.30000062059E+02 0.  0.
         12    1    1    2    0    0 -0.18495683653E+02  0.34965532963E+02 -0.94066576582E+01  0.40659119733E+02  0.00000000000E+00 0. -1.
         11    1    3    3    0    0  0.16148867733E+01 -0.51184098495E+01 -0.43250443465E+01  0.68928939886E+01  0.51100000000E-03 0. -1.
        -11    1    3    3    0    0  0.31125808727E+01 -0.26979020340E+02  0.11044133346E+02  0.29317717848E+02  0.51100000000E-03 0.  1.
         12    1    3    3    0    0  0.13768216007E+02 -0.28681027730E+01  0.26875686588E+01  0.14318268430E+02  0.00000000000E+00 0. -1.
</event>
<event>
 7    1  0.3250765E-011  0.5052886E+02  0.7816164E-02  0.1300439E+00
        -11   -1    0    0    0    0  0.00000000000E+00  0.00000000000E+00  0.45593999997E+02  0.45594000000E+02  0.51100000000E-03 0. -1.
         11   -1    0    0    0    0 -0.00000000000E+00 -0.00000000000E+00 -0.45593999997E+02  0.45594000000E+02  0.51100000000E-03 0.  1.
    9900012    2    1    2    0    0  0.26058252150E+02  0.31151581053E+02  0.19267582532E+01  0.50528857060E+02  0.29999991520E+02 0.  0.
         12    1    1    2    0    0 -0.26058252150E+02 -0.31151581053E+02 -0.19267582532E+01  0.40659142940E+02  0.00000000000E+00 0. -1.
         11    1    3    3    0    0 -0.55756155476E+01  0.36196086784E+01 -0.17522274475E+01  0.68745441310E+01  0.51100000000E-03 0. -1.
        -11    1    3    3    0    0  0.72846297252E+01  0.13495249791E+02  0.22530132910E+00  0.15337482130E+02  0.51100000000E-03 0.  1.
        -12    1    3    3    0    0  0.24349237973E+02  0.14036722584E+02  0.34536843716E+01  0.28316830799E+02  0.00000000000E+00 0.  1.
</event>
<event>
 7    1  0.3250765E-011  0.5052885E+02  0.7816164E-02  0.1300439E+00
        -11   -1    0    0    0    0  0.00000000000E+00  0.00000000000E+00  0.45593999997E+02  0.45594000000E+02  0.51100000000E-03 0.  1.
         11   -1    0    0    0    0 -0.00000000000E+00 -0.00000000000E+00 -0.45593999997E+02  0.45594000000E+02  0.51100000000E-03 0. -1.
    9900012    2    1    2    0    0  0.11560619376E+02  0.32999996389E+02  0.20748954789E+02  0.50528845965E+02  0.29999957794E+02 0.  0.
         12    1    1    2    0    0 -0.11560619376E+02 -0.32999996389E+02 -0.20748954789E+02  0.40659154035E+02  0.00000000000E+00 0. -1.
         11    1    3    3    0    0 -0.13546104820E+01  0.63888854631E+01  0.76357095328E-02  0.65309176678E+01  0.51100000000E-03 0. -1.
        -11    1    3    3    0    0  0.19610562504E+01  0.25136689207E+02  0.21191253709E+02  0.32935818191E+02  0.51100000000E-03 0.  1.
         12    1    3    3    0    0  0.10954173607E+02  0.14744217193E+01 -0.44993462934E+00  0.11062110106E+02  0.00000000000E+00 0. -1.
</event>
<event>
 7    1  0.3250765E-011  0.5052888E+02  0.7816164E-02  0.1300439E+00
        -11   -1    0    0    0    0  0.00000000000E+00  0.00000000000E+00  0.45593999997E+02  0.45594000000E+02  0.51100000000E-03 0.  1.
         11   -1    0    0    0    0 -0.00000000000E+00 -0.00000000000E+00 -0.45593999997E+02  0.45594000000E+02  0.51100000000E-03 0. -1.
    9900012    2    1    2    0    0  0.30317167353E+02  0.21201024490E+02  0.16868616049E+02  0.50528877000E+02  0.30000052129E+02 0.  0.
         12    1    1    2    0    0 -0.30317167353E+02 -0.21201024490E+02 -0.16868616049E+02  0.40659123000E+02  0.00000000000E+00 0. -1.
         11    1    3    3    0    0 -0.48320471944E+00 -0.35008429960E+01  0.10904893361E+00  0.35357149792E+01  0.51100000000E-03 0. -1.
        -11    1    3    3    0    0  0.24075103387E+02  0.71799322860E+01  0.10131694947E+02  0.27088988048E+02  0.51100000000E-03 0.  1.
         12    1    3    3    0    0  0.67252686858E+01  0.17521935200E+02  0.66278721682E+01  0.19904173972E+02  0.00000000000E+00 0. -1.
</event>
<event>
 7    1  0.3250765E-011  0.5052887E+02  0.7816164E-02  0.1300439E+00
        -11   -1    0    0    0    0  0.00000000000E+00  0.00000000000E+00  0.45593999997E+02  0.45594000000E+02  0.51100000000E-03 0.  1.
         11   -1    0    0    0    0 -0.00000000000E+00 -0.00000000000E+00 -0.45593999997E+02  0.45594000000E+02  0.51100000000E-03 0. -1.
    9900012    2    1    2    0    0  0.92743502797E+01  0.33163211982E+02 -0.21618345420E+02  0.50528867437E+02  0.30000023061E+02 0.  0.
         12    1    1    2    0    0 -0.92743502797E+01 -0.33163211982E+02  0.21618345420E+02  0.40659132563E+02  0.00000000000E+00 0. -1.
         11    1    3    3    0    0  0.54142216545E+01  0.10463229755E+02 -0.30096352098E+01  0.12159394614E+02  0.51100000000E-03 0.  1.
        -11    1    3    3    0    0 -0.57974434714E+01  0.17386424782E+02 -0.20007443675E+01  0.18436406803E+02  0.51100000000E-03 0. -1.
         12    1    3    3    0    0  0.96575720965E+01  0.53135574458E+01 -0.16607965843E+02  0.19933066020E+02  0.00000000000E+00 0. -1.
</event>
<event>
 7    1  0.3250765E-011  0.5052885E+02  0.7816164E-02  0.1300439E+00
        -11   -1    0    0    0    0  0.00000000000E+00  0.00000000000E+00  0.45593999997E+02  0.45594000000E+02  0.51100000000E-03 0.  1.
         11   -1    0    0    0    0 -0.00000000000E+00 -0.00000000000E+00 -0.45593999997E+02  0.45594000000E+02  0.51100000000E-03 0. -1.
    9900012    2    1    2    0    0  0.35346773893E+02  0.51151235994E+01  0.19432119579E+02  0.50528853607E+02  0.29999981023E+02 0.  0.
         12    1    1    2    0    0 -0.35346773893E+02 -0.51151235994E+01 -0.19432119579E+02  0.40659146393E+02  0.00000000000E+00 0. -1.
         11    1    3    3    0    0 -0.19972914912E+01  0.27562975452E+01 -0.79181028159E+00  0.34947551047E+01  0.51100000000E-03 0. -1.
        -11    1    3    3    0    0  0.19612257065E+02  0.11251948470E+02  0.10120722624E+02  0.24772484700E+02  0.51100000000E-03 0.  1.
         12    1    3    3    0    0  0.17731808320E+02 -0.88931224154E+01  0.10103207237E+02  0.22261613802E+02  0.00000000000E+00 0. -1.
</event>
<event>
 7    1  0.3250765E-011  0.5052886E+02  0.7816164E-02  0.1300439E+00
        -11   -1    0    0    0    0  0.00000000000E+00  0.00000000000E+00  0.45593999997E+02  0.45594000000E+02  0.51100000000E-03 0. -1.
         11   -1    0    0    0    0 -0.00000000000E+00 -0.00000000000E+00 -0.45593999997E+02  0.45594000000E+02  0.51100000000E-03 0.  1.
    9900012    2    1    2    0    0 -0.32129449875E+02  0.14765950248E+02 -0.20070646504E+02  0.50528859735E+02  0.29999999651E+02 0.  0.
         12    1    1    2    0    0  0.32129449875E+02 -0.14765950248E+02  0.20070646504E+02  0.40659140265E+02  0.00000000000E+00 0. -1.
         11    1    3    3    0    0  0.28476895714E+00 -0.18565729852E+01 -0.60099397530E+01  0.62966127961E+01  0.51100000000E-03 0. -1.
        -11    1    3    3    0    0 -0.18648664474E+02  0.13340924768E+02 -0.18434111024E+02  0.29420561005E+02  0.51100000000E-03 0.  1.
        -12    1    3    3    0    0 -0.13765554358E+02  0.32815984658E+01  0.43734042731E+01  0.14811685934E+02  0.00000000000E+00 0.  1.
</event>
<event>
 7    1  0.3250765E-011  0.5052884E+02  0.7816164E-02  0.1300439E+00
        -11   -1    0    0    0    0  0.00000000000E+00  0.00000000000E+00  0.45593999997E+02  0.45594000000E+02  0.51100000000E-03 0. -1.
         11   -1    0    0    0    0 -0.00000000000E+00 -0.00000000000E+00 -0.45593999997E+02  0.45594000000E+02  0.51100000000E-03 0.  1.
    9900012    2    1    2    0    0  0.21786885930E+02  0.27672398812E+02 -0.20315937400E+02  0.50528839077E+02  0.29999936858E+02 0.  0.
         12    1    1    2    0    0 -0.21786885930E+02 -0.27672398812E+02  0.20315937400E+02  0.40659160923E+02  0.00000000000E+00 0. -1.
         11    1    3    3    0    0 -0.18177683179E+01 -0.12550851974E+01 -0.53691806523E+01  0.58058265259E+01  0.51100000000E-03 0. -1.
        -11    1    3    3    0    0  0.22209276369E+02  0.13877862254E+02 -0.13704838443E+02  0.29557902743E+02  0.51100000000E-03 0.  1.
         12    1    3    3    0    0  0.13953778790E+01  0.15049621755E+02 -0.12419183047E+01  0.15165109808E+02  0.00000000000E+00 0. -1.
</event>
<event>
 7    1  0.3250765E-011  0.5052886E+02  0.7816164E-02  0.1300439E+00
        -11   -1    0    0    0    0  0.00000000000E+00  0.00000000000E+00  0.45593999997E+02  0.45594000000E+02  0.51100000000E-03 0.  1.
         11   -1    0    0    0    0 -0.00000000000E+00 -0.00000000000E+00 -0.45593999997E+02  0.45594000000E+02  0.51100000000E-03 0. -1.
    9900012    2    1    2    0    0  0.24153380052E+02  0.19279111254E+02  0.26421497200E+02  0.50528863106E+02  0.30000009897E+02 0.  0.
         12    1    1    2    0    0 -0.24153380052E+02 -0.19279111254E+02 -0.26421497200E+02  0.40659136894E+02  0.00000000000E+00 0. -1.
         11    1    3    3    0    0  0.23901900882E+01  0.12212671178E+02  0.48383543488E+01  0.13351854516E+02  0.51100000000E-03 0. -1.
        -11    1    3    3    0    0 -0.89505972529E+00 -0.38490896218E+01  0.71764649643E+01  0.81925742276E+01  0.51100000000E-03 0.  1.
         12    1    3    3    0    0  0.22658249689E+02  0.10915529698E+02  0.14406677887E+02  0.28984434362E+02  0.00000000000E+00 0. -1.
</event>
<event>
 7    1  0.3250765E-011  0.5052886E+02  0.7816164E-02  0.1300439E+00
        -11   -1    0    0    0    0  0.00000000000E+00  0.00000000000E+00  0.45593999997E+02  0.45594000000E+02  0.51100000000E-03 0. -1.
         11   -1    0    0    0    0 -0.00000000000E+00 -0.00000000000E+00 -0.45593999997E+02  0.45594000000E+02  0.51100000000E-03 0.  1.
    9900012    2    1    2    0    0 -0.24308652024E+02 -0.64293395351E+01 -0.31951821250E+02  0.50528857715E+02  0.29999993512E+02 0.  0.
         12    1    1    2    0    0  0.24308652024E+02  0.64293395351E+01  0.31951821250E+02  0.40659142285E+02  0.00000000000E+00 0. -1.
         11    1    3    3    0    0 -0.39814505813E+01  0.24468018197E+01  0.20955416762E+01  0.51215313193E+01  0.51100000000E-03 0. -1.
        -11    1    3    3    0    0 -0.15285476512E+02 -0.58143587480E+01 -0.71116995192E+01  0.17833362840E+02  0.51100000000E-03 0.  1.
         12    1    3    3    0    0 -0.50417249305E+01 -0.30617826068E+01 -0.26935663407E+02  0.27573963556E+02  0.00000000000E+00 0. -1.
</event>
<event>
 7    1  0.3250765E-011  0.5052886E+02  0.7816164E-02  0.1300439E+00
        -11   -1    0    0    0    0  0.00000000000E+00  0.00000000000E+00  0.45593999997E+02  0.45594000000E+02  0.51100000000E-03 0. -1.
         11   -1    0    0    0    0 -0.00000000000E+00 -0.00000000000E+00 -0.45593999997E+02  0.45594000000E+02  0.51100000000E-03 0.  1.
    9900012    2    1    2    0    0 -0.14480396493E+02 -0.30394074317E+02 -0.22796571659E+02  0.50528864303E+02  0.30000013537E+02 0.  0.
         12    1    1    2    0    0  0.14480396493E+02  0.30394074317E+02  0.22796571659E+02  0.40659135697E+02  0.00000000000E+00 0. -1.
         11    1    3    3    0    0 -0.14204198806E+02 -0.44326267348E+01 -0.99146899442E+01  0.17880394862E+02  0.51100000000E-03 0.  1.
        -11    1    3    3    0    0 -0.76135492928E+01 -0.12981159645E+02 -0.56283077100E+01  0.16067186639E+02  0.51100000000E-03 0. -1.
        -12    1    3    3    0    0  0.73373516051E+01 -0.12980287937E+02 -0.72535740043E+01  0.16581282802E+02  0.00000000000E+00 0.  1.
</event>
<event>
 7    1  0.3250765E-011  0.5052884E+02  0.7816164E-02  0.1300439E+00
        -11   -1    0    0    0    0  0.00000000000E+00  0.00000000000E+00  0.45593999997E+02  0.45594000000E+02  0.51100000000E-03 0. -1.
         11   -1    0    0    0    0 -0.00000000000E+00 -0.00000000000E+00 -0.45593999997E+02  0.45594000000E+02  0.51100000000E-03 0.  1.
    9900012    2    1    2    0    0 -0.33188376917E+02 -0.19607785796E+02 -0.12931870177E+02  0.50528844912E+02  0.29999954594E+02 0.  0.
         12    1    1    2    0    0  0.33188376917E+02  0.19607785796E+02  0.12931870177E+02  0.40659155088E+02  0.00000000000E+00 0. -1.
         11    1    3    3    0    0 -0.12727482619E+02  0.12178529465E+01 -0.68238710470E+01  0.14492660071E+02  0.51100000000E-03 0.  1.
        -11    1    3    3    0    0  0.36234835385E+01 -0.42740439385E+00  0.78118022168E+00  0.37312933776E+01  0.51100000000E-03 0. -1.
        -12    1    3    3    0    0 -0.24084377837E+02 -0.20398234348E+02 -0.68891793518E+01  0.32304891463E+02  0.00000000000E+00 0.  1.
</event>
<event>
 7    1  0.3250765E-011  0.5052885E+02  0.7816164E-02  0.1300439E+00
        -11   -1    0    0    0    0  0.00000000000E+00  0.00000000000E+00  0.45593999997E+02  0.45594000000E+02  0.51100000000E-03 0. -1.
         11   -1    0    0    0    0 -0.00000000000E+00 -0.00000000000E+00 -0.45593999997E+02  0.45594000000E+02  0.51100000000E-03 0.  1.
    9900012    2    1    2    0    0 -0.13750963773E+02  0.13582773949E+01 -0.38239146115E+02  0.50528853209E+02  0.29999979815E+02 0.  0.
         12    1    1    2    0    0  0.13750963773E+02 -0.13582773949E+01  0.38239146115E+02  0.40659146791E+02  0.00000000000E+00 0. -1.
         11    1    3    3    0    0  0.63151653213E+01  0.14683901203E+01 -0.86755144568E+01  0.10830606351E+02  0.51100000000E-03 0. -1.
        -11    1    3    3    0    0 -0.51179856505E+01 -0.94988704512E+00  0.13259430363E+01  0.53716094156E+01  0.51100000000E-03 0.  1.
        -12    1    3    3    0    0 -0.14948143444E+02  0.83977431979E+00 -0.30889574694E+02  0.34326637443E+02  0.00000000000E+00 0.  1.
</event>
<event>
 7    1  0.3250765E-011  0.5052887E+02  0.7816164E-02  0.1300439E+00
        -11   -1    0    0    0    0  0.00000000000E+00  0.00000000000E+00  0.45593999997E+02  0.45594000000E+02  0.51100000000E-03 0.  1.
         11   -1    0    0    0    0 -0.00000000000E+00 -0.00000000000E+00 -0.45593999997E+02  0.45594000000E+02  0.51100000000E-03 0. -1.
    9900012    2    1    2    0    0 -0.22607817662E+02 -0.80966817752E+01  0.32809991642E+02  0.50528865396E+02  0.30000016857E+02 0.  0.
         12    1    1    2    0    0  0.22607817662E+02  0.80966817752E+01 -0.32809991642E+02  0.40659134604E+02  0.00000000000E+00 0. -1.
         11    1    3    3    0    0  0.33245571111E+01 -0.18584928209E+00  0.15749425371E+02  0.16097565646E+02  0.51100000000E-03 0. -1.
        -11    1    3    3    0    0 -0.66033337538E+01  0.26046032466E+01  0.78320903714E+01  0.10570223015E+02  0.51100000000E-03 0.  1.
        -12    1    3    3    0    0 -0.19329041020E+02 -0.10515435740E+02  0.92284758994E+01  0.23861076735E+02  0.00000000000E+00 0.  1.
</event>
<event>
 7    1  0.3250765E-011  0.5052887E+02  0.7816164E-02  0.1300439E+00
        -11   -1    0    0    0    0  0.00000000000E+00  0.00000000000E+00  0.45593999997E+02  0.45594000000E+02  0.51100000000E-03 0. -1.
         11   -1    0    0    0    0 -0.00000000000E+00 -0.00000000000E+00 -0.45593999997E+02  0.45594000000E+02  0.51100000000E-03 0.  1.
    9900012    2    1    2    0    0 -0.86340182602E+00 -0.87839662377E+01 -0.39689566808E+02  0.50528865246E+02  0.30000016402E+02 0.  0.
         12    1    1    2    0    0  0.86340182602E+00  0.87839662377E+01  0.39689566808E+02  0.40659134754E+02  0.00000000000E+00 0. -1.
         11    1    3    3    0    0  0.22519435805E+01  0.72476714858E+01 -0.79080544372E+01  0.10960716997E+02  0.51100000000E-03 0. -1.
        -11    1    3    3    0    0  0.44706936723E+01 -0.74502155389E+01 -0.40936471750E+01  0.96047259691E+01  0.51100000000E-03 0.  1.
        -12    1    3    3    0    0 -0.75860390788E+01 -0.85814221846E+01 -0.27687865195E+02  0.29963422279E+02  0.00000000000E+00 0.  1.
</event>
<event>
 7    1  0.3250765E-011  0.5052888E+02  0.7816164E-02  0.1300439E+00
        -11   -1    0    0    0    0  0.00000000000E+00  0.00000000000E+00  0.45593999997E+02  0.45594000000E+02  0.51100000000E-03 0. -1.
         11   -1    0    0    0    0 -0.00000000000E+00 -0.00000000000E+00 -0.45593999997E+02  0.45594000000E+02  0.51100000000E-03 0.  1.
    9900012    2    1    2    0    0  0.30283521693E+02 -0.21570295458E+02 -0.16455831425E+02  0.50528883923E+02  0.30000073173E+02 0.  0.
         12    1    1    2    0    0 -0.30283521693E+02  0.21570295458E+02  0.16455831425E+02  0.40659116077E+02  0.00000000000E+00 0. -1.
         11    1    3    3    0    0 -0.12300901096E+01 -0.40375346796E+01  0.16909533471E+01  0.45468815082E+01  0.51100000000E-03 0. -1.
        -11    1    3    3    0    0  0.19062897630E+02 -0.20251085608E+02 -0.61587054982E+01  0.28485613703E+02  0.51100000000E-03 0.  1.
         12    1    3    3    0    0  0.12450714172E+02  0.27183248301E+01 -0.11988079274E+02  0.17496388712E+02  0.00000000000E+00 0. -1.
</event>
<event>
 7    1  0.3250765E-011  0.5052884E+02  0.7816164E-02  0.1300439E+00
        -11   -1    0    0    0    0  0.00000000000E+00  0.00000000000E+00  0.45593999997E+02  0.45594000000E+02  0.51100000000E-03 0. -1.
         11   -1    0    0    0    0 -0.00000000000E+00 -0.00000000000E+00 -0.45593999997E+02  0.45594000000E+02  0.51100000000E-03 0.  1.
    9900012    2    1    2    0    0 -0.15964536101E+02  0.34943568192E+02 -0.13313451636E+02  0.50528839097E+02  0.29999936919E+02 0.  0.
         12    1    1    2    0    0  0.15964536101E+02 -0.34943568192E+02  0.13313451636E+02  0.40659160903E+02  0.00000000000E+00 0. -1.
         11    1    3    3    0    0 -0.67661225631E+01  0.21829184742E+01  0.62819548478E+01  0.94872812004E+01  0.51100000000E-03 0. -1.
        -11    1    3    3    0    0 -0.73424294018E+01  0.67218602674E+01 -0.52174118294E+01  0.11239041838E+02  0.51100000000E-03 0.  1.
        -12    1    3    3    0    0 -0.18559841361E+01  0.26038789450E+02 -0.14377994654E+02  0.29802516059E+02  0.00000000000E+00 0.  1.
</event>
<event>
 7    1  0.3716821E-011  0.5052886E+02  0.7816164E-02  0.1300439E+00
        -11   -1    0    0    0    0  0.00000000000E+00  0.00000000000E+00  0.45593999997E+02  0.45594000000E+02  0.51100000000E-03 0.  1.
         11   -1    0    0    0    0 -0.00000000000E+00 -0.00000000000E+00 -0.45593999997E+02  0.45594000000E+02  0.51100000000E-03 0. -1.
    9900012    2    1    2    0    0 -0.10298040531E+02  0.28128128139E+02  0.27494079866E+02  0.50528860080E+02  0.30000000699E+02 0.  0.
         12    1    1    2    0    0  0.10298040531E+02 -0.28128128139E+02 -0.27494079866E+02  0.40659139920E+02  0.00000000000E+00 0. -1.
         11    1    3    3    0    0 -0.11914585871E+01  0.45488670287E+01  0.14003306078E+02  0.14771741474E+02  0.51100000000E-03 0. -1.
        -11    1    3    3    0    0 -0.12741820061E+02  0.15721966854E+02  0.16985910511E+02  0.26420737620E+02  0.51100000000E-03 0.  1.
         12    1    3    3    0    0  0.36352381173E+01  0.78572942560E+01 -0.34951367230E+01  0.93363809856E+01  0.00000000000E+00 0. -1.
</event>
<event>
 7    1  0.3250765E-011  0.5052886E+02  0.7816164E-02  0.1300439E+00
        -11   -1    0    0    0    0  0.00000000000E+00  0.00000000000E+00  0.45593999997E+02  0.45594000000E+02  0.51100000000E-03 0.  1.
         11   -1    0    0    0    0 -0.00000000000E+00 -0.00000000000E+00 -0.45593999997E+02  0.45594000000E+02  0.51100000000E-03 0. -1.
    9900012    2    1    2    0    0  0.10844256659E+00  0.36263154052E+02  0.18388524397E+02  0.50528856734E+02  0.29999990529E+02 0.  0.
         12    1    1    2    0    0 -0.10844256659E+00 -0.36263154052E+02 -0.18388524397E+02  0.40659143266E+02  0.00000000000E+00 0. -1.
         11    1    3    3    0    0  0.56927561744E+01  0.59730175362E+01  0.91264482271E+01  0.12303514492E+02  0.51100000000E-03 0. -1.
        -11    1    3    3    0    0  0.73112147775E+00  0.11442015490E+02 -0.62068108624E+01  0.13037590208E+02  0.51100000000E-03 0.  1.
         12    1    3    3    0    0 -0.63154350856E+01  0.18848121026E+02  0.15468887032E+02  0.25187752034E+02  0.00000000000E+00 0. -1.
</event>
<event>
 7    1  0.3250765E-011  0.5052886E+02  0.7816164E-02  0.1300439E+00
        -11   -1    0    0    0    0  0.00000000000E+00  0.00000000000E+00  0.45593999997E+02  0.45594000000E+02  0.51100000000E-03 0. -1.
         11   -1    0    0    0    0 -0.00000000000E+00 -0.00000000000E+00 -0.45593999997E+02  0.45594000000E+02  0.51100000000E-03 0.  1.
    9900012    2    1    2    0    0 -0.20633028738E+02 -0.18836432110E+02 -0.29540360554E+02  0.50528856487E+02  0.29999989778E+02 0.  0.
         12    1    1    2    0    0  0.20633028738E+02  0.18836432110E+02  0.29540360554E+02  0.40659143513E+02  0.00000000000E+00 0. -1.
         11    1    3    3    0    0 -0.17654861398E+01  0.30360968047E+01  0.12354090327E+01  0.37230445682E+01  0.51100000000E-03 0. -1.
        -11    1    3    3    0    0 -0.10831124210E+02 -0.10395789352E+02 -0.24595820226E+01  0.15212995494E+02  0.51100000000E-03 0.  1.
         12    1    3    3    0    0 -0.80364183882E+01 -0.11476739562E+02 -0.28316187564E+02  0.31592816425E+02  0.00000000000E+00 0. -1.
</event>
<event>
 7    1  0.3250765E-011  0.5052884E+02  0.7816164E-02  0.1300439E+00
        -11   -1    0    0    0    0  0.00000000000E+00  0.00000000000E+00  0.45593999997E+02  0.45594000000E+02  0.51100000000E-03 0. -1.
         11   -1    0    0    0    0 -0.00000000000E+00 -0.00000000000E+00 -0.45593999997E+02  0.45594000000E+02  0.51100000000E-03 0.  1.
    9900012    2    1    2    0    0 -0.25651112404E+02 -0.18123275956E+02 -0.25821201287E+02  0.50528841931E+02  0.29999945534E+02 0.  0.
         12    1    1    2    0    0  0.25651112404E+02  0.18123275956E+02  0.25821201287E+02  0.40659158069E+02  0.00000000000E+00 0. -1.
         11    1    3    3    0    0  0.51653152386E+01 -0.90997446488E+01 -0.44571895635E+01  0.11373318480E+02  0.51100000000E-03 0. -1.
        -11    1    3    3    0    0 -0.31554987481E+01  0.15669520730E+00 -0.44533093901E+01  0.54601914365E+01  0.51100000000E-03 0.  1.
         12    1    3    3    0    0 -0.27660928894E+02 -0.91802265145E+01 -0.16910702334E+02  0.33695332015E+02  0.00000000000E+00 0. -1.
</event>
<event>
 7    1  0.3250765E-011  0.5052887E+02  0.7816164E-02  0.1300439E+00
        -11   -1    0    0    0    0  0.00000000000E+00  0.00000000000E+00  0.45593999997E+02  0.45594000000E+02  0.51100000000E-03 0. -1.
         11   -1    0    0    0    0 -0.00000000000E+00 -0.00000000000E+00 -0.45593999997E+02  0.45594000000E+02  0.51100000000E-03 0.  1.
    9900012    2    1    2    0    0  0.92625026093E+01  0.34727152820E+02 -0.19010418214E+02  0.50528866976E+02  0.30000021660E+02 0.  0.
         12    1    1    2    0    0 -0.92625026093E+01 -0.34727152820E+02  0.19010418214E+02  0.40659133024E+02  0.00000000000E+00 0. -1.
         11    1    3    3    0    0  0.21874055661E+01  0.37420895617E+01  0.24939059111E+01  0.50007543784E+01  0.51100000000E-03 0. -1.
        -11    1    3    3    0    0  0.62563545107E+01  0.62411056728E+01 -0.18610527119E+02  0.20602065229E+02  0.51100000000E-03 0.  1.
         12    1    3    3    0    0  0.81874253253E+00  0.24743957586E+02 -0.28937970067E+01  0.24926047369E+02  0.00000000000E+00 0. -1.
</event>
<event>
 7    1  0.3250765E-011  0.5052886E+02  0.7816164E-02  0.1300439E+00
        -11   -1    0    0    0    0  0.00000000000E+00  0.00000000000E+00  0.45593999997E+02  0.45594000000E+02  0.51100000000E-03 0. -1.
         11   -1    0    0    0    0 -0.00000000000E+00 -0.00000000000E+00 -0.45593999997E+02  0.45594000000E+02  0.51100000000E-03 0.  1.
    9900012    2    1    2    0    0  0.34609229817E+02  0.13999296910E+02  0.16105494438E+02  0.50528855228E+02  0.29999985952E+02 0.  0.
         12    1    1    2    0    0 -0.34609229817E+02 -0.13999296910E+02 -0.16105494438E+02  0.40659144772E+02  0.00000000000E+00 0. -1.
         11    1    3    3    0    0  0.26339538834E+01  0.11113691410E+02  0.27012068252E+01  0.11736625085E+02  0.51100000000E-03 0. -1.
        -11    1    3    3    0    0  0.13895469702E+02  0.56564835453E+00 -0.30483735601E+01  0.14237156245E+02  0.51100000000E-03 0.  1.
        -12    1    3    3    0    0  0.18079806231E+02  0.23199571462E+01  0.16452661172E+02  0.24555073899E+02  0.00000000000E+00 0.  1.
</event>
<event>
 7    1  0.3250765E-011  0.5052884E+02  0.7816164E-02  0.1300439E+00
        -11   -1    0    0    0    0  0.00000000000E+00  0.00000000000E+00  0.45593999997E+02  0.45594000000E+02  0.51100000000E-03 0. -1.
         11   -1    0    0    0    0 -0.00000000000E+00 -0.00000000000E+00 -0.45593999997E+02  0.45594000000E+02  0.51100000000E-03 0.  1.
    9900012    2    1    2    0    0  0.11004632975E+02 -0.37219539535E+02 -0.12114932641E+02  0.50528835436E+02  0.29999925792E+02 0.  0.
         12    1    1    2    0    0 -0.11004632975E+02  0.37219539535E+02  0.12114932641E+02  0.40659164564E+02  0.00000000000E+00 0. -1.
         11    1    3    3    0    0  0.38216628709E+01 -0.19362670323E+02 -0.89116044920E+01  0.21654902540E+02  0.51100000000E-03 0. -1.
        -11    1    3    3    0    0  0.13820199907E+02 -0.17125278227E+02 -0.28106520595E+01  0.22184968900E+02  0.51100000000E-03 0.  1.
         12    1    3    3    0    0 -0.66372298031E+01 -0.73159098491E+00 -0.39267608905E+00  0.66889639960E+01  0.00000000000E+00 0. -1.
</event>
<event>
 7    1  0.3250765E-011  0.5052885E+02  0.7816164E-02  0.1300439E+00
        -11   -1    0    0    0    0  0.00000000000E+00  0.00000000000E+00  0.45593999997E+02  0.45594000000E+02  0.51100000000E-03 0.  1.
         11   -1    0    0    0    0 -0.00000000000E+00 -0.00000000000E+00 -0.45593999997E+02  0.45594000000E+02  0.51100000000E-03 0. -1.
    9900012    2    1    2    0    0  0.61168806938E+01 -0.39460280920E+02  0.76574194635E+01  0.50528854995E+02  0.29999985242E+02 0.  0.
         12    1    1    2    0    0 -0.61168806938E+01  0.39460280920E+02 -0.76574194635E+01  0.40659145005E+02  0.00000000000E+00 0. -1.
         11    1    3    3    0    0  0.95069356491E+01 -0.20063350870E+02  0.77331613602E+01  0.23510033145E+02  0.51100000000E-03 0. -1.
        -11    1    3    3    0    0  0.33196062453E+01  0.19890653067E+01 -0.22886442543E+01  0.44960048045E+01  0.51100000000E-03 0.  1.
        -12    1    3    3    0    0 -0.67096612007E+01 -0.21385995357E+02  0.22129023575E+01  0.22522817046E+02  0.00000000000E+00 0.  1.
</event>
<event>
 7    1  0.3250765E-011  0.5052886E+02  0.7816164E-02  0.1300439E+00
        -11   -1    0    0    0    0  0.00000000000E+00  0.00000000000E+00  0.45593999997E+02  0.45594000000E+02  0.51100000000E-03 0.  1.
         11   -1    0    0    0    0 -0.00000000000E+00 -0.00000000000E+00 -0.45593999997E+02  0.45594000000E+02  0.51100000000E-03 0. -1.
    9900012    2    1    2    0    0  0.19727547020E+02  0.13648225577E+02  0.32828581504E+02  0.50528856669E+02  0.29999990332E+02 0.  0.
         12    1    1    2    0    0 -0.19727547020E+02 -0.13648225577E+02 -0.32828581504E+02  0.40659143331E+02  0.00000000000E+00 0. -1.
         11    1    3    3    0    0 -0.15915704574E+01 -0.34097305671E+01 -0.28766880622E+01  0.47365275814E+01  0.51100000000E-03 0. -1.
        -11    1    3    3    0    0  0.78369661462E+01  0.78187491276E+01  0.81212175929E+01  0.13729714190E+02  0.51100000000E-03 0.  1.
        -12    1    3    3    0    0  0.13482151331E+02  0.92392070168E+01  0.27584051973E+02  0.32062614898E+02  0.00000000000E+00 0.  1.
</event>
<event>
 7    1  0.3250765E-011  0.5052886E+02  0.7816164E-02  0.1300439E+00
        -11   -1    0    0    0    0  0.00000000000E+00  0.00000000000E+00  0.45593999997E+02  0.45594000000E+02  0.51100000000E-03 0.  1.
         11   -1    0    0    0    0 -0.00000000000E+00 -0.00000000000E+00 -0.45593999997E+02  0.45594000000E+02  0.51100000000E-03 0. -1.
    9900012    2    1    2    0    0 -0.23285252813E+02 -0.33237283418E+02  0.24991246228E+01  0.50528860419E+02  0.30000001731E+02 0.  0.
         12    1    1    2    0    0  0.23285252813E+02  0.33237283418E+02 -0.24991246228E+01  0.40659139581E+02  0.00000000000E+00 0. -1.
         11    1    3    3    0    0  0.19865607399E+01 -0.17012552508E+01  0.33678076734E+01  0.42641320087E+01  0.51100000000E-03 0. -1.
        -11    1    3    3    0    0 -0.37503611983E+01 -0.21740584255E+02 -0.39712188003E+01  0.22416261773E+02  0.51100000000E-03 0.  1.
        -12    1    3    3    0    0 -0.21521452354E+02 -0.97954439119E+01  0.31025357497E+01  0.23848466637E+02  0.00000000000E+00 0.  1.
</event>
<event>
 7    1  0.3250765E-011  0.5052887E+02  0.7816164E-02  0.1300439E+00
        -11   -1    0    0    0    0  0.00000000000E+00  0.00000000000E+00  0.45593999997E+02  0.45594000000E+02  0.51100000000E-03 0.  1.
         11   -1    0    0    0    0 -0.00000000000E+00 -0.00000000000E+00 -0.45593999997E+02  0.45594000000E+02  0.51100000000E-03 0. -1.
    9900012    2    1    2    0    0 -0.32699927029E+02 -0.84898443127E+01  0.22623052282E+02  0.50528865987E+02  0.30000018654E+02 0.  0.
         12    1    1    2    0    0  0.32699927029E+02  0.84898443127E+01 -0.22623052282E+02  0.40659134013E+02  0.00000000000E+00 0. -1.
         11    1    3    3    0    0 -0.15686106456E+02 -0.20967045985E+01 -0.43898834196E+01  0.16423190391E+02  0.51100000000E-03 0. -1.
        -11    1    3    3    0    0 -0.86440884661E+01 -0.37079518577E+01  0.55706255468E+01  0.10931653198E+02  0.51100000000E-03 0.  1.
         12    1    3    3    0    0 -0.83697321068E+01 -0.26851878566E+01  0.21442310155E+02  0.23174022399E+02  0.00000000000E+00 0. -1.
</event>
<event>
 7    1  0.3250765E-011  0.5052885E+02  0.7816164E-02  0.1300439E+00
        -11   -1    0    0    0    0  0.00000000000E+00  0.00000000000E+00  0.45593999997E+02  0.45594000000E+02  0.51100000000E-03 0.  1.
         11   -1    0    0    0    0 -0.00000000000E+00 -0.00000000000E+00 -0.45593999997E+02  0.45594000000E+02  0.51100000000E-03 0. -1.
    9900012    2    1    2    0    0 -0.39813498529E+02 -0.32816121353E+01  0.75685192023E+01  0.50528854334E+02  0.29999983235E+02 0.  0.
         12    1    1    2    0    0  0.39813498529E+02  0.32816121353E+01 -0.75685192023E+01  0.40659145666E+02  0.00000000000E+00 0. -1.
         11    1    3    3    0    0 -0.11703487971E+02 -0.10537255102E+02 -0.34759091036E+01  0.16127222952E+02  0.51100000000E-03 0. -1.
        -11    1    3    3    0    0 -0.23339758733E+02 -0.16901168602E+00  0.55005516471E+01  0.23979761704E+02  0.51100000000E-03 0.  1.
         12    1    3    3    0    0 -0.47702518245E+01  0.74246546531E+01  0.55438766588E+01  0.10421869678E+02  0.00000000000E+00 0. -1.
</event>
<event>
 7    1  0.3250765E-011  0.5052886E+02  0.7816164E-02  0.1300439E+00
        -11   -1    0    0    0    0  0.00000000000E+00  0.00000000000E+00  0.45593999997E+02  0.45594000000E+02  0.51100000000E-03 0. -1.
         11   -1    0    0    0    0 -0.00000000000E+00 -0.00000000000E+00 -0.45593999997E+02  0.45594000000E+02  0.51100000000E-03 0.  1.
    9900012    2    1    2    0    0 -0.37392015904E+02 -0.15071880654E+01 -0.15897524512E+02  0.50528858902E+02  0.29999997118E+02 0.  0.
         12    1    1    2    0    0  0.37392015904E+02  0.15071880654E+01  0.15897524512E+02  0.40659141098E+02  0.00000000000E+00 0. -1.
         11    1    3    3    0    0 -0.19285216908E+02 -0.79140851019E+01 -0.70707666648E+01  0.22012452741E+02  0.51100000000E-03 0. -1.
        -11    1    3    3    0    0 -0.15300312743E+02  0.74009947622E+01 -0.14348533047E+02  0.22243081944E+02  0.51100000000E-03 0.  1.
        -12    1    3    3    0    0 -0.28064862535E+01 -0.99409772573E+00  0.55217751997E+01  0.62733242173E+01  0.00000000000E+00 0.  1.
</event>
<event>
 7    1  0.3250765E-011  0.5052885E+02  0.7816164E-02  0.1300439E+00
        -11   -1    0    0    0    0  0.00000000000E+00  0.00000000000E+00  0.45593999997E+02  0.45594000000E+02  0.51100000000E-03 0. -1.
         11   -1    0    0    0    0 -0.00000000000E+00 -0.00000000000E+00 -0.45593999997E+02  0.45594000000E+02  0.51100000000E-03 0.  1.
    9900012    2    1    2    0    0  0.34505479569E+02 -0.31739405775E+00 -0.21504354471E+02  0.50528854405E+02  0.29999983450E+02 0.  0.
         12    1    1    2    0    0 -0.34505479569E+02  0.31739405775E+00  0.21504354471E+02  0.40659145595E+02  0.00000000000E+00 0. -1.
         11    1    3    3    0    0  0.88096400845E+00 -0.26939588538E+01 -0.88551507855E+01  0.92976990479E+01  0.51100000000E-03 0. -1.
        -11    1    3    3    0    0  0.24727845479E+02  0.75670466541E+00 -0.18116952817E+02  0.30663706945E+02  0.51100000000E-03 0.  1.
        -12    1    3    3    0    0  0.88966700812E+01  0.16198601306E+01  0.54677491310E+01  0.10567448412E+02  0.00000000000E+00 0.  1.
</event>
<event>
 7    1  0.3250765E-011  0.5052887E+02  0.7816164E-02  0.1300439E+00
        -11   -1    0    0    0    0  0.00000000000E+00  0.00000000000E+00  0.45593999997E+02  0.45594000000E+02  0.51100000000E-03 0. -1.
         11   -1    0    0    0    0 -0.00000000000E+00 -0.00000000000E+00 -0.45593999997E+02  0.45594000000E+02  0.51100000000E-03 0.  1.
    9900012    2    1    2    0    0  0.16819165085E+02 -0.37015436514E+02  0.37171420304E+00  0.50528867866E+02  0.30000024365E+02 0.  0.
         12    1    1    2    0    0 -0.16819165085E+02  0.37015436514E+02 -0.37171420304E+00  0.40659132134E+02  0.00000000000E+00 0. -1.
         11    1    3    3    0    0 -0.80999770459E-01  0.69736210810E-01  0.36553966747E+01  0.36569590116E+01  0.51100000000E-03 0. -1.
        -11    1    3    3    0    0 -0.64452152514E+00 -0.25143782815E+02  0.11994936602E+01  0.25180627624E+02  0.51100000000E-03 0.  1.
        -12    1    3    3    0    0  0.17544686380E+02 -0.11941389909E+02 -0.44831761318E+01  0.21691281230E+02  0.00000000000E+00 0.  1.
</event>
<event>
 7    1  0.3250765E-011  0.5052886E+02  0.7816164E-02  0.1300439E+00
        -11   -1    0    0    0    0  0.00000000000E+00  0.00000000000E+00  0.45593999997E+02  0.45594000000E+02  0.51100000000E-03 0.  1.
         11   -1    0    0    0    0 -0.00000000000E+00 -0.00000000000E+00 -0.45593999997E+02  0.45594000000E+02  0.51100000000E-03 0. -1.
    9900012    2    1    2    0    0 -0.50295886732E+01  0.19774296716E+02  0.35168823941E+02  0.50528858959E+02  0.29999997291E+02 0.  0.
         12    1    1    2    0    0  0.50295886732E+01 -0.19774296716E+02 -0.35168823941E+02  0.40659141041E+02  0.00000000000E+00 0. -1.
         11    1    3    3    0    0 -0.55953074959E+01  0.17136556368E+01  0.10179015298E+01  0.59397142524E+01  0.51100000000E-03 0. -1.
        -11    1    3    3    0    0  0.82552858511E+01  0.81540365906E+00  0.45023322937E+01  0.94385181016E+01  0.51100000000E-03 0.  1.
        -12    1    3    3    0    0 -0.76895670285E+01  0.17245237420E+02  0.29648590118E+02  0.35150626605E+02  0.00000000000E+00 0.  1.
</event>
<event>
 7    1  0.3250765E-011  0.5052885E+02  0.7816164E-02  0.1300439E+00
        -11   -1    0    0    0    0  0.00000000000E+00  0.00000000000E+00  0.45593999997E+02  0.45594000000E+02  0.51100000000E-03 0.  1.
         11   -1    0    0    0    0 -0.00000000000E+00 -0.00000000000E+00 -0.45593999997E+02  0.45594000000E+02  0.51100000000E-03 0. -1.
    9900012    2    1    2    0    0 -0.30440767738E+02 -0.24221364672E+02  0.11825873399E+02  0.50528854305E+02  0.29999983144E+02 0.  0.
         12    1    1    2    0    0  0.30440767738E+02  0.24221364672E+02 -0.11825873399E+02  0.40659145695E+02  0.00000000000E+00 0. -1.
         11    1    3    3    0    0  0.61815738920E+00 -0.63309117980E+01  0.19809045312E+01  0.66623228513E+01  0.51100000000E-03 0. -1.
        -11    1    3    3    0    0 -0.14471087243E+02 -0.16632606490E+02 -0.37739790983E+01  0.22367362006E+02  0.51100000000E-03 0.  1.
        -12    1    3    3    0    0 -0.16587837884E+02 -0.12578463844E+01  0.13618947967E+02  0.21499169447E+02  0.00000000000E+00 0.  1.
</event>
<event>
 7    1  0.3250765E-011  0.5052886E+02  0.7816164E-02  0.1300439E+00
        -11   -1    0    0    0    0  0.00000000000E+00  0.00000000000E+00  0.45593999997E+02  0.45594000000E+02  0.51100000000E-03 0.  1.
         11   -1    0    0    0    0 -0.00000000000E+00 -0.00000000000E+00 -0.45593999997E+02  0.45594000000E+02  0.51100000000E-03 0. -1.
    9900012    2    1    2    0    0 -0.29496737607E+02  0.10873564411E+02  0.25785143090E+02  0.50528861585E+02  0.30000005275E+02 0.  0.
         12    1    1    2    0    0  0.29496737607E+02 -0.10873564411E+02 -0.25785143090E+02  0.40659138415E+02  0.00000000000E+00 0. -1.
         11    1    3    3    0    0 -0.21201552711E+02  0.84355542283E+01  0.13552501484E+02  0.26539304988E+02  0.51100000000E-03 0. -1.
        -11    1    3    3    0    0 -0.69450212156E+01 -0.49570153463E+01  0.13880905282E+02  0.16293705918E+02  0.51100000000E-03 0.  1.
         12    1    3    3    0    0 -0.13501636803E+01  0.73950255287E+01 -0.16482636763E+01  0.76958506794E+01  0.00000000000E+00 0. -1.
</event>
<event>
 7    1  0.3250765E-011  0.5052883E+02  0.7816164E-02  0.1300439E+00
        -11   -1    0    0    0    0  0.00000000000E+00  0.00000000000E+00  0.45593999997E+02  0.45594000000E+02  0.51100000000E-03 0.  1.
         11   -1    0    0    0    0 -0.00000000000E+00 -0.00000000000E+00 -0.45593999997E+02  0.45594000000E+02  0.51100000000E-03 0. -1.
    9900012    2    1    2    0    0 -0.10393079772E+02 -0.18066775341E+02  0.34910514134E+02  0.50528825446E+02  0.29999895424E+02 0.  0.
         12    1    1    2    0    0  0.10393079772E+02  0.18066775341E+02 -0.34910514134E+02  0.40659174554E+02  0.00000000000E+00 0. -1.
         11    1    3    3    0    0 -0.50779819716E+01  0.21947200293E+01  0.20127959973E+02  0.20874325614E+02  0.51100000000E-03 0.  1.
        -11    1    3    3    0    0  0.33154005527E+01  0.35739629443E+00  0.15301582384E+01  0.36689231978E+01  0.51100000000E-03 0. -1.
        -12    1    3    3    0    0 -0.86304983532E+01 -0.20618891665E+02  0.13252395922E+02  0.25985576634E+02  0.00000000000E+00 0.  1.
</event>
<event>
 7    1  0.3250765E-011  0.5052886E+02  0.7816164E-02  0.1300439E+00
        -11   -1    0    0    0    0  0.00000000000E+00  0.00000000000E+00  0.45593999997E+02  0.45594000000E+02  0.51100000000E-03 0.  1.
         11   -1    0    0    0    0 -0.00000000000E+00 -0.00000000000E+00 -0.45593999997E+02  0.45594000000E+02  0.51100000000E-03 0. -1.
    9900012    2    1    2    0    0 -0.34666336348E+02 -0.19230171778E+02  0.90339144422E+01  0.50528855978E+02  0.29999988232E+02 0.  0.
         12    1    1    2    0    0  0.34666336348E+02  0.19230171778E+02 -0.90339144422E+01  0.40659144022E+02  0.00000000000E+00 0. -1.
         11    1    3    3    0    0 -0.19872220875E+02 -0.43323297696E+01  0.14223291406E+02  0.24818869080E+02  0.51100000000E-03 0. -1.
        -11    1    3    3    0    0  0.12338810106E+01  0.51488074572E+00 -0.30997701140E+01  0.33758168717E+01  0.51100000000E-03 0.  1.
        -12    1    3    3    0    0 -0.16027996484E+02 -0.15412722755E+02 -0.20896068498E+01  0.22334170027E+02  0.00000000000E+00 0.  1.
</event>
<event>
 7    1  0.3250765E-011  0.5052883E+02  0.7816164E-02  0.1300439E+00
        -11   -1    0    0    0    0  0.00000000000E+00  0.00000000000E+00  0.45593999997E+02  0.45594000000E+02  0.51100000000E-03 0.  1.
         11   -1    0    0    0    0 -0.00000000000E+00 -0.00000000000E+00 -0.45593999997E+02  0.45594000000E+02  0.51100000000E-03 0. -1.
    9900012    2    1    2    0    0 -0.22476985618E+02 -0.33824326369E+02  0.19666780689E+01  0.50528834251E+02  0.29999922190E+02 0.  0.
         12    1    1    2    0    0  0.22476985618E+02  0.33824326369E+02 -0.19666780689E+01  0.40659165749E+02  0.00000000000E+00 0. -1.
         11    1    3    3    0    0 -0.97892612472E+01  0.32560347376E+01  0.58920673431E+00  0.10333371319E+02  0.51100000000E-03 0. -1.
        -11    1    3    3    0    0 -0.13530431598E+01 -0.50815474434E+01 -0.28583152265E+01  0.59852164879E+01  0.51100000000E-03 0.  1.
        -12    1    3    3    0    0 -0.11334681211E+02 -0.31998813663E+02  0.42357865611E+01  0.34210246444E+02  0.00000000000E+00 0.  1.
</event>
<event>
 7    1  0.3250765E-011  0.5052884E+02  0.7816164E-02  0.1300439E+00
        -11   -1    0    0    0    0  0.00000000000E+00  0.00000000000E+00  0.45593999997E+02  0.45594000000E+02  0.51100000000E-03 0.  1.
         11   -1    0    0    0    0 -0.00000000000E+00 -0.00000000000E+00 -0.45593999997E+02  0.45594000000E+02  0.51100000000E-03 0. -1.
    9900012    2    1    2    0    0 -0.78162009542E+01  0.31717770568E+02  0.24208614869E+02  0.50528843577E+02  0.29999950537E+02 0.  0.
         12    1    1    2    0    0  0.78162009542E+01 -0.31717770568E+02 -0.24208614869E+02  0.40659156423E+02  0.00000000000E+00 0. -1.
         11    1    3    3    0    0 -0.73011248543E+01  0.10496742964E+02  0.11481598177E+01  0.12837690923E+02  0.51100000000E-03 0. -1.
        -11    1    3    3    0    0 -0.70553592295E+01  0.22100441240E+02  0.18442735255E+02  0.29636836552E+02  0.51100000000E-03 0.  1.
        -12    1    3    3    0    0  0.65402831295E+01 -0.87941363674E+00  0.46177197963E+01  0.80543161023E+01  0.00000000000E+00 0.  1.
</event>
<event>
 7    1  0.3250765E-011  0.5052886E+02  0.7816164E-02  0.1300439E+00
        -11   -1    0    0    0    0  0.00000000000E+00  0.00000000000E+00  0.45593999997E+02  0.45594000000E+02  0.51100000000E-03 0. -1.
         11   -1    0    0    0    0 -0.00000000000E+00 -0.00000000000E+00 -0.45593999997E+02  0.45594000000E+02  0.51100000000E-03 0.  1.
    9900012    2    1    2    0    0 -0.29417245868E+02 -0.23484263002E+02 -0.15371432572E+02  0.50528857086E+02  0.29999991599E+02 0.  0.
         12    1    1    2    0    0  0.29417245868E+02  0.23484263002E+02  0.15371432572E+02  0.40659142914E+02  0.00000000000E+00 0. -1.
         11    1    3    3    0    0 -0.71965849386E+01 -0.32030252036E+00 -0.85273390054E+01  0.11162837420E+02  0.51100000000E-03 0.  1.
        -11    1    3    3    0    0 -0.26612358565E+02 -0.20312290300E+02 -0.66080966100E+01  0.34124385807E+02  0.51100000000E-03 0. -1.
         12    1    3    3    0    0  0.43916976363E+01 -0.28516701810E+01 -0.23599695668E+00  0.52416338591E+01  0.00000000000E+00 0. -1.
</event>
<event>
 7    1  0.3250765E-011  0.5052886E+02  0.7816164E-02  0.1300439E+00
        -11   -1    0    0    0    0  0.00000000000E+00  0.00000000000E+00  0.45593999997E+02  0.45594000000E+02  0.51100000000E-03 0.  1.
         11   -1    0    0    0    0 -0.00000000000E+00 -0.00000000000E+00 -0.45593999997E+02  0.45594000000E+02  0.51100000000E-03 0. -1.
    9900012    2    1    2    0    0  0.56738285383E+01  0.68112594898E+01  0.39680976309E+02  0.50528862442E+02  0.30000007878E+02 0.  0.
         12    1    1    2    0    0 -0.56738285383E+01 -0.68112594898E+01 -0.39680976309E+02  0.40659137558E+02  0.00000000000E+00 0. -1.
         11    1    3    3    0    0  0.78272986570E+01 -0.33117478216E+01  0.62776411902E+01  0.10566127818E+02  0.51100000000E-03 0. -1.
        -11    1    3    3    0    0  0.10644823295E+01 -0.31623724942E+01  0.21737116938E+02  0.21991725159E+02  0.51100000000E-03 0.  1.
         12    1    3    3    0    0 -0.32179524482E+01  0.13285379806E+02  0.11666218181E+02  0.17971009465E+02  0.00000000000E+00 0. -1.
</event>
<event>
 7    1  0.3250765E-011  0.5052886E+02  0.7816164E-02  0.1300439E+00
        -11   -1    0    0    0    0  0.00000000000E+00  0.00000000000E+00  0.45593999997E+02  0.45594000000E+02  0.51100000000E-03 0.  1.
         11   -1    0    0    0    0 -0.00000000000E+00 -0.00000000000E+00 -0.45593999997E+02  0.45594000000E+02  0.51100000000E-03 0. -1.
    9900012    2    1    2    0    0  0.79126022475E+00  0.35785767805E+02  0.19285182832E+02  0.50528861458E+02  0.30000004888E+02 0.  0.
         12    1    1    2    0    0 -0.79126022475E+00 -0.35785767805E+02 -0.19285182832E+02  0.40659138542E+02  0.00000000000E+00 0. -1.
         11    1    3    3    0    0 -0.14216736507E+01  0.16073924379E+02 -0.28202964136E+01  0.16381278125E+02  0.51100000000E-03 0. -1.
        -11    1    3    3    0    0 -0.69555499450E+01  0.98197330654E+01  0.71026583603E+01  0.13973352803E+02  0.51100000000E-03 0.  1.
        -12    1    3    3    0    0  0.91684838205E+01  0.98921103608E+01  0.15002820885E+02  0.20174230530E+02  0.00000000000E+00 0.  1.
</event>
<event>
 7    1  0.3250765E-011  0.5052886E+02  0.7816164E-02  0.1300439E+00
        -11   -1    0    0    0    0  0.00000000000E+00  0.00000000000E+00  0.45593999997E+02  0.45594000000E+02  0.51100000000E-03 0. -1.
         11   -1    0    0    0    0 -0.00000000000E+00 -0.00000000000E+00 -0.45593999997E+02  0.45594000000E+02  0.51100000000E-03 0.  1.
    9900012    2    1    2    0    0 -0.17455767710E+02 -0.31580459555E+02 -0.18738639116E+02  0.50528857756E+02  0.29999993637E+02 0.  0.
         12    1    1    2    0    0  0.17455767710E+02  0.31580459555E+02  0.18738639116E+02  0.40659142244E+02  0.00000000000E+00 0. -1.
         11    1    3    3    0    0 -0.49017044071E+01 -0.19828774946E+01  0.97625193034E+00  0.53769487022E+01  0.51100000000E-03 0. -1.
        -11    1    3    3    0    0 -0.10191246150E+02 -0.29303048748E+02 -0.64667199964E+01  0.31691459919E+02  0.51100000000E-03 0.  1.
        -12    1    3    3    0    0 -0.23628171521E+01 -0.29453331316E+00 -0.13248171050E+02  0.13460449136E+02  0.00000000000E+00 0.  1.
</event>
<event>
 7    1  0.3250765E-011  0.5052886E+02  0.7816164E-02  0.1300439E+00
        -11   -1    0    0    0    0  0.00000000000E+00  0.00000000000E+00  0.45593999997E+02  0.45594000000E+02  0.51100000000E-03 0.  1.
         11   -1    0    0    0    0 -0.00000000000E+00 -0.00000000000E+00 -0.45593999997E+02  0.45594000000E+02  0.51100000000E-03 0. -1.
    9900012    2    1    2    0    0  0.34525066136E+02  0.13086637466E+02  0.17027184724E+02  0.50528864600E+02  0.30000014438E+02 0.  0.
         12    1    1    2    0    0 -0.34525066136E+02 -0.13086637466E+02 -0.17027184724E+02  0.40659135400E+02  0.00000000000E+00 0. -1.
         11    1    3    3    0    0  0.19302283679E+01  0.15221185260E+01 -0.33117579114E+01  0.41243626276E+01  0.51100000000E-03 0. -1.
        -11    1    3    3    0    0  0.14389605091E+02  0.13815560083E+02  0.13370397277E+01  0.19992951523E+02  0.51100000000E-03 0.  1.
        -12    1    3    3    0    0  0.18205232677E+02 -0.22510411432E+01  0.19001902907E+02  0.26411550450E+02  0.00000000000E+00 0.  1.
</event>
<event>
 7    1  0.3250765E-011  0.5052886E+02  0.7816164E-02  0.1300439E+00
        -11   -1    0    0    0    0  0.00000000000E+00  0.00000000000E+00  0.45593999997E+02  0.45594000000E+02  0.51100000000E-03 0.  1.
         11   -1    0    0    0    0 -0.00000000000E+00 -0.00000000000E+00 -0.45593999997E+02  0.45594000000E+02  0.51100000000E-03 0. -1.
    9900012    2    1    2    0    0  0.14777125558E+02  0.79721503600E+01  0.37030352043E+02  0.50528860885E+02  0.30000003147E+02 0.  0.
         12    1    1    2    0    0 -0.14777125558E+02 -0.79721503600E+01 -0.37030352043E+02  0.40659139115E+02  0.00000000000E+00 0. -1.
         11    1    3    3    0    0 -0.74389310155E+00  0.66215705693E+01  0.62134709701E+01  0.91107516434E+01  0.51100000000E-03 0. -1.
        -11    1    3    3    0    0  0.36866146114E+00 -0.56490557203E+00 -0.36537467915E+01  0.37154939719E+01  0.51100000000E-03 0.  1.
        -12    1    3    3    0    0  0.15152357199E+02  0.19154853627E+01  0.34470627864E+02  0.37702615270E+02  0.00000000000E+00 0.  1.
</event>
<event>
 7    1  0.3250765E-011  0.5052886E+02  0.7816164E-02  0.1300439E+00
        -11   -1    0    0    0    0  0.00000000000E+00  0.00000000000E+00  0.45593999997E+02  0.45594000000E+02  0.51100000000E-03 0.  1.
         11   -1    0    0    0    0 -0.00000000000E+00 -0.00000000000E+00 -0.45593999997E+02  0.45594000000E+02  0.51100000000E-03 0. -1.
    9900012    2    1    2    0    0  0.20664928733E+00 -0.40617883223E+02  0.18194501511E+01  0.50528861540E+02  0.30000005138E+02 0.  0.
         12    1    1    2    0    0 -0.20664928733E+00  0.40617883223E+02 -0.18194501511E+01  0.40659138460E+02  0.00000000000E+00 0. -1.
         11    1    3    3    0    0 -0.82263505579E+01 -0.26128404465E+01  0.43995052454E+01  0.96879009783E+01  0.51100000000E-03 0. -1.
        -11    1    3    3    0    0 -0.25902893814E+01 -0.13781985130E+02  0.61348612078E+00  0.14036704694E+02  0.51100000000E-03 0.  1.
         12    1    3    3    0    0  0.11023289227E+02 -0.24223057647E+02 -0.31935412152E+01  0.26804255868E+02  0.00000000000E+00 0. -1.
</event>
<event>
 7    1  0.3250765E-011  0.5052888E+02  0.7816164E-02  0.1300439E+00
        -11   -1    0    0    0    0  0.00000000000E+00  0.00000000000E+00  0.45593999997E+02  0.45594000000E+02  0.51100000000E-03 0. -1.
         11   -1    0    0    0    0 -0.00000000000E+00 -0.00000000000E+00 -0.45593999997E+02  0.45594000000E+02  0.51100000000E-03 0.  1.
    9900012    2    1    2    0    0  0.17713055074E+02  0.10310440228E+02 -0.35115620673E+02  0.50528876633E+02  0.30000051013E+02 0.  0.
         12    1    1    2    0    0 -0.17713055074E+02 -0.10310440228E+02  0.35115620673E+02  0.40659123367E+02  0.00000000000E+00 0. -1.
         11    1    3    3    0    0  0.11408588235E+02  0.11966453691E+02 -0.68595338225E+01  0.17899863239E+02  0.51100000000E-03 0. -1.
        -11    1    3    3    0    0  0.60112941042E+01  0.45681138762E+01 -0.23799249235E+02  0.24968131400E+02  0.51100000000E-03 0.  1.
         12    1    3    3    0    0  0.29317273469E+00 -0.62241273398E+01 -0.44568376156E+01  0.76608819940E+01  0.00000000000E+00 0. -1.
</event>
<event>
 7    1  0.3250765E-011  0.5052885E+02  0.7816164E-02  0.1300439E+00
        -11   -1    0    0    0    0  0.00000000000E+00  0.00000000000E+00  0.45593999997E+02  0.45594000000E+02  0.51100000000E-03 0.  1.
         11   -1    0    0    0    0 -0.00000000000E+00 -0.00000000000E+00 -0.45593999997E+02  0.45594000000E+02  0.51100000000E-03 0. -1.
    9900012    2    1    2    0    0  0.34465727694E+02  0.21939270164E+01  0.21458495628E+02  0.50528846838E+02  0.29999960449E+02 0.  0.
         12    1    1    2    0    0 -0.34465727694E+02 -0.21939270164E+01 -0.21458495628E+02  0.40659153162E+02  0.00000000000E+00 0. -1.
         11    1    3    3    0    0  0.28000084875E+00 -0.32741429980E+01 -0.91638411228E+00  0.34114766523E+01  0.51100000000E-03 0. -1.
        -11    1    3    3    0    0  0.28428971890E+02 -0.50845428420E+01  0.19215016612E+02  0.34688267213E+02  0.51100000000E-03 0.  1.
         12    1    3    3    0    0  0.57567549554E+01  0.10552612856E+02  0.31598631288E+01  0.12429102973E+02  0.00000000000E+00 0. -1.
</event>
<event>
 7    1  0.3250765E-011  0.5052886E+02  0.7816164E-02  0.1300439E+00
        -11   -1    0    0    0    0  0.00000000000E+00  0.00000000000E+00  0.45593999997E+02  0.45594000000E+02  0.51100000000E-03 0.  1.
         11   -1    0    0    0    0 -0.00000000000E+00 -0.00000000000E+00 -0.45593999997E+02  0.45594000000E+02  0.51100000000E-03 0. -1.
    9900012    2    1    2    0    0 -0.26915458394E+02  0.75203875780E+01  0.29532486362E+02  0.50528857356E+02  0.29999992418E+02 0.  0.
         12    1    1    2    0    0  0.26915458394E+02 -0.75203875780E+01 -0.29532486362E+02  0.40659142644E+02  0.00000000000E+00 0. -1.
         11    1    3    3    0    0 -0.20762680082E+02 -0.22945402687E+01  0.64938549414E+01  0.21875190319E+02  0.51100000000E-03 0. -1.
        -11    1    3    3    0    0 -0.82975076305E+01  0.52776782064E+01  0.76250193452E+01  0.12443610425E+02  0.51100000000E-03 0.  1.
        -12    1    3    3    0    0  0.21447293189E+01  0.45372496403E+01  0.15413612075E+02  0.16210056612E+02  0.00000000000E+00 0.  1.
</event>
<event>
 7    1  0.3250765E-011  0.5052884E+02  0.7816164E-02  0.1300439E+00
        -11   -1    0    0    0    0  0.00000000000E+00  0.00000000000E+00  0.45593999997E+02  0.45594000000E+02  0.51100000000E-03 0.  1.
         11   -1    0    0    0    0 -0.00000000000E+00 -0.00000000000E+00 -0.45593999997E+02  0.45594000000E+02  0.51100000000E-03 0. -1.
    9900012    2    1    2    0    0  0.24716629469E+02 -0.77393648136E+01  0.31342586455E+02  0.50528840322E+02  0.29999940643E+02 0.  0.
         12    1    1    2    0    0 -0.24716629469E+02  0.77393648136E+01 -0.31342586455E+02  0.40659159678E+02  0.00000000000E+00 0. -1.
         11    1    3    3    0    0 -0.96857481799E+00 -0.67168169739E+01  0.10506291911E+01  0.68671383703E+01  0.51100000000E-03 0. -1.
        -11    1    3    3    0    0  0.10858008960E+02  0.18096013938E+00  0.11217355246E+01  0.10917298017E+02  0.51100000000E-03 0.  1.
         12    1    3    3    0    0  0.14827195327E+02 -0.12035079791E+01  0.29170221739E+02  0.32744403934E+02  0.00000000000E+00 0. -1.
</event>
<event>
 7    1  0.3250765E-011  0.5052885E+02  0.7816164E-02  0.1300439E+00
        -11   -1    0    0    0    0  0.00000000000E+00  0.00000000000E+00  0.45593999997E+02  0.45594000000E+02  0.51100000000E-03 0. -1.
         11   -1    0    0    0    0 -0.00000000000E+00 -0.00000000000E+00 -0.45593999997E+02  0.45594000000E+02  0.51100000000E-03 0.  1.
    9900012    2    1    2    0    0  0.32837073376E+02  0.14450934248E+02 -0.19132788750E+02  0.50528849813E+02  0.29999969492E+02 0.  0.
         12    1    1    2    0    0 -0.32837073376E+02 -0.14450934248E+02  0.19132788750E+02  0.40659150187E+02  0.00000000000E+00 0. -1.
         11    1    3    3    0    0  0.13029733900E+02  0.12901295278E+02 -0.17448690103E+02  0.25311542267E+02  0.51100000000E-03 0. -1.
        -11    1    3    3    0    0 -0.31239812010E-01  0.50209256256E+01 -0.33441686386E+00  0.50321471524E+01  0.51100000000E-03 0.  1.
        -12    1    3    3    0    0  0.19838579288E+02 -0.34712866557E+01 -0.13496817833E+01  0.20185160394E+02  0.00000000000E+00 0.  1.
</event>
<event>
 7    1  0.3250765E-011  0.5052886E+02  0.7816164E-02  0.1300439E+00
        -11   -1    0    0    0    0  0.00000000000E+00  0.00000000000E+00  0.45593999997E+02  0.45594000000E+02  0.51100000000E-03 0.  1.
         11   -1    0    0    0    0 -0.00000000000E+00 -0.00000000000E+00 -0.45593999997E+02  0.45594000000E+02  0.51100000000E-03 0. -1.
    9900012    2    1    2    0    0 -0.24569149218E+02 -0.29419123154E+02  0.13566055301E+02  0.50528858877E+02  0.29999997044E+02 0.  0.
         12    1    1    2    0    0  0.24569149218E+02  0.29419123154E+02 -0.13566055301E+02  0.40659141123E+02  0.00000000000E+00 0. -1.
         11    1    3    3    0    0 -0.14206385598E+02 -0.15805928710E+02  0.20264387432E+01  0.21348424494E+02  0.51100000000E-03 0. -1.
        -11    1    3    3    0    0 -0.10074894238E+02 -0.18482752872E+02  0.12083856644E+02  0.24272108258E+02  0.51100000000E-03 0.  1.
        -12    1    3    3    0    0 -0.28786938151E+00  0.48695584288E+01 -0.54424008686E+00  0.49083261245E+01  0.00000000000E+00 0.  1.
</event>
<event>
 7    1  0.3250765E-011  0.5052886E+02  0.7816164E-02  0.1300439E+00
        -11   -1    0    0    0    0  0.00000000000E+00  0.00000000000E+00  0.45593999997E+02  0.45594000000E+02  0.51100000000E-03 0.  1.
         11   -1    0    0    0    0 -0.00000000000E+00 -0.00000000000E+00 -0.45593999997E+02  0.45594000000E+02  0.51100000000E-03 0. -1.
    9900012    2    1    2    0    0 -0.23697286380E+02 -0.19919533314E+02  0.26359370228E+02  0.50528860953E+02  0.30000003352E+02 0.  0.
         12    1    1    2    0    0  0.23697286380E+02  0.19919533314E+02 -0.26359370228E+02  0.40659139047E+02  0.00000000000E+00 0. -1.
         11    1    3    3    0    0  0.48596615998E+01  0.19328756254E+01  0.60171783824E+01  0.79723744891E+01  0.51100000000E-03 0. -1.
        -11    1    3    3    0    0 -0.20629384753E+01  0.10318497144E+01  0.18924123739E+01  0.29835639494E+01  0.51100000000E-03 0.  1.
        -12    1    3    3    0    0 -0.26494009504E+02 -0.22884258654E+02  0.18449779472E+02  0.39572922514E+02  0.00000000000E+00 0.  1.
</event>
<event>
 7    1  0.3250765E-011  0.5052886E+02  0.7816164E-02  0.1300439E+00
        -11   -1    0    0    0    0  0.00000000000E+00  0.00000000000E+00  0.45593999997E+02  0.45594000000E+02  0.51100000000E-03 0.  1.
         11   -1    0    0    0    0 -0.00000000000E+00 -0.00000000000E+00 -0.45593999997E+02  0.45594000000E+02  0.51100000000E-03 0. -1.
    9900012    2    1    2    0    0  0.30483135586E+02 -0.13946618016E+00  0.26905844706E+02  0.50528862216E+02  0.30000007192E+02 0.  0.
         12    1    1    2    0    0 -0.30483135586E+02  0.13946618016E+00 -0.26905844706E+02  0.40659137784E+02  0.00000000000E+00 0. -1.
         11    1    3    3    0    0 -0.28809174352E+01 -0.13474459525E+00  0.45724685131E+01  0.54060438344E+01  0.51100000000E-03 0. -1.
        -11    1    3    3    0    0  0.16156761287E+02 -0.90127802720E+01  0.16640133973E+02  0.24883030411E+02  0.51100000000E-03 0.  1.
         12    1    3    3    0    0  0.17207291734E+02  0.90080586871E+01  0.56932422199E+01  0.20239787971E+02  0.00000000000E+00 0. -1.
</event>
<event>
 7    1  0.3250765E-011  0.5052886E+02  0.7816164E-02  0.1300439E+00
        -11   -1    0    0    0    0  0.00000000000E+00  0.00000000000E+00  0.45593999997E+02  0.45594000000E+02  0.51100000000E-03 0. -1.
         11   -1    0    0    0    0 -0.00000000000E+00 -0.00000000000E+00 -0.45593999997E+02  0.45594000000E+02  0.51100000000E-03 0.  1.
    9900012    2    1    2    0    0 -0.27781567576E+02  0.20901888746E+02 -0.21082244062E+02  0.50528862469E+02  0.30000007960E+02 0.  0.
         12    1    1    2    0    0  0.27781567576E+02 -0.20901888746E+02  0.21082244062E+02  0.40659137531E+02  0.00000000000E+00 0. -1.
         11    1    3    3    0    0 -0.17926666999E+02  0.34320648402E+01 -0.11862610065E+02  0.21768462890E+02  0.51100000000E-03 0. -1.
        -11    1    3    3    0    0 -0.96092394825E+01  0.19079596648E+00 -0.11218214521E+01  0.96763820803E+01  0.51100000000E-03 0.  1.
         12    1    3    3    0    0 -0.24566109406E+00  0.17279027939E+02 -0.80978125447E+01  0.19084017499E+02  0.00000000000E+00 0. -1.
</event>
<event>
 7    1  0.3250765E-011  0.5052885E+02  0.7816164E-02  0.1300439E+00
        -11   -1    0    0    0    0  0.00000000000E+00  0.00000000000E+00  0.45593999997E+02  0.45594000000E+02  0.51100000000E-03 0.  1.
         11   -1    0    0    0    0 -0.00000000000E+00 -0.00000000000E+00 -0.45593999997E+02  0.45594000000E+02  0.51100000000E-03 0. -1.
    9900012    2    1    2    0    0 -0.10249118319E+02  0.33456494568E+02 -0.20707123984E+02  0.50528850492E+02  0.29999971554E+02 0.  0.
         12    1    1    2    0    0  0.10249118319E+02 -0.33456494568E+02  0.20707123984E+02  0.40659149508E+02  0.00000000000E+00 0. -1.
         11    1    3    3    0    0  0.61458226768E+01  0.24628444898E+02 -0.93089278038E+01  0.27036781828E+02  0.51100000000E-03 0. -1.
        -11    1    3    3    0    0 -0.73923449996E+01  0.85995995766E+01 -0.47326347737E+01  0.12288112533E+02  0.51100000000E-03 0.  1.
        -12    1    3    3    0    0 -0.90025959962E+01  0.22845009291E+00 -0.66655614061E+01  0.11203956131E+02  0.00000000000E+00 0.  1.
</event>
<event>
 7    1  0.3250765E-011  0.5052889E+02  0.7816164E-02  0.1300439E+00
        -11   -1    0    0    0    0  0.00000000000E+00  0.00000000000E+00  0.45593999997E+02  0.45594000000E+02  0.51100000000E-03 0.  1.
         11   -1    0    0    0    0 -0.00000000000E+00 -0.00000000000E+00 -0.45593999997E+02  0.45594000000E+02  0.51100000000E-03 0. -1.
    9900012    2    1    2    0    0 -0.31138404858E+02  0.25366481857E+02 -0.63328073542E+01  0.50528891452E+02  0.30000096057E+02 0.  0.
         12    1    1    2    0    0  0.31138404858E+02 -0.25366481857E+02  0.63328073542E+01  0.40659108548E+02  0.00000000000E+00 0. -1.
         11    1    3    3    0    0 -0.19643253736E+02  0.40060590113E+01  0.28634837717E+01  0.20251060854E+02  0.51100000000E-03 0. -1.
        -11    1    3    3    0    0 -0.67106115257E+01  0.14331991932E+02  0.22868403980E+01  0.15989619728E+02  0.51100000000E-03 0.  1.
         12    1    3    3    0    0 -0.47845395963E+01  0.70284309141E+01 -0.11483131524E+02  0.14288210870E+02  0.00000000000E+00 0. -1.
</event>
<event>
 7    1  0.3250765E-011  0.5052886E+02  0.7816164E-02  0.1300439E+00
        -11   -1    0    0    0    0  0.00000000000E+00  0.00000000000E+00  0.45593999997E+02  0.45594000000E+02  0.51100000000E-03 0.  1.
         11   -1    0    0    0    0 -0.00000000000E+00 -0.00000000000E+00 -0.45593999997E+02  0.45594000000E+02  0.51100000000E-03 0. -1.
    9900012    2    1    2    0    0 -0.38032196812E+02  0.12495967447E+02 -0.71111553397E+01  0.50528859244E+02  0.29999998157E+02 0.  0.
         12    1    1    2    0    0  0.38032196812E+02 -0.12495967447E+02  0.71111553397E+01  0.40659140756E+02  0.00000000000E+00 0. -1.
         11    1    3    3    0    0 -0.26848597959E+02  0.11631344205E+02 -0.21663052748E+01  0.29339874900E+02  0.51100000000E-03 0.  1.
        -11    1    3    3    0    0 -0.13444748535E+02  0.12338769748E+01 -0.92127664509E+01  0.16344992551E+02  0.51100000000E-03 0. -1.
        -12    1    3    3    0    0  0.22611496821E+01 -0.36925373283E+00  0.42679163860E+01  0.48439917921E+01  0.00000000000E+00 0.  1.
</event>
<event>
 7    1  0.3250765E-011  0.5052886E+02  0.7816164E-02  0.1300439E+00
        -11   -1    0    0    0    0  0.00000000000E+00  0.00000000000E+00  0.45593999997E+02  0.45594000000E+02  0.51100000000E-03 0. -1.
         11   -1    0    0    0    0 -0.00000000000E+00 -0.00000000000E+00 -0.45593999997E+02  0.45594000000E+02  0.51100000000E-03 0.  1.
    9900012    2    1    2    0    0  0.17526304091E+00  0.96505187150E+01 -0.39496862476E+02  0.50528863585E+02  0.30000011353E+02 0.  0.
         12    1    1    2    0    0 -0.17526304091E+00 -0.96505187150E+01  0.39496862476E+02  0.40659136415E+02  0.00000000000E+00 0. -1.
         11    1    3    3    0    0  0.12051524187E+01 -0.56271523277E+01 -0.67780562065E+01  0.88915286577E+01  0.51100000000E-03 0. -1.
        -11    1    3    3    0    0  0.46052556502E+01  0.10319510202E+02 -0.32186471975E+02  0.34112602493E+02  0.51100000000E-03 0.  1.
         12    1    3    3    0    0 -0.56351450280E+01  0.49581608403E+01 -0.53233429452E+00  0.75247324342E+01  0.00000000000E+00 0. -1.
</event>
<event>
 7    1  0.3250765E-011  0.5052885E+02  0.7816164E-02  0.1300439E+00
        -11   -1    0    0    0    0  0.00000000000E+00  0.00000000000E+00  0.45593999997E+02  0.45594000000E+02  0.51100000000E-03 0. -1.
         11   -1    0    0    0    0 -0.00000000000E+00 -0.00000000000E+00 -0.45593999997E+02  0.45594000000E+02  0.51100000000E-03 0.  1.
    9900012    2    1    2    0    0  0.29700671531E+02 -0.10041868655E+02 -0.25888164829E+02  0.50528854735E+02  0.29999984452E+02 0.  0.
         12    1    1    2    0    0 -0.29700671531E+02  0.10041868655E+02  0.25888164829E+02  0.40659145265E+02  0.00000000000E+00 0. -1.
         11    1    3    3    0    0  0.11868527018E+02  0.26929346638E+01 -0.54020983143E+01  0.13315273077E+02  0.51100000000E-03 0. -1.
        -11    1    3    3    0    0 -0.23363537984E+01  0.22080163570E+01 -0.90997007213E+01  0.96508258083E+01  0.51100000000E-03 0.  1.
        -12    1    3    3    0    0  0.20168498312E+02 -0.14942819676E+02 -0.11386365793E+02  0.27562755849E+02  0.00000000000E+00 0.  1.
</event>
<event>
 7    1  0.3250765E-011  0.5052885E+02  0.7816164E-02  0.1300439E+00
        -11   -1    0    0    0    0  0.00000000000E+00  0.00000000000E+00  0.45593999997E+02  0.45594000000E+02  0.51100000000E-03 0. -1.
         11   -1    0    0    0    0 -0.00000000000E+00 -0.00000000000E+00 -0.45593999997E+02  0.45594000000E+02  0.51100000000E-03 0.  1.
    9900012    2    1    2    0    0  0.23500428246E+02 -0.67893449117E+01 -0.32477699109E+02  0.50528852548E+02  0.29999977805E+02 0.  0.
         12    1    1    2    0    0 -0.23500428246E+02  0.67893449117E+01  0.32477699109E+02  0.40659147452E+02  0.00000000000E+00 0. -1.
         11    1    3    3    0    0  0.76538137034E+01 -0.65056488646E+01 -0.19865576619E+02  0.22260850523E+02  0.51100000000E-03 0. -1.
        -11    1    3    3    0    0 -0.15053070088E+01 -0.45530872250E+01  0.19892310649E+01  0.51916849827E+01  0.51100000000E-03 0.  1.
        -12    1    3    3    0    0  0.17351921552E+02  0.42693911779E+01 -0.14601353555E+02  0.23076317042E+02  0.00000000000E+00 0.  1.
</event>
<event>
 7    1  0.3250765E-011  0.5052886E+02  0.7816164E-02  0.1300439E+00
        -11   -1    0    0    0    0  0.00000000000E+00  0.00000000000E+00  0.45593999997E+02  0.45594000000E+02  0.51100000000E-03 0.  1.
         11   -1    0    0    0    0 -0.00000000000E+00 -0.00000000000E+00 -0.45593999997E+02  0.45594000000E+02  0.51100000000E-03 0. -1.
    9900012    2    1    2    0    0  0.32153114752E+02  0.10477859953E+02  0.22573382234E+02  0.50528856834E+02  0.29999990834E+02 0.  0.
         12    1    1    2    0    0 -0.32153114752E+02 -0.10477859953E+02 -0.22573382234E+02  0.40659143166E+02  0.00000000000E+00 0. -1.
         11    1    3    3    0    0 -0.42676216823E+00 -0.26986893946E+01  0.56603524690E+01  0.62852717309E+01  0.51100000000E-03 0. -1.
        -11    1    3    3    0    0  0.26810102530E+02  0.34778682731E+00  0.11401217038E+02  0.29135722122E+02  0.51100000000E-03 0.  1.
         12    1    3    3    0    0  0.57697743899E+01  0.12828762521E+02  0.55118127273E+01  0.15107862981E+02  0.00000000000E+00 0. -1.
</event>
<event>
 7    1  0.3250765E-011  0.5052889E+02  0.7816164E-02  0.1300439E+00
        -11   -1    0    0    0    0  0.00000000000E+00  0.00000000000E+00  0.45593999997E+02  0.45594000000E+02  0.51100000000E-03 0.  1.
         11   -1    0    0    0    0 -0.00000000000E+00 -0.00000000000E+00 -0.45593999997E+02  0.45594000000E+02  0.51100000000E-03 0. -1.
    9900012    2    1    2    0    0 -0.37495789561E+00 -0.15342353807E+02  0.37651496129E+02  0.50528885714E+02  0.30000078616E+02 0.  0.
         12    1    1    2    0    0  0.37495789561E+00  0.15342353807E+02 -0.37651496129E+02  0.40659114286E+02  0.00000000000E+00 0. -1.
         11    1    3    3    0    0 -0.94353373946E+01 -0.67683536210E+01  0.26934704529E+02  0.29331118472E+02  0.51100000000E-03 0.  1.
        -11    1    3    3    0    0  0.27231152873E+01  0.71807354452E+00  0.94719107566E+01  0.98817043128E+01  0.51100000000E-03 0. -1.
        -12    1    3    3    0    0  0.63372642117E+01 -0.92920737308E+01  0.12448808436E+01  0.11316062929E+02  0.00000000000E+00 0.  1.
</event>
<event>
 7    1  0.3250765E-011  0.5052886E+02  0.7816164E-02  0.1300439E+00
        -11   -1    0    0    0    0  0.00000000000E+00  0.00000000000E+00  0.45593999997E+02  0.45594000000E+02  0.51100000000E-03 0.  1.
         11   -1    0    0    0    0 -0.00000000000E+00 -0.00000000000E+00 -0.45593999997E+02  0.45594000000E+02  0.51100000000E-03 0. -1.
    9900012    2    1    2    0    0  0.31875410917E+02  0.86641103719E+01  0.23707738298E+02  0.50528862222E+02  0.30000007209E+02 0.  0.
         12    1    1    2    0    0 -0.31875410917E+02 -0.86641103719E+01 -0.23707738298E+02  0.40659137778E+02  0.00000000000E+00 0. -1.
         11    1    3    3    0    0  0.40614231770E+01  0.27848142721E+01  0.10268427169E+01  0.50303831841E+01  0.51100000000E-03 0. -1.
        -11    1    3    3    0    0  0.21082177114E+02 -0.89531882397E+01  0.15746881378E+02  0.27795360133E+02  0.51100000000E-03 0.  1.
        -12    1    3    3    0    0  0.67318106258E+01  0.14832484339E+02  0.69340142036E+01  0.17703118905E+02  0.00000000000E+00 0.  1.
</event>
<event>
 7    1  0.3250765E-011  0.5052885E+02  0.7816164E-02  0.1300439E+00
        -11   -1    0    0    0    0  0.00000000000E+00  0.00000000000E+00  0.45593999997E+02  0.45594000000E+02  0.51100000000E-03 0. -1.
         11   -1    0    0    0    0 -0.00000000000E+00 -0.00000000000E+00 -0.45593999997E+02  0.45594000000E+02  0.51100000000E-03 0.  1.
    9900012    2    1    2    0    0  0.22420745273E+02 -0.17556707370E+02 -0.29021346355E+02  0.50528851748E+02  0.29999975373E+02 0.  0.
         12    1    1    2    0    0 -0.22420745273E+02  0.17556707370E+02  0.29021346355E+02  0.40659148252E+02  0.00000000000E+00 0. -1.
         11    1    3    3    0    0  0.41041249040E+01 -0.56000286257E+01  0.45513681973E+00  0.69578237706E+01  0.51100000000E-03 0. -1.
        -11    1    3    3    0    0  0.98463141489E+01  0.63638101193E+01 -0.86556177460E+01  0.14572841191E+02  0.51100000000E-03 0.  1.
        -12    1    3    3    0    0  0.84703062205E+01 -0.18320488864E+02 -0.20820865429E+02  0.28998186786E+02  0.00000000000E+00 0.  1.
</event>
<event>
 7    1  0.3250765E-011  0.5052886E+02  0.7816164E-02  0.1300439E+00
        -11   -1    0    0    0    0  0.00000000000E+00  0.00000000000E+00  0.45593999997E+02  0.45594000000E+02  0.51100000000E-03 0. -1.
         11   -1    0    0    0    0 -0.00000000000E+00 -0.00000000000E+00 -0.45593999997E+02  0.45594000000E+02  0.51100000000E-03 0.  1.
    9900012    2    1    2    0    0 -0.32412743568E+02 -0.21041302829E+02 -0.12642927802E+02  0.50528855964E+02  0.29999988188E+02 0.  0.
         12    1    1    2    0    0  0.32412743568E+02  0.21041302829E+02  0.12642927802E+02  0.40659144036E+02  0.00000000000E+00 0. -1.
         11    1    3    3    0    0 -0.80169500823E+01 -0.52520262240E+01  0.40055928977E+01  0.10387494539E+02  0.51100000000E-03 0. -1.
        -11    1    3    3    0    0 -0.27177386798E+02 -0.18201498706E+02 -0.15961020690E+02  0.36395866387E+02  0.51100000000E-03 0.  1.
         12    1    3    3    0    0  0.27815933125E+01  0.24122221006E+01 -0.68750000928E+00  0.37454950383E+01  0.00000000000E+00 0. -1.
</event>
<event>
 7    1  0.3250765E-011  0.5052885E+02  0.7816164E-02  0.1300439E+00
        -11   -1    0    0    0    0  0.00000000000E+00  0.00000000000E+00  0.45593999997E+02  0.45594000000E+02  0.51100000000E-03 0.  1.
         11   -1    0    0    0    0 -0.00000000000E+00 -0.00000000000E+00 -0.45593999997E+02  0.45594000000E+02  0.51100000000E-03 0. -1.
    9900012    2    1    2    0    0 -0.54112120229E+01 -0.18947194254E+02  0.35565274895E+02  0.50528853870E+02  0.29999981823E+02 0.  0.
         12    1    1    2    0    0  0.54112120229E+01  0.18947194254E+02 -0.35565274895E+02  0.40659146130E+02  0.00000000000E+00 0. -1.
         11    1    3    3    0    0  0.67876189249E+01 -0.63972333950E+01  0.54759352452E+01  0.10815832508E+02  0.51100000000E-03 0. -1.
        -11    1    3    3    0    0  0.23032870447E+01  0.13010965346E+01  0.13294788191E+02  0.13555418721E+02  0.51100000000E-03 0.  1.
        -12    1    3    3    0    0 -0.14502117993E+02 -0.13851057394E+02  0.16794551459E+02  0.26157602641E+02  0.00000000000E+00 0.  1.
</event>
<event>
 7    1  0.3250765E-011  0.5052886E+02  0.7816164E-02  0.1300439E+00
        -11   -1    0    0    0    0  0.00000000000E+00  0.00000000000E+00  0.45593999997E+02  0.45594000000E+02  0.51100000000E-03 0.  1.
         11   -1    0    0    0    0 -0.00000000000E+00 -0.00000000000E+00 -0.45593999997E+02  0.45594000000E+02  0.51100000000E-03 0. -1.
    9900012    2    1    2    0    0 -0.15769277907E+02 -0.35766249440E+02  0.11192462634E+02  0.50528856569E+02  0.29999990028E+02 0.  0.
         12    1    1    2    0    0  0.15769277907E+02  0.35766249440E+02 -0.11192462634E+02  0.40659143431E+02  0.00000000000E+00 0. -1.
         11    1    3    3    0    0 -0.15172353152E+02 -0.33206200944E+02  0.14487549016E+01  0.36536980887E+02  0.51100000000E-03 0.  1.
        -11    1    3    3    0    0  0.20990117309E+01  0.40256546121E+00 -0.11201941919E+01  0.24130363622E+01  0.51100000000E-03 0. -1.
        -12    1    3    3    0    0 -0.26959364858E+01 -0.29626139574E+01  0.10863901924E+02  0.11578839320E+02  0.00000000000E+00 0.  1.
</event>
<event>
 7    1  0.3250765E-011  0.5052885E+02  0.7816164E-02  0.1300439E+00
        -11   -1    0    0    0    0  0.00000000000E+00  0.00000000000E+00  0.45593999997E+02  0.45594000000E+02  0.51100000000E-03 0.  1.
         11   -1    0    0    0    0 -0.00000000000E+00 -0.00000000000E+00 -0.45593999997E+02  0.45594000000E+02  0.51100000000E-03 0. -1.
    9900012    2    1    2    0    0 -0.27185113841E+02 -0.14716321982E+02  0.26411477477E+02  0.50528847405E+02  0.29999962173E+02 0.  0.
         12    1    1    2    0    0  0.27185113841E+02  0.14716321982E+02 -0.26411477477E+02  0.40659152595E+02  0.00000000000E+00 0. -1.
         11    1    3    3    0    0 -0.64194511021E+01 -0.38214152311E+01 -0.17290931595E+01  0.76682677468E+01  0.51100000000E-03 0. -1.
        -11    1    3    3    0    0 -0.83056283389E+01  0.12837716376E+01 -0.14432551439E+01  0.85272807737E+01  0.51100000000E-03 0.  1.
        -12    1    3    3    0    0 -0.12460034400E+02 -0.12178678389E+02  0.29583825780E+02  0.34333298885E+02  0.00000000000E+00 0.  1.
</event>
<event>
 7    1  0.3250765E-011  0.5052887E+02  0.7816164E-02  0.1300439E+00
        -11   -1    0    0    0    0  0.00000000000E+00  0.00000000000E+00  0.45593999997E+02  0.45594000000E+02  0.51100000000E-03 0. -1.
         11   -1    0    0    0    0 -0.00000000000E+00 -0.00000000000E+00 -0.45593999997E+02  0.45594000000E+02  0.51100000000E-03 0.  1.
    9900012    2    1    2    0    0  0.87790059699E+01  0.32915050355E+02 -0.22196706103E+02  0.50528865141E+02  0.30000016081E+02 0.  0.
         12    1    1    2    0    0 -0.87790059699E+01 -0.32915050355E+02  0.22196706103E+02  0.40659134859E+02  0.00000000000E+00 0. -1.
         11    1    3    3    0    0  0.43941728896E+01  0.10249172424E+01  0.40524646127E+01  0.60647902219E+01  0.51100000000E-03 0. -1.
        -11    1    3    3    0    0  0.27862365399E+01  0.10250574845E+02 -0.18669228308E+02  0.21479699360E+02  0.51100000000E-03 0.  1.
         12    1    3    3    0    0  0.15985965403E+01  0.21639558268E+02 -0.75799424073E+01  0.22984375559E+02  0.00000000000E+00 0. -1.
</event>
<event>
 7    1  0.3250765E-011  0.5052886E+02  0.7816164E-02  0.1300439E+00
        -11   -1    0    0    0    0  0.00000000000E+00  0.00000000000E+00  0.45593999997E+02  0.45594000000E+02  0.51100000000E-03 0.  1.
         11   -1    0    0    0    0 -0.00000000000E+00 -0.00000000000E+00 -0.45593999997E+02  0.45594000000E+02  0.51100000000E-03 0. -1.
    9900012    2    1    2    0    0  0.81710552548E+01 -0.15522078242E+02  0.36680578310E+02  0.50528857337E+02  0.29999992362E+02 0.  0.
         12    1    1    2    0    0 -0.81710552548E+01  0.15522078242E+02 -0.36680578310E+02  0.40659142663E+02  0.00000000000E+00 0. -1.
         11    1    3    3    0    0  0.99387096734E+01  0.22577074748E+01  0.15423131146E+02  0.18486431988E+02  0.51100000000E-03 0. -1.
        -11    1    3    3    0    0  0.69388436654E+01 -0.98573573346E+01  0.89665396263E+01  0.15023777094E+02  0.51100000000E-03 0.  1.
        -12    1    3    3    0    0 -0.87064980839E+01 -0.79224283818E+01  0.12290907538E+02  0.17018648256E+02  0.00000000000E+00 0.  1.
</event>
<event>
 7    1  0.3250765E-011  0.5052886E+02  0.7816164E-02  0.1300439E+00
        -11   -1    0    0    0    0  0.00000000000E+00  0.00000000000E+00  0.45593999997E+02  0.45594000000E+02  0.51100000000E-03 0.  1.
         11   -1    0    0    0    0 -0.00000000000E+00 -0.00000000000E+00 -0.45593999997E+02  0.45594000000E+02  0.51100000000E-03 0. -1.
    9900012    2    1    2    0    0  0.81387089811E+01  0.30982985721E+02  0.25039599167E+02  0.50528861857E+02  0.30000006101E+02 0.  0.
         12    1    1    2    0    0 -0.81387089811E+01 -0.30982985721E+02 -0.25039599167E+02  0.40659138143E+02  0.00000000000E+00 0. -1.
         11    1    3    3    0    0  0.23651922886E+00  0.16156287351E+02  0.79580073536E+01  0.18011425363E+02  0.51100000000E-03 0. -1.
        -11    1    3    3    0    0 -0.39858581783E+01  0.14759986449E+02  0.12602836007E+02  0.19813524196E+02  0.51100000000E-03 0.  1.
        -12    1    3    3    0    0  0.11888047931E+02  0.66711920336E-01  0.44787558073E+01  0.12703912297E+02  0.00000000000E+00 0.  1.
</event>
<event>
 7    1  0.3250765E-011  0.5052886E+02  0.7816164E-02  0.1300439E+00
        -11   -1    0    0    0    0  0.00000000000E+00  0.00000000000E+00  0.45593999997E+02  0.45594000000E+02  0.51100000000E-03 0.  1.
         11   -1    0    0    0    0 -0.00000000000E+00 -0.00000000000E+00 -0.45593999997E+02  0.45594000000E+02  0.51100000000E-03 0. -1.
    9900012    2    1    2    0    0 -0.23989265446E+02 -0.30138976915E+02  0.13012428130E+02  0.50528855002E+02  0.29999985264E+02 0.  0.
         12    1    1    2    0    0  0.23989265446E+02  0.30138976915E+02 -0.13012428130E+02  0.40659144998E+02  0.00000000000E+00 0. -1.
         11    1    3    3    0    0  0.41659284834E+01 -0.30533219401E+01 -0.21682024283E+01  0.56016816252E+01  0.51100000000E-03 0. -1.
        -11    1    3    3    0    0 -0.91454247894E+01 -0.91304215979E+01 -0.27614356833E+01  0.13214723623E+02  0.51100000000E-03 0.  1.
        -12    1    3    3    0    0 -0.19009769140E+02 -0.17955233377E+02  0.17942066242E+02  0.31712449754E+02  0.00000000000E+00 0.  1.
</event>
<event>
 7    1  0.3250765E-011  0.5052885E+02  0.7816164E-02  0.1300439E+00
        -11   -1    0    0    0    0  0.00000000000E+00  0.00000000000E+00  0.45593999997E+02  0.45594000000E+02  0.51100000000E-03 0. -1.
         11   -1    0    0    0    0 -0.00000000000E+00 -0.00000000000E+00 -0.45593999997E+02  0.45594000000E+02  0.51100000000E-03 0.  1.
    9900012    2    1    2    0    0 -0.67081873711E+00 -0.34045090659E+02 -0.22218191742E+02  0.50528852935E+02  0.29999978981E+02 0.  0.
         12    1    1    2    0    0  0.67081873711E+00  0.34045090659E+02  0.22218191742E+02  0.40659147065E+02  0.00000000000E+00 0. -1.
         11    1    3    3    0    0 -0.72213751078E+01 -0.11403514106E+02 -0.86412159335E+01  0.16026821441E+02  0.51100000000E-03 0. -1.
        -11    1    3    3    0    0 -0.44117154827E+01 -0.20298355391E+01  0.31448008256E+01  0.57856061316E+01  0.51100000000E-03 0.  1.
        -12    1    3    3    0    0  0.10962271853E+02 -0.20611741014E+02 -0.16721776634E+02  0.28716425363E+02  0.00000000000E+00 0.  1.
</event>
<event>
 7    1  0.3250765E-011  0.5052886E+02  0.7816164E-02  0.1300439E+00
        -11   -1    0    0    0    0  0.00000000000E+00  0.00000000000E+00  0.45593999997E+02  0.45594000000E+02  0.51100000000E-03 0.  1.
         11   -1    0    0    0    0 -0.00000000000E+00 -0.00000000000E+00 -0.45593999997E+02  0.45594000000E+02  0.51100000000E-03 0. -1.
    9900012    2    1    2    0    0 -0.19112394388E+02  0.16379336330E+01  0.35849675567E+02  0.50528859772E+02  0.29999999763E+02 0.  0.
         12    1    1    2    0    0  0.19112394388E+02 -0.16379336330E+01 -0.35849675567E+02  0.40659140228E+02  0.00000000000E+00 0. -1.
         11    1    3    3    0    0 -0.39474339870E+01 -0.30067287159E+01  0.18182153890E+02  0.18847105163E+02  0.51100000000E-03 0. -1.
        -11    1    3    3    0    0  0.24892106426E+01  0.64544462209E+01  0.10430779261E+02  0.12516277477E+02  0.51100000000E-03 0.  1.
         12    1    3    3    0    0 -0.17654171044E+02 -0.18097838720E+01  0.72367424157E+01  0.19165477132E+02  0.00000000000E+00 0. -1.
</event>
<event>
 7    1  0.3250765E-011  0.5052883E+02  0.7816164E-02  0.1300439E+00
        -11   -1    0    0    0    0  0.00000000000E+00  0.00000000000E+00  0.45593999997E+02  0.45594000000E+02  0.51100000000E-03 0. -1.
         11   -1    0    0    0    0 -0.00000000000E+00 -0.00000000000E+00 -0.45593999997E+02  0.45594000000E+02  0.51100000000E-03 0.  1.
    9900012    2    1    2    0    0  0.90717503561E+01 -0.31457402460E+02  0.24110223855E+02  0.50528834755E+02  0.29999923722E+02 0.  0.
         12    1    1    2    0    0 -0.90717503561E+01  0.31457402460E+02 -0.24110223855E+02  0.40659165245E+02  0.00000000000E+00 0. -1.
         11    1    3    3    0    0  0.55508625051E+01 -0.21553011940E+02  0.66532133387E+01  0.23229499483E+02  0.51100000000E-03 0. -1.
        -11    1    3    3    0    0  0.73518294489E+01 -0.12900522968E+02  0.16751599265E+02  0.22385016580E+02  0.51100000000E-03 0.  1.
         12    1    3    3    0    0 -0.38309415980E+01  0.29961324484E+01  0.70541125211E+00  0.49143186923E+01  0.00000000000E+00 0. -1.
</event>
<event>
 7    1  0.3250765E-011  0.5052872E+02  0.7816164E-02  0.1300439E+00
        -11   -1    0    0    0    0  0.00000000000E+00  0.00000000000E+00  0.45593999997E+02  0.45594000000E+02  0.51100000000E-03 0.  1.
         11   -1    0    0    0    0 -0.00000000000E+00 -0.00000000000E+00 -0.45593999997E+02  0.45594000000E+02  0.51100000000E-03 0. -1.
    9900012    2    1    2    0    0  0.22252618963E+02  0.20517682672E+02  0.27148163677E+02  0.50528718846E+02  0.29999571401E+02 0.  0.
         12    1    1    2    0    0 -0.22252618963E+02 -0.20517682672E+02 -0.27148163677E+02  0.40659281154E+02  0.00000000000E+00 0. -1.
         11    1    3    3    0    0  0.15402400737E+02  0.57118870940E+01  0.56555141879E+01  0.17373670989E+02  0.51100000000E-03 0. -1.
        -11    1    3    3    0    0 -0.23307971099E+01  0.58869132324E+01 -0.17954020926E+01  0.65811725025E+01  0.51100000000E-03 0.  1.
        -12    1    3    3    0    0  0.91810153364E+01  0.89188823455E+01  0.23288051581E+02  0.26573875354E+02  0.00000000000E+00 0.  1.
</event>
<event>
 7    1  0.3250765E-011  0.5052886E+02  0.7816164E-02  0.1300439E+00
        -11   -1    0    0    0    0  0.00000000000E+00  0.00000000000E+00  0.45593999997E+02  0.45594000000E+02  0.51100000000E-03 0. -1.
         11   -1    0    0    0    0 -0.00000000000E+00 -0.00000000000E+00 -0.45593999997E+02  0.45594000000E+02  0.51100000000E-03 0.  1.
    9900012    2    1    2    0    0  0.24687442865E+02 -0.16483896247E+02  0.27784471611E+02  0.50528861625E+02  0.30000005395E+02 0.  0.
         12    1    1    2    0    0 -0.24687442865E+02  0.16483896247E+02 -0.27784471611E+02  0.40659138375E+02  0.00000000000E+00 0. -1.
         11    1    3    3    0    0  0.10077039433E+02  0.44517131843E+01  0.71529242509E+01  0.13135021873E+02  0.51100000000E-03 0. -1.
        -11    1    3    3    0    0  0.13436306409E+02 -0.19293526978E+02  0.23916864735E+02  0.33537902919E+02  0.51100000000E-03 0.  1.
         12    1    3    3    0    0  0.11740970224E+01 -0.16420824540E+01 -0.32853173750E+01  0.38559368327E+01  0.00000000000E+00 0. -1.
</event>
<event>
 7    1  0.3250765E-011  0.5052887E+02  0.7816164E-02  0.1300439E+00
        -11   -1    0    0    0    0  0.00000000000E+00  0.00000000000E+00  0.45593999997E+02  0.45594000000E+02  0.51100000000E-03 0.  1.
         11   -1    0    0    0    0 -0.00000000000E+00 -0.00000000000E+00 -0.45593999997E+02  0.45594000000E+02  0.51100000000E-03 0. -1.
    9900012    2    1    2    0    0  0.32479780939E+02 -0.11601040582E+02  0.21532404640E+02  0.50528871111E+02  0.30000034229E+02 0.  0.
         12    1    1    2    0    0 -0.32479780939E+02  0.11601040582E+02 -0.21532404640E+02  0.40659128889E+02  0.00000000000E+00 0. -1.
         11    1    3    3    0    0  0.45015352295E+01  0.29532573036E+00 -0.18896739328E+01  0.48910024067E+01  0.51100000000E-03 0. -1.
        -11    1    3    3    0    0 -0.16284594984E+01  0.16372841452E+01  0.10272845340E+02  0.10529194241E+02  0.51100000000E-03 0.  1.
         12    1    3    3    0    0  0.29606705208E+02 -0.13533650458E+02  0.13149233233E+02  0.35108674464E+02  0.00000000000E+00 0. -1.
</event>
<event>
 7    1  0.3250765E-011  0.5052886E+02  0.7816164E-02  0.1300439E+00
        -11   -1    0    0    0    0  0.00000000000E+00  0.00000000000E+00  0.45593999997E+02  0.45594000000E+02  0.51100000000E-03 0.  1.
         11   -1    0    0    0    0 -0.00000000000E+00 -0.00000000000E+00 -0.45593999997E+02  0.45594000000E+02  0.51100000000E-03 0. -1.
    9900012    2    1    2    0    0  0.30792337883E+02  0.19339197096E+02  0.18193208536E+02  0.50528862608E+02  0.30000008384E+02 0.  0.
         12    1    1    2    0    0 -0.30792337883E+02 -0.19339197096E+02 -0.18193208536E+02  0.40659137392E+02  0.00000000000E+00 0. -1.
         11    1    3    3    0    0  0.94532688997E+01  0.18645167305E+02 -0.57982811410E+00  0.20912741514E+02  0.51100000000E-03 0. -1.
        -11    1    3    3    0    0  0.14800771386E+00  0.12175694061E+00 -0.76394839765E+00  0.78762202314E+00  0.51100000000E-03 0.  1.
        -12    1    3    3    0    0  0.21191061269E+02  0.57227285002E+00  0.19536985048E+02  0.28828499071E+02  0.00000000000E+00 0.  1.
</event>
<event>
 7    1  0.3305735E-011  0.5052885E+02  0.7816164E-02  0.1300439E+00
        -11   -1    0    0    0    0  0.00000000000E+00  0.00000000000E+00  0.45593999997E+02  0.45594000000E+02  0.51100000000E-03 0.  1.
         11   -1    0    0    0    0 -0.00000000000E+00 -0.00000000000E+00 -0.45593999997E+02  0.45594000000E+02  0.51100000000E-03 0. -1.
    9900012    2    1    2    0    0 -0.85254228046E+01  0.39736493182E+02 -0.12224519561E+01  0.50528854495E+02  0.29999983723E+02 0.  0.
         12    1    1    2    0    0  0.85254228046E+01 -0.39736493182E+02  0.12224519561E+01  0.40659145505E+02  0.00000000000E+00 0. -1.
         11    1    3    3    0    0  0.31293868762E+01  0.19477801820E+02  0.24271968251E+01  0.19876345505E+02  0.51100000000E-03 0. -1.
        -11    1    3    3    0    0 -0.97102202320E+01  0.24175873550E+02 -0.28760031789E+01  0.26211307358E+02  0.51100000000E-03 0.  1.
         12    1    3    3    0    0 -0.19445894488E+01 -0.39171821880E+01 -0.77364560232E+00  0.44412016320E+01  0.00000000000E+00 0. -1.
</event>
<event>
 7    1  0.3250765E-011  0.5052886E+02  0.7816164E-02  0.1300439E+00
        -11   -1    0    0    0    0  0.00000000000E+00  0.00000000000E+00  0.45593999997E+02  0.45594000000E+02  0.51100000000E-03 0. -1.
         11   -1    0    0    0    0 -0.00000000000E+00 -0.00000000000E+00 -0.45593999997E+02  0.45594000000E+02  0.51100000000E-03 0.  1.
    9900012    2    1    2    0    0 -0.71909274827E+01 -0.24417431657E+02 -0.31705599041E+02  0.50528863052E+02  0.30000009732E+02 0.  0.
         12    1    1    2    0    0  0.71909274827E+01  0.24417431657E+02  0.31705599041E+02  0.40659136948E+02  0.00000000000E+00 0. -1.
         11    1    3    3    0    0  0.72259093305E+00 -0.55342217978E+01  0.14278462448E+01  0.57609455581E+01  0.51100000000E-03 0. -1.
        -11    1    3    3    0    0  0.23877528789E+00 -0.73216619000E+00  0.32278138164E+01  0.33184127625E+01  0.51100000000E-03 0.  1.
        -12    1    3    3    0    0 -0.81522937036E+01 -0.18151043670E+02 -0.36361259103E+02  0.41449504731E+02  0.00000000000E+00 0.  1.
</event>
<event>
 7    1  0.3250765E-011  0.5052886E+02  0.7816164E-02  0.1300439E+00
        -11   -1    0    0    0    0  0.00000000000E+00  0.00000000000E+00  0.45593999997E+02  0.45594000000E+02  0.51100000000E-03 0.  1.
         11   -1    0    0    0    0 -0.00000000000E+00 -0.00000000000E+00 -0.45593999997E+02  0.45594000000E+02  0.51100000000E-03 0. -1.
    9900012    2    1    2    0    0 -0.22715502137E+02  0.82070772613E+00  0.33711987961E+02  0.50528859198E+02  0.29999998017E+02 0.  0.
         12    1    1    2    0    0  0.22715502137E+02 -0.82070772613E+00 -0.33711987961E+02  0.40659140802E+02  0.00000000000E+00 0. -1.
         11    1    3    3    0    0 -0.66939894683E+01  0.34532018557E+01 -0.22220582573E+01  0.78531293902E+01  0.51100000000E-03 0. -1.
        -11    1    3    3    0    0  0.27461370563E+01  0.11619299876E+01  0.10026276071E+02  0.10460284993E+02  0.51100000000E-03 0.  1.
        -12    1    3    3    0    0 -0.18767649725E+02 -0.37944241172E+01  0.25907770148E+02  0.32215444814E+02  0.00000000000E+00 0.  1.
</event>
<event>
 7    1  0.3250765E-011  0.5052886E+02  0.7816164E-02  0.1300439E+00
        -11   -1    0    0    0    0  0.00000000000E+00  0.00000000000E+00  0.45593999997E+02  0.45594000000E+02  0.51100000000E-03 0.  1.
         11   -1    0    0    0    0 -0.00000000000E+00 -0.00000000000E+00 -0.45593999997E+02  0.45594000000E+02  0.51100000000E-03 0. -1.
    9900012    2    1    2    0    0  0.12053129781E+02 -0.16176893351E+02  0.35301498206E+02  0.50528860910E+02  0.30000003221E+02 0.  0.
         12    1    1    2    0    0 -0.12053129781E+02  0.16176893351E+02 -0.35301498206E+02  0.40659139090E+02  0.00000000000E+00 0. -1.
         11    1    3    3    0    0  0.33610224641E+01 -0.21946394330E+01  0.25700679700E+00  0.40223086654E+01  0.51100000000E-03 0. -1.
        -11    1    3    3    0    0  0.12634899534E+02 -0.48518397799E+01  0.33892173983E+02  0.36494663898E+02  0.51100000000E-03 0.  1.
         12    1    3    3    0    0 -0.39427922178E+01 -0.91304141376E+01  0.11523174260E+01  0.10011888346E+02  0.00000000000E+00 0. -1.
</event>
<event>
 7    1  0.3250765E-011  0.5052885E+02  0.7816164E-02  0.1300439E+00
        -11   -1    0    0    0    0  0.00000000000E+00  0.00000000000E+00  0.45593999997E+02  0.45594000000E+02  0.51100000000E-03 0.  1.
         11   -1    0    0    0    0 -0.00000000000E+00 -0.00000000000E+00 -0.45593999997E+02  0.45594000000E+02  0.51100000000E-03 0. -1.
    9900012    2    1    2    0    0 -0.28052363407E+01  0.31156744801E+02  0.25972177014E+02  0.50528854948E+02  0.29999985099E+02 0.  0.
         12    1    1    2    0    0  0.28052363407E+01 -0.31156744801E+02 -0.25972177014E+02  0.40659145052E+02  0.00000000000E+00 0. -1.
         11    1    3    3    0    0 -0.46779424597E+01  0.90788418061E+01  0.18291157920E+02  0.20949343009E+02  0.51100000000E-03 0. -1.
        -11    1    3    3    0    0 -0.61483258456E+01  0.17685762834E+02  0.81540612619E+01  0.20422459035E+02  0.51100000000E-03 0.  1.
         12    1    3    3    0    0  0.80210319646E+01  0.43921401613E+01 -0.47304216817E+00  0.91570529029E+01  0.00000000000E+00 0. -1.
</event>
<event>
 7    1  0.3250765E-011  0.5052886E+02  0.7816164E-02  0.1300439E+00
        -11   -1    0    0    0    0  0.00000000000E+00  0.00000000000E+00  0.45593999997E+02  0.45594000000E+02  0.51100000000E-03 0.  1.
         11   -1    0    0    0    0 -0.00000000000E+00 -0.00000000000E+00 -0.45593999997E+02  0.45594000000E+02  0.51100000000E-03 0. -1.
    9900012    2    1    2    0    0  0.64648994027E+01 -0.23663852499E+02  0.32425190549E+02  0.50528858082E+02  0.29999994625E+02 0.  0.
         12    1    1    2    0    0 -0.64648994027E+01  0.23663852499E+02 -0.32425190549E+02  0.40659141918E+02  0.00000000000E+00 0. -1.
         11    1    3    3    0    0 -0.30539424803E+01  0.96734319469E+00  0.12740900683E+00  0.32060179110E+01  0.51100000000E-03 0. -1.
        -11    1    3    3    0    0  0.12048177984E+02 -0.12385534418E+02  0.61529773780E+01  0.18341733463E+02  0.51100000000E-03 0.  1.
         12    1    3    3    0    0 -0.25293361015E+01 -0.12245661275E+02  0.26144804165E+02  0.28981106707E+02  0.00000000000E+00 0. -1.
</event>
<event>
 7    1  0.3250765E-011  0.5052886E+02  0.7816164E-02  0.1300439E+00
        -11   -1    0    0    0    0  0.00000000000E+00  0.00000000000E+00  0.45593999997E+02  0.45594000000E+02  0.51100000000E-03 0. -1.
         11   -1    0    0    0    0 -0.00000000000E+00 -0.00000000000E+00 -0.45593999997E+02  0.45594000000E+02  0.51100000000E-03 0.  1.
    9900012    2    1    2    0    0 -0.34160355673E+02 -0.33064899464E+01 -0.21801447380E+02  0.50528857322E+02  0.29999992316E+02 0.  0.
         12    1    1    2    0    0  0.34160355673E+02  0.33064899464E+01  0.21801447380E+02  0.40659142678E+02  0.00000000000E+00 0. -1.
         11    1    3    3    0    0 -0.39394947335E+01 -0.82097255848E+01 -0.52366033731E+01  0.10504343296E+02  0.51100000000E-03 0. -1.
        -11    1    3    3    0    0 -0.19406069581E+02  0.46104449398E+01  0.34586295222E+00  0.19949219548E+02  0.51100000000E-03 0.  1.
        -12    1    3    3    0    0 -0.10814791358E+02  0.29279069863E+00 -0.16910706959E+02  0.20075294478E+02  0.00000000000E+00 0.  1.
</event>
<event>
 7    1  0.3250765E-011  0.5052886E+02  0.7816164E-02  0.1300439E+00
        -11   -1    0    0    0    0  0.00000000000E+00  0.00000000000E+00  0.45593999997E+02  0.45594000000E+02  0.51100000000E-03 0.  1.
         11   -1    0    0    0    0 -0.00000000000E+00 -0.00000000000E+00 -0.45593999997E+02  0.45594000000E+02  0.51100000000E-03 0. -1.
    9900012    2    1    2    0    0  0.21862895763E+02 -0.22842169240E+02  0.25561984114E+02  0.50528856643E+02  0.29999990251E+02 0.  0.
         12    1    1    2    0    0 -0.21862895763E+02  0.22842169240E+02 -0.25561984114E+02  0.40659143357E+02  0.00000000000E+00 0. -1.
         11    1    3    3    0    0 -0.50077532462E+00 -0.72520986663E+01  0.42056391187E+01  0.83982802792E+01  0.51100000000E-03 0. -1.
        -11    1    3    3    0    0  0.23224368715E+02 -0.20403494050E+02  0.15761622982E+02  0.34700182002E+02  0.51100000000E-03 0.  1.
         12    1    3    3    0    0 -0.86069762810E+00  0.48134234761E+01  0.55947220134E+01  0.74303943620E+01  0.00000000000E+00 0. -1.
</event>
<event>
 7    1  0.3250765E-011  0.5052887E+02  0.7816164E-02  0.1300439E+00
        -11   -1    0    0    0    0  0.00000000000E+00  0.00000000000E+00  0.45593999997E+02  0.45594000000E+02  0.51100000000E-03 0. -1.
         11   -1    0    0    0    0 -0.00000000000E+00 -0.00000000000E+00 -0.45593999997E+02  0.45594000000E+02  0.51100000000E-03 0.  1.
    9900012    2    1    2    0    0 -0.61934217057E+01  0.38689125084E+02 -0.10860845452E+02  0.50528870200E+02  0.30000031459E+02 0.  0.
         12    1    1    2    0    0  0.61934217057E+01 -0.38689125084E+02  0.10860845452E+02  0.40659129800E+02  0.00000000000E+00 0. -1.
         11    1    3    3    0    0 -0.89626363748E+00 -0.30740764658E+01  0.10955059742E+01  0.33842825275E+01  0.51100000000E-03 0. -1.
        -11    1    3    3    0    0  0.40077959554E+01  0.22361557723E+02 -0.40282128399E+00  0.22721442681E+02  0.51100000000E-03 0.  1.
        -12    1    3    3    0    0 -0.93049540236E+01  0.19401643826E+02 -0.11553530142E+02  0.24423144992E+02  0.00000000000E+00 0.  1.
</event>
<event>
 7    1  0.3250765E-011  0.5052886E+02  0.7816164E-02  0.1300439E+00
        -11   -1    0    0    0    0  0.00000000000E+00  0.00000000000E+00  0.45593999997E+02  0.45594000000E+02  0.51100000000E-03 0.  1.
         11   -1    0    0    0    0 -0.00000000000E+00 -0.00000000000E+00 -0.45593999997E+02  0.45594000000E+02  0.51100000000E-03 0. -1.
    9900012    2    1    2    0    0  0.34474999070E+02  0.42698455874E+00  0.21551277687E+02  0.50528862692E+02  0.30000008640E+02 0.  0.
         12    1    1    2    0    0 -0.34474999070E+02 -0.42698455874E+00 -0.21551277687E+02  0.40659137308E+02  0.00000000000E+00 0. -1.
         11    1    3    3    0    0  0.11244278607E+02 -0.11590500648E+02  0.50206142284E+01  0.16910945396E+02  0.51100000000E-03 0. -1.
        -11    1    3    3    0    0  0.10513062028E+02 -0.81395625922E+00  0.96254144833E+01  0.14277100624E+02  0.51100000000E-03 0.  1.
         12    1    3    3    0    0  0.12717658434E+02  0.12831441466E+02  0.69052489749E+01  0.19340816673E+02  0.00000000000E+00 0. -1.
</event>
<event>
 7    1  0.3250765E-011  0.5052886E+02  0.7816164E-02  0.1300439E+00
        -11   -1    0    0    0    0  0.00000000000E+00  0.00000000000E+00  0.45593999997E+02  0.45594000000E+02  0.51100000000E-03 0.  1.
         11   -1    0    0    0    0 -0.00000000000E+00 -0.00000000000E+00 -0.45593999997E+02  0.45594000000E+02  0.51100000000E-03 0. -1.
    9900012    2    1    2    0    0  0.11517368786E+02  0.63710599355E+01  0.38469801262E+02  0.50528858376E+02  0.29999995520E+02 0.  0.
         12    1    1    2    0    0 -0.11517368786E+02 -0.63710599355E+01 -0.38469801262E+02  0.40659141624E+02  0.00000000000E+00 0. -1.
         11    1    3    3    0    0  0.83673592879E+01 -0.43353917146E+01  0.33316588787E+02  0.34623740575E+02  0.51100000000E-03 0.  1.
        -11    1    3    3    0    0  0.34925752551E+01 -0.76046143786E+00  0.11576750071E+01  0.37572057695E+01  0.51100000000E-03 0. -1.
        -12    1    3    3    0    0 -0.34256575726E+00  0.11466913088E+02  0.39955374678E+01  0.12147912031E+02  0.00000000000E+00 0.  1.
</event>
<event>
 7    1  0.3250765E-011  0.5052886E+02  0.7816164E-02  0.1300439E+00
        -11   -1    0    0    0    0  0.00000000000E+00  0.00000000000E+00  0.45593999997E+02  0.45594000000E+02  0.51100000000E-03 0. -1.
         11   -1    0    0    0    0 -0.00000000000E+00 -0.00000000000E+00 -0.45593999997E+02  0.45594000000E+02  0.51100000000E-03 0.  1.
    9900012    2    1    2    0    0  0.26811399504E+02  0.27573713034E+02 -0.13191098245E+02  0.50528857526E+02  0.29999992936E+02 0.  0.
         12    1    1    2    0    0 -0.26811399504E+02 -0.27573713034E+02  0.13191098245E+02  0.40659142474E+02  0.00000000000E+00 0. -1.
         11    1    3    3    0    0  0.78802991457E+01  0.15035686889E+01  0.19984087008E+01  0.82676158005E+01  0.51100000000E-03 0. -1.
        -11    1    3    3    0    0  0.23797893600E+02  0.18911116338E+02 -0.14193929204E+02  0.33547543687E+02  0.51100000000E-03 0.  1.
         12    1    3    3    0    0 -0.48667932419E+01  0.71590280064E+01 -0.99557774201E+00  0.87136980379E+01  0.00000000000E+00 0. -1.
</event>
<event>
 7    1  0.3250765E-011  0.5052886E+02  0.7816164E-02  0.1300439E+00
        -11   -1    0    0    0    0  0.00000000000E+00  0.00000000000E+00  0.45593999997E+02  0.45594000000E+02  0.51100000000E-03 0.  1.
         11   -1    0    0    0    0 -0.00000000000E+00 -0.00000000000E+00 -0.45593999997E+02  0.45594000000E+02  0.51100000000E-03 0. -1.
    9900012    2    1    2    0    0  0.21226346130E+02 -0.24059285521E+02  0.24975167633E+02  0.50528856033E+02  0.29999988397E+02 0.  0.
         12    1    1    2    0    0 -0.21226346130E+02  0.24059285521E+02 -0.24975167633E+02  0.40659143967E+02  0.00000000000E+00 0. -1.
         11    1    3    3    0    0  0.16101283237E+02 -0.10397445233E+02  0.53672398415E+01  0.19903905472E+02  0.51100000000E-03 0. -1.
        -11    1    3    3    0    0  0.70152254833E+00 -0.54287890079E+01 -0.29423372311E+01  0.62145983475E+01  0.51100000000E-03 0.  1.
        -12    1    3    3    0    0  0.44235403451E+01 -0.82330512806E+01  0.22550265023E+02  0.24410352213E+02  0.00000000000E+00 0.  1.
</event>
<event>
 7    1  0.3250765E-011  0.5052885E+02  0.7816164E-02  0.1300439E+00
        -11   -1    0    0    0    0  0.00000000000E+00  0.00000000000E+00  0.45593999997E+02  0.45594000000E+02  0.51100000000E-03 0. -1.
         11   -1    0    0    0    0 -0.00000000000E+00 -0.00000000000E+00 -0.45593999997E+02  0.45594000000E+02  0.51100000000E-03 0.  1.
    9900012    2    1    2    0    0  0.23342094911E+02  0.28949773817E+02 -0.16438469659E+02  0.50528854859E+02  0.29999984828E+02 0.  0.
         12    1    1    2    0    0 -0.23342094911E+02 -0.28949773817E+02  0.16438469659E+02  0.40659145141E+02  0.00000000000E+00 0. -1.
         11    1    3    3    0    0  0.15556625871E+02  0.17356913314E+02  0.18643450538E-02  0.23308175647E+02  0.51100000000E-03 0. -1.
        -11    1    3    3    0    0  0.19774497755E+01  0.13401848081E+02 -0.53374085796E+01  0.14560486606E+02  0.51100000000E-03 0.  1.
        -12    1    3    3    0    0  0.58080192646E+01 -0.18089875774E+01 -0.11102925424E+02  0.12660192605E+02  0.00000000000E+00 0.  1.
</event>
<event>
 7    1  0.3250765E-011  0.5052886E+02  0.7816164E-02  0.1300439E+00
        -11   -1    0    0    0    0  0.00000000000E+00  0.00000000000E+00  0.45593999997E+02  0.45594000000E+02  0.51100000000E-03 0. -1.
         11   -1    0    0    0    0 -0.00000000000E+00 -0.00000000000E+00 -0.45593999997E+02  0.45594000000E+02  0.51100000000E-03 0.  1.
    9900012    2    1    2    0    0 -0.83879973119E+00 -0.30552715687E+02 -0.26814062743E+02  0.50528856113E+02  0.29999988640E+02 0.  0.
         12    1    1    2    0    0  0.83879973119E+00  0.30552715687E+02  0.26814062743E+02  0.40659143887E+02  0.00000000000E+00 0. -1.
         11    1    3    3    0    0  0.67475729444E+00  0.52151928623E+01 -0.52463444428E+01  0.74281669523E+01  0.51100000000E-03 0. -1.
        -11    1    3    3    0    0  0.29563815182E+01 -0.66230365197E+01 -0.74920483561E+01  0.10427636034E+02  0.51100000000E-03 0.  1.
        -12    1    3    3    0    0 -0.44699385438E+01 -0.29144872030E+02 -0.14075669945E+02  0.32673053126E+02  0.00000000000E+00 0.  1.
</event>
<event>
 7    1  0.3250765E-011  0.5052884E+02  0.7816164E-02  0.1300439E+00
        -11   -1    0    0    0    0  0.00000000000E+00  0.00000000000E+00  0.45593999997E+02  0.45594000000E+02  0.51100000000E-03 0. -1.
         11   -1    0    0    0    0 -0.00000000000E+00 -0.00000000000E+00 -0.45593999997E+02  0.45594000000E+02  0.51100000000E-03 0.  1.
    9900012    2    1    2    0    0  0.25810888022E+02  0.12848102041E+02 -0.28668649083E+02  0.50528842276E+02  0.29999946583E+02 0.  0.
         12    1    1    2    0    0 -0.25810888022E+02 -0.12848102041E+02  0.28668649083E+02  0.40659157724E+02  0.00000000000E+00 0. -1.
         11    1    3    3    0    0  0.48466325837E-01  0.19769912327E+01 -0.45175180530E+01  0.49314108467E+01  0.51100000000E-03 0. -1.
        -11    1    3    3    0    0  0.11101817270E+02  0.16648955535E+02 -0.21923046183E+02  0.29682621537E+02  0.51100000000E-03 0.  1.
         12    1    3    3    0    0  0.14660604426E+02 -0.57778447267E+01 -0.22280848474E+01  0.15914809892E+02  0.00000000000E+00 0. -1.
</event>
<event>
 7    1  0.3250765E-011  0.5052885E+02  0.7816164E-02  0.1300439E+00
        -11   -1    0    0    0    0  0.00000000000E+00  0.00000000000E+00  0.45593999997E+02  0.45594000000E+02  0.51100000000E-03 0.  1.
         11   -1    0    0    0    0 -0.00000000000E+00 -0.00000000000E+00 -0.45593999997E+02  0.45594000000E+02  0.51100000000E-03 0. -1.
    9900012    2    1    2    0    0 -0.16898225130E+02  0.19081190484E+02  0.31678462400E+02  0.50528845768E+02  0.29999957198E+02 0.  0.
         12    1    1    2    0    0  0.16898225130E+02 -0.19081190484E+02 -0.31678462400E+02  0.40659154232E+02  0.00000000000E+00 0. -1.
         11    1    3    3    0    0  0.15647135213E+01  0.66088714357E+01  0.19164874195E+02  0.20332680915E+02  0.51100000000E-03 0. -1.
        -11    1    3    3    0    0  0.23630198787E+01  0.27591562150E+01 -0.68360991366E+00  0.36965022306E+01  0.51100000000E-03 0.  1.
        -12    1    3    3    0    0 -0.20825958530E+02  0.97131628329E+01  0.13197198119E+02  0.26499662622E+02  0.00000000000E+00 0.  1.
</event>
<event>
 7    1  0.3250765E-011  0.5052886E+02  0.7816164E-02  0.1300439E+00
        -11   -1    0    0    0    0  0.00000000000E+00  0.00000000000E+00  0.45593999997E+02  0.45594000000E+02  0.51100000000E-03 0. -1.
         11   -1    0    0    0    0 -0.00000000000E+00 -0.00000000000E+00 -0.45593999997E+02  0.45594000000E+02  0.51100000000E-03 0.  1.
    9900012    2    1    2    0    0  0.73205272768E+01 -0.39237055663E+02 -0.77478499293E+01  0.50528857914E+02  0.29999994114E+02 0.  0.
         12    1    1    2    0    0 -0.73205272768E+01  0.39237055663E+02  0.77478499293E+01  0.40659142086E+02  0.00000000000E+00 0. -1.
         11    1    3    3    0    0  0.77457309757E+01 -0.98479431938E+01  0.51147833433E+01  0.13532898522E+02  0.51100000000E-03 0. -1.
        -11    1    3    3    0    0 -0.48040710489E+01 -0.35113343090E+01  0.26442554393E+01  0.65115784847E+01  0.51100000000E-03 0.  1.
        -12    1    3    3    0    0  0.43788673500E+01 -0.25877778160E+02 -0.15506888712E+02  0.30484380907E+02  0.00000000000E+00 0.  1.
</event>
<event>
 7    1  0.3250765E-011  0.5052887E+02  0.7816164E-02  0.1300439E+00
        -11   -1    0    0    0    0  0.00000000000E+00  0.00000000000E+00  0.45593999997E+02  0.45594000000E+02  0.51100000000E-03 0.  1.
         11   -1    0    0    0    0 -0.00000000000E+00 -0.00000000000E+00 -0.45593999997E+02  0.45594000000E+02  0.51100000000E-03 0. -1.
    9900012    2    1    2    0    0  0.52310651141E+01  0.38751672018E+02  0.11140427337E+02  0.50528865138E+02  0.30000016075E+02 0.  0.
         12    1    1    2    0    0 -0.52310651141E+01 -0.38751672018E+02 -0.11140427337E+02  0.40659134862E+02  0.00000000000E+00 0. -1.
         11    1    3    3    0    0  0.75277436201E+01  0.88608024680E+01  0.69129814878E+01  0.13526642514E+02  0.51100000000E-03 0. -1.
        -11    1    3    3    0    0  0.72200725862E+01  0.10817455474E+02  0.81221922740E+01  0.15333518796E+02  0.51100000000E-03 0.  1.
         12    1    3    3    0    0 -0.95167510923E+01  0.19073414076E+02 -0.38947464248E+01  0.21668703828E+02  0.00000000000E+00 0. -1.
</event>
<event>
 7    1  0.3250765E-011  0.5052886E+02  0.7816164E-02  0.1300439E+00
        -11   -1    0    0    0    0  0.00000000000E+00  0.00000000000E+00  0.45593999997E+02  0.45594000000E+02  0.51100000000E-03 0.  1.
         11   -1    0    0    0    0 -0.00000000000E+00 -0.00000000000E+00 -0.45593999997E+02  0.45594000000E+02  0.51100000000E-03 0. -1.
    9900012    2    1    2    0    0  0.26514845001E+02  0.12734782261E+02  0.28070517680E+02  0.50528860222E+02  0.30000001132E+02 0.  0.
         12    1    1    2    0    0 -0.26514845001E+02 -0.12734782261E+02 -0.28070517680E+02  0.40659139778E+02  0.00000000000E+00 0. -1.
         11    1    3    3    0    0  0.82175404905E+01  0.67395982178E+01  0.13159180654E+02  0.16914910334E+02  0.51100000000E-03 0. -1.
        -11    1    3    3    0    0 -0.35505231150E+01  0.17809869869E+01  0.10094616605E+02  0.10848014274E+02  0.51100000000E-03 0.  1.
         12    1    3    3    0    0  0.21847827625E+02  0.42141970567E+01  0.48167204205E+01  0.22765935614E+02  0.00000000000E+00 0. -1.
</event>
<event>
 7    1  0.3250765E-011  0.5052886E+02  0.7816164E-02  0.1300439E+00
        -11   -1    0    0    0    0  0.00000000000E+00  0.00000000000E+00  0.45593999997E+02  0.45594000000E+02  0.51100000000E-03 0.  1.
         11   -1    0    0    0    0 -0.00000000000E+00 -0.00000000000E+00 -0.45593999997E+02  0.45594000000E+02  0.51100000000E-03 0. -1.
    9900012    2    1    2    0    0  0.24834516137E+02  0.20522189492E+02  0.24804284354E+02  0.50528856187E+02  0.29999988865E+02 0.  0.
         12    1    1    2    0    0 -0.24834516137E+02 -0.20522189492E+02 -0.24804284354E+02  0.40659143813E+02  0.00000000000E+00 0. -1.
         11    1    3    3    0    0  0.12231712945E+02 -0.37139943077E+01  0.96258982192E+01  0.16002077117E+02  0.51100000000E-03 0. -1.
        -11    1    3    3    0    0  0.12241558559E+02  0.17766490878E+02  0.45056231108E+01  0.22040975340E+02  0.51100000000E-03 0.  1.
         12    1    3    3    0    0  0.36124463293E+00  0.64696929223E+01  0.10672763024E+02  0.12485803729E+02  0.00000000000E+00 0. -1.
</event>
<event>
 7    1  0.3250765E-011  0.5052886E+02  0.7816164E-02  0.1300439E+00
        -11   -1    0    0    0    0  0.00000000000E+00  0.00000000000E+00  0.45593999997E+02  0.45594000000E+02  0.51100000000E-03 0.  1.
         11   -1    0    0    0    0 -0.00000000000E+00 -0.00000000000E+00 -0.45593999997E+02  0.45594000000E+02  0.51100000000E-03 0. -1.
    9900012    2    1    2    0    0  0.20651989125E+02 -0.27012802824E+02  0.22292814831E+02  0.50528858785E+02  0.29999996762E+02 0.  0.
         12    1    1    2    0    0 -0.20651989125E+02  0.27012802824E+02 -0.22292814831E+02  0.40659141215E+02  0.00000000000E+00 0. -1.
         11    1    3    3    0    0  0.60772432222E+01 -0.38215918083E+01 -0.15140495859E+01  0.73368791418E+01  0.51100000000E-03 0. -1.
        -11    1    3    3    0    0  0.21020554641E+02 -0.16381598105E+02  0.17115667141E+02  0.31672804357E+02  0.51100000000E-03 0.  1.
        -12    1    3    3    0    0 -0.64458087378E+01 -0.68096129113E+01  0.66911972758E+01  0.11519175286E+02  0.00000000000E+00 0.  1.
</event>
<event>
 7    1  0.6783305E-011  0.5052886E+02  0.7816164E-02  0.1300439E+00
        -11   -1    0    0    0    0  0.00000000000E+00  0.00000000000E+00  0.45593999997E+02  0.45594000000E+02  0.51100000000E-03 0.  1.
         11   -1    0    0    0    0 -0.00000000000E+00 -0.00000000000E+00 -0.45593999997E+02  0.45594000000E+02  0.51100000000E-03 0. -1.
    9900012    2    1    2    0    0 -0.29508207112E+02  0.21379751212E+02  0.18037124227E+02  0.50528857126E+02  0.29999991722E+02 0.  0.
         12    1    1    2    0    0  0.29508207112E+02 -0.21379751212E+02 -0.18037124227E+02  0.40659142874E+02  0.00000000000E+00 0. -1.
         11    1    3    3    0    0 -0.67117737864E+01  0.89803175573E+01 -0.19525100078E+01  0.11380083760E+02  0.51100000000E-03 0. -1.
        -11    1    3    3    0    0 -0.24453514081E+02  0.16301448070E+02  0.16884521986E+02  0.33893932246E+02  0.51100000000E-03 0.  1.
         12    1    3    3    0    0  0.16570807561E+01 -0.39020144153E+01  0.31051122488E+01  0.52548411211E+01  0.00000000000E+00 0. -1.
</event>
<event>
 7    1  0.3250765E-011  0.5052886E+02  0.7816164E-02  0.1300439E+00
        -11   -1    0    0    0    0  0.00000000000E+00  0.00000000000E+00  0.45593999997E+02  0.45594000000E+02  0.51100000000E-03 0. -1.
         11   -1    0    0    0    0 -0.00000000000E+00 -0.00000000000E+00 -0.45593999997E+02  0.45594000000E+02  0.51100000000E-03 0.  1.
    9900012    2    1    2    0    0 -0.16069591380E+02  0.32455662578E+02  0.18481449375E+02  0.50528858697E+02  0.29999996495E+02 0.  0.
         12    1    1    2    0    0  0.16069591380E+02 -0.32455662578E+02 -0.18481449375E+02  0.40659141303E+02  0.00000000000E+00 0. -1.
         11    1    3    3    0    0 -0.25343650480E+01 -0.17259534386E+01 -0.33473852386E+01  0.45394834140E+01  0.51100000000E-03 0. -1.
        -11    1    3    3    0    0 -0.79782063469E+01  0.98719712135E+01 -0.23199820869E+00  0.12694936612E+02  0.51100000000E-03 0.  1.
        -12    1    3    3    0    0 -0.55570199849E+01  0.24309644804E+02  0.22060832822E+02  0.33294438671E+02  0.00000000000E+00 0.  1.
</event>
<event>
 7    1  0.3250765E-011  0.5052887E+02  0.7816164E-02  0.1300439E+00
        -11   -1    0    0    0    0  0.00000000000E+00  0.00000000000E+00  0.45593999997E+02  0.45594000000E+02  0.51100000000E-03 0.  1.
         11   -1    0    0    0    0 -0.00000000000E+00 -0.00000000000E+00 -0.45593999997E+02  0.45594000000E+02  0.51100000000E-03 0. -1.
    9900012    2    1    2    0    0 -0.28459478667E+02 -0.21683962206E+02  0.19313954643E+02  0.50528868346E+02  0.30000025824E+02 0.  0.
         12    1    1    2    0    0  0.28459478667E+02  0.21683962206E+02 -0.19313954643E+02  0.40659131654E+02  0.00000000000E+00 0. -1.
         11    1    3    3    0    0 -0.31705921773E+01  0.52503836941E+01  0.68209670617E+00  0.61712591801E+01  0.51100000000E-03 0. -1.
        -11    1    3    3    0    0 -0.16526287595E+02 -0.12184829184E+02  0.22829783247E+01  0.20659144082E+02  0.51100000000E-03 0.  1.
        -12    1    3    3    0    0 -0.87625988944E+01 -0.14749516717E+02  0.16348879612E+02  0.23698465084E+02  0.00000000000E+00 0.  1.
</event>
<event>
 7    1  0.3250765E-011  0.5052886E+02  0.7816164E-02  0.1300439E+00
        -11   -1    0    0    0    0  0.00000000000E+00  0.00000000000E+00  0.45593999997E+02  0.45594000000E+02  0.51100000000E-03 0.  1.
         11   -1    0    0    0    0 -0.00000000000E+00 -0.00000000000E+00 -0.45593999997E+02  0.45594000000E+02  0.51100000000E-03 0. -1.
    9900012    2    1    2    0    0  0.22203186415E+02  0.11522239624E+02  0.32053424301E+02  0.50528862007E+02  0.30000006556E+02 0.  0.
         12    1    1    2    0    0 -0.22203186415E+02 -0.11522239624E+02 -0.32053424301E+02  0.40659137993E+02  0.00000000000E+00 0. -1.
         11    1    3    3    0    0  0.86318690773E+00  0.20740569214E+01  0.26032703756E+01  0.34385782906E+01  0.51100000000E-03 0.  1.
        -11    1    3    3    0    0 -0.34633802800E+01  0.11242569824E+02  0.77683433297E+01  0.14097430176E+02  0.51100000000E-03 0. -1.
         12    1    3    3    0    0  0.24803379787E+02 -0.17943871217E+01  0.21681810596E+02  0.32992853540E+02  0.00000000000E+00 0. -1.
</event>
<event>
 7    1  0.3250765E-011  0.5052885E+02  0.7816164E-02  0.1300439E+00
        -11   -1    0    0    0    0  0.00000000000E+00  0.00000000000E+00  0.45593999997E+02  0.45594000000E+02  0.51100000000E-03 0. -1.
         11   -1    0    0    0    0 -0.00000000000E+00 -0.00000000000E+00 -0.45593999997E+02  0.45594000000E+02  0.51100000000E-03 0.  1.
    9900012    2    1    2    0    0 -0.17899450531E+02 -0.33763266496E+02  0.13885891855E+02  0.50528849906E+02  0.29999969773E+02 0.  0.
         12    1    1    2    0    0  0.17899450531E+02  0.33763266496E+02 -0.13885891855E+02  0.40659150094E+02  0.00000000000E+00 0. -1.
         11    1    3    3    0    0 -0.10435386004E+02 -0.14430757700E+02  0.18924045923E+02  0.25985833894E+02  0.51100000000E-03 0. -1.
        -11    1    3    3    0    0  0.94906271787E+00 -0.45287390330E+01  0.32015696055E+01  0.56267437716E+01  0.51100000000E-03 0.  1.
        -12    1    3    3    0    0 -0.84131272445E+01 -0.14803769763E+02 -0.82397236726E+01  0.18916272239E+02  0.00000000000E+00 0.  1.
</event>
<event>
 7    1  0.3250765E-011  0.5052886E+02  0.7816164E-02  0.1300439E+00
        -11   -1    0    0    0    0  0.00000000000E+00  0.00000000000E+00  0.45593999997E+02  0.45594000000E+02  0.51100000000E-03 0.  1.
         11   -1    0    0    0    0 -0.00000000000E+00 -0.00000000000E+00 -0.45593999997E+02  0.45594000000E+02  0.51100000000E-03 0. -1.
    9900012    2    1    2    0    0  0.70492368587E+01  0.24786958091E+02  0.31449654007E+02  0.50528858730E+02  0.29999996594E+02 0.  0.
         12    1    1    2    0    0 -0.70492368587E+01 -0.24786958091E+02 -0.31449654007E+02  0.40659141270E+02  0.00000000000E+00 0. -1.
         11    1    3    3    0    0  0.27092179235E+01  0.65266732286E+01  0.23496776455E+02  0.24536418427E+02  0.51100000000E-03 0.  1.
        -11    1    3    3    0    0 -0.46094741172E+01  0.22864695915E+00  0.15356885138E+01  0.48639357050E+01  0.51100000000E-03 0. -1.
        -12    1    3    3    0    0  0.89494930524E+01  0.18031637903E+02  0.64171890378E+01  0.21128504597E+02  0.00000000000E+00 0.  1.
</event>
<event>
 7    1  0.3250765E-011  0.5052886E+02  0.7816164E-02  0.1300439E+00
        -11   -1    0    0    0    0  0.00000000000E+00  0.00000000000E+00  0.45593999997E+02  0.45594000000E+02  0.51100000000E-03 0. -1.
         11   -1    0    0    0    0 -0.00000000000E+00 -0.00000000000E+00 -0.45593999997E+02  0.45594000000E+02  0.51100000000E-03 0.  1.
    9900012    2    1    2    0    0 -0.33412827639E+02 -0.14195893145E+02 -0.18309146851E+02  0.50528864601E+02  0.30000014440E+02 0.  0.
         12    1    1    2    0    0  0.33412827639E+02  0.14195893145E+02  0.18309146851E+02  0.40659135399E+02  0.00000000000E+00 0. -1.
         11    1    3    3    0    0 -0.19554158748E+02 -0.15529272900E+02 -0.11229694595E+02  0.27379362340E+02  0.51100000000E-03 0. -1.
        -11    1    3    3    0    0 -0.27082109173E+01 -0.29275452632E+01  0.48461846182E+01  0.62761798297E+01  0.51100000000E-03 0.  1.
         12    1    3    3    0    0 -0.11150457973E+02  0.42609250178E+01 -0.11925636874E+02  0.16873322431E+02  0.00000000000E+00 0. -1.
</event>
<event>
 7    1  0.3250765E-011  0.5052886E+02  0.7816164E-02  0.1300439E+00
        -11   -1    0    0    0    0  0.00000000000E+00  0.00000000000E+00  0.45593999997E+02  0.45594000000E+02  0.51100000000E-03 0. -1.
         11   -1    0    0    0    0 -0.00000000000E+00 -0.00000000000E+00 -0.45593999997E+02  0.45594000000E+02  0.51100000000E-03 0.  1.
    9900012    2    1    2    0    0  0.39345076625E+02 -0.56001582409E+01 -0.85888916913E+01  0.50528857271E+02  0.29999992161E+02 0.  0.
         12    1    1    2    0    0 -0.39345076625E+02  0.56001582409E+01  0.85888916913E+01  0.40659142729E+02  0.00000000000E+00 0. -1.
         11    1    3    3    0    0  0.11734362645E+01  0.69732030336E+01 -0.93880635583E+00  0.71332931280E+01  0.51100000000E-03 0. -1.
        -11    1    3    3    0    0  0.18552392311E+02 -0.97464578572E+00  0.19191496075E+01  0.18676839410E+02  0.51100000000E-03 0.  1.
         12    1    3    3    0    0  0.19619248050E+02 -0.11598715489E+02 -0.95692349430E+01  0.24718724733E+02  0.00000000000E+00 0. -1.
</event>
<event>
 7    1  0.3250765E-011  0.5052886E+02  0.7816164E-02  0.1300439E+00
        -11   -1    0    0    0    0  0.00000000000E+00  0.00000000000E+00  0.45593999997E+02  0.45594000000E+02  0.51100000000E-03 0.  1.
         11   -1    0    0    0    0 -0.00000000000E+00 -0.00000000000E+00 -0.45593999997E+02  0.45594000000E+02  0.51100000000E-03 0. -1.
    9900012    2    1    2    0    0 -0.38627041942E+02 -0.75135413973E+00  0.12670927652E+02  0.50528864375E+02  0.30000013755E+02 0.  0.
         12    1    1    2    0    0  0.38627041942E+02  0.75135413973E+00 -0.12670927652E+02  0.40659135625E+02  0.00000000000E+00 0. -1.
         11    1    3    3    0    0 -0.95376171138E+01  0.11028145308E+02  0.33062070360E+01  0.14950489436E+02  0.51100000000E-03 0. -1.
        -11    1    3    3    0    0 -0.11296361400E+02  0.54477406108E-01 -0.18472987326E+01  0.11446539282E+02  0.51100000000E-03 0.  1.
        -12    1    3    3    0    0 -0.17793063428E+02 -0.11833976854E+02  0.11212019348E+02  0.24131835657E+02  0.00000000000E+00 0.  1.
</event>
<event>
 7    1  0.3250765E-011  0.5052886E+02  0.7816164E-02  0.1300439E+00
        -11   -1    0    0    0    0  0.00000000000E+00  0.00000000000E+00  0.45593999997E+02  0.45594000000E+02  0.51100000000E-03 0.  1.
         11   -1    0    0    0    0 -0.00000000000E+00 -0.00000000000E+00 -0.45593999997E+02  0.45594000000E+02  0.51100000000E-03 0. -1.
    9900012    2    1    2    0    0  0.22092274461E+02 -0.14078486694E+02 -0.31094913023E+02  0.50528855956E+02  0.29999988164E+02 0.  0.
         12    1    1    2    0    0 -0.22092274461E+02  0.14078486694E+02  0.31094913023E+02  0.40659144044E+02  0.00000000000E+00 0. -1.
         11    1    3    3    0    0 -0.38810514455E+01 -0.53134932701E+01 -0.90685410432E+01  0.11204204923E+02  0.51100000000E-03 0. -1.
        -11    1    3    3    0    0  0.10752872431E+02 -0.13249490809E+01  0.83934282870E+00  0.10866657823E+02  0.51100000000E-03 0.  1.
         12    1    3    3    0    0  0.15220453475E+02 -0.74400443432E+01 -0.22865714809E+02  0.28457993210E+02  0.00000000000E+00 0. -1.
</event>
<event>
 7    1  0.3250765E-011  0.5052886E+02  0.7816164E-02  0.1300439E+00
        -11   -1    0    0    0    0  0.00000000000E+00  0.00000000000E+00  0.45593999997E+02  0.45594000000E+02  0.51100000000E-03 0.  1.
         11   -1    0    0    0    0 -0.00000000000E+00 -0.00000000000E+00 -0.45593999997E+02  0.45594000000E+02  0.51100000000E-03 0. -1.
    9900012    2    1    2    0    0  0.90585819859E+01  0.18013361516E+02  0.35307595088E+02  0.50528863615E+02  0.30000011443E+02 0.  0.
         12    1    1    2    0    0 -0.90585819859E+01 -0.18013361516E+02 -0.35307595088E+02  0.40659136385E+02  0.00000000000E+00 0. -1.
         11    1    3    3    0    0  0.55524695142E+01  0.10607965270E+02  0.17894344957E+02  0.21530592806E+02  0.51100000000E-03 0. -1.
        -11    1    3    3    0    0  0.64657404846E+01 -0.15653269960E+01  0.18337409391E+02  0.19506835521E+02  0.51100000000E-03 0.  1.
         12    1    3    3    0    0 -0.29596280129E+01  0.89707232425E+01 -0.92415926065E+00  0.94914352870E+01  0.00000000000E+00 0. -1.
</event>
<event>
 7    1  0.3250765E-011  0.5052886E+02  0.7816164E-02  0.1300439E+00
        -11   -1    0    0    0    0  0.00000000000E+00  0.00000000000E+00  0.45593999997E+02  0.45594000000E+02  0.51100000000E-03 0. -1.
         11   -1    0    0    0    0 -0.00000000000E+00 -0.00000000000E+00 -0.45593999997E+02  0.45594000000E+02  0.51100000000E-03 0.  1.
    9900012    2    1    2    0    0  0.34415012410E+02  0.19821405850E+02 -0.87111791630E+01  0.50528857713E+02  0.29999993506E+02 0.  0.
         12    1    1    2    0    0 -0.34415012410E+02 -0.19821405850E+02  0.87111791630E+01  0.40659142287E+02  0.00000000000E+00 0. -1.
         11    1    3    3    0    0  0.32163394667E+01  0.60522138958E+00  0.49177480493E+01  0.59072310462E+01  0.51100000000E-03 0. -1.
        -11    1    3    3    0    0  0.10802141527E+01  0.10850808443E+02 -0.11528289555E+01  0.10965214149E+02  0.51100000000E-03 0.  1.
        -12    1    3    3    0    0  0.30118458791E+02  0.83653760174E+01 -0.12476098257E+02  0.33656412518E+02  0.00000000000E+00 0.  1.
</event>
<event>
 7    1  0.3250765E-011  0.5052887E+02  0.7816164E-02  0.1300439E+00
        -11   -1    0    0    0    0  0.00000000000E+00  0.00000000000E+00  0.45593999997E+02  0.45594000000E+02  0.51100000000E-03 0.  1.
         11   -1    0    0    0    0 -0.00000000000E+00 -0.00000000000E+00 -0.45593999997E+02  0.45594000000E+02  0.51100000000E-03 0. -1.
    9900012    2    1    2    0    0  0.38559549402E+02  0.11260364729E+02 -0.62873358275E+01  0.50528865040E+02  0.30000015774E+02 0.  0.
         12    1    1    2    0    0 -0.38559549402E+02 -0.11260364729E+02  0.62873358275E+01  0.40659134960E+02  0.00000000000E+00 0. -1.
         11    1    3    3    0    0  0.10433319616E+02 -0.22670901874E+01 -0.86699352551E+01  0.13753604390E+02  0.51100000000E-03 0. -1.
        -11    1    3    3    0    0  0.19561861067E+02  0.11400782013E+02 -0.71899734720E+01  0.23755840497E+02  0.51100000000E-03 0.  1.
         12    1    3    3    0    0  0.85643687192E+01  0.21266729035E+01  0.95725728996E+01  0.13019420153E+02  0.00000000000E+00 0. -1.
</event>
<event>
 7    1  0.3250765E-011  0.5052885E+02  0.7816164E-02  0.1300439E+00
        -11   -1    0    0    0    0  0.00000000000E+00  0.00000000000E+00  0.45593999997E+02  0.45594000000E+02  0.51100000000E-03 0.  1.
         11   -1    0    0    0    0 -0.00000000000E+00 -0.00000000000E+00 -0.45593999997E+02  0.45594000000E+02  0.51100000000E-03 0. -1.
    9900012    2    1    2    0    0 -0.31787918186E+02 -0.10417542112E+02  0.23112103091E+02  0.50528852990E+02  0.29999979150E+02 0.  0.
         12    1    1    2    0    0  0.31787918186E+02  0.10417542112E+02 -0.23112103091E+02  0.40659147010E+02  0.00000000000E+00 0. -1.
         11    1    3    3    0    0 -0.21197795585E+01 -0.37297357034E+01 -0.43707235094E+01  0.61243463366E+01  0.51100000000E-03 0. -1.
        -11    1    3    3    0    0 -0.52854852916E+01 -0.62959754632E+01  0.14770958047E+02  0.16904344522E+02  0.51100000000E-03 0.  1.
         12    1    3    3    0    0 -0.24382653336E+02 -0.39183094528E+00  0.12711868553E+02  0.27500162132E+02  0.00000000000E+00 0. -1.
</event>
<event>
 7    1  0.3250765E-011  0.5052887E+02  0.7816164E-02  0.1300439E+00
        -11   -1    0    0    0    0  0.00000000000E+00  0.00000000000E+00  0.45593999997E+02  0.45594000000E+02  0.51100000000E-03 0.  1.
         11   -1    0    0    0    0 -0.00000000000E+00 -0.00000000000E+00 -0.45593999997E+02  0.45594000000E+02  0.51100000000E-03 0. -1.
    9900012    2    1    2    0    0  0.22741867027E+02  0.32617644340E+02 -0.84889345439E+01  0.50528865137E+02  0.30000016069E+02 0.  0.
         12    1    1    2    0    0 -0.22741867027E+02 -0.32617644340E+02  0.84889345439E+01  0.40659134863E+02  0.00000000000E+00 0. -1.
         11    1    3    3    0    0  0.43173286683E+01  0.11431048005E+01 -0.46033501913E+01  0.64138014203E+01  0.51100000000E-03 0. -1.
        -11    1    3    3    0    0 -0.13545687166E+01  0.18387333077E+02 -0.79044514598E+01  0.20060140260E+02  0.51100000000E-03 0.  1.
        -12    1    3    3    0    0  0.19779107075E+02  0.13087206462E+02  0.40188671072E+01  0.24054923457E+02  0.00000000000E+00 0.  1.
</event>
<event>
 7    1  0.3250765E-011  0.5052886E+02  0.7816164E-02  0.1300439E+00
        -11   -1    0    0    0    0  0.00000000000E+00  0.00000000000E+00  0.45593999997E+02  0.45594000000E+02  0.51100000000E-03 0.  1.
         11   -1    0    0    0    0 -0.00000000000E+00 -0.00000000000E+00 -0.45593999997E+02  0.45594000000E+02  0.51100000000E-03 0. -1.
    9900012    2    1    2    0    0 -0.17152190699E+02 -0.35761880391E+02 -0.89474127257E+01  0.50528856755E+02  0.29999990594E+02 0.  0.
         12    1    1    2    0    0  0.17152190699E+02  0.35761880391E+02  0.89474127257E+01  0.40659143245E+02  0.00000000000E+00 0. -1.
         11    1    3    3    0    0 -0.99251113629E+01 -0.83608994706E+00 -0.21138245164E+01  0.10182098817E+02  0.51100000000E-03 0. -1.
        -11    1    3    3    0    0  0.37489974454E+01 -0.42043030313E+01  0.28548380805E+01  0.63151600575E+01  0.51100000000E-03 0.  1.
        -12    1    3    3    0    0 -0.10976076781E+02 -0.30721487413E+02 -0.96884262898E+01  0.34031597881E+02  0.00000000000E+00 0.  1.
</event>
<event>
 7    1  0.3250765E-011  0.5052886E+02  0.7816164E-02  0.1300439E+00
        -11   -1    0    0    0    0  0.00000000000E+00  0.00000000000E+00  0.45593999997E+02  0.45594000000E+02  0.51100000000E-03 0.  1.
         11   -1    0    0    0    0 -0.00000000000E+00 -0.00000000000E+00 -0.45593999997E+02  0.45594000000E+02  0.51100000000E-03 0. -1.
    9900012    2    1    2    0    0  0.68035133096E+00  0.21416383910E+02  0.34554903180E+02  0.50528859435E+02  0.29999998739E+02 0.  0.
         12    1    1    2    0    0 -0.68035133096E+00 -0.21416383910E+02 -0.34554903180E+02  0.40659140565E+02  0.00000000000E+00 0. -1.
         11    1    3    3    0    0  0.54449615893E+01 -0.33483288494E+01  0.87676975322E+01  0.10850411654E+02  0.51100000000E-03 0. -1.
        -11    1    3    3    0    0 -0.67681380013E+01  0.10958369830E+02  0.34355560927E+01  0.13330289092E+02  0.51100000000E-03 0.  1.
         12    1    3    3    0    0  0.20035277429E+01  0.13806342929E+02  0.22351649555E+02  0.26348158689E+02  0.00000000000E+00 0. -1.
</event>
<event>
 7    1  0.3250765E-011  0.5052887E+02  0.7816164E-02  0.1300439E+00
        -11   -1    0    0    0    0  0.00000000000E+00  0.00000000000E+00  0.45593999997E+02  0.45594000000E+02  0.51100000000E-03 0.  1.
         11   -1    0    0    0    0 -0.00000000000E+00 -0.00000000000E+00 -0.45593999997E+02  0.45594000000E+02  0.51100000000E-03 0. -1.
    9900012    2    1    2    0    0  0.29138976575E+02 -0.81090551594E+00  0.28344790481E+02  0.50528872230E+02  0.30000037630E+02 0.  0.
         12    1    1    2    0    0 -0.29138976575E+02  0.81090551594E+00 -0.28344790481E+02  0.40659127770E+02  0.00000000000E+00 0. -1.
         11    1    3    3    0    0  0.19912831073E+01  0.18233969697E+01 -0.16047651698E+01  0.31409005769E+01  0.51100000000E-03 0. -1.
        -11    1    3    3    0    0  0.20199205616E+02 -0.75832536332E+01  0.66523546617E+01  0.22578030605E+02  0.51100000000E-03 0.  1.
         12    1    3    3    0    0  0.69484878516E+01  0.49489511475E+01  0.23297200989E+02  0.24809941048E+02  0.00000000000E+00 0. -1.
</event>
<event>
 7    1  0.3250765E-011  0.5052888E+02  0.7816164E-02  0.1300439E+00
        -11   -1    0    0    0    0  0.00000000000E+00  0.00000000000E+00  0.45593999997E+02  0.45594000000E+02  0.51100000000E-03 0.  1.
         11   -1    0    0    0    0 -0.00000000000E+00 -0.00000000000E+00 -0.45593999997E+02  0.45594000000E+02  0.51100000000E-03 0. -1.
    9900012    2    1    2    0    0  0.12966284434E+01 -0.36348794280E+02 -0.18172724190E+02  0.50528880538E+02  0.30000062883E+02 0.  0.
         12    1    1    2    0    0 -0.12966284434E+01  0.36348794280E+02  0.18172724190E+02  0.40659119462E+02  0.00000000000E+00 0. -1.
         11    1    3    3    0    0 -0.81235200938E+01 -0.17846885505E+02 -0.17016728455E+02  0.25962895611E+02  0.51100000000E-03 0.  1.
        -11    1    3    3    0    0  0.60535520110E+01 -0.27348926951E+01 -0.45998579889E+01  0.80798405790E+01  0.51100000000E-03 0. -1.
        -12    1    3    3    0    0  0.33665965262E+01 -0.15767016080E+02  0.34438622534E+01  0.16486144348E+02  0.00000000000E+00 0.  1.
</event>
<event>
 7    1  0.3250765E-011  0.5052887E+02  0.7816164E-02  0.1300439E+00
        -11   -1    0    0    0    0  0.00000000000E+00  0.00000000000E+00  0.45593999997E+02  0.45594000000E+02  0.51100000000E-03 0.  1.
         11   -1    0    0    0    0 -0.00000000000E+00 -0.00000000000E+00 -0.45593999997E+02  0.45594000000E+02  0.51100000000E-03 0. -1.
    9900012    2    1    2    0    0  0.36018820966E+02  0.30056944477E+01  0.18621894175E+02  0.50528873035E+02  0.30000040077E+02 0.  0.
         12    1    1    2    0    0 -0.36018820966E+02 -0.30056944477E+01 -0.18621894175E+02  0.40659126965E+02  0.00000000000E+00 0. -1.
         11    1    3    3    0    0  0.12996799949E+02  0.70215485103E+01  0.31923375228E+01  0.15113238287E+02  0.51100000000E-03 0. -1.
        -11    1    3    3    0    0  0.58317772488E+01  0.85620587688E+01  0.70265563846E+01  0.12517626417E+02  0.51100000000E-03 0.  1.
         12    1    3    3    0    0  0.17190243768E+02 -0.12577912831E+02  0.84030002680E+01  0.22898008331E+02  0.00000000000E+00 0. -1.
</event>
<event>
 7    1  0.3250765E-011  0.5052886E+02  0.7816164E-02  0.1300439E+00
        -11   -1    0    0    0    0  0.00000000000E+00  0.00000000000E+00  0.45593999997E+02  0.45594000000E+02  0.51100000000E-03 0.  1.
         11   -1    0    0    0    0 -0.00000000000E+00 -0.00000000000E+00 -0.45593999997E+02  0.45594000000E+02  0.51100000000E-03 0. -1.
    9900012    2    1    2    0    0 -0.15401238350E+02 -0.46310274789E+01  0.37343292534E+02  0.50528855205E+02  0.29999985881E+02 0.  0.
         12    1    1    2    0    0  0.15401238350E+02  0.46310274789E+01 -0.37343292534E+02  0.40659144795E+02  0.00000000000E+00 0. -1.
         11    1    3    3    0    0 -0.62829518238E+01 -0.52481175319E+01  0.18485590923E+02  0.20217202904E+02  0.51100000000E-03 0. -1.
        -11    1    3    3    0    0 -0.66047312259E+01 -0.93420403749E+01  0.15963981084E+02  0.19640389132E+02  0.51100000000E-03 0.  1.
         12    1    3    3    0    0 -0.25135552998E+01  0.99591304279E+01  0.28937205266E+01  0.10671263168E+02  0.00000000000E+00 0. -1.
</event>
<event>
 7    1  0.3250765E-011  0.5052886E+02  0.7816164E-02  0.1300439E+00
        -11   -1    0    0    0    0  0.00000000000E+00  0.00000000000E+00  0.45593999997E+02  0.45594000000E+02  0.51100000000E-03 0. -1.
         11   -1    0    0    0    0 -0.00000000000E+00 -0.00000000000E+00 -0.45593999997E+02  0.45594000000E+02  0.51100000000E-03 0.  1.
    9900012    2    1    2    0    0  0.29355739620E+02  0.18109553487E+02 -0.21527889883E+02  0.50528863032E+02  0.30000009673E+02 0.  0.
         12    1    1    2    0    0 -0.29355739620E+02 -0.18109553487E+02  0.21527889883E+02  0.40659136968E+02  0.00000000000E+00 0. -1.
         11    1    3    3    0    0 -0.11724774353E+01  0.76984694878E+01  0.30410653396E+01  0.83599769409E+01  0.51100000000E-03 0.  1.
        -11    1    3    3    0    0  0.17490523122E+02  0.77482478070E+01 -0.75515400873E+01  0.20566465450E+02  0.51100000000E-03 0. -1.
        -12    1    3    3    0    0  0.13037693934E+02  0.26628361923E+01 -0.17017415135E+02  0.21602420642E+02  0.00000000000E+00 0.  1.
</event>
<event>
 7    1  0.3250765E-011  0.5052886E+02  0.7816164E-02  0.1300439E+00
        -11   -1    0    0    0    0  0.00000000000E+00  0.00000000000E+00  0.45593999997E+02  0.45594000000E+02  0.51100000000E-03 0. -1.
         11   -1    0    0    0    0 -0.00000000000E+00 -0.00000000000E+00 -0.45593999997E+02  0.45594000000E+02  0.51100000000E-03 0.  1.
    9900012    2    1    2    0    0 -0.26270377926E+02  0.23883716689E+02 -0.19814163976E+02  0.50528858675E+02  0.29999996427E+02 0.  0.
         12    1    1    2    0    0  0.26270377926E+02 -0.23883716689E+02  0.19814163976E+02  0.40659141325E+02  0.00000000000E+00 0. -1.
         11    1    3    3    0    0  0.35710137217E+01  0.59534526782E+01 -0.13772186121E+01  0.70776033486E+01  0.51100000000E-03 0. -1.
        -11    1    3    3    0    0 -0.89557564895E+01  0.12389120309E+02 -0.15279023227E+02  0.21613524177E+02  0.51100000000E-03 0.  1.
        -12    1    3    3    0    0 -0.20885635159E+02  0.55411437018E+01 -0.31579221362E+01  0.21837731149E+02  0.00000000000E+00 0.  1.
</event>
<event>
 7    1  0.3250765E-011  0.5052886E+02  0.7816164E-02  0.1300439E+00
        -11   -1    0    0    0    0  0.00000000000E+00  0.00000000000E+00  0.45593999997E+02  0.45594000000E+02  0.51100000000E-03 0.  1.
         11   -1    0    0    0    0 -0.00000000000E+00 -0.00000000000E+00 -0.45593999997E+02  0.45594000000E+02  0.51100000000E-03 0. -1.
    9900012    2    1    2    0    0  0.21721108287E+02 -0.15422254891E+02  0.30716663742E+02  0.50528856839E+02  0.29999990847E+02 0.  0.
         12    1    1    2    0    0 -0.21721108287E+02  0.15422254891E+02 -0.30716663742E+02  0.40659143161E+02  0.00000000000E+00 0. -1.
         11    1    3    3    0    0  0.12983644826E+02 -0.51916448205E+01  0.10295988963E+01  0.14020994368E+02  0.51100000000E-03 0. -1.
        -11    1    3    3    0    0  0.18599432624E+01 -0.12953395955E+02  0.13996703576E+02  0.19161356083E+02  0.51100000000E-03 0.  1.
        -12    1    3    3    0    0  0.68775201988E+01  0.27227858848E+01  0.15690361270E+02  0.17346506388E+02  0.00000000000E+00 0.  1.
</event>
<event>
 7    1  0.3250765E-011  0.5052883E+02  0.7816164E-02  0.1300439E+00
        -11   -1    0    0    0    0  0.00000000000E+00  0.00000000000E+00  0.45593999997E+02  0.45594000000E+02  0.51100000000E-03 0. -1.
         11   -1    0    0    0    0 -0.00000000000E+00 -0.00000000000E+00 -0.45593999997E+02  0.45594000000E+02  0.51100000000E-03 0.  1.
    9900012    2    1    2    0    0 -0.14374019771E+02 -0.32601394675E+02  0.19588383846E+02  0.50528829314E+02  0.29999907183E+02 0.  0.
         12    1    1    2    0    0  0.14374019771E+02  0.32601394675E+02 -0.19588383846E+02  0.40659170686E+02  0.00000000000E+00 0. -1.
         11    1    3    3    0    0 -0.43081012180E+01 -0.30157554056E+01 -0.63937111154E+01  0.82785299938E+01  0.51100000000E-03 0. -1.
        -11    1    3    3    0    0  0.23675586335E+01 -0.83722413429E+01  0.60430859440E+01  0.10593330306E+02  0.51100000000E-03 0.  1.
        -12    1    3    3    0    0 -0.12433477186E+02 -0.21213397927E+02  0.19939009018E+02  0.31656969014E+02  0.00000000000E+00 0.  1.
</event>
<event>
 7    1  0.3250765E-011  0.5052885E+02  0.7816164E-02  0.1300439E+00
        -11   -1    0    0    0    0  0.00000000000E+00  0.00000000000E+00  0.45593999997E+02  0.45594000000E+02  0.51100000000E-03 0. -1.
         11   -1    0    0    0    0 -0.00000000000E+00 -0.00000000000E+00 -0.45593999997E+02  0.45594000000E+02  0.51100000000E-03 0.  1.
    9900012    2    1    2    0    0 -0.31890793307E+02  0.24101760379E+02  0.74329405018E+01  0.50528853974E+02  0.29999982138E+02 0.  0.
         12    1    1    2    0    0  0.31890793307E+02 -0.24101760379E+02 -0.74329405018E+01  0.40659146026E+02  0.00000000000E+00 0. -1.
         11    1    3    3    0    0 -0.18103648908E+01  0.15265072322E+02  0.47341151145E+01  0.16084517407E+02  0.51100000000E-03 0. -1.
        -11    1    3    3    0    0 -0.11047720199E+02  0.66795277868E+01  0.71803947102E+01  0.14772483931E+02  0.51100000000E-03 0.  1.
        -12    1    3    3    0    0 -0.19032708217E+02  0.21571602701E+01 -0.44815693229E+01  0.19671852635E+02  0.00000000000E+00 0.  1.
</event>
<event>
 7    1  0.3250765E-011  0.5052886E+02  0.7816164E-02  0.1300439E+00
        -11   -1    0    0    0    0  0.00000000000E+00  0.00000000000E+00  0.45593999997E+02  0.45594000000E+02  0.51100000000E-03 0. -1.
         11   -1    0    0    0    0 -0.00000000000E+00 -0.00000000000E+00 -0.45593999997E+02  0.45594000000E+02  0.51100000000E-03 0.  1.
    9900012    2    1    2    0    0 -0.16566423410E+02 -0.32846765922E+02 -0.17315009808E+02  0.50528856123E+02  0.29999988672E+02 0.  0.
         12    1    1    2    0    0  0.16566423410E+02  0.32846765922E+02  0.17315009808E+02  0.40659143877E+02  0.00000000000E+00 0. -1.
         11    1    3    3    0    0 -0.14676075496E+02 -0.20006895353E+02 -0.14298682886E+02  0.28637656786E+02  0.51100000000E-03 0. -1.
        -11    1    3    3    0    0 -0.79092980707E-01 -0.92361430801E+01 -0.10133070934E+02  0.13711007312E+02  0.51100000000E-03 0.  1.
        -12    1    3    3    0    0 -0.18112549333E+01 -0.36037274887E+01  0.71167440118E+01  0.81801920256E+01  0.00000000000E+00 0.  1.
</event>
<event>
 7    1  0.3250765E-011  0.5052886E+02  0.7816164E-02  0.1300439E+00
        -11   -1    0    0    0    0  0.00000000000E+00  0.00000000000E+00  0.45593999997E+02  0.45594000000E+02  0.51100000000E-03 0.  1.
         11   -1    0    0    0    0 -0.00000000000E+00 -0.00000000000E+00 -0.45593999997E+02  0.45594000000E+02  0.51100000000E-03 0. -1.
    9900012    2    1    2    0    0  0.16179237213E+02 -0.27686858495E+02  0.24996717526E+02  0.50528859119E+02  0.29999997778E+02 0.  0.
         12    1    1    2    0    0 -0.16179237213E+02  0.27686858495E+02 -0.24996717526E+02  0.40659140881E+02  0.00000000000E+00 0. -1.
         11    1    3    3    0    0  0.27064906919E+01  0.18959105268E+01 -0.42610132174E+00  0.33318360087E+01  0.51100000000E-03 0. -1.
        -11    1    3    3    0    0  0.62257148101E+01 -0.10095672039E+02  0.23492100091E+02  0.26316551555E+02  0.51100000000E-03 0.  1.
        -12    1    3    3    0    0  0.72470317105E+01 -0.19487096983E+02  0.19307187568E+01  0.20880471555E+02  0.00000000000E+00 0.  1.
</event>
<event>
 7    1  0.3250765E-011  0.5052887E+02  0.7816164E-02  0.1300439E+00
        -11   -1    0    0    0    0  0.00000000000E+00  0.00000000000E+00  0.45593999997E+02  0.45594000000E+02  0.51100000000E-03 0.  1.
         11   -1    0    0    0    0 -0.00000000000E+00 -0.00000000000E+00 -0.45593999997E+02  0.45594000000E+02  0.51100000000E-03 0. -1.
    9900012    2    1    2    0    0 -0.63722194372E+01  0.30352642537E+01  0.40041818511E+02  0.50528865242E+02  0.30000016389E+02 0.  0.
         12    1    1    2    0    0  0.63722194372E+01 -0.30352642537E+01 -0.40041818511E+02  0.40659134758E+02  0.00000000000E+00 0. -1.
         11    1    3    3    0    0  0.67942372591E+01 -0.16235490296E+01  0.11491353120E+02  0.13448002386E+02  0.51100000000E-03 0.  1.
        -11    1    3    3    0    0 -0.10469733687E+02  0.12711112962E+01  0.27223409523E+01  0.10892299479E+02  0.51100000000E-03 0. -1.
         12    1    3    3    0    0 -0.26967230090E+01  0.33877019871E+01  0.25828124439E+02  0.26188563377E+02  0.00000000000E+00 0. -1.
</event>
<event>
 7    1  0.3250765E-011  0.5052887E+02  0.7816164E-02  0.1300439E+00
        -11   -1    0    0    0    0  0.00000000000E+00  0.00000000000E+00  0.45593999997E+02  0.45594000000E+02  0.51100000000E-03 0.  1.
         11   -1    0    0    0    0 -0.00000000000E+00 -0.00000000000E+00 -0.45593999997E+02  0.45594000000E+02  0.51100000000E-03 0. -1.
    9900012    2    1    2    0    0 -0.34311166027E+02 -0.10829079629E+02  0.18937781448E+02  0.50528872539E+02  0.30000038570E+02 0.  0.
         12    1    1    2    0    0  0.34311166027E+02  0.10829079629E+02 -0.18937781448E+02  0.40659127461E+02  0.00000000000E+00 0. -1.
         11    1    3    3    0    0 -0.10146722538E+02  0.54101547152E+00  0.34451145253E+00  0.10166974201E+02  0.51100000000E-03 0.  1.
        -11    1    3    3    0    0 -0.31494429760E+01  0.37210059537E+00 -0.54709986928E+01  0.63237075256E+01  0.51100000000E-03 0. -1.
         12    1    3    3    0    0 -0.21015000513E+02 -0.11742195696E+02  0.24064268688E+02  0.34038190813E+02  0.00000000000E+00 0. -1.
</event>
<event>
 7    1  0.3250765E-011  0.5052887E+02  0.7816164E-02  0.1300439E+00
        -11   -1    0    0    0    0  0.00000000000E+00  0.00000000000E+00  0.45593999997E+02  0.45594000000E+02  0.51100000000E-03 0.  1.
         11   -1    0    0    0    0 -0.00000000000E+00 -0.00000000000E+00 -0.45593999997E+02  0.45594000000E+02  0.51100000000E-03 0. -1.
    9900012    2    1    2    0    0 -0.10796441137E+01  0.26820359644E+02  0.30539601376E+02  0.50528873410E+02  0.30000041217E+02 0.  0.
         12    1    1    2    0    0  0.10796441137E+01 -0.26820359644E+02 -0.30539601376E+02  0.40659126590E+02  0.00000000000E+00 0. -1.
         11    1    3    3    0    0 -0.36141174077E+01  0.38070887795E+01  0.13518340116E+02  0.14501768491E+02  0.51100000000E-03 0.  1.
        -11    1    3    3    0    0  0.62362672835E+01 -0.13818016065E+01  0.67708344287E+01  0.93083083551E+01  0.51100000000E-03 0. -1.
        -12    1    3    3    0    0 -0.37017939895E+01  0.24395072471E+02  0.10250426831E+02  0.26718796564E+02  0.00000000000E+00 0.  1.
</event>
<event>
 7    1  0.3250765E-011  0.5052886E+02  0.7816164E-02  0.1300439E+00
        -11   -1    0    0    0    0  0.00000000000E+00  0.00000000000E+00  0.45593999997E+02  0.45594000000E+02  0.51100000000E-03 0.  1.
         11   -1    0    0    0    0 -0.00000000000E+00 -0.00000000000E+00 -0.45593999997E+02  0.45594000000E+02  0.51100000000E-03 0. -1.
    9900012    2    1    2    0    0 -0.26612415698E+02 -0.48338723001E+01  0.30357517459E+02  0.50528857646E+02  0.29999993301E+02 0.  0.
         12    1    1    2    0    0  0.26612415698E+02  0.48338723001E+01 -0.30357517459E+02  0.40659142354E+02  0.00000000000E+00 0. -1.
         11    1    3    3    0    0 -0.53832767029E+01  0.77845265901E+01  0.15259578188E+02  0.17956426399E+02  0.51100000000E-03 0. -1.
        -11    1    3    3    0    0 -0.53718314525E+01  0.21169137980E+01  0.78493802621E+01  0.97442633351E+01  0.51100000000E-03 0.  1.
        -12    1    3    3    0    0 -0.15857307542E+02 -0.14735312688E+02  0.72485590090E+01  0.22828167912E+02  0.00000000000E+00 0.  1.
</event>
<event>
 7    1  0.3250765E-011  0.5052886E+02  0.7816164E-02  0.1300439E+00
        -11   -1    0    0    0    0  0.00000000000E+00  0.00000000000E+00  0.45593999997E+02  0.45594000000E+02  0.51100000000E-03 0.  1.
         11   -1    0    0    0    0 -0.00000000000E+00 -0.00000000000E+00 -0.45593999997E+02  0.45594000000E+02  0.51100000000E-03 0. -1.
    9900012    2    1    2    0    0  0.30972926107E+02  0.16672593817E+02  0.20392853492E+02  0.50528855767E+02  0.29999987590E+02 0.  0.
         12    1    1    2    0    0 -0.30972926107E+02 -0.16672593817E+02 -0.20392853492E+02  0.40659144233E+02  0.00000000000E+00 0. -1.
         11    1    3    3    0    0  0.84823058809E+01  0.19918115015E+02  0.79184638629E+01  0.23051743731E+02  0.51100000000E-03 0. -1.
        -11    1    3    3    0    0 -0.25478971746E+00  0.94662301230E+00  0.16993519889E+01  0.19618385181E+01  0.51100000000E-03 0.  1.
        -12    1    3    3    0    0  0.22745409944E+02 -0.41921442109E+01  0.10775037640E+02  0.25515273518E+02  0.00000000000E+00 0.  1.
</event>
<event>
 7    1  0.3536477E-011  0.5052883E+02  0.7816164E-02  0.1300439E+00
        -11   -1    0    0    0    0  0.00000000000E+00  0.00000000000E+00  0.45593999997E+02  0.45594000000E+02  0.51100000000E-03 0. -1.
         11   -1    0    0    0    0 -0.00000000000E+00 -0.00000000000E+00 -0.45593999997E+02  0.45594000000E+02  0.51100000000E-03 0.  1.
    9900012    2    1    2    0    0 -0.26396275834E+02  0.14756570048E+02 -0.27178086217E+02  0.50528829965E+02  0.29999909162E+02 0.  0.
         12    1    1    2    0    0  0.26396275834E+02 -0.14756570048E+02  0.27178086217E+02  0.40659170035E+02  0.00000000000E+00 0. -1.
         11    1    3    3    0    0  0.13205744603E+01  0.58762887831E+01 -0.23279887615E+00  0.60273445518E+01  0.51100000000E-03 0. -1.
        -11    1    3    3    0    0 -0.26780156527E+02  0.13603730733E+02 -0.20138136963E+02  0.36163280189E+02  0.51100000000E-03 0.  1.
         12    1    3    3    0    0 -0.93669376769E+00 -0.47234494681E+01 -0.68071503777E+01  0.83382052240E+01  0.00000000000E+00 0. -1.
</event>
<event>
 7    1  0.3250765E-011  0.5052886E+02  0.7816164E-02  0.1300439E+00
        -11   -1    0    0    0    0  0.00000000000E+00  0.00000000000E+00  0.45593999997E+02  0.45594000000E+02  0.51100000000E-03 0.  1.
         11   -1    0    0    0    0 -0.00000000000E+00 -0.00000000000E+00 -0.45593999997E+02  0.45594000000E+02  0.51100000000E-03 0. -1.
    9900012    2    1    2    0    0  0.30364350245E+02 -0.12611193460E+02  0.23919235829E+02  0.50528858237E+02  0.29999995097E+02 0.  0.
         12    1    1    2    0    0 -0.30364350245E+02  0.12611193460E+02 -0.23919235829E+02  0.40659141763E+02  0.00000000000E+00 0. -1.
         11    1    3    3    0    0  0.98763754823E+01  0.40005504323E+01  0.43485742155E+01  0.11509009271E+02  0.51100000000E-03 0. -1.
        -11    1    3    3    0    0  0.19798483225E+02 -0.46841010168E+01  0.17619385256E+02  0.26914001512E+02  0.51100000000E-03 0.  1.
        -12    1    3    3    0    0  0.68949153745E+00 -0.11927642876E+02  0.19512763574E+01  0.12105847454E+02  0.00000000000E+00 0.  1.
</event>
<event>
 7    1  0.3250765E-011  0.5052885E+02  0.7816164E-02  0.1300439E+00
        -11   -1    0    0    0    0  0.00000000000E+00  0.00000000000E+00  0.45593999997E+02  0.45594000000E+02  0.51100000000E-03 0.  1.
         11   -1    0    0    0    0 -0.00000000000E+00 -0.00000000000E+00 -0.45593999997E+02  0.45594000000E+02  0.51100000000E-03 0. -1.
    9900012    2    1    2    0    0 -0.33265591663E+02 -0.65209736262E+01  0.22450925829E+02  0.50528846586E+02  0.29999959684E+02 0.  0.
         12    1    1    2    0    0  0.33265591663E+02  0.65209736262E+01 -0.22450925829E+02  0.40659153414E+02  0.00000000000E+00 0. -1.
         11    1    3    3    0    0  0.22342928379E+01 -0.23453096785E+01  0.22159101540E+01  0.39246401167E+01  0.51100000000E-03 0. -1.
        -11    1    3    3    0    0 -0.18927236809E+02 -0.15596287296E+01 -0.16101949885E+01  0.19059524212E+02  0.51100000000E-03 0.  1.
        -12    1    3    3    0    0 -0.16572647692E+02 -0.26160352180E+01  0.21845210663E+02  0.27544682258E+02  0.00000000000E+00 0.  1.
</event>
<event>
 7    1  0.3250765E-011  0.5052886E+02  0.7816164E-02  0.1300439E+00
        -11   -1    0    0    0    0  0.00000000000E+00  0.00000000000E+00  0.45593999997E+02  0.45594000000E+02  0.51100000000E-03 0. -1.
         11   -1    0    0    0    0 -0.00000000000E+00 -0.00000000000E+00 -0.45593999997E+02  0.45594000000E+02  0.51100000000E-03 0.  1.
    9900012    2    1    2    0    0  0.39636723413E+02  0.90160919556E+01 -0.89765291061E+00  0.50528861571E+02  0.30000005232E+02 0.  0.
         12    1    1    2    0    0 -0.39636723413E+02 -0.90160919556E+01  0.89765291061E+00  0.40659138429E+02  0.00000000000E+00 0. -1.
         11    1    3    3    0    0  0.81345671962E+01 -0.47058964383E+01 -0.30514980580E+01  0.98807026783E+01  0.51100000000E-03 0. -1.
        -11    1    3    3    0    0  0.27992106334E+02  0.41662996466E+01 -0.42554078157E+01  0.28618605237E+02  0.51100000000E-03 0.  1.
        -12    1    3    3    0    0  0.35100498819E+01  0.95556887474E+01  0.64092529630E+01  0.12029553656E+02  0.00000000000E+00 0.  1.
</event>
<event>
 7    1  0.3250765E-011  0.5052886E+02  0.7816164E-02  0.1300439E+00
        -11   -1    0    0    0    0  0.00000000000E+00  0.00000000000E+00  0.45593999997E+02  0.45594000000E+02  0.51100000000E-03 0.  1.
         11   -1    0    0    0    0 -0.00000000000E+00 -0.00000000000E+00 -0.45593999997E+02  0.45594000000E+02  0.51100000000E-03 0. -1.
    9900012    2    1    2    0    0 -0.27173392694E+02  0.19780004510E+01  0.30180451155E+02  0.50528863411E+02  0.30000010824E+02 0.  0.
         12    1    1    2    0    0  0.27173392694E+02 -0.19780004510E+01 -0.30180451155E+02  0.40659136589E+02  0.00000000000E+00 0. -1.
         11    1    3    3    0    0 -0.21205538739E+02  0.82367979609E+01  0.18300171285E+02  0.29196163844E+02  0.51100000000E-03 0. -1.
        -11    1    3    3    0    0 -0.96012241928E+01 -0.67278043229E+01  0.12996388434E+02  0.17502941741E+02  0.51100000000E-03 0.  1.
         12    1    3    3    0    0  0.36333702386E+01  0.46900681303E+00 -0.11161085637E+01  0.38297578262E+01  0.00000000000E+00 0. -1.
</event>
<event>
 7    1  0.3250765E-011  0.5052886E+02  0.7816164E-02  0.1300439E+00
        -11   -1    0    0    0    0  0.00000000000E+00  0.00000000000E+00  0.45593999997E+02  0.45594000000E+02  0.51100000000E-03 0.  1.
         11   -1    0    0    0    0 -0.00000000000E+00 -0.00000000000E+00 -0.45593999997E+02  0.45594000000E+02  0.51100000000E-03 0. -1.
    9900012    2    1    2    0    0 -0.33573082234E+02 -0.46716916816E+01  0.22454161556E+02  0.50528856809E+02  0.29999990756E+02 0.  0.
         12    1    1    2    0    0  0.33573082234E+02  0.46716916816E+01 -0.22454161556E+02  0.40659143191E+02  0.00000000000E+00 0. -1.
         11    1    3    3    0    0 -0.17103199145E+02 -0.28437490610E+01 -0.41116850739E+01  0.17818874379E+02  0.51100000000E-03 0. -1.
        -11    1    3    3    0    0 -0.90309437746E+01 -0.59088483504E+00  0.61398855951E+01  0.10936420151E+02  0.51100000000E-03 0.  1.
         12    1    3    3    0    0 -0.74389393143E+01 -0.12370577856E+01  0.20425961035E+02  0.21773562278E+02  0.00000000000E+00 0. -1.
</event>
<event>
 7    1  0.3250765E-011  0.5052885E+02  0.7816164E-02  0.1300439E+00
        -11   -1    0    0    0    0  0.00000000000E+00  0.00000000000E+00  0.45593999997E+02  0.45594000000E+02  0.51100000000E-03 0.  1.
         11   -1    0    0    0    0 -0.00000000000E+00 -0.00000000000E+00 -0.45593999997E+02  0.45594000000E+02  0.51100000000E-03 0. -1.
    9900012    2    1    2    0    0 -0.35849228122E+02 -0.11754760792E+02  0.15159969691E+02  0.50528852945E+02  0.29999979011E+02 0.  0.
         12    1    1    2    0    0  0.35849228122E+02  0.11754760792E+02 -0.15159969691E+02  0.40659147055E+02  0.00000000000E+00 0. -1.
         11    1    3    3    0    0 -0.22614834805E+01 -0.33792480816E+00  0.80110292066E+01  0.83309717272E+01  0.51100000000E-03 0. -1.
        -11    1    3    3    0    0 -0.25498167538E+02 -0.12445319345E+02  0.13914986302E+02  0.31601730418E+02  0.51100000000E-03 0.  1.
         12    1    3    3    0    0 -0.80895771040E+01  0.10284833608E+01 -0.67660458185E+01  0.10596150799E+02  0.00000000000E+00 0. -1.
</event>
<event>
 7    1  0.3250765E-011  0.5052884E+02  0.7816164E-02  0.1300439E+00
        -11   -1    0    0    0    0  0.00000000000E+00  0.00000000000E+00  0.45593999997E+02  0.45594000000E+02  0.51100000000E-03 0.  1.
         11   -1    0    0    0    0 -0.00000000000E+00 -0.00000000000E+00 -0.45593999997E+02  0.45594000000E+02  0.51100000000E-03 0. -1.
    9900012    2    1    2    0    0 -0.38532426336E+02 -0.87294163358E+01  0.96029440204E+01  0.50528842080E+02  0.29999945986E+02 0.  0.
         12    1    1    2    0    0  0.38532426336E+02  0.87294163358E+01 -0.96029440204E+01  0.40659157920E+02  0.00000000000E+00 0. -1.
         11    1    3    3    0    0 -0.13853706991E+01  0.17363465303E+01  0.23023475296E+00  0.22331949198E+01  0.51100000000E-03 0.  1.
        -11    1    3    3    0    0 -0.31134788957E+02 -0.11457347777E+02  0.17991444597E+02  0.37740402494E+02  0.51100000000E-03 0. -1.
         12    1    3    3    0    0 -0.60122666803E+01  0.99158491082E+00 -0.86187353300E+01  0.10555244666E+02  0.00000000000E+00 0. -1.
</event>
<event>
 7    1  0.3250765E-011  0.5052886E+02  0.7816164E-02  0.1300439E+00
        -11   -1    0    0    0    0  0.00000000000E+00  0.00000000000E+00  0.45593999997E+02  0.45594000000E+02  0.51100000000E-03 0. -1.
         11   -1    0    0    0    0 -0.00000000000E+00 -0.00000000000E+00 -0.45593999997E+02  0.45594000000E+02  0.51100000000E-03 0.  1.
    9900012    2    1    2    0    0  0.27967666296E+02  0.16274543721E+02 -0.24619391694E+02  0.50528861067E+02  0.30000003700E+02 0.  0.
         12    1    1    2    0    0 -0.27967666296E+02 -0.16274543721E+02  0.24619391694E+02  0.40659138933E+02  0.00000000000E+00 0. -1.
         11    1    3    3    0    0  0.10302222473E+02  0.97586940257E-01 -0.11655450598E+02  0.15556183336E+02  0.51100000000E-03 0. -1.
        -11    1    3    3    0    0  0.12317181020E+02  0.18745946692E+02 -0.16697016634E+02  0.27962722157E+02  0.51100000000E-03 0.  1.
         12    1    3    3    0    0  0.53482628033E+01 -0.25689899115E+01  0.37330755383E+01  0.70099555742E+01  0.00000000000E+00 0. -1.
</event>
<event>
 7    1  0.3250765E-011  0.5052887E+02  0.7816164E-02  0.1300439E+00
        -11   -1    0    0    0    0  0.00000000000E+00  0.00000000000E+00  0.45593999997E+02  0.45594000000E+02  0.51100000000E-03 0.  1.
         11   -1    0    0    0    0 -0.00000000000E+00 -0.00000000000E+00 -0.45593999997E+02  0.45594000000E+02  0.51100000000E-03 0. -1.
    9900012    2    1    2    0    0 -0.25760413716E+02  0.15966440432E+02  0.27104226771E+02  0.50528865187E+02  0.30000016222E+02 0.  0.
         12    1    1    2    0    0  0.25760413716E+02 -0.15966440432E+02 -0.27104226771E+02  0.40659134813E+02  0.00000000000E+00 0. -1.
         11    1    3    3    0    0 -0.16288453093E+02  0.98261603575E+01  0.28668836501E+02  0.34405948877E+02  0.51100000000E-03 0. -1.
        -11    1    3    3    0    0 -0.73924262203E+01  0.11983984644E+00  0.33116467692E+01  0.81011932205E+01  0.51100000000E-03 0.  1.
         12    1    3    3    0    0 -0.20795344024E+01  0.60204402282E+01 -0.48762564993E+01  0.80217230891E+01  0.00000000000E+00 0. -1.
</event>
<event>
 7    1  0.3250765E-011  0.5052886E+02  0.7816164E-02  0.1300439E+00
        -11   -1    0    0    0    0  0.00000000000E+00  0.00000000000E+00  0.45593999997E+02  0.45594000000E+02  0.51100000000E-03 0. -1.
         11   -1    0    0    0    0 -0.00000000000E+00 -0.00000000000E+00 -0.45593999997E+02  0.45594000000E+02  0.51100000000E-03 0.  1.
    9900012    2    1    2    0    0 -0.33076143150E+02 -0.18163511259E+02  0.15140061591E+02  0.50528857708E+02  0.29999993489E+02 0.  0.
         12    1    1    2    0    0  0.33076143150E+02  0.18163511259E+02 -0.15140061591E+02  0.40659142292E+02  0.00000000000E+00 0. -1.
         11    1    3    3    0    0 -0.19186775087E+02 -0.50176732257E+01  0.11099570395E+02  0.22726852973E+02  0.51100000000E-03 0. -1.
        -11    1    3    3    0    0 -0.12191978253E+02 -0.15967740562E+02  0.88663634898E+01  0.21959632833E+02  0.51100000000E-03 0.  1.
         12    1    3    3    0    0 -0.16973898109E+01  0.28219025283E+01 -0.48258722938E+01  0.58423719023E+01  0.00000000000E+00 0. -1.
</event>
<event>
 7    1  0.3250765E-011  0.5052886E+02  0.7816164E-02  0.1300439E+00
        -11   -1    0    0    0    0  0.00000000000E+00  0.00000000000E+00  0.45593999997E+02  0.45594000000E+02  0.51100000000E-03 0.  1.
         11   -1    0    0    0    0 -0.00000000000E+00 -0.00000000000E+00 -0.45593999997E+02  0.45594000000E+02  0.51100000000E-03 0. -1.
    9900012    2    1    2    0    0  0.24578060531E+02  0.32147076790E+02  0.39560139605E+01  0.50528860166E+02  0.30000000960E+02 0.  0.
         12    1    1    2    0    0 -0.24578060531E+02 -0.32147076790E+02 -0.39560139605E+01  0.40659139834E+02  0.00000000000E+00 0. -1.
         11    1    3    3    0    0 -0.22206680671E+01  0.15994338130E+01 -0.36165492735E+01  0.45353041900E+01  0.51100000000E-03 0. -1.
        -11    1    3    3    0    0  0.11982637040E+02  0.13322912521E+02 -0.67361155163E+01  0.19143114715E+02  0.51100000000E-03 0.  1.
        -12    1    3    3    0    0  0.14816091558E+02  0.17224730455E+02  0.14308678750E+02  0.26850441261E+02  0.00000000000E+00 0.  1.
</event>
<event>
 7    1  0.3250765E-011  0.5052885E+02  0.7816164E-02  0.1300439E+00
        -11   -1    0    0    0    0  0.00000000000E+00  0.00000000000E+00  0.45593999997E+02  0.45594000000E+02  0.51100000000E-03 0.  1.
         11   -1    0    0    0    0 -0.00000000000E+00 -0.00000000000E+00 -0.45593999997E+02  0.45594000000E+02  0.51100000000E-03 0. -1.
    9900012    2    1    2    0    0 -0.26285309259E+02  0.30889226024E+02  0.28468978053E+01  0.50528848578E+02  0.29999965739E+02 0.  0.
         12    1    1    2    0    0  0.26285309259E+02 -0.30889226024E+02 -0.28468978053E+01  0.40659151422E+02  0.00000000000E+00 0. -1.
         11    1    3    3    0    0 -0.60492706181E+01  0.36130157930E+01 -0.37584466639E+01  0.79858299330E+01  0.51100000000E-03 0. -1.
        -11    1    3    3    0    0 -0.18637381625E+02  0.30493486123E+02  0.83747960690E+00  0.35747811990E+02  0.51100000000E-03 0.  1.
         12    1    3    3    0    0 -0.15986570161E+01 -0.32172758912E+01  0.57678648623E+01  0.67952066551E+01  0.00000000000E+00 0. -1.
</event>
<event>
 7    1  0.3250765E-011  0.5052885E+02  0.7816164E-02  0.1300439E+00
        -11   -1    0    0    0    0  0.00000000000E+00  0.00000000000E+00  0.45593999997E+02  0.45594000000E+02  0.51100000000E-03 0. -1.
         11   -1    0    0    0    0 -0.00000000000E+00 -0.00000000000E+00 -0.45593999997E+02  0.45594000000E+02  0.51100000000E-03 0.  1.
    9900012    2    1    2    0    0  0.37621404406E+02  0.65005625112E+01 -0.13983530146E+02  0.50528849765E+02  0.29999969347E+02 0.  0.
         12    1    1    2    0    0 -0.37621404406E+02 -0.65005625112E+01  0.13983530146E+02  0.40659150235E+02  0.00000000000E+00 0. -1.
         11    1    3    3    0    0  0.91305705876E+01  0.55120833111E+01 -0.15798428356E+02  0.19061498379E+02  0.51100000000E-03 0. -1.
        -11    1    3    3    0    0  0.16551559624E+02 -0.21373352366E+01 -0.49311832409E+01  0.17402266988E+02  0.51100000000E-03 0.  1.
         12    1    3    3    0    0  0.11939274195E+02  0.31258144367E+01  0.67460814508E+01  0.14065084398E+02  0.00000000000E+00 0. -1.
</event>
<event>
 7    1  0.3250765E-011  0.5052887E+02  0.7816164E-02  0.1300439E+00
        -11   -1    0    0    0    0  0.00000000000E+00  0.00000000000E+00  0.45593999997E+02  0.45594000000E+02  0.51100000000E-03 0. -1.
         11   -1    0    0    0    0 -0.00000000000E+00 -0.00000000000E+00 -0.45593999997E+02  0.45594000000E+02  0.51100000000E-03 0.  1.
    9900012    2    1    2    0    0  0.23027893022E+02  0.19717711491E+02 -0.27094145908E+02  0.50528871309E+02  0.30000034830E+02 0.  0.
         12    1    1    2    0    0 -0.23027893022E+02 -0.19717711491E+02  0.27094145908E+02  0.40659128691E+02  0.00000000000E+00 0. -1.
         11    1    3    3    0    0  0.48739391053E+01  0.58336973247E+01  0.48297827821E+01  0.90063371502E+01  0.51100000000E-03 0. -1.
        -11    1    3    3    0    0  0.13556275833E+02  0.55249019371E+01 -0.10334574249E+02  0.17919279591E+02  0.51100000000E-03 0.  1.
        -12    1    3    3    0    0  0.45976780839E+01  0.83591122287E+01 -0.21589354441E+02  0.23603254568E+02  0.00000000000E+00 0.  1.
</event>
<event>
 7    1  0.3250765E-011  0.5052886E+02  0.7816164E-02  0.1300439E+00
        -11   -1    0    0    0    0  0.00000000000E+00  0.00000000000E+00  0.45593999997E+02  0.45594000000E+02  0.51100000000E-03 0.  1.
         11   -1    0    0    0    0 -0.00000000000E+00 -0.00000000000E+00 -0.45593999997E+02  0.45594000000E+02  0.51100000000E-03 0. -1.
    9900012    2    1    2    0    0 -0.20019241661E+02  0.34576745131E+02  0.75395005976E+01  0.50528863146E+02  0.30000010017E+02 0.  0.
         12    1    1    2    0    0  0.20019241661E+02 -0.34576745131E+02 -0.75395005976E+01  0.40659136854E+02  0.00000000000E+00 0. -1.
         11    1    3    3    0    0  0.23081493716E+01  0.10316090664E+02 -0.34288466602E+01  0.11113337473E+02  0.51100000000E-03 0. -1.
        -11    1    3    3    0    0 -0.16713671134E+02  0.22134565595E+02  0.96924808132E+00  0.27752932079E+02  0.51100000000E-03 0.  1.
         12    1    3    3    0    0 -0.56137198985E+01  0.21260888709E+01  0.99990991765E+01  0.11662593593E+02  0.00000000000E+00 0. -1.
</event>
<event>
 7    1  0.3250765E-011  0.5052886E+02  0.7816164E-02  0.1300439E+00
        -11   -1    0    0    0    0  0.00000000000E+00  0.00000000000E+00  0.45593999997E+02  0.45594000000E+02  0.51100000000E-03 0.  1.
         11   -1    0    0    0    0 -0.00000000000E+00 -0.00000000000E+00 -0.45593999997E+02  0.45594000000E+02  0.51100000000E-03 0. -1.
    9900012    2    1    2    0    0 -0.36612730002E+02 -0.36572236547E+01  0.17300234467E+02  0.50528863319E+02  0.30000010543E+02 0.  0.
         12    1    1    2    0    0  0.36612730002E+02  0.36572236547E+01 -0.17300234467E+02  0.40659136681E+02  0.00000000000E+00 0. -1.
         11    1    3    3    0    0 -0.15977786843E+02  0.41254686288E+01  0.87516837347E+01  0.18678895371E+02  0.51100000000E-03 0. -1.
        -11    1    3    3    0    0 -0.24994322853E+02 -0.52873373516E+01  0.61180947647E+01  0.26269815283E+02  0.51100000000E-03 0.  1.
         12    1    3    3    0    0  0.43593796946E+01 -0.24953549319E+01  0.24304559678E+01  0.55801526654E+01  0.00000000000E+00 0. -1.
</event>
<event>
 7    1  0.3250765E-011  0.5052886E+02  0.7816164E-02  0.1300439E+00
        -11   -1    0    0    0    0  0.00000000000E+00  0.00000000000E+00  0.45593999997E+02  0.45594000000E+02  0.51100000000E-03 0. -1.
         11   -1    0    0    0    0 -0.00000000000E+00 -0.00000000000E+00 -0.45593999997E+02  0.45594000000E+02  0.51100000000E-03 0.  1.
    9900012    2    1    2    0    0 -0.18459147927E+01  0.40078782909E+02 -0.65916104150E+01  0.50528861190E+02  0.30000004073E+02 0.  0.
         12    1    1    2    0    0  0.18459147927E+01 -0.40078782909E+02  0.65916104150E+01  0.40659138810E+02  0.00000000000E+00 0. -1.
         11    1    3    3    0    0  0.53055043521E+01  0.13347289896E+02  0.25251406344E+01  0.14583376134E+02  0.51100000000E-03 0. -1.
        -11    1    3    3    0    0 -0.19960774683E+01 -0.12001883661E+00  0.48476720198E+01  0.52439159083E+01  0.51100000000E-03 0.  1.
         12    1    3    3    0    0 -0.51553416764E+01  0.26851511850E+02 -0.13964423069E+02  0.30701569147E+02  0.00000000000E+00 0. -1.
</event>
<event>
 7    1  0.3250765E-011  0.5052886E+02  0.7816164E-02  0.1300439E+00
        -11   -1    0    0    0    0  0.00000000000E+00  0.00000000000E+00  0.45593999997E+02  0.45594000000E+02  0.51100000000E-03 0.  1.
         11   -1    0    0    0    0 -0.00000000000E+00 -0.00000000000E+00 -0.45593999997E+02  0.45594000000E+02  0.51100000000E-03 0. -1.
    9900012    2    1    2    0    0  0.18395410403E+01 -0.26934315338E+02  0.30402708301E+02  0.50528856797E+02  0.29999990719E+02 0.  0.
         12    1    1    2    0    0 -0.18395410403E+01  0.26934315338E+02 -0.30402708301E+02  0.40659143203E+02  0.00000000000E+00 0. -1.
         11    1    3    3    0    0 -0.99286166016E+00 -0.11388396785E+02  0.15530060238E+02  0.19283778853E+02  0.51100000000E-03 0. -1.
        -11    1    3    3    0    0  0.82902971888E+01 -0.12616667497E+02 -0.40444582859E-01  0.15096720248E+02  0.51100000000E-03 0.  1.
         12    1    3    3    0    0 -0.54578944884E+01 -0.29292510561E+01  0.14913092646E+02  0.16148357696E+02  0.00000000000E+00 0. -1.
</event>
<event>
 7    1  0.3250765E-011  0.5052887E+02  0.7816164E-02  0.1300439E+00
        -11   -1    0    0    0    0  0.00000000000E+00  0.00000000000E+00  0.45593999997E+02  0.45594000000E+02  0.51100000000E-03 0. -1.
         11   -1    0    0    0    0 -0.00000000000E+00 -0.00000000000E+00 -0.45593999997E+02  0.45594000000E+02  0.51100000000E-03 0.  1.
    9900012    2    1    2    0    0  0.10035610010E+02 -0.28567833607E+02 -0.27135411760E+02  0.50528866258E+02  0.30000019477E+02 0.  0.
         12    1    1    2    0    0 -0.10035610010E+02  0.28567833607E+02  0.27135411760E+02  0.40659133742E+02  0.00000000000E+00 0. -1.
         11    1    3    3    0    0 -0.27098522814E+01 -0.62393443658E+01 -0.78437308723E+01  0.10382525307E+02  0.51100000000E-03 0. -1.
        -11    1    3    3    0    0  0.19226248766E+02 -0.20806517873E+02 -0.17315121068E+02  0.33202006648E+02  0.51100000000E-03 0.  1.
         12    1    3    3    0    0 -0.64807864747E+01 -0.15219713679E+01 -0.19765598200E+01  0.69443343020E+01  0.00000000000E+00 0. -1.
</event>
<event>
 7    1  0.3250765E-011  0.5052887E+02  0.7816164E-02  0.1300439E+00
        -11   -1    0    0    0    0  0.00000000000E+00  0.00000000000E+00  0.45593999997E+02  0.45594000000E+02  0.51100000000E-03 0. -1.
         11   -1    0    0    0    0 -0.00000000000E+00 -0.00000000000E+00 -0.45593999997E+02  0.45594000000E+02  0.51100000000E-03 0.  1.
    9900012    2    1    2    0    0 -0.22815034363E+02 -0.65465820779E+01 -0.33011838258E+02  0.50528868245E+02  0.30000025517E+02 0.  0.
         12    1    1    2    0    0  0.22815034363E+02  0.65465820779E+01  0.33011838258E+02  0.40659131755E+02  0.00000000000E+00 0. -1.
         11    1    3    3    0    0 -0.20501442538E+02 -0.96880277482E+01 -0.95816608970E+01  0.24616564618E+02  0.51100000000E-03 0. -1.
        -11    1    3    3    0    0 -0.62225493180E+01  0.18367166953E+01 -0.10514161628E+02  0.12354806483E+02  0.51100000000E-03 0.  1.
         12    1    3    3    0    0  0.39089574926E+01  0.13047289749E+01 -0.12916015734E+02  0.13557497144E+02  0.00000000000E+00 0. -1.
</event>
<event>
 7    1  0.3250765E-011  0.5052886E+02  0.7816164E-02  0.1300439E+00
        -11   -1    0    0    0    0  0.00000000000E+00  0.00000000000E+00  0.45593999997E+02  0.45594000000E+02  0.51100000000E-03 0.  1.
         11   -1    0    0    0    0 -0.00000000000E+00 -0.00000000000E+00 -0.45593999997E+02  0.45594000000E+02  0.51100000000E-03 0. -1.
    9900012    2    1    2    0    0  0.26709954796E+01 -0.33822999274E+02  0.22406162372E+02  0.50528860695E+02  0.30000002569E+02 0.  0.
         12    1    1    2    0    0 -0.26709954796E+01  0.33822999274E+02 -0.22406162372E+02  0.40659139305E+02  0.00000000000E+00 0. -1.
         11    1    3    3    0    0 -0.10083727786E+02 -0.14260575308E+02  0.44782717859E+01  0.18030543326E+02  0.51100000000E-03 0. -1.
        -11    1    3    3    0    0  0.14428671739E+01 -0.49021655897E+01  0.12020803728E+02  0.13061884079E+02  0.51100000000E-03 0.  1.
         12    1    3    3    0    0  0.11311856092E+02 -0.14660258376E+02  0.59070868579E+01  0.19436433290E+02  0.00000000000E+00 0. -1.
</event>
<event>
 7    1  0.3250765E-011  0.5052886E+02  0.7816164E-02  0.1300439E+00
        -11   -1    0    0    0    0  0.00000000000E+00  0.00000000000E+00  0.45593999997E+02  0.45594000000E+02  0.51100000000E-03 0. -1.
         11   -1    0    0    0    0 -0.00000000000E+00 -0.00000000000E+00 -0.45593999997E+02  0.45594000000E+02  0.51100000000E-03 0.  1.
    9900012    2    1    2    0    0  0.86901062255E+01  0.37750838328E+02 -0.12349970521E+02  0.50528861882E+02  0.30000006175E+02 0.  0.
         12    1    1    2    0    0 -0.86901062255E+01 -0.37750838328E+02  0.12349970521E+02  0.40659138118E+02  0.00000000000E+00 0. -1.
         11    1    3    3    0    0  0.74683772199E+01  0.65347772308E+01  0.51985503444E+01  0.11202896844E+02  0.51100000000E-03 0. -1.
        -11    1    3    3    0    0 -0.15064068796E+01  0.10766543940E+02  0.18264271115E+01  0.11023772782E+02  0.51100000000E-03 0.  1.
        -12    1    3    3    0    0  0.27281358852E+01  0.20449517157E+02 -0.19374947977E+02  0.28302192256E+02  0.00000000000E+00 0.  1.
</event>
<event>
 7    1  0.3250765E-011  0.5052885E+02  0.7816164E-02  0.1300439E+00
        -11   -1    0    0    0    0  0.00000000000E+00  0.00000000000E+00  0.45593999997E+02  0.45594000000E+02  0.51100000000E-03 0. -1.
         11   -1    0    0    0    0 -0.00000000000E+00 -0.00000000000E+00 -0.45593999997E+02  0.45594000000E+02  0.51100000000E-03 0.  1.
    9900012    2    1    2    0    0 -0.13455008243E+02  0.37238204577E+02  0.92436711671E+01  0.50528848711E+02  0.29999966141E+02 0.  0.
         12    1    1    2    0    0  0.13455008243E+02 -0.37238204577E+02 -0.92436711671E+01  0.40659151289E+02  0.00000000000E+00 0. -1.
         11    1    3    3    0    0 -0.48705765044E+01  0.22831148807E+01  0.64766325088E+01  0.84191387896E+01  0.51100000000E-03 0. -1.
        -11    1    3    3    0    0 -0.14940629200E+02  0.21927304565E+02 -0.25813821019E+01  0.26658818807E+02  0.51100000000E-03 0.  1.
         12    1    3    3    0    0  0.63561974610E+01  0.13027785131E+02  0.53484207603E+01  0.15450891114E+02  0.00000000000E+00 0. -1.
</event>
<event>
 7    1  0.3250765E-011  0.5052886E+02  0.7816164E-02  0.1300439E+00
        -11   -1    0    0    0    0  0.00000000000E+00  0.00000000000E+00  0.45593999997E+02  0.45594000000E+02  0.51100000000E-03 0. -1.
         11   -1    0    0    0    0 -0.00000000000E+00 -0.00000000000E+00 -0.45593999997E+02  0.45594000000E+02  0.51100000000E-03 0.  1.
    9900012    2    1    2    0    0  0.25786139961E+02 -0.20102677380E+02 -0.24168645348E+02  0.50528855028E+02  0.29999985342E+02 0.  0.
         12    1    1    2    0    0 -0.25786139961E+02  0.20102677380E+02  0.24168645348E+02  0.40659144972E+02  0.00000000000E+00 0. -1.
         11    1    3    3    0    0  0.13325747326E+01 -0.63143457890E+01 -0.85536419790E+01  0.10715013277E+02  0.51100000000E-03 0. -1.
        -11    1    3    3    0    0  0.22953201278E+02 -0.43871458647E+01 -0.18566713042E+02  0.29846596644E+02  0.51100000000E-03 0.  1.
        -12    1    3    3    0    0  0.15003639496E+01 -0.94011857259E+01  0.29517096724E+01  0.99672451070E+01  0.00000000000E+00 0.  1.
</event>
<event>
 7    1  0.3250765E-011  0.5052894E+02  0.7816164E-02  0.1300439E+00
        -11   -1    0    0    0    0  0.00000000000E+00  0.00000000000E+00  0.45593999997E+02  0.45594000000E+02  0.51100000000E-03 0. -1.
         11   -1    0    0    0    0 -0.00000000000E+00 -0.00000000000E+00 -0.45593999997E+02  0.45594000000E+02  0.51100000000E-03 0.  1.
    9900012    2    1    2    0    0 -0.24482745963E+02 -0.22105520831E+02 -0.23771837428E+02  0.50528940053E+02  0.30000243785E+02 0.  0.
         12    1    1    2    0    0  0.24482745963E+02  0.22105520831E+02  0.23771837428E+02  0.40659059947E+02  0.00000000000E+00 0. -1.
         11    1    3    3    0    0 -0.16499339916E+02  0.34057831626E+01 -0.10961409423E+02  0.20099255543E+02  0.51100000000E-03 0. -1.
        -11    1    3    3    0    0 -0.33550800782E+01 -0.13190034048E+02 -0.28038196574E+01  0.13895861451E+02  0.51100000000E-03 0.  1.
        -12    1    3    3    0    0 -0.46283259689E+01 -0.12321269945E+02 -0.10006608347E+02  0.16533823059E+02  0.00000000000E+00 0.  1.
</event>
<event>
 7    1  0.3250765E-011  0.5052884E+02  0.7816164E-02  0.1300439E+00
        -11   -1    0    0    0    0  0.00000000000E+00  0.00000000000E+00  0.45593999997E+02  0.45594000000E+02  0.51100000000E-03 0. -1.
         11   -1    0    0    0    0 -0.00000000000E+00 -0.00000000000E+00 -0.45593999997E+02  0.45594000000E+02  0.51100000000E-03 0.  1.
    9900012    2    1    2    0    0  0.37598108595E+02  0.13114188000E+02  0.82199422809E+01  0.50528841770E+02  0.29999945045E+02 0.  0.
         12    1    1    2    0    0 -0.37598108595E+02 -0.13114188000E+02 -0.82199422809E+01  0.40659158230E+02  0.00000000000E+00 0. -1.
         11    1    3    3    0    0  0.52541595998E+01  0.66468378305E+01  0.35810507776E+01  0.91984004684E+01  0.51100000000E-03 0. -1.
        -11    1    3    3    0    0  0.39915799509E+01  0.11388196515E+02 -0.59491011233E+00  0.12082121033E+02  0.51100000000E-03 0.  1.
         12    1    3    3    0    0  0.28352369044E+02 -0.49208463447E+01  0.52338016156E+01  0.29248320269E+02  0.00000000000E+00 0. -1.
</event>
<event>
 7    1  0.3250765E-011  0.5052884E+02  0.7816164E-02  0.1300439E+00
        -11   -1    0    0    0    0  0.00000000000E+00  0.00000000000E+00  0.45593999997E+02  0.45594000000E+02  0.51100000000E-03 0.  1.
         11   -1    0    0    0    0 -0.00000000000E+00 -0.00000000000E+00 -0.45593999997E+02  0.45594000000E+02  0.51100000000E-03 0. -1.
    9900012    2    1    2    0    0  0.15644873237E+02  0.29891947268E+01  0.37409484711E+02  0.50528844942E+02  0.29999954685E+02 0.  0.
         12    1    1    2    0    0 -0.15644873237E+02 -0.29891947268E+01 -0.37409484711E+02  0.40659155058E+02  0.00000000000E+00 0. -1.
         11    1    3    3    0    0 -0.28049611090E+01 -0.17678190867E+01  0.49504489315E+00  0.33523217110E+01  0.51100000000E-03 0. -1.
        -11    1    3    3    0    0 -0.10008876586E+01  0.16341185135E+01  0.22948639793E+02  0.23028508159E+02  0.51100000000E-03 0.  1.
        -12    1    3    3    0    0  0.19450722005E+02  0.31228952999E+01  0.13965800024E+02  0.24148015072E+02  0.00000000000E+00 0.  1.
</event>
<event>
 7    1  0.3250765E-011  0.5052886E+02  0.7816164E-02  0.1300439E+00
        -11   -1    0    0    0    0  0.00000000000E+00  0.00000000000E+00  0.45593999997E+02  0.45594000000E+02  0.51100000000E-03 0. -1.
         11   -1    0    0    0    0 -0.00000000000E+00 -0.00000000000E+00 -0.45593999997E+02  0.45594000000E+02  0.51100000000E-03 0.  1.
    9900012    2    1    2    0    0  0.24695517148E+02  0.27863222846E+02 -0.16338235597E+02  0.50528859613E+02  0.29999999279E+02 0.  0.
         12    1    1    2    0    0 -0.24695517148E+02 -0.27863222846E+02  0.16338235597E+02  0.40659140387E+02  0.00000000000E+00 0. -1.
         11    1    3    3    0    0  0.83165420015E+00  0.19701730437E+01 -0.25630476560E+01  0.33380299697E+01  0.51100000000E-03 0.  1.
        -11    1    3    3    0    0  0.35962958299E+01  0.18495322554E+02 -0.16997967239E+02  0.25375996347E+02  0.51100000000E-03 0. -1.
         12    1    3    3    0    0  0.20267567118E+02  0.73977272486E+01  0.32227792983E+01  0.21814833296E+02  0.00000000000E+00 0. -1.
</event>
<event>
 7    1  0.3250765E-011  0.5052887E+02  0.7816164E-02  0.1300439E+00
        -11   -1    0    0    0    0  0.00000000000E+00  0.00000000000E+00  0.45593999997E+02  0.45594000000E+02  0.51100000000E-03 0.  1.
         11   -1    0    0    0    0 -0.00000000000E+00 -0.00000000000E+00 -0.45593999997E+02  0.45594000000E+02  0.51100000000E-03 0. -1.
    9900012    2    1    2    0    0 -0.23910624023E+02 -0.32758773495E+02  0.28826346628E+01  0.50528871078E+02  0.30000034130E+02 0.  0.
         12    1    1    2    0    0  0.23910624023E+02  0.32758773495E+02 -0.28826346628E+01  0.40659128922E+02  0.00000000000E+00 0. -1.
         11    1    3    3    0    0 -0.10671904243E+02 -0.16460667791E+01 -0.36575464948E+01  0.11400733425E+02  0.51100000000E-03 0. -1.
        -11    1    3    3    0    0 -0.85090197821E+01 -0.21510657304E+02 -0.47018461753E+01  0.23605489891E+02  0.51100000000E-03 0.  1.
        -12    1    3    3    0    0 -0.47296999983E+01 -0.96020494120E+01  0.11242027333E+02  0.15522647762E+02  0.00000000000E+00 0.  1.
</event>
<event>
 7    1  0.3250765E-011  0.5052885E+02  0.7816164E-02  0.1300439E+00
        -11   -1    0    0    0    0  0.00000000000E+00  0.00000000000E+00  0.45593999997E+02  0.45594000000E+02  0.51100000000E-03 0. -1.
         11   -1    0    0    0    0 -0.00000000000E+00 -0.00000000000E+00 -0.45593999997E+02  0.45594000000E+02  0.51100000000E-03 0.  1.
    9900012    2    1    2    0    0  0.13668470963E+02  0.32257667752E+02 -0.20634484636E+02  0.50528853630E+02  0.29999981095E+02 0.  0.
         12    1    1    2    0    0 -0.13668470963E+02 -0.32257667752E+02  0.20634484636E+02  0.40659146370E+02  0.00000000000E+00 0. -1.
         11    1    3    3    0    0 -0.13389231090E+01 -0.27000367064E+01  0.99803621946E+00  0.31747424879E+01  0.51100000000E-03 0. -1.
        -11    1    3    3    0    0  0.14120551805E+02  0.10647425573E+02 -0.10825148784E+02  0.20735030771E+02  0.51100000000E-03 0.  1.
        -12    1    3    3    0    0  0.88684226697E+00  0.24310278886E+02 -0.10807372072E+02  0.26619080371E+02  0.00000000000E+00 0.  1.
</event>
<event>
 7    1  0.3250765E-011  0.5052885E+02  0.7816164E-02  0.1300439E+00
        -11   -1    0    0    0    0  0.00000000000E+00  0.00000000000E+00  0.45593999997E+02  0.45594000000E+02  0.51100000000E-03 0.  1.
         11   -1    0    0    0    0 -0.00000000000E+00 -0.00000000000E+00 -0.45593999997E+02  0.45594000000E+02  0.51100000000E-03 0. -1.
    9900012    2    1    2    0    0  0.38109434441E+01 -0.85909403410E+01  0.39558045538E+02  0.50528849583E+02  0.29999968792E+02 0.  0.
         12    1    1    2    0    0 -0.38109434441E+01  0.85909403410E+01 -0.39558045538E+02  0.40659150417E+02  0.00000000000E+00 0. -1.
         11    1    3    3    0    0  0.51042720551E+01 -0.13120642757E+01 -0.10755123837E+01  0.53788319386E+01  0.51100000000E-03 0. -1.
        -11    1    3    3    0    0  0.26338305833E+00  0.58717850719E+01  0.79600626120E+01  0.98949394952E+01  0.51100000000E-03 0.  1.
         12    1    3    3    0    0 -0.15567116693E+01 -0.13150661137E+02  0.32673495309E+02  0.35255078149E+02  0.00000000000E+00 0. -1.
</event>
<event>
 7    1  0.3250765E-011  0.5052886E+02  0.7816164E-02  0.1300439E+00
        -11   -1    0    0    0    0  0.00000000000E+00  0.00000000000E+00  0.45593999997E+02  0.45594000000E+02  0.51100000000E-03 0. -1.
         11   -1    0    0    0    0 -0.00000000000E+00 -0.00000000000E+00 -0.45593999997E+02  0.45594000000E+02  0.51100000000E-03 0.  1.
    9900012    2    1    2    0    0  0.56976904933E+01  0.10337943997E+02 -0.38907951251E+02  0.50528862852E+02  0.30000009126E+02 0.  0.
         12    1    1    2    0    0 -0.56976904933E+01 -0.10337943997E+02  0.38907951251E+02  0.40659137148E+02  0.00000000000E+00 0. -1.
         11    1    3    3    0    0  0.28582364287E+01  0.50346909238E+01  0.14031575696E+01  0.59570529296E+01  0.51100000000E-03 0. -1.
        -11    1    3    3    0    0 -0.71824466885E+01 -0.78430125613E+00 -0.17209014932E+02  0.18664213460E+02  0.51100000000E-03 0.  1.
        -12    1    3    3    0    0  0.10021900753E+02  0.60875543290E+01 -0.23102093889E+02  0.25907596462E+02  0.00000000000E+00 0.  1.
</event>
<event>
 7    1  0.3250765E-011  0.5052886E+02  0.7816164E-02  0.1300439E+00
        -11   -1    0    0    0    0  0.00000000000E+00  0.00000000000E+00  0.45593999997E+02  0.45594000000E+02  0.51100000000E-03 0. -1.
         11   -1    0    0    0    0 -0.00000000000E+00 -0.00000000000E+00 -0.45593999997E+02  0.45594000000E+02  0.51100000000E-03 0.  1.
    9900012    2    1    2    0    0  0.33885761996E+02  0.32406453967E+01 -0.22235535631E+02  0.50528859657E+02  0.29999999412E+02 0.  0.
         12    1    1    2    0    0 -0.33885761996E+02 -0.32406453967E+01  0.22235535631E+02  0.40659140343E+02  0.00000000000E+00 0. -1.
         11    1    3    3    0    0  0.71573726435E+01 -0.73475606354E+01 -0.13620484585E+02  0.17050871856E+02  0.51100000000E-03 0. -1.
        -11    1    3    3    0    0  0.22497348738E+02  0.64169034774E+01 -0.12355765731E+02  0.26456989578E+02  0.51100000000E-03 0.  1.
        -12    1    3    3    0    0  0.42310406150E+01  0.41713025547E+01  0.37407146852E+01  0.70209982228E+01  0.00000000000E+00 0.  1.
</event>
<event>
 7    1  0.3250765E-011  0.5052885E+02  0.7816164E-02  0.1300439E+00
        -11   -1    0    0    0    0  0.00000000000E+00  0.00000000000E+00  0.45593999997E+02  0.45594000000E+02  0.51100000000E-03 0.  1.
         11   -1    0    0    0    0 -0.00000000000E+00 -0.00000000000E+00 -0.45593999997E+02  0.45594000000E+02  0.51100000000E-03 0. -1.
    9900012    2    1    2    0    0 -0.11297930130E+01  0.39277584461E+02  0.10448029332E+02  0.50528851088E+02  0.29999973368E+02 0.  0.
         12    1    1    2    0    0  0.11297930130E+01 -0.39277584461E+02 -0.10448029332E+02  0.40659148912E+02  0.00000000000E+00 0. -1.
         11    1    3    3    0    0 -0.10372958656E+02  0.93097976027E+01  0.29564989124E+01  0.14248210020E+02  0.51100000000E-03 0. -1.
        -11    1    3    3    0    0  0.43720387807E+01 -0.64027792652E+00  0.10778574921E+00  0.44199883430E+01  0.51100000000E-03 0.  1.
        -12    1    3    3    0    0  0.48711268623E+01  0.30608064784E+02  0.73837446700E+01  0.31860652726E+02  0.00000000000E+00 0.  1.
</event>
<event>
 7    1  0.3250765E-011  0.5052887E+02  0.7816164E-02  0.1300439E+00
        -11   -1    0    0    0    0  0.00000000000E+00  0.00000000000E+00  0.45593999997E+02  0.45594000000E+02  0.51100000000E-03 0.  1.
         11   -1    0    0    0    0 -0.00000000000E+00 -0.00000000000E+00 -0.45593999997E+02  0.45594000000E+02  0.51100000000E-03 0. -1.
    9900012    2    1    2    0    0  0.38131044955E+02 -0.13883826499E+02 -0.25353184896E+01  0.50528867355E+02  0.30000022812E+02 0.  0.
         12    1    1    2    0    0 -0.38131044955E+02  0.13883826499E+02  0.25353184896E+01  0.40659132645E+02  0.00000000000E+00 0. -1.
         11    1    3    3    0    0  0.67226142503E+01  0.56731742602E+01 -0.17720245154E+01  0.89732112251E+01  0.51100000000E-03 0. -1.
        -11    1    3    3    0    0  0.17897420937E+02 -0.35064773481E+01 -0.72043034540E+01  0.19609055258E+02  0.51100000000E-03 0.  1.
        -12    1    3    3    0    0  0.13511009768E+02 -0.16050523411E+02  0.64410094799E+01  0.21946600872E+02  0.00000000000E+00 0.  1.
</event>
<event>
 7    1  0.3250765E-011  0.5052885E+02  0.7816164E-02  0.1300439E+00
        -11   -1    0    0    0    0  0.00000000000E+00  0.00000000000E+00  0.45593999997E+02  0.45594000000E+02  0.51100000000E-03 0.  1.
         11   -1    0    0    0    0 -0.00000000000E+00 -0.00000000000E+00 -0.45593999997E+02  0.45594000000E+02  0.51100000000E-03 0. -1.
    9900012    2    1    2    0    0  0.11664437020E+02  0.38827430756E+02  0.30883045390E+01  0.50528854719E+02  0.29999984403E+02 0.  0.
         12    1    1    2    0    0 -0.11664437020E+02 -0.38827430756E+02 -0.30883045390E+01  0.40659145281E+02  0.00000000000E+00 0. -1.
         11    1    3    3    0    0 -0.19121340282E+01 -0.41869241055E+01 -0.19151903484E+01  0.49854332147E+01  0.51100000000E-03 0. -1.
        -11    1    3    3    0    0  0.50495885001E+01  0.18376766449E+02  0.38730697567E+01  0.19447482067E+02  0.51100000000E-03 0.  1.
        -12    1    3    3    0    0  0.85269825477E+01  0.24637588412E+02  0.11304251307E+01  0.26095939438E+02  0.00000000000E+00 0.  1.
</event>
<event>
 7    1  0.3250765E-011  0.5052898E+02  0.7816164E-02  0.1300438E+00
        -11   -1    0    0    0    0  0.00000000000E+00  0.00000000000E+00  0.45593999997E+02  0.45594000000E+02  0.51100000000E-03 0. -1.
         11   -1    0    0    0    0 -0.00000000000E+00 -0.00000000000E+00 -0.45593999997E+02  0.45594000000E+02  0.51100000000E-03 0.  1.
    9900012    2    1    2    0    0  0.12241238285E+02  0.17838733374E+02 -0.34425098752E+02  0.50528981970E+02  0.30000371193E+02 0.  0.
         12    1    1    2    0    0 -0.12241238285E+02 -0.17838733374E+02  0.34425098752E+02  0.40659018030E+02  0.00000000000E+00 0. -1.
         11    1    3    3    0    0  0.63844451807E+01  0.58126845252E+00 -0.37573102526E+01  0.74307734371E+01  0.51100000000E-03 0. -1.
        -11    1    3    3    0    0 -0.38682327545E+01 -0.71707709321E+00  0.21152790852E+01  0.44667471465E+01  0.51100000000E-03 0.  1.
        -12    1    3    3    0    0  0.97250258591E+01  0.17974542015E+02 -0.32783067584E+02  0.38631461386E+02  0.00000000000E+00 0.  1.
</event>
<event>
 7    1  0.3250765E-011  0.5052887E+02  0.7816164E-02  0.1300439E+00
        -11   -1    0    0    0    0  0.00000000000E+00  0.00000000000E+00  0.45593999997E+02  0.45594000000E+02  0.51100000000E-03 0. -1.
         11   -1    0    0    0    0 -0.00000000000E+00 -0.00000000000E+00 -0.45593999997E+02  0.45594000000E+02  0.51100000000E-03 0.  1.
    9900012    2    1    2    0    0 -0.19135221036E+01  0.40504710542E+02  0.29785938252E+01  0.50528866167E+02  0.30000019200E+02 0.  0.
         12    1    1    2    0    0  0.19135221036E+01 -0.40504710542E+02 -0.29785938252E+01  0.40659133833E+02  0.00000000000E+00 0. -1.
         11    1    3    3    0    0 -0.62061529056E+01  0.30772130367E+02  0.45576069275E+01  0.31720846811E+02  0.51100000000E-03 0. -1.
        -11    1    3    3    0    0  0.66386399100E+01  0.11143534095E+02 -0.54477170214E+01  0.14068671330E+02  0.51100000000E-03 0.  1.
        -12    1    3    3    0    0 -0.23460091080E+01 -0.14109539201E+01  0.38687039191E+01  0.47393480262E+01  0.00000000000E+00 0.  1.
</event>
<event>
 7    1  0.4115963E-011  0.5052886E+02  0.7816164E-02  0.1300439E+00
        -11   -1    0    0    0    0  0.00000000000E+00  0.00000000000E+00  0.45593999997E+02  0.45594000000E+02  0.51100000000E-03 0.  1.
         11   -1    0    0    0    0 -0.00000000000E+00 -0.00000000000E+00 -0.45593999997E+02  0.45594000000E+02  0.51100000000E-03 0. -1.
    9900012    2    1    2    0    0  0.37216141615E+02  0.16374498492E+02 -0.83740642547E-02  0.50528862432E+02  0.30000007849E+02 0.  0.
         12    1    1    2    0    0 -0.37216141615E+02 -0.16374498492E+02  0.83740642547E-02  0.40659137568E+02  0.00000000000E+00 0. -1.
         11    1    3    3    0    0  0.13720444269E+02  0.14553959259E+01 -0.82255022287E+01  0.16063239257E+02  0.51100000000E-03 0. -1.
        -11    1    3    3    0    0  0.25863474639E+02  0.11605299472E+02  0.40447566668E+01  0.28634984774E+02  0.51100000000E-03 0.  1.
         12    1    3    3    0    0 -0.23677772929E+01  0.33138030940E+01  0.41723714976E+01  0.58306384015E+01  0.00000000000E+00 0. -1.
</event>
<event>
 7    1  0.3250765E-011  0.5052885E+02  0.7816164E-02  0.1300439E+00
        -11   -1    0    0    0    0  0.00000000000E+00  0.00000000000E+00  0.45593999997E+02  0.45594000000E+02  0.51100000000E-03 0.  1.
         11   -1    0    0    0    0 -0.00000000000E+00 -0.00000000000E+00 -0.45593999997E+02  0.45594000000E+02  0.51100000000E-03 0. -1.
    9900012    2    1    2    0    0 -0.15972806896E+02 -0.79733318293E+01  0.36530282863E+02  0.50528854083E+02  0.29999982472E+02 0.  0.
         12    1    1    2    0    0  0.15972806896E+02  0.79733318293E+01 -0.36530282863E+02  0.40659145917E+02  0.00000000000E+00 0. -1.
         11    1    3    3    0    0 -0.73028137712E-01 -0.49047236089E+01  0.11185203852E+02  0.12213534798E+02  0.51100000000E-03 0. -1.
        -11    1    3    3    0    0 -0.17024268792E+02  0.71417125604E+01  0.16116146806E+02  0.24506325190E+02  0.51100000000E-03 0.  1.
         12    1    3    3    0    0  0.11244900329E+01 -0.10210320781E+02  0.92289322056E+01  0.13808994096E+02  0.00000000000E+00 0. -1.
</event>
<event>
 7    1  0.3250765E-011  0.5052886E+02  0.7816164E-02  0.1300439E+00
        -11   -1    0    0    0    0  0.00000000000E+00  0.00000000000E+00  0.45593999997E+02  0.45594000000E+02  0.51100000000E-03 0. -1.
         11   -1    0    0    0    0 -0.00000000000E+00 -0.00000000000E+00 -0.45593999997E+02  0.45594000000E+02  0.51100000000E-03 0.  1.
    9900012    2    1    2    0    0 -0.65561136600E+01 -0.38208274580E+02 -0.12260144929E+02  0.50528855563E+02  0.29999986968E+02 0.  0.
         12    1    1    2    0    0  0.65561136600E+01  0.38208274580E+02  0.12260144929E+02  0.40659144437E+02  0.00000000000E+00 0. -1.
         11    1    3    3    0    0 -0.42197009571E+01 -0.12335407263E+02  0.55567376927E+01  0.14171996421E+02  0.51100000000E-03 0. -1.
        -11    1    3    3    0    0  0.16604979853E+01 -0.18613975060E+02 -0.23831391175E+01  0.18839232293E+02  0.51100000000E-03 0.  1.
        -12    1    3    3    0    0 -0.39969106882E+01 -0.72588922573E+01 -0.15433743504E+02  0.17517626848E+02  0.00000000000E+00 0.  1.
</event>
<event>
 7    1  0.3250765E-011  0.5052886E+02  0.7816164E-02  0.1300439E+00
        -11   -1    0    0    0    0  0.00000000000E+00  0.00000000000E+00  0.45593999997E+02  0.45594000000E+02  0.51100000000E-03 0.  1.
         11   -1    0    0    0    0 -0.00000000000E+00 -0.00000000000E+00 -0.45593999997E+02  0.45594000000E+02  0.51100000000E-03 0. -1.
    9900012    2    1    2    0    0 -0.16230581034E+02  0.35535771590E+02  0.11266887861E+02  0.50528860987E+02  0.30000003457E+02 0.  0.
         12    1    1    2    0    0  0.16230581034E+02 -0.35535771590E+02 -0.11266887861E+02  0.40659139013E+02  0.00000000000E+00 0. -1.
         11    1    3    3    0    0  0.36982259642E+01  0.12768060549E+01  0.38908939429E+01  0.55178043568E+01  0.51100000000E-03 0. -1.
        -11    1    3    3    0    0 -0.26129502256E+01  0.95172484563E+01 -0.64574659491E+01  0.11794252575E+02  0.51100000000E-03 0.  1.
        -12    1    3    3    0    0 -0.17315856772E+02  0.24741717078E+02  0.13833459868E+02  0.33216804055E+02  0.00000000000E+00 0.  1.
</event>
<event>
 7    1  0.3250765E-011  0.5052885E+02  0.7816164E-02  0.1300439E+00
        -11   -1    0    0    0    0  0.00000000000E+00  0.00000000000E+00  0.45593999997E+02  0.45594000000E+02  0.51100000000E-03 0.  1.
         11   -1    0    0    0    0 -0.00000000000E+00 -0.00000000000E+00 -0.45593999997E+02  0.45594000000E+02  0.51100000000E-03 0. -1.
    9900012    2    1    2    0    0 -0.81110028091E+01 -0.21960880518E+02 -0.33243007887E+02  0.50528853267E+02  0.29999979991E+02 0.  0.
         12    1    1    2    0    0  0.81110028091E+01  0.21960880518E+02  0.33243007887E+02  0.40659146733E+02  0.00000000000E+00 0. -1.
         11    1    3    3    0    0  0.37791259513E+01 -0.43110212921E+01 -0.12975853743E+02  0.14185890108E+02  0.51100000000E-03 0. -1.
        -11    1    3    3    0    0  0.46332921752E+01 -0.42934362728E+01  0.86605191066E+00  0.63758166208E+01  0.51100000000E-03 0.  1.
         12    1    3    3    0    0 -0.16523420936E+02 -0.13356422953E+02 -0.21133206054E+02  0.29967146538E+02  0.00000000000E+00 0. -1.
</event>
<event>
 7    1  0.3250765E-011  0.5052886E+02  0.7816164E-02  0.1300439E+00
        -11   -1    0    0    0    0  0.00000000000E+00  0.00000000000E+00  0.45593999997E+02  0.45594000000E+02  0.51100000000E-03 0. -1.
         11   -1    0    0    0    0 -0.00000000000E+00 -0.00000000000E+00 -0.45593999997E+02  0.45594000000E+02  0.51100000000E-03 0.  1.
    9900012    2    1    2    0    0 -0.29469432100E+02 -0.87354156808E+01 -0.26615990464E+02  0.50528857562E+02  0.29999993045E+02 0.  0.
         12    1    1    2    0    0  0.29469432100E+02  0.87354156808E+01  0.26615990464E+02  0.40659142438E+02  0.00000000000E+00 0. -1.
         11    1    3    3    0    0 -0.19485380384E+02  0.28493545180E+00 -0.17969577956E+02  0.26507866174E+02  0.51100000000E-03 0. -1.
        -11    1    3    3    0    0 -0.85262086136E+01 -0.98636430274E+01 -0.13569347699E+02  0.18817940491E+02  0.51100000000E-03 0.  1.
         12    1    3    3    0    0 -0.14578431030E+01  0.84329189488E+00  0.49229351915E+01  0.52030508966E+01  0.00000000000E+00 0. -1.
</event>
<event>
 7    1  0.3250765E-011  0.5052885E+02  0.7816164E-02  0.1300439E+00
        -11   -1    0    0    0    0  0.00000000000E+00  0.00000000000E+00  0.45593999997E+02  0.45594000000E+02  0.51100000000E-03 0. -1.
         11   -1    0    0    0    0 -0.00000000000E+00 -0.00000000000E+00 -0.45593999997E+02  0.45594000000E+02  0.51100000000E-03 0.  1.
    9900012    2    1    2    0    0  0.13320063572E+02 -0.30796094569E+02 -0.22963945769E+02  0.50528851711E+02  0.29999975261E+02 0.  0.
         12    1    1    2    0    0 -0.13320063572E+02  0.30796094569E+02  0.22963945769E+02  0.40659148289E+02  0.00000000000E+00 0. -1.
         11    1    3    3    0    0 -0.17852469993E+01 -0.23552969093E+01 -0.11229018264E+02  0.11611433237E+02  0.51100000000E-03 0. -1.
        -11    1    3    3    0    0 -0.10334142221E+01 -0.44681743467E+01  0.39355612777E+01  0.60432747562E+01  0.51100000000E-03 0.  1.
        -12    1    3    3    0    0  0.16138724794E+02 -0.23972623313E+02 -0.15670488782E+02  0.32874143718E+02  0.00000000000E+00 0.  1.
</event>
<event>
 7    1  0.3250765E-011  0.5052890E+02  0.7816164E-02  0.1300439E+00
        -11   -1    0    0    0    0  0.00000000000E+00  0.00000000000E+00  0.45593999997E+02  0.45594000000E+02  0.51100000000E-03 0. -1.
         11   -1    0    0    0    0 -0.00000000000E+00 -0.00000000000E+00 -0.45593999997E+02  0.45594000000E+02  0.51100000000E-03 0.  1.
    9900012    2    1    2    0    0  0.17455319111E+02  0.21459433926E+02 -0.29798777138E+02  0.50528897838E+02  0.30000115469E+02 0.  0.
         12    1    1    2    0    0 -0.17455319111E+02 -0.21459433926E+02  0.29798777138E+02  0.40659102162E+02  0.00000000000E+00 0. -1.
         11    1    3    3    0    0  0.20774802722E+01  0.32203109471E+01  0.94290269562E+00  0.39465671959E+01  0.51100000000E-03 0.  1.
        -11    1    3    3    0    0  0.88602837708E+01  0.24185191064E+02 -0.25862447639E+02  0.36500606755E+02  0.51100000000E-03 0. -1.
        -12    1    3    3    0    0  0.65175550676E+01 -0.59460680855E+01 -0.48792321949E+01  0.10081723888E+02  0.00000000000E+00 0.  1.
</event>
<event>
 7    1  0.3250765E-011  0.5052885E+02  0.7816164E-02  0.1300439E+00
        -11   -1    0    0    0    0  0.00000000000E+00  0.00000000000E+00  0.45593999997E+02  0.45594000000E+02  0.51100000000E-03 0. -1.
         11   -1    0    0    0    0 -0.00000000000E+00 -0.00000000000E+00 -0.45593999997E+02  0.45594000000E+02  0.51100000000E-03 0.  1.
    9900012    2    1    2    0    0  0.18510727156E+02 -0.35431330368E+02 -0.74256668375E+01  0.50528847040E+02  0.29999961062E+02 0.  0.
         12    1    1    2    0    0 -0.18510727156E+02  0.35431330368E+02  0.74256668375E+01  0.40659152960E+02  0.00000000000E+00 0. -1.
         11    1    3    3    0    0 -0.20264459301E+01 -0.15239758155E+02 -0.73947685104E+01  0.17059874364E+02  0.51100000000E-03 0. -1.
        -11    1    3    3    0    0 -0.88249206103E+00 -0.25638378374E+01  0.46047367217E+01  0.53437493608E+01  0.51100000000E-03 0.  1.
        -12    1    3    3    0    0  0.21419665147E+02 -0.17627734375E+02 -0.46356350488E+01  0.28125223315E+02  0.00000000000E+00 0.  1.
</event>
<event>
 7    1  0.3250765E-011  0.5052886E+02  0.7816164E-02  0.1300439E+00
        -11   -1    0    0    0    0  0.00000000000E+00  0.00000000000E+00  0.45593999997E+02  0.45594000000E+02  0.51100000000E-03 0.  1.
         11   -1    0    0    0    0 -0.00000000000E+00 -0.00000000000E+00 -0.45593999997E+02  0.45594000000E+02  0.51100000000E-03 0. -1.
    9900012    2    1    2    0    0 -0.32775342189E+02 -0.12962969569E+02  0.20270770394E+02  0.50528858740E+02  0.29999996625E+02 0.  0.
         12    1    1    2    0    0  0.32775342189E+02  0.12962969569E+02 -0.20270770394E+02  0.40659141260E+02  0.00000000000E+00 0. -1.
         11    1    3    3    0    0  0.47866640495E+00  0.52569689573E+01  0.72074721559E+01  0.89337841526E+01  0.51100000000E-03 0. -1.
        -11    1    3    3    0    0 -0.65265129668E+01 -0.88486844361E+01  0.54232612165E+01  0.12259949031E+02  0.51100000000E-03 0.  1.
        -12    1    3    3    0    0 -0.26727495627E+02 -0.93712540905E+01  0.76400370219E+01  0.29335125556E+02  0.00000000000E+00 0.  1.
</event>
<event>
 7    1  0.3250765E-011  0.5052887E+02  0.7816164E-02  0.1300439E+00
        -11   -1    0    0    0    0  0.00000000000E+00  0.00000000000E+00  0.45593999997E+02  0.45594000000E+02  0.51100000000E-03 0. -1.
         11   -1    0    0    0    0 -0.00000000000E+00 -0.00000000000E+00 -0.45593999997E+02  0.45594000000E+02  0.51100000000E-03 0.  1.
    9900012    2    1    2    0    0  0.33087410145E+02  0.23442950752E+02 -0.29692373830E+01  0.50528867930E+02  0.30000024560E+02 0.  0.
         12    1    1    2    0    0 -0.33087410145E+02 -0.23442950752E+02  0.29692373830E+01  0.40659132070E+02  0.00000000000E+00 0. -1.
         11    1    3    3    0    0  0.42240618677E+01 -0.13488264261E+01  0.24177300359E+01  0.50504900928E+01  0.51100000000E-03 0. -1.
        -11    1    3    3    0    0 -0.16647600841E+01  0.97551037439E+01  0.31648932173E+01  0.10389900121E+02  0.51100000000E-03 0.  1.
        -12    1    3    3    0    0  0.30528108361E+02  0.15036673434E+02 -0.85518606362E+01  0.35088477716E+02  0.00000000000E+00 0.  1.
</event>
<event>
 7    1  0.3250765E-011  0.5052886E+02  0.7816164E-02  0.1300439E+00
        -11   -1    0    0    0    0  0.00000000000E+00  0.00000000000E+00  0.45593999997E+02  0.45594000000E+02  0.51100000000E-03 0. -1.
         11   -1    0    0    0    0 -0.00000000000E+00 -0.00000000000E+00 -0.45593999997E+02  0.45594000000E+02  0.51100000000E-03 0.  1.
    9900012    2    1    2    0    0  0.17978862083E+02  0.41300071444E+01 -0.36233540442E+02  0.50528857193E+02  0.29999991925E+02 0.  0.
         12    1    1    2    0    0 -0.17978862083E+02 -0.41300071444E+01  0.36233540442E+02  0.40659142807E+02  0.00000000000E+00 0. -1.
         11    1    3    3    0    0  0.18803014452E+02  0.74749925753E+01 -0.26094033486E+02  0.33020106758E+02  0.51100000000E-03 0. -1.
        -11    1    3    3    0    0 -0.43663217944E+00 -0.63236120246E+01 -0.12280633031E+02  0.13820009573E+02  0.51100000000E-03 0.  1.
         12    1    3    3    0    0 -0.38752018911E+00  0.29786265937E+01  0.21411260750E+01  0.36887408625E+01  0.00000000000E+00 0. -1.
</event>
<event>
 7    1  0.3250765E-011  0.5052885E+02  0.7816164E-02  0.1300439E+00
        -11   -1    0    0    0    0  0.00000000000E+00  0.00000000000E+00  0.45593999997E+02  0.45594000000E+02  0.51100000000E-03 0.  1.
         11   -1    0    0    0    0 -0.00000000000E+00 -0.00000000000E+00 -0.45593999997E+02  0.45594000000E+02  0.51100000000E-03 0. -1.
    9900012    2    1    2    0    0 -0.24483458975E+02  0.27061678381E+02  0.17927407922E+02  0.50528853981E+02  0.29999982160E+02 0.  0.
         12    1    1    2    0    0  0.24483458975E+02 -0.27061678381E+02 -0.17927407922E+02  0.40659146019E+02  0.00000000000E+00 0. -1.
         11    1    3    3    0    0  0.10056620152E+01  0.18971977498E+01  0.74415137948E+01  0.77451173787E+01  0.51100000000E-03 0. -1.
        -11    1    3    3    0    0 -0.52792937801E+01  0.18851939646E+02  0.90345579690E+01  0.21561303513E+02  0.51100000000E-03 0.  1.
        -12    1    3    3    0    0 -0.20209827210E+02  0.63125409860E+01  0.14513361578E+01  0.21222433089E+02  0.00000000000E+00 0.  1.
</event>
<event>
 7    1  0.3250765E-011  0.5052886E+02  0.7816164E-02  0.1300439E+00
        -11   -1    0    0    0    0  0.00000000000E+00  0.00000000000E+00  0.45593999997E+02  0.45594000000E+02  0.51100000000E-03 0.  1.
         11   -1    0    0    0    0 -0.00000000000E+00 -0.00000000000E+00 -0.45593999997E+02  0.45594000000E+02  0.51100000000E-03 0. -1.
    9900012    2    1    2    0    0 -0.15428157732E+02  0.13871484136E+02  0.34967404219E+02  0.50528862269E+02  0.30000007354E+02 0.  0.
         12    1    1    2    0    0  0.15428157732E+02 -0.13871484136E+02 -0.34967404219E+02  0.40659137731E+02  0.00000000000E+00 0. -1.
         11    1    3    3    0    0 -0.87047175763E+01 -0.46329293590E+01  0.16086711232E+02  0.18868450415E+02  0.51100000000E-03 0. -1.
        -11    1    3    3    0    0 -0.11576436635E+02  0.13144720684E+02  0.16458939453E+02  0.24035271066E+02  0.51100000000E-03 0.  1.
         12    1    3    3    0    0  0.48529964796E+01  0.53596928115E+01  0.24217535339E+01  0.76251407885E+01  0.00000000000E+00 0. -1.
</event>
<event>
 7    1  0.3250765E-011  0.5052886E+02  0.7816164E-02  0.1300439E+00
        -11   -1    0    0    0    0  0.00000000000E+00  0.00000000000E+00  0.45593999997E+02  0.45594000000E+02  0.51100000000E-03 0.  1.
         11   -1    0    0    0    0 -0.00000000000E+00 -0.00000000000E+00 -0.45593999997E+02  0.45594000000E+02  0.51100000000E-03 0. -1.
    9900012    2    1    2    0    0  0.32404993547E+02 -0.18429908317E+01  0.24488473030E+02  0.50528861626E+02  0.30000005397E+02 0.  0.
         12    1    1    2    0    0 -0.32404993547E+02  0.18429908317E+01 -0.24488473030E+02  0.40659138374E+02  0.00000000000E+00 0. -1.
         11    1    3    3    0    0  0.18657413668E+01 -0.75445817922E+01  0.87942385746E+01  0.11736282956E+02  0.51100000000E-03 0.  1.
        -11    1    3    3    0    0  0.22778484548E+02  0.93270123722E+00  0.18393140732E+02  0.29292267173E+02  0.51100000000E-03 0. -1.
         12    1    3    3    0    0  0.77607676326E+01  0.47688897233E+01 -0.26989062761E+01  0.95003114963E+01  0.00000000000E+00 0. -1.
</event>
<event>
 7    1  0.3250765E-011  0.5052881E+02  0.7816164E-02  0.1300439E+00
        -11   -1    0    0    0    0  0.00000000000E+00  0.00000000000E+00  0.45593999997E+02  0.45594000000E+02  0.51100000000E-03 0.  1.
         11   -1    0    0    0    0 -0.00000000000E+00 -0.00000000000E+00 -0.45593999997E+02  0.45594000000E+02  0.51100000000E-03 0. -1.
    9900012    2    1    2    0    0 -0.26699423750E+02 -0.30475555012E+02 -0.33986711178E+01  0.50528811036E+02  0.29999851624E+02 0.  0.
         12    1    1    2    0    0  0.26699423750E+02  0.30475555012E+02  0.33986711178E+01  0.40659188964E+02  0.00000000000E+00 0. -1.
         11    1    3    3    0    0  0.22943464171E+01 -0.84711924290E+01  0.40096632670E+01  0.96489650443E+01  0.51100000000E-03 0. -1.
        -11    1    3    3    0    0 -0.66812331373E+01  0.19777895821E+01  0.10559036027E+01  0.70473725987E+01  0.51100000000E-03 0.  1.
        -12    1    3    3    0    0 -0.22312537030E+02 -0.23982152165E+02 -0.84642379875E+01  0.33832473393E+02  0.00000000000E+00 0.  1.
</event>
<event>
 7    1  0.3250765E-011  0.5052885E+02  0.7816164E-02  0.1300439E+00
        -11   -1    0    0    0    0  0.00000000000E+00  0.00000000000E+00  0.45593999997E+02  0.45594000000E+02  0.51100000000E-03 0.  1.
         11   -1    0    0    0    0 -0.00000000000E+00 -0.00000000000E+00 -0.45593999997E+02  0.45594000000E+02  0.51100000000E-03 0. -1.
    9900012    2    1    2    0    0  0.25990455764E+02 -0.30656914721E+02  0.61495156622E+01  0.50528846616E+02  0.29999959774E+02 0.  0.
         12    1    1    2    0    0 -0.25990455764E+02  0.30656914721E+02 -0.61495156622E+01  0.40659153384E+02  0.00000000000E+00 0. -1.
         11    1    3    3    0    0  0.19186380751E+01  0.44271514019E+01  0.17517977655E+01  0.51331897754E+01  0.51100000000E-03 0. -1.
        -11    1    3    3    0    0  0.16446879572E+02 -0.10735666943E+02  0.26927566785E+01  0.19824362061E+02  0.51100000000E-03 0.  1.
        -12    1    3    3    0    0  0.76249381171E+01 -0.24348399180E+02  0.17049612182E+01  0.25571294779E+02  0.00000000000E+00 0.  1.
</event>
<event>
 7    1  0.3250765E-011  0.5052886E+02  0.7816164E-02  0.1300439E+00
        -11   -1    0    0    0    0  0.00000000000E+00  0.00000000000E+00  0.45593999997E+02  0.45594000000E+02  0.51100000000E-03 0.  1.
         11   -1    0    0    0    0 -0.00000000000E+00 -0.00000000000E+00 -0.45593999997E+02  0.45594000000E+02  0.51100000000E-03 0. -1.
    9900012    2    1    2    0    0  0.12067826686E+02 -0.28788683524E+02  0.26052735922E+02  0.50528858482E+02  0.29999995841E+02 0.  0.
         12    1    1    2    0    0 -0.12067826686E+02  0.28788683524E+02 -0.26052735922E+02  0.40659141518E+02  0.00000000000E+00 0. -1.
         11    1    3    3    0    0  0.50419292667E+01 -0.15553470111E+02  0.38974423555E+01  0.16808377090E+02  0.51100000000E-03 0. -1.
        -11    1    3    3    0    0  0.10566941863E+02 -0.17104134992E+02  0.16513895316E+02  0.26017694612E+02  0.51100000000E-03 0.  1.
         12    1    3    3    0    0 -0.35410444437E+01  0.38689215795E+01  0.56413982504E+01  0.77027867789E+01  0.00000000000E+00 0. -1.
</event>
<event>
 7    1  0.3250765E-011  0.5052886E+02  0.7816164E-02  0.1300439E+00
        -11   -1    0    0    0    0  0.00000000000E+00  0.00000000000E+00  0.45593999997E+02  0.45594000000E+02  0.51100000000E-03 0. -1.
         11   -1    0    0    0    0 -0.00000000000E+00 -0.00000000000E+00 -0.45593999997E+02  0.45594000000E+02  0.51100000000E-03 0.  1.
    9900012    2    1    2    0    0 -0.31033225934E+02 -0.25733269139E+02  0.52823608441E+01  0.50528860947E+02  0.30000003334E+02 0.  0.
         12    1    1    2    0    0  0.31033225934E+02  0.25733269139E+02 -0.52823608441E+01  0.40659139053E+02  0.00000000000E+00 0. -1.
         11    1    3    3    0    0 -0.12804899701E+02 -0.15651387429E+02  0.40949479196E-01  0.20222093411E+02  0.51100000000E-03 0.  1.
        -11    1    3    3    0    0 -0.16140987973E+02  0.26169164252E+01 -0.15357862004E+00  0.16352471708E+02  0.51100000000E-03 0. -1.
         12    1    3    3    0    0 -0.20873382603E+01 -0.12698798135E+02  0.53949899850E+01  0.13954295827E+02  0.00000000000E+00 0. -1.
</event>
<event>
 7    1  0.3250765E-011  0.5052886E+02  0.7816164E-02  0.1300439E+00
        -11   -1    0    0    0    0  0.00000000000E+00  0.00000000000E+00  0.45593999997E+02  0.45594000000E+02  0.51100000000E-03 0.  1.
         11   -1    0    0    0    0 -0.00000000000E+00 -0.00000000000E+00 -0.45593999997E+02  0.45594000000E+02  0.51100000000E-03 0. -1.
    9900012    2    1    2    0    0 -0.40562615399E+01 -0.27501258684E+02  0.29671421947E+02  0.50528858750E+02  0.29999996655E+02 0.  0.
         12    1    1    2    0    0  0.40562615399E+01  0.27501258684E+02 -0.29671421947E+02  0.40659141250E+02  0.00000000000E+00 0. -1.
         11    1    3    3    0    0 -0.37420081134E+01 -0.24897623889E+02  0.31068931194E+02  0.39989658487E+02  0.51100000000E-03 0.  1.
        -11    1    3    3    0    0  0.19685753860E+01  0.26524846169E+01  0.20153454293E+01  0.38694419692E+01  0.51100000000E-03 0. -1.
        -12    1    3    3    0    0 -0.22828288125E+01 -0.52561194110E+01 -0.34128546766E+01  0.66697582935E+01  0.00000000000E+00 0.  1.
</event>
<event>
 7    1  0.3250765E-011  0.5052886E+02  0.7816164E-02  0.1300439E+00
        -11   -1    0    0    0    0  0.00000000000E+00  0.00000000000E+00  0.45593999997E+02  0.45594000000E+02  0.51100000000E-03 0.  1.
         11   -1    0    0    0    0 -0.00000000000E+00 -0.00000000000E+00 -0.45593999997E+02  0.45594000000E+02  0.51100000000E-03 0. -1.
    9900012    2    1    2    0    0  0.77892189948E+01 -0.33423481867E+02  0.21802856365E+02  0.50528860580E+02  0.30000002220E+02 0.  0.
         12    1    1    2    0    0 -0.77892189948E+01  0.33423481867E+02 -0.21802856365E+02  0.40659139420E+02  0.00000000000E+00 0. -1.
         11    1    3    3    0    0  0.20325026169E+01 -0.48231942826E+01 -0.18462708614E+01  0.55500438133E+01  0.51100000000E-03 0. -1.
        -11    1    3    3    0    0  0.66569129220E+01 -0.24455320402E+02  0.49747217561E+01  0.25828763858E+02  0.51100000000E-03 0.  1.
        -12    1    3    3    0    0 -0.90019654417E+00 -0.41449671827E+01  0.18674405470E+02  0.19150052909E+02  0.00000000000E+00 0.  1.
</event>
<event>
 7    1  0.3250765E-011  0.5052885E+02  0.7816164E-02  0.1300439E+00
        -11   -1    0    0    0    0  0.00000000000E+00  0.00000000000E+00  0.45593999997E+02  0.45594000000E+02  0.51100000000E-03 0.  1.
         11   -1    0    0    0    0 -0.00000000000E+00 -0.00000000000E+00 -0.45593999997E+02  0.45594000000E+02  0.51100000000E-03 0. -1.
    9900012    2    1    2    0    0 -0.40304283372E+02 -0.36432728490E+01  0.39316470326E+01  0.50528849202E+02  0.29999967635E+02 0.  0.
         12    1    1    2    0    0  0.40304283372E+02  0.36432728490E+01 -0.39316470326E+01  0.40659150798E+02  0.00000000000E+00 0. -1.
         11    1    3    3    0    0 -0.16665063962E+02  0.46233349731E+01 -0.36354556328E+01  0.17672467882E+02  0.51100000000E-03 0. -1.
        -11    1    3    3    0    0 -0.21201944541E+02 -0.24100403569E+01 -0.19408437545E+01  0.21426563457E+02  0.51100000000E-03 0.  1.
         12    1    3    3    0    0 -0.24372748699E+01 -0.58565674652E+01  0.95079464198E+01  0.11429817863E+02  0.00000000000E+00 0. -1.
</event>
<event>
 7    1  0.3250765E-011  0.5052887E+02  0.7816164E-02  0.1300439E+00
        -11   -1    0    0    0    0  0.00000000000E+00  0.00000000000E+00  0.45593999997E+02  0.45594000000E+02  0.51100000000E-03 0.  1.
         11   -1    0    0    0    0 -0.00000000000E+00 -0.00000000000E+00 -0.45593999997E+02  0.45594000000E+02  0.51100000000E-03 0. -1.
    9900012    2    1    2    0    0 -0.33975798268E+02  0.12106894780E+02  0.18767872806E+02  0.50528870413E+02  0.30000032107E+02 0.  0.
         12    1    1    2    0    0  0.33975798268E+02 -0.12106894780E+02 -0.18767872806E+02  0.40659129587E+02  0.00000000000E+00 0. -1.
         11    1    3    3    0    0 -0.31391677281E+02  0.16895006630E+02  0.22999166001E+02  0.42424524612E+02  0.51100000000E-03 0.  1.
        -11    1    3    3    0    0 -0.20675032487E+01 -0.12857606243E+01 -0.38341983440E+01  0.45418968800E+01  0.51100000000E-03 0. -1.
        -12    1    3    3    0    0 -0.51661773798E+00 -0.35023512256E+01 -0.39709485112E+00  0.35624489211E+01  0.00000000000E+00 0.  1.
</event>
<event>
 7    1  0.3250765E-011  0.5052885E+02  0.7816164E-02  0.1300439E+00
        -11   -1    0    0    0    0  0.00000000000E+00  0.00000000000E+00  0.45593999997E+02  0.45594000000E+02  0.51100000000E-03 0.  1.
         11   -1    0    0    0    0 -0.00000000000E+00 -0.00000000000E+00 -0.45593999997E+02  0.45594000000E+02  0.51100000000E-03 0. -1.
    9900012    2    1    2    0    0  0.82672834486E+01  0.35961683917E+01  0.39647018294E+02  0.50528850202E+02  0.29999970674E+02 0.  0.
         12    1    1    2    0    0 -0.82672834486E+01 -0.35961683917E+01 -0.39647018294E+02  0.40659149798E+02  0.00000000000E+00 0. -1.
         11    1    3    3    0    0  0.59325188057E+01  0.36380335927E+01  0.13298966884E+02  0.15009749773E+02  0.51100000000E-03 0. -1.
        -11    1    3    3    0    0 -0.44225352653E+01  0.39620239005E+01  0.26992880555E+02  0.27638235336E+02  0.51100000000E-03 0.  1.
        -12    1    3    3    0    0  0.67572999082E+01 -0.40038891016E+01 -0.64482914572E+00  0.78808650930E+01  0.00000000000E+00 0.  1.
</event>
<event>
 7    1  0.3250765E-011  0.5052886E+02  0.7816164E-02  0.1300439E+00
        -11   -1    0    0    0    0  0.00000000000E+00  0.00000000000E+00  0.45593999997E+02  0.45594000000E+02  0.51100000000E-03 0.  1.
         11   -1    0    0    0    0 -0.00000000000E+00 -0.00000000000E+00 -0.45593999997E+02  0.45594000000E+02  0.51100000000E-03 0. -1.
    9900012    2    1    2    0    0  0.72227357590E+01 -0.17863436711E+02  0.35803565940E+02  0.50528860597E+02  0.30000002272E+02 0.  0.
         12    1    1    2    0    0 -0.72227357590E+01  0.17863436711E+02 -0.35803565940E+02  0.40659139403E+02  0.00000000000E+00 0. -1.
         11    1    3    3    0    0 -0.27943722495E+00  0.47653488554E+01  0.67897514499E+01  0.82998409556E+01  0.51100000000E-03 0. -1.
        -11    1    3    3    0    0  0.59387638708E+01  0.14173494459E+01  0.31168617385E+01  0.68551165652E+01  0.51100000000E-03 0.  1.
        -12    1    3    3    0    0  0.15634091132E+01 -0.24046135012E+02  0.25896952751E+02  0.35373903077E+02  0.00000000000E+00 0.  1.
</event>
<event>
 7    1  0.3250765E-011  0.5052886E+02  0.7816164E-02  0.1300439E+00
        -11   -1    0    0    0    0  0.00000000000E+00  0.00000000000E+00  0.45593999997E+02  0.45594000000E+02  0.51100000000E-03 0.  1.
         11   -1    0    0    0    0 -0.00000000000E+00 -0.00000000000E+00 -0.45593999997E+02  0.45594000000E+02  0.51100000000E-03 0. -1.
    9900012    2    1    2    0    0 -0.32502878388E+02 -0.16959641995E+02  0.17581217451E+02  0.50528858750E+02  0.29999996657E+02 0.  0.
         12    1    1    2    0    0  0.32502878388E+02  0.16959641995E+02 -0.17581217451E+02  0.40659141250E+02  0.00000000000E+00 0. -1.
         11    1    3    3    0    0 -0.31153055742E+01 -0.10646227217E+02  0.23216527011E+01  0.11333020529E+02  0.51100000000E-03 0. -1.
        -11    1    3    3    0    0 -0.16459404196E+02 -0.76385610970E+01  0.18382740307E+02  0.25829919542E+02  0.51100000000E-03 0.  1.
        -12    1    3    3    0    0 -0.12928168618E+02  0.13251463190E+01 -0.31231755567E+01  0.13365918679E+02  0.00000000000E+00 0.  1.
</event>
<event>
 7    1  0.3250765E-011  0.5052885E+02  0.7816164E-02  0.1300439E+00
        -11   -1    0    0    0    0  0.00000000000E+00  0.00000000000E+00  0.45593999997E+02  0.45594000000E+02  0.51100000000E-03 0.  1.
         11   -1    0    0    0    0 -0.00000000000E+00 -0.00000000000E+00 -0.45593999997E+02  0.45594000000E+02  0.51100000000E-03 0. -1.
    9900012    2    1    2    0    0  0.30489211375E+02 -0.82963268385E+00  0.26886540327E+02  0.50528851566E+02  0.29999974819E+02 0.  0.
         12    1    1    2    0    0 -0.30489211375E+02  0.82963268385E+00 -0.26886540327E+02  0.40659148434E+02  0.00000000000E+00 0. -1.
         11    1    3    3    0    0  0.12890233094E+00 -0.37341907037E+01 -0.34150914479E+01  0.50619804307E+01  0.51100000000E-03 0. -1.
        -11    1    3    3    0    0  0.14038177038E+01  0.10687091913E+01  0.97565906433E+01  0.99148325615E+01  0.51100000000E-03 0.  1.
        -12    1    3    3    0    0  0.28956491340E+02  0.18358488286E+01  0.20545041132E+02  0.35552038574E+02  0.00000000000E+00 0.  1.
</event>
<event>
 7    1  0.3250765E-011  0.5052887E+02  0.7816164E-02  0.1300439E+00
        -11   -1    0    0    0    0  0.00000000000E+00  0.00000000000E+00  0.45593999997E+02  0.45594000000E+02  0.51100000000E-03 0. -1.
         11   -1    0    0    0    0 -0.00000000000E+00 -0.00000000000E+00 -0.45593999997E+02  0.45594000000E+02  0.51100000000E-03 0.  1.
    9900012    2    1    2    0    0 -0.77096950660E+01 -0.16271707447E+02 -0.36454864000E+02  0.50528868547E+02  0.30000026435E+02 0.  0.
         12    1    1    2    0    0  0.77096950660E+01  0.16271707447E+02  0.36454864000E+02  0.40659131453E+02  0.00000000000E+00 0. -1.
         11    1    3    3    0    0  0.12635995039E+01 -0.35118263838E+01  0.30245027608E+01  0.48038760879E+01  0.51100000000E-03 0. -1.
        -11    1    3    3    0    0  0.14376590692E+01  0.34712037686E+01 -0.56334165769E+01  0.67713737005E+01  0.51100000000E-03 0.  1.
        -12    1    3    3    0    0 -0.10410953639E+02 -0.16231084832E+02 -0.33845950184E+02  0.38953618758E+02  0.00000000000E+00 0.  1.
</event>
<event>
 7    1  0.3250765E-011  0.5052886E+02  0.7816164E-02  0.1300439E+00
        -11   -1    0    0    0    0  0.00000000000E+00  0.00000000000E+00  0.45593999997E+02  0.45594000000E+02  0.51100000000E-03 0.  1.
         11   -1    0    0    0    0 -0.00000000000E+00 -0.00000000000E+00 -0.45593999997E+02  0.45594000000E+02  0.51100000000E-03 0. -1.
    9900012    2    1    2    0    0  0.26150259895E+01 -0.39692971401E+02  0.84139964020E+01  0.50528859884E+02  0.30000000103E+02 0.  0.
         12    1    1    2    0    0 -0.26150259895E+01  0.39692971401E+02 -0.84139964020E+01  0.40659140116E+02  0.00000000000E+00 0. -1.
         11    1    3    3    0    0 -0.55849089260E+00 -0.55884306727E+01  0.74775084201E+01  0.93517699873E+01  0.51100000000E-03 0.  1.
        -11    1    3    3    0    0 -0.78971923577E+01 -0.23824398362E+02 -0.37080769860E+01  0.25371587251E+02  0.51100000000E-03 0. -1.
         12    1    3    3    0    0  0.11070709240E+02 -0.10280142366E+02  0.46445649680E+01  0.15805502646E+02  0.00000000000E+00 0. -1.
</event>
<event>
 7    1  0.3250765E-011  0.5052886E+02  0.7816164E-02  0.1300439E+00
        -11   -1    0    0    0    0  0.00000000000E+00  0.00000000000E+00  0.45593999997E+02  0.45594000000E+02  0.51100000000E-03 0. -1.
         11   -1    0    0    0    0 -0.00000000000E+00 -0.00000000000E+00 -0.45593999997E+02  0.45594000000E+02  0.51100000000E-03 0.  1.
    9900012    2    1    2    0    0 -0.17510773558E+02  0.28444906604E+02 -0.23182445291E+02  0.50528859921E+02  0.30000000216E+02 0.  0.
         12    1    1    2    0    0  0.17510773558E+02 -0.28444906604E+02  0.23182445291E+02  0.40659140079E+02  0.00000000000E+00 0. -1.
         11    1    3    3    0    0 -0.69718448647E+01  0.89462072038E+01 -0.58536922994E+01  0.12763501007E+02  0.51100000000E-03 0. -1.
        -11    1    3    3    0    0 -0.84395311776E+01  0.32451329080E+01 -0.19246812291E+02  0.21264909069E+02  0.51100000000E-03 0.  1.
         12    1    3    3    0    0 -0.20993975155E+01  0.16253566492E+02  0.19180592986E+01  0.16500449846E+02  0.00000000000E+00 0. -1.
</event>
<event>
 7    1  0.3250765E-011  0.5052886E+02  0.7816164E-02  0.1300439E+00
        -11   -1    0    0    0    0  0.00000000000E+00  0.00000000000E+00  0.45593999997E+02  0.45594000000E+02  0.51100000000E-03 0.  1.
         11   -1    0    0    0    0 -0.00000000000E+00 -0.00000000000E+00 -0.45593999997E+02  0.45594000000E+02  0.51100000000E-03 0. -1.
    9900012    2    1    2    0    0 -0.11570823701E+02  0.14388892396E+02  0.36224871811E+02  0.50528861750E+02  0.30000005776E+02 0.  0.
         12    1    1    2    0    0  0.11570823701E+02 -0.14388892396E+02 -0.36224871811E+02  0.40659138250E+02  0.00000000000E+00 0. -1.
         11    1    3    3    0    0  0.90321890016E+00  0.50483886408E+01  0.19713870948E+02  0.20370045171E+02  0.51100000000E-03 0. -1.
        -11    1    3    3    0    0  0.19502232551E+01 -0.46935011809E+01  0.27485940156E+01  0.57781565748E+01  0.51100000000E-03 0.  1.
         12    1    3    3    0    0 -0.14424265856E+02  0.14034004936E+02  0.13762406847E+02  0.24380660004E+02  0.00000000000E+00 0. -1.
</event>
<event>
 7    1  0.3250765E-011  0.5052886E+02  0.7816164E-02  0.1300439E+00
        -11   -1    0    0    0    0  0.00000000000E+00  0.00000000000E+00  0.45593999997E+02  0.45594000000E+02  0.51100000000E-03 0. -1.
         11   -1    0    0    0    0 -0.00000000000E+00 -0.00000000000E+00 -0.45593999997E+02  0.45594000000E+02  0.51100000000E-03 0.  1.
    9900012    2    1    2    0    0  0.21778373661E+02  0.29354325425E+02  0.17809877987E+02  0.50528859153E+02  0.29999997883E+02 0.  0.
         12    1    1    2    0    0 -0.21778373661E+02 -0.29354325425E+02 -0.17809877987E+02  0.40659140847E+02  0.00000000000E+00 0. -1.
         11    1    3    3    0    0  0.12050637820E+02  0.76143530611E+00 -0.22860323652E+01  0.12289165954E+02  0.51100000000E-03 0.  1.
        -11    1    3    3    0    0  0.89441776013E+01  0.17878231668E+02  0.67339677532E+01  0.21094449567E+02  0.51100000000E-03 0. -1.
        -12    1    3    3    0    0  0.78355823913E+00  0.10714658451E+02  0.13361942599E+02  0.17145243633E+02  0.00000000000E+00 0.  1.
</event>
<event>
 7    1  0.3250765E-011  0.5052886E+02  0.7816164E-02  0.1300439E+00
        -11   -1    0    0    0    0  0.00000000000E+00  0.00000000000E+00  0.45593999997E+02  0.45594000000E+02  0.51100000000E-03 0.  1.
         11   -1    0    0    0    0 -0.00000000000E+00 -0.00000000000E+00 -0.45593999997E+02  0.45594000000E+02  0.51100000000E-03 0. -1.
    9900012    2    1    2    0    0 -0.85187577399E+01 -0.61094918119E+01  0.39284478576E+02  0.50528863504E+02  0.30000011106E+02 0.  0.
         12    1    1    2    0    0  0.85187577399E+01  0.61094918119E+01 -0.39284478576E+02  0.40659136496E+02  0.00000000000E+00 0. -1.
         11    1    3    3    0    0  0.18416099590E+00 -0.42093455479E+01  0.17600477649E+01  0.45662099831E+01  0.51100000000E-03 0. -1.
        -11    1    3    3    0    0  0.79601106045E+01  0.34078593408E+01  0.16339658186E+02  0.18492195544E+02  0.51100000000E-03 0.  1.
         12    1    3    3    0    0 -0.16663029340E+02 -0.53080056048E+01  0.21184772625E+02  0.27470457977E+02  0.00000000000E+00 0. -1.
</event>
<event>
 7    1  0.3250765E-011  0.5052885E+02  0.7816164E-02  0.1300439E+00
        -11   -1    0    0    0    0  0.00000000000E+00  0.00000000000E+00  0.45593999997E+02  0.45594000000E+02  0.51100000000E-03 0. -1.
         11   -1    0    0    0    0 -0.00000000000E+00 -0.00000000000E+00 -0.45593999997E+02  0.45594000000E+02  0.51100000000E-03 0.  1.
    9900012    2    1    2    0    0 -0.11333620723E+02 -0.37617085165E+02 -0.10472364429E+02  0.50528850086E+02  0.29999970322E+02 0.  0.
         12    1    1    2    0    0  0.11333620723E+02  0.37617085165E+02  0.10472364429E+02  0.40659149914E+02  0.00000000000E+00 0. -1.
         11    1    3    3    0    0 -0.66483466695E+01 -0.68066183026E+01 -0.41638469671E+01  0.10385961101E+02  0.51100000000E-03 0.  1.
        -11    1    3    3    0    0 -0.36611248288E+01 -0.33291858961E+02 -0.22488204514E+00  0.33493316949E+02  0.51100000000E-03 0. -1.
         12    1    3    3    0    0 -0.10241492243E+01  0.24813920986E+01 -0.60836354172E+01  0.66495720366E+01  0.00000000000E+00 0. -1.
</event>
<event>
 7    1  0.3250765E-011  0.5052885E+02  0.7816164E-02  0.1300439E+00
        -11   -1    0    0    0    0  0.00000000000E+00  0.00000000000E+00  0.45593999997E+02  0.45594000000E+02  0.51100000000E-03 0.  1.
         11   -1    0    0    0    0 -0.00000000000E+00 -0.00000000000E+00 -0.45593999997E+02  0.45594000000E+02  0.51100000000E-03 0. -1.
    9900012    2    1    2    0    0 -0.18204863314E+02  0.12462346398E+02  0.34153174603E+02  0.50528850212E+02  0.29999970705E+02 0.  0.
         12    1    1    2    0    0  0.18204863314E+02 -0.12462346398E+02 -0.34153174603E+02  0.40659149788E+02  0.00000000000E+00 0. -1.
         11    1    3    3    0    0 -0.57260039306E+01 -0.50422608218E+01  0.25925865138E+01  0.80581027730E+01  0.51100000000E-03 0. -1.
        -11    1    3    3    0    0  0.41887755815E+01  0.49162648622E+01  0.30897000908E+01  0.71597309991E+01  0.51100000000E-03 0.  1.
        -12    1    3    3    0    0 -0.16667634965E+02  0.12588342358E+02  0.28470887998E+02  0.35311016440E+02  0.00000000000E+00 0.  1.
</event>
<event>
 7    1  0.3250765E-011  0.5052886E+02  0.7816164E-02  0.1300439E+00
        -11   -1    0    0    0    0  0.00000000000E+00  0.00000000000E+00  0.45593999997E+02  0.45594000000E+02  0.51100000000E-03 0. -1.
         11   -1    0    0    0    0 -0.00000000000E+00 -0.00000000000E+00 -0.45593999997E+02  0.45594000000E+02  0.51100000000E-03 0.  1.
    9900012    2    1    2    0    0  0.22973246044E+02 -0.70269938499E+01 -0.32802701370E+02  0.50528857196E+02  0.29999991934E+02 0.  0.
         12    1    1    2    0    0 -0.22973246044E+02  0.70269938499E+01  0.32802701370E+02  0.40659142804E+02  0.00000000000E+00 0. -1.
         11    1    3    3    0    0  0.25196506423E+01 -0.55150210869E+01 -0.11598420489E+02  0.13087683334E+02  0.51100000000E-03 0. -1.
        -11    1    3    3    0    0  0.11037378781E+02  0.51035333284E+01 -0.22783472434E+02  0.25825499011E+02  0.51100000000E-03 0.  1.
         12    1    3    3    0    0  0.94162166206E+01 -0.66155060914E+01  0.15791915524E+01  0.11615674851E+02  0.00000000000E+00 0. -1.
</event>
<event>
 7    1  0.3250765E-011  0.5052886E+02  0.7816164E-02  0.1300439E+00
        -11   -1    0    0    0    0  0.00000000000E+00  0.00000000000E+00  0.45593999997E+02  0.45594000000E+02  0.51100000000E-03 0.  1.
         11   -1    0    0    0    0 -0.00000000000E+00 -0.00000000000E+00 -0.45593999997E+02  0.45594000000E+02  0.51100000000E-03 0. -1.
    9900012    2    1    2    0    0  0.14270032556E+02  0.34736574310E+02  0.15585322307E+02  0.50528859633E+02  0.29999999341E+02 0.  0.
         12    1    1    2    0    0 -0.14270032556E+02 -0.34736574310E+02 -0.15585322307E+02  0.40659140367E+02  0.00000000000E+00 0. -1.
         11    1    3    3    0    0  0.85989260390E+01  0.64651333390E+01 -0.47824760255E+00  0.10768853196E+02  0.51100000000E-03 0. -1.
        -11    1    3    3    0    0  0.12731714863E+02  0.25482158107E+02  0.14670905366E+02  0.32041729193E+02  0.51100000000E-03 0.  1.
         12    1    3    3    0    0 -0.70606083451E+01  0.27892828637E+01  0.13926645428E+01  0.77182772447E+01  0.00000000000E+00 0. -1.
</event>
<event>
 7    1  0.3250765E-011  0.5052887E+02  0.7816164E-02  0.1300439E+00
        -11   -1    0    0    0    0  0.00000000000E+00  0.00000000000E+00  0.45593999997E+02  0.45594000000E+02  0.51100000000E-03 0.  1.
         11   -1    0    0    0    0 -0.00000000000E+00 -0.00000000000E+00 -0.45593999997E+02  0.45594000000E+02  0.51100000000E-03 0. -1.
    9900012    2    1    2    0    0  0.27377122439E+02  0.29991799913E+02 -0.20372402422E+01  0.50528865198E+02  0.30000016255E+02 0.  0.
         12    1    1    2    0    0 -0.27377122439E+02 -0.29991799913E+02  0.20372402422E+01  0.40659134802E+02  0.00000000000E+00 0. -1.
         11    1    3    3    0    0  0.15417035809E+02  0.34445146644E+01 -0.38344507289E+00  0.15801794353E+02  0.51100000000E-03 0. -1.
        -11    1    3    3    0    0 -0.41393713221E+01  0.13359627376E+01  0.16061627312E+01  0.46366960607E+01  0.51100000000E-03 0.  1.
         12    1    3    3    0    0  0.16099457953E+02  0.25211322511E+02 -0.32599579005E+01  0.30090374784E+02  0.00000000000E+00 0. -1.
</event>
<event>
 7    1  0.3250765E-011  0.5052886E+02  0.7816164E-02  0.1300439E+00
        -11   -1    0    0    0    0  0.00000000000E+00  0.00000000000E+00  0.45593999997E+02  0.45594000000E+02  0.51100000000E-03 0. -1.
         11   -1    0    0    0    0 -0.00000000000E+00 -0.00000000000E+00 -0.45593999997E+02  0.45594000000E+02  0.51100000000E-03 0.  1.
    9900012    2    1    2    0    0 -0.15046645491E+02 -0.28592396717E+02 -0.24682766858E+02  0.50528859941E+02  0.30000000276E+02 0.  0.
         12    1    1    2    0    0  0.15046645491E+02  0.28592396717E+02  0.24682766858E+02  0.40659140059E+02  0.00000000000E+00 0. -1.
         11    1    3    3    0    0 -0.72702250173E+01 -0.99700951214E+01 -0.11783067758E+02  0.17061642787E+02  0.51100000000E-03 0. -1.
        -11    1    3    3    0    0  0.50573598003E+01 -0.10837188049E+02 -0.14004733920E+02  0.18416137092E+02  0.51100000000E-03 0.  1.
         12    1    3    3    0    0 -0.12833780274E+02 -0.77851135468E+01  0.11050348203E+01  0.15051080062E+02  0.00000000000E+00 0. -1.
</event>
<event>
 7    1  0.3250765E-011  0.5052886E+02  0.7816164E-02  0.1300439E+00
        -11   -1    0    0    0    0  0.00000000000E+00  0.00000000000E+00  0.45593999997E+02  0.45594000000E+02  0.51100000000E-03 0.  1.
         11   -1    0    0    0    0 -0.00000000000E+00 -0.00000000000E+00 -0.45593999997E+02  0.45594000000E+02  0.51100000000E-03 0. -1.
    9900012    2    1    2    0    0  0.13963054180E+02 -0.25569989661E+02  0.28361501046E+02  0.50528855950E+02  0.29999988146E+02 0.  0.
         12    1    1    2    0    0 -0.13963054180E+02  0.25569989661E+02 -0.28361501046E+02  0.40659144050E+02  0.00000000000E+00 0. -1.
         11    1    3    3    0    0  0.14554843795E+02 -0.15230672208E+02  0.28285279849E+02  0.35268596657E+02  0.51100000000E-03 0.  1.
        -11    1    3    3    0    0 -0.29312934987E+01 -0.10939030191E+02  0.27531997928E+01  0.11654826144E+02  0.51100000000E-03 0. -1.
        -12    1    3    3    0    0  0.23395038840E+01  0.59971273758E+00 -0.26769785956E+01  0.36054331490E+01  0.00000000000E+00 0.  1.
</event>
<event>
 7    1  0.3250765E-011  0.5052887E+02  0.7816164E-02  0.1300439E+00
        -11   -1    0    0    0    0  0.00000000000E+00  0.00000000000E+00  0.45593999997E+02  0.45594000000E+02  0.51100000000E-03 0.  1.
         11   -1    0    0    0    0 -0.00000000000E+00 -0.00000000000E+00 -0.45593999997E+02  0.45594000000E+02  0.51100000000E-03 0. -1.
    9900012    2    1    2    0    0 -0.17679780597E+02 -0.33274672232E+02  0.15277000709E+02  0.50528865666E+02  0.30000017679E+02 0.  0.
         12    1    1    2    0    0  0.17679780597E+02  0.33274672232E+02 -0.15277000709E+02  0.40659134334E+02  0.00000000000E+00 0. -1.
         11    1    3    3    0    0  0.38547892169E+01 -0.19895513219E+02 -0.45246886177E+00  0.20270559304E+02  0.51100000000E-03 0. -1.
        -11    1    3    3    0    0 -0.41079935358E+01 -0.39339048135E+01  0.15756840803E+01  0.59020334253E+01  0.51100000000E-03 0.  1.
         12    1    3    3    0    0 -0.17426576279E+02 -0.94452541995E+01  0.14153785490E+02  0.24356272937E+02  0.00000000000E+00 0. -1.
</event>
<event>
 7    1  0.3250765E-011  0.5052885E+02  0.7816164E-02  0.1300439E+00
        -11   -1    0    0    0    0  0.00000000000E+00  0.00000000000E+00  0.45593999997E+02  0.45594000000E+02  0.51100000000E-03 0. -1.
         11   -1    0    0    0    0 -0.00000000000E+00 -0.00000000000E+00 -0.45593999997E+02  0.45594000000E+02  0.51100000000E-03 0.  1.
    9900012    2    1    2    0    0  0.35764417662E+02  0.10197335694E+02 -0.16434342222E+02  0.50528845678E+02  0.29999956923E+02 0.  0.
         12    1    1    2    0    0 -0.35764417662E+02 -0.10197335694E+02  0.16434342222E+02  0.40659154322E+02  0.00000000000E+00 0. -1.
         11    1    3    3    0    0 -0.43713121037E+01  0.11653925547E-01 -0.26544971898E+01  0.51141823309E+01  0.51100000000E-03 0. -1.
        -11    1    3    3    0    0  0.15727109639E+02  0.10351135222E+02 -0.69279950763E+01  0.20062031154E+02  0.51100000000E-03 0.  1.
        -12    1    3    3    0    0  0.24408620127E+02 -0.16545345346E+00 -0.68518499555E+01  0.25352632194E+02  0.00000000000E+00 0.  1.
</event>
<event>
 7    1  0.3250765E-011  0.5052885E+02  0.7816164E-02  0.1300439E+00
        -11   -1    0    0    0    0  0.00000000000E+00  0.00000000000E+00  0.45593999997E+02  0.45594000000E+02  0.51100000000E-03 0.  1.
         11   -1    0    0    0    0 -0.00000000000E+00 -0.00000000000E+00 -0.45593999997E+02  0.45594000000E+02  0.51100000000E-03 0. -1.
    9900012    2    1    2    0    0  0.11453769842E+02 -0.29758658171E+02  0.25226974378E+02  0.50528845852E+02  0.29999957452E+02 0.  0.
         12    1    1    2    0    0 -0.11453769842E+02  0.29758658171E+02 -0.25226974378E+02  0.40659154148E+02  0.00000000000E+00 0. -1.
         11    1    3    3    0    0 -0.18872530651E+01  0.69047847816E+00 -0.31912254680E+01  0.37712603873E+01  0.51100000000E-03 0. -1.
        -11    1    3    3    0    0 -0.28795230252E+01 -0.10316640857E+01  0.48040805124E+01  0.56951886245E+01  0.51100000000E-03 0.  1.
        -12    1    3    3    0    0  0.16220545933E+02 -0.29417472563E+02  0.23614119334E+02  0.41062396840E+02  0.00000000000E+00 0.  1.
</event>
<event>
 7    1  0.3250765E-011  0.5052886E+02  0.7816164E-02  0.1300439E+00
        -11   -1    0    0    0    0  0.00000000000E+00  0.00000000000E+00  0.45593999997E+02  0.45594000000E+02  0.51100000000E-03 0. -1.
         11   -1    0    0    0    0 -0.00000000000E+00 -0.00000000000E+00 -0.45593999997E+02  0.45594000000E+02  0.51100000000E-03 0.  1.
    9900012    2    1    2    0    0  0.28154601294E+02 -0.16242472397E+02 -0.24426748153E+02  0.50528861926E+02  0.30000006311E+02 0.  0.
         12    1    1    2    0    0 -0.28154601294E+02  0.16242472397E+02  0.24426748153E+02  0.40659138074E+02  0.00000000000E+00 0. -1.
         11    1    3    3    0    0  0.50513102355E+01 -0.21127501202E+01 -0.83139761289E+00  0.55381107264E+01  0.51100000000E-03 0. -1.
        -11    1    3    3    0    0  0.86036750548E+01  0.21272362862E+01  0.40915495676E+01  0.97616154806E+01  0.51100000000E-03 0.  1.
        -12    1    3    3    0    0  0.14499616003E+02 -0.16256958563E+02 -0.27686900107E+02  0.35229135719E+02  0.00000000000E+00 0.  1.
</event>
<event>
 7    1  0.3250765E-011  0.5052886E+02  0.7816164E-02  0.1300439E+00
        -11   -1    0    0    0    0  0.00000000000E+00  0.00000000000E+00  0.45593999997E+02  0.45594000000E+02  0.51100000000E-03 0.  1.
         11   -1    0    0    0    0 -0.00000000000E+00 -0.00000000000E+00 -0.45593999997E+02  0.45594000000E+02  0.51100000000E-03 0. -1.
    9900012    2    1    2    0    0  0.39610591949E+02  0.88515051837E+01 -0.24119214958E+01  0.50528861988E+02  0.30000006499E+02 0.  0.
         12    1    1    2    0    0 -0.39610591949E+02 -0.88515051837E+01  0.24119214958E+01  0.40659138012E+02  0.00000000000E+00 0. -1.
         11    1    3    3    0    0  0.47016806636E+01  0.42591954147E+00 -0.61946952130E+01  0.77885465628E+01  0.51100000000E-03 0. -1.
        -11    1    3    3    0    0  0.15573195263E+02  0.44191111101E+01  0.13177040786E+02  0.20873125253E+02  0.51100000000E-03 0.  1.
         12    1    3    3    0    0  0.19335716022E+02  0.40064745322E+01 -0.93942670684E+01  0.21867190172E+02  0.00000000000E+00 0. -1.
</event>
<event>
 7    1  0.3250765E-011  0.5052887E+02  0.7816164E-02  0.1300439E+00
        -11   -1    0    0    0    0  0.00000000000E+00  0.00000000000E+00  0.45593999997E+02  0.45594000000E+02  0.51100000000E-03 0.  1.
         11   -1    0    0    0    0 -0.00000000000E+00 -0.00000000000E+00 -0.45593999997E+02  0.45594000000E+02  0.51100000000E-03 0. -1.
    9900012    2    1    2    0    0  0.73856121039E+01  0.12901151922E+02  0.37844127921E+02  0.50528868121E+02  0.30000025142E+02 0.  0.
         12    1    1    2    0    0 -0.73856121039E+01 -0.12901151922E+02 -0.37844127921E+02  0.40659131879E+02  0.00000000000E+00 0. -1.
         11    1    3    3    0    0  0.32870093614E+01 -0.52110892412E+01  0.92387666699E+01  0.11104714830E+02  0.51100000000E-03 0. -1.
        -11    1    3    3    0    0  0.12086464040E+02  0.11805953634E+02  0.19068405834E+02  0.25476798376E+02  0.51100000000E-03 0.  1.
         12    1    3    3    0    0 -0.79878612971E+01  0.63062875285E+01  0.95369554171E+01  0.13947354915E+02  0.00000000000E+00 0. -1.
</event>
<event>
 7    1  0.3250765E-011  0.5052885E+02  0.7816164E-02  0.1300439E+00
        -11   -1    0    0    0    0  0.00000000000E+00  0.00000000000E+00  0.45593999997E+02  0.45594000000E+02  0.51100000000E-03 0. -1.
         11   -1    0    0    0    0 -0.00000000000E+00 -0.00000000000E+00 -0.45593999997E+02  0.45594000000E+02  0.51100000000E-03 0.  1.
    9900012    2    1    2    0    0 -0.27158688319E+02 -0.25786181579E+02 -0.15831762364E+02  0.50528853290E+02  0.29999980061E+02 0.  0.
         12    1    1    2    0    0  0.27158688319E+02  0.25786181579E+02  0.15831762364E+02  0.40659146710E+02  0.00000000000E+00 0. -1.
         11    1    3    3    0    0  0.47123972012E+01 -0.36347051404E+01 -0.12495138584E+01  0.60810405346E+01  0.51100000000E-03 0. -1.
        -11    1    3    3    0    0 -0.97662803080E+01 -0.15598192108E+02 -0.29998273800E+01  0.18646254119E+02  0.51100000000E-03 0.  1.
         12    1    3    3    0    0 -0.22104805212E+02 -0.65532843307E+01 -0.11582421125E+02  0.25801558637E+02  0.00000000000E+00 0. -1.
</event>
<event>
 7    1  0.3250765E-011  0.5052885E+02  0.7816164E-02  0.1300439E+00
        -11   -1    0    0    0    0  0.00000000000E+00  0.00000000000E+00  0.45593999997E+02  0.45594000000E+02  0.51100000000E-03 0. -1.
         11   -1    0    0    0    0 -0.00000000000E+00 -0.00000000000E+00 -0.45593999997E+02  0.45594000000E+02  0.51100000000E-03 0.  1.
    9900012    2    1    2    0    0  0.16150049397E+02  0.31496486192E+02 -0.20007842299E+02  0.50528849844E+02  0.29999969586E+02 0.  0.
         12    1    1    2    0    0 -0.16150049397E+02 -0.31496486192E+02  0.20007842299E+02  0.40659150156E+02  0.00000000000E+00 0. -1.
         11    1    3    3    0    0  0.95749853446E+01  0.82650858974E+01 -0.71548230190E+01  0.14532153383E+02  0.51100000000E-03 0. -1.
        -11    1    3    3    0    0  0.40782465695E+00  0.24458625846E+02 -0.15728534699E+02  0.29082254095E+02  0.51100000000E-03 0.  1.
         12    1    3    3    0    0  0.61672393955E+01 -0.12272255512E+01  0.28755154191E+01  0.69144423666E+01  0.00000000000E+00 0. -1.
</event>
<event>
 7    1  0.3250765E-011  0.5052885E+02  0.7816164E-02  0.1300439E+00
        -11   -1    0    0    0    0  0.00000000000E+00  0.00000000000E+00  0.45593999997E+02  0.45594000000E+02  0.51100000000E-03 0.  1.
         11   -1    0    0    0    0 -0.00000000000E+00 -0.00000000000E+00 -0.45593999997E+02  0.45594000000E+02  0.51100000000E-03 0. -1.
    9900012    2    1    2    0    0  0.22979037328E+02  0.25814811370E+02  0.21417884586E+02  0.50528850688E+02  0.29999972152E+02 0.  0.
         12    1    1    2    0    0 -0.22979037328E+02 -0.25814811370E+02 -0.21417884586E+02  0.40659149312E+02  0.00000000000E+00 0. -1.
         11    1    3    3    0    0 -0.36584145804E+01  0.14240004159E+01 -0.71767780971E+00  0.39908440368E+01  0.51100000000E-03 0. -1.
        -11    1    3    3    0    0  0.77530148456E+01  0.22464431223E+01  0.14263259068E+02  0.16388907999E+02  0.51100000000E-03 0.  1.
         12    1    3    3    0    0  0.18884437063E+02  0.22144367832E+02  0.78723033274E+01  0.30149098652E+02  0.00000000000E+00 0. -1.
</event>
<event>
 7    1  0.3460670E-011  0.5052886E+02  0.7816164E-02  0.1300439E+00
        -11   -1    0    0    0    0  0.00000000000E+00  0.00000000000E+00  0.45593999997E+02  0.45594000000E+02  0.51100000000E-03 0.  1.
         11   -1    0    0    0    0 -0.00000000000E+00 -0.00000000000E+00 -0.45593999997E+02  0.45594000000E+02  0.51100000000E-03 0. -1.
    9900012    2    1    2    0    0 -0.23879479352E+02 -0.20565699585E+02  0.25690234392E+02  0.50528859863E+02  0.30000000040E+02 0.  0.
         12    1    1    2    0    0  0.23879479352E+02  0.20565699585E+02 -0.25690234392E+02  0.40659140137E+02  0.00000000000E+00 0. -1.
         11    1    3    3    0    0 -0.55948369638E+01 -0.11481715465E+02  0.15358216885E+02  0.19975154988E+02  0.51100000000E-03 0.  1.
        -11    1    3    3    0    0 -0.16811817999E+02 -0.41334581445E+01  0.15507195026E+02  0.23242112609E+02  0.51100000000E-03 0. -1.
         12    1    3    3    0    0 -0.14728243890E+01 -0.49505259757E+01 -0.51751775188E+01  0.73115922663E+01  0.00000000000E+00 0. -1.
</event>
<event>
 7    1  0.3904481E-011  0.5052886E+02  0.7816164E-02  0.1300439E+00
        -11   -1    0    0    0    0  0.00000000000E+00  0.00000000000E+00  0.45593999997E+02  0.45594000000E+02  0.51100000000E-03 0.  1.
         11   -1    0    0    0    0 -0.00000000000E+00 -0.00000000000E+00 -0.45593999997E+02  0.45594000000E+02  0.51100000000E-03 0. -1.
    9900012    2    1    2    0    0  0.29019778135E+02  0.36407161293E+01  0.28244703970E+02  0.50528860322E+02  0.30000001436E+02 0.  0.
         12    1    1    2    0    0 -0.29019778135E+02 -0.36407161293E+01 -0.28244703970E+02  0.40659139678E+02  0.00000000000E+00 0. -1.
         11    1    3    3    0    0 -0.11546585479E+01 -0.50058077558E+01  0.48451118495E+00  0.51600483525E+01  0.51100000000E-03 0. -1.
        -11    1    3    3    0    0  0.56734646547E+01  0.44596552191E+01  0.16642237481E+02  0.18139481649E+02  0.51100000000E-03 0.  1.
         12    1    3    3    0    0  0.24500972029E+02  0.41868686660E+01  0.11117955304E+02  0.27229330321E+02  0.00000000000E+00 0. -1.
</event>
<event>
 7    1  0.3250765E-011  0.5052885E+02  0.7816164E-02  0.1300439E+00
        -11   -1    0    0    0    0  0.00000000000E+00  0.00000000000E+00  0.45593999997E+02  0.45594000000E+02  0.51100000000E-03 0.  1.
         11   -1    0    0    0    0 -0.00000000000E+00 -0.00000000000E+00 -0.45593999997E+02  0.45594000000E+02  0.51100000000E-03 0. -1.
    9900012    2    1    2    0    0  0.15448227284E+02  0.98464223531E+01  0.36298299019E+02  0.50528852554E+02  0.29999977823E+02 0.  0.
         12    1    1    2    0    0 -0.15448227284E+02 -0.98464223531E+01 -0.36298299019E+02  0.40659147446E+02  0.00000000000E+00 0. -1.
         11    1    3    3    0    0  0.49781696197E+01  0.44236788479E+01 -0.16470384715E+01  0.68603092714E+01  0.51100000000E-03 0. -1.
        -11    1    3    3    0    0 -0.16153117255E+01  0.87273692269E+01  0.12819919892E+02  0.15592515893E+02  0.51100000000E-03 0.  1.
        -12    1    3    3    0    0  0.12085369390E+02 -0.33046257217E+01  0.25125417599E+02  0.28076027389E+02  0.00000000000E+00 0.  1.
</event>
<event>
 7    1  0.3250765E-011  0.5052886E+02  0.7816164E-02  0.1300439E+00
        -11   -1    0    0    0    0  0.00000000000E+00  0.00000000000E+00  0.45593999997E+02  0.45594000000E+02  0.51100000000E-03 0. -1.
         11   -1    0    0    0    0 -0.00000000000E+00 -0.00000000000E+00 -0.45593999997E+02  0.45594000000E+02  0.51100000000E-03 0.  1.
    9900012    2    1    2    0    0  0.79938904703E+01 -0.91460553756E+01 -0.38802225656E+02  0.50528864131E+02  0.30000013012E+02 0.  0.
         12    1    1    2    0    0 -0.79938904703E+01  0.91460553756E+01  0.38802225656E+02  0.40659135869E+02  0.00000000000E+00 0. -1.
         11    1    3    3    0    0 -0.78641750030E+00  0.18725094436E+01  0.21764958436E+01  0.29768907469E+01  0.51100000000E-03 0. -1.
        -11    1    3    3    0    0  0.84421535161E+01  0.21776448567E+01 -0.26786660228E+02  0.28169793389E+02  0.51100000000E-03 0.  1.
        -12    1    3    3    0    0  0.33815445448E+00 -0.13196209676E+02 -0.14192061271E+02  0.19382179995E+02  0.00000000000E+00 0.  1.
</event>
<event>
 7    1  0.3250765E-011  0.5052887E+02  0.7816164E-02  0.1300439E+00
        -11   -1    0    0    0    0  0.00000000000E+00  0.00000000000E+00  0.45593999997E+02  0.45594000000E+02  0.51100000000E-03 0. -1.
         11   -1    0    0    0    0 -0.00000000000E+00 -0.00000000000E+00 -0.45593999997E+02  0.45594000000E+02  0.51100000000E-03 0.  1.
    9900012    2    1    2    0    0  0.31678127644E+02 -0.24605450510E+02 -0.66507511420E+01  0.50528874867E+02  0.30000045646E+02 0.  0.
         12    1    1    2    0    0 -0.31678127644E+02  0.24605450510E+02  0.66507511420E+01  0.40659125133E+02  0.00000000000E+00 0. -1.
         11    1    3    3    0    0  0.21593135711E+02 -0.24564105813E+01 -0.51040170487E+01  0.22323719517E+02  0.51100000000E-03 0. -1.
        -11    1    3    3    0    0  0.12004840131E+02 -0.13504767184E+02  0.28934551464E+01  0.18299371744E+02  0.51100000000E-03 0.  1.
        -12    1    3    3    0    0 -0.19198481978E+01 -0.86442727447E+01 -0.44401892396E+01  0.99057836071E+01  0.00000000000E+00 0.  1.
</event>
<event>
 7    1  0.3250765E-011  0.5052887E+02  0.7816164E-02  0.1300439E+00
        -11   -1    0    0    0    0  0.00000000000E+00  0.00000000000E+00  0.45593999997E+02  0.45594000000E+02  0.51100000000E-03 0. -1.
         11   -1    0    0    0    0 -0.00000000000E+00 -0.00000000000E+00 -0.45593999997E+02  0.45594000000E+02  0.51100000000E-03 0.  1.
    9900012    2    1    2    0    0 -0.13687535912E+02  0.36673576497E+02 -0.10993879366E+02  0.50528865283E+02  0.30000016515E+02 0.  0.
         12    1    1    2    0    0  0.13687535912E+02 -0.36673576497E+02  0.10993879366E+02  0.40659134717E+02  0.00000000000E+00 0. -1.
         11    1    3    3    0    0 -0.98960607994E+01  0.10703143692E+02 -0.38972735539E+01  0.15089004130E+02  0.51100000000E-03 0. -1.
        -11    1    3    3    0    0 -0.25145625561E+01  0.15404595934E+02  0.75470062838E+01  0.17337298084E+02  0.51100000000E-03 0.  1.
         12    1    3    3    0    0 -0.12769125566E+01  0.10565836871E+02 -0.14643612095E+02  0.18102563069E+02  0.00000000000E+00 0. -1.
</event>
<event>
 7    1  0.3250765E-011  0.5052885E+02  0.7816164E-02  0.1300439E+00
        -11   -1    0    0    0    0  0.00000000000E+00  0.00000000000E+00  0.45593999997E+02  0.45594000000E+02  0.51100000000E-03 0.  1.
         11   -1    0    0    0    0 -0.00000000000E+00 -0.00000000000E+00 -0.45593999997E+02  0.45594000000E+02  0.51100000000E-03 0. -1.
    9900012    2    1    2    0    0  0.24791675131E+01  0.11071041936E+02  0.39044232156E+02  0.50528852127E+02  0.29999976526E+02 0.  0.
         12    1    1    2    0    0 -0.24791675131E+01 -0.11071041936E+02 -0.39044232156E+02  0.40659147873E+02  0.00000000000E+00 0. -1.
         11    1    3    3    0    0  0.85892476204E+01  0.32867051652E+01  0.18090456240E+01  0.93728465184E+01  0.51100000000E-03 0. -1.
        -11    1    3    3    0    0  0.40096479743E+01  0.48052091862E+01  0.19924260445E+02  0.20884048140E+02  0.51100000000E-03 0.  1.
         12    1    3    3    0    0 -0.10119728082E+02  0.29791275848E+01  0.17310926087E+02  0.20271957468E+02  0.00000000000E+00 0. -1.
</event>
<event>
 7    1  0.3250765E-011  0.5052886E+02  0.7816164E-02  0.1300439E+00
        -11   -1    0    0    0    0  0.00000000000E+00  0.00000000000E+00  0.45593999997E+02  0.45594000000E+02  0.51100000000E-03 0.  1.
         11   -1    0    0    0    0 -0.00000000000E+00 -0.00000000000E+00 -0.45593999997E+02  0.45594000000E+02  0.51100000000E-03 0. -1.
    9900012    2    1    2    0    0  0.17279230178E+02 -0.79350396418E+01  0.35939236672E+02  0.50528863484E+02  0.30000011047E+02 0.  0.
         12    1    1    2    0    0 -0.17279230178E+02  0.79350396418E+01 -0.35939236672E+02  0.40659136516E+02  0.00000000000E+00 0. -1.
         11    1    3    3    0    0  0.67868252857E+01 -0.78894892872E+01  0.12297511875E+02  0.16110053918E+02  0.51100000000E-03 0. -1.
        -11    1    3    3    0    0  0.17639143395E+02  0.74193139784E+00  0.18550349738E+02  0.25608696132E+02  0.51100000000E-03 0.  1.
         12    1    3    3    0    0 -0.71467385028E+01 -0.78748175250E+00  0.50913750589E+01  0.88101134345E+01  0.00000000000E+00 0. -1.
</event>
<event>
 7    1  0.3250765E-011  0.5052886E+02  0.7816164E-02  0.1300439E+00
        -11   -1    0    0    0    0  0.00000000000E+00  0.00000000000E+00  0.45593999997E+02  0.45594000000E+02  0.51100000000E-03 0.  1.
         11   -1    0    0    0    0 -0.00000000000E+00 -0.00000000000E+00 -0.45593999997E+02  0.45594000000E+02  0.51100000000E-03 0. -1.
    9900012    2    1    2    0    0  0.15043630154E+02  0.34731418412E+02  0.14852058852E+02  0.50528857298E+02  0.29999992242E+02 0.  0.
         12    1    1    2    0    0 -0.15043630154E+02 -0.34731418412E+02 -0.14852058852E+02  0.40659142702E+02  0.00000000000E+00 0. -1.
         11    1    3    3    0    0 -0.32987558841E+01  0.10811610002E+02  0.10870896871E+01  0.11355811968E+02  0.51100000000E-03 0. -1.
        -11    1    3    3    0    0  0.21379319771E+02  0.20955917841E+02  0.63098170619E+01  0.30594764226E+02  0.51100000000E-03 0.  1.
         12    1    3    3    0    0 -0.30369337329E+01  0.29638905695E+01  0.74551521029E+01  0.85782811031E+01  0.00000000000E+00 0. -1.
</event>
<event>
 7    1  0.3250765E-011  0.5052886E+02  0.7816164E-02  0.1300439E+00
        -11   -1    0    0    0    0  0.00000000000E+00  0.00000000000E+00  0.45593999997E+02  0.45594000000E+02  0.51100000000E-03 0.  1.
         11   -1    0    0    0    0 -0.00000000000E+00 -0.00000000000E+00 -0.45593999997E+02  0.45594000000E+02  0.51100000000E-03 0. -1.
    9900012    2    1    2    0    0 -0.31390217292E+02  0.17063517961E+02  0.19407637854E+02  0.50528858421E+02  0.29999995656E+02 0.  0.
         12    1    1    2    0    0  0.31390217292E+02 -0.17063517961E+02 -0.19407637854E+02  0.40659141579E+02  0.00000000000E+00 0. -1.
         11    1    3    3    0    0  0.79115438254E+00 -0.39748154314E+00 -0.26981143455E+01  0.28396721847E+01  0.51100000000E-03 0. -1.
        -11    1    3    3    0    0 -0.71360579188E+01  0.25832826629E+01 -0.39942913350E+01  0.85761900321E+01  0.51100000000E-03 0.  1.
        -12    1    3    3    0    0 -0.25045313756E+02  0.14877716842E+02  0.26100043535E+02  0.39112996204E+02  0.00000000000E+00 0.  1.
</event>
<event>
 7    1  0.3250765E-011  0.5052886E+02  0.7816164E-02  0.1300439E+00
        -11   -1    0    0    0    0  0.00000000000E+00  0.00000000000E+00  0.45593999997E+02  0.45594000000E+02  0.51100000000E-03 0.  1.
         11   -1    0    0    0    0 -0.00000000000E+00 -0.00000000000E+00 -0.45593999997E+02  0.45594000000E+02  0.51100000000E-03 0. -1.
    9900012    2    1    2    0    0 -0.28290910241E+02  0.53907162006E+01  0.28700700100E+02  0.50528860687E+02  0.30000002545E+02 0.  0.
         12    1    1    2    0    0  0.28290910241E+02 -0.53907162006E+01 -0.28700700100E+02  0.40659139313E+02  0.00000000000E+00 0. -1.
         11    1    3    3    0    0 -0.18141628244E+02 -0.25067215016E+01  0.48254336684E+01  0.18939037419E+02  0.51100000000E-03 0. -1.
        -11    1    3    3    0    0 -0.68734659386E+01 -0.27420926866E+01  0.31069491568E+01  0.80260039643E+01  0.51100000000E-03 0.  1.
         12    1    3    3    0    0 -0.32758160585E+01  0.10639530389E+02  0.20768317275E+02  0.23563819304E+02  0.00000000000E+00 0. -1.
</event>
<event>
 7    1  0.3250765E-011  0.5052886E+02  0.7816164E-02  0.1300439E+00
        -11   -1    0    0    0    0  0.00000000000E+00  0.00000000000E+00  0.45593999997E+02  0.45594000000E+02  0.51100000000E-03 0.  1.
         11   -1    0    0    0    0 -0.00000000000E+00 -0.00000000000E+00 -0.45593999997E+02  0.45594000000E+02  0.51100000000E-03 0. -1.
    9900012    2    1    2    0    0  0.10326740240E+02  0.12142138072E+02  0.37404442939E+02  0.50528862866E+02  0.30000009168E+02 0.  0.
         12    1    1    2    0    0 -0.10326740240E+02 -0.12142138072E+02 -0.37404442939E+02  0.40659137134E+02  0.00000000000E+00 0. -1.
         11    1    3    3    0    0  0.78136556352E+01  0.29216390529E-01  0.15704424994E+01  0.79699659904E+01  0.51100000000E-03 0. -1.
        -11    1    3    3    0    0  0.10887343268E+02  0.76580930054E+01  0.18376587604E+02  0.22690958644E+02  0.51100000000E-03 0.  1.
        -12    1    3    3    0    0 -0.83742586641E+01  0.44548286762E+01  0.17457412835E+02  0.19867938232E+02  0.00000000000E+00 0.  1.
</event>
<event>
 7    1  0.3250765E-011  0.5052886E+02  0.7816164E-02  0.1300439E+00
        -11   -1    0    0    0    0  0.00000000000E+00  0.00000000000E+00  0.45593999997E+02  0.45594000000E+02  0.51100000000E-03 0.  1.
         11   -1    0    0    0    0 -0.00000000000E+00 -0.00000000000E+00 -0.45593999997E+02  0.45594000000E+02  0.51100000000E-03 0. -1.
    9900012    2    1    2    0    0 -0.50523035267E+01  0.12730599123E+02  0.38282783728E+02  0.50528862590E+02  0.30000008328E+02 0.  0.
         12    1    1    2    0    0  0.50523035267E+01 -0.12730599123E+02 -0.38282783728E+02  0.40659137410E+02  0.00000000000E+00 0. -1.
         11    1    3    3    0    0 -0.15710177289E+01 -0.79937247952E+01  0.63388098410E+01  0.10322220850E+02  0.51100000000E-03 0. -1.
        -11    1    3    3    0    0 -0.64721651320E+01  0.70153192204E+01  0.18276814787E+02  0.20619058763E+02  0.51100000000E-03 0.  1.
        -12    1    3    3    0    0  0.29908793342E+01  0.13709004698E+02  0.13667159100E+02  0.19587582977E+02  0.00000000000E+00 0.  1.
</event>
<event>
 7    1  0.3250765E-011  0.5052887E+02  0.7816164E-02  0.1300439E+00
        -11   -1    0    0    0    0  0.00000000000E+00  0.00000000000E+00  0.45593999997E+02  0.45594000000E+02  0.51100000000E-03 0.  1.
         11   -1    0    0    0    0 -0.00000000000E+00 -0.00000000000E+00 -0.45593999997E+02  0.45594000000E+02  0.51100000000E-03 0. -1.
    9900012    2    1    2    0    0 -0.18833359927E+01  0.37396266625E+02  0.15847299454E+02  0.50528872956E+02  0.30000039837E+02 0.  0.
         12    1    1    2    0    0  0.18833359927E+01 -0.37396266625E+02 -0.15847299454E+02  0.40659127044E+02  0.00000000000E+00 0. -1.
         11    1    3    3    0    0 -0.30169633992E+01  0.14099975403E+02  0.91764924848E+01  0.17091500493E+02  0.51100000000E-03 0. -1.
        -11    1    3    3    0    0 -0.10931935458E+02  0.10220564848E+02  0.26856030923E+01  0.15204592165E+02  0.51100000000E-03 0.  1.
         12    1    3    3    0    0  0.12065562864E+02  0.13075726375E+02  0.39852038773E+01  0.18232780298E+02  0.00000000000E+00 0. -1.
</event>
<event>
 7    1  0.3250765E-011  0.5052887E+02  0.7816164E-02  0.1300439E+00
        -11   -1    0    0    0    0  0.00000000000E+00  0.00000000000E+00  0.45593999997E+02  0.45594000000E+02  0.51100000000E-03 0. -1.
         11   -1    0    0    0    0 -0.00000000000E+00 -0.00000000000E+00 -0.45593999997E+02  0.45594000000E+02  0.51100000000E-03 0.  1.
    9900012    2    1    2    0    0 -0.29427199646E+02  0.14770098560E+02 -0.23854738963E+02  0.50528874807E+02  0.30000045464E+02 0.  0.
         12    1    1    2    0    0  0.29427199646E+02 -0.14770098560E+02  0.23854738963E+02  0.40659125193E+02  0.00000000000E+00 0. -1.
         11    1    3    3    0    0  0.51548199409E+01 -0.11216496202E+01  0.14477947476E-01  0.52754598250E+01  0.51100000000E-03 0. -1.
        -11    1    3    3    0    0 -0.49853667815E+01  0.22894919531E+01 -0.13361698990E+01  0.56463267360E+01  0.51100000000E-03 0.  1.
         12    1    3    3    0    0 -0.29596652805E+02  0.13602256227E+02 -0.22533047011E+02  0.39607088246E+02  0.00000000000E+00 0. -1.
</event>
<event>
 7    1  0.3250765E-011  0.5052886E+02  0.7816164E-02  0.1300439E+00
        -11   -1    0    0    0    0  0.00000000000E+00  0.00000000000E+00  0.45593999997E+02  0.45594000000E+02  0.51100000000E-03 0.  1.
         11   -1    0    0    0    0 -0.00000000000E+00 -0.00000000000E+00 -0.45593999997E+02  0.45594000000E+02  0.51100000000E-03 0. -1.
    9900012    2    1    2    0    0  0.38765840112E+02 -0.14277631053E+01  0.12179350784E+02  0.50528862618E+02  0.30000008415E+02 0.  0.
         12    1    1    2    0    0 -0.38765840112E+02  0.14277631053E+01 -0.12179350784E+02  0.40659137382E+02  0.00000000000E+00 0. -1.
         11    1    3    3    0    0  0.29565593907E+02 -0.22139747139E+01  0.82244893044E+01  0.30767974449E+02  0.51100000000E-03 0.  1.
        -11    1    3    3    0    0  0.50839124334E+01 -0.20438454054E+00 -0.66319491699E+01  0.83588688663E+01  0.51100000000E-03 0. -1.
         12    1    3    3    0    0  0.41163337716E+01  0.99059614921E+00  0.10586810650E+02  0.11402019303E+02  0.00000000000E+00 0. -1.
</event>
<event>
 7    1  0.3250765E-011  0.5052885E+02  0.7816164E-02  0.1300439E+00
        -11   -1    0    0    0    0  0.00000000000E+00  0.00000000000E+00  0.45593999997E+02  0.45594000000E+02  0.51100000000E-03 0.  1.
         11   -1    0    0    0    0 -0.00000000000E+00 -0.00000000000E+00 -0.45593999997E+02  0.45594000000E+02  0.51100000000E-03 0. -1.
    9900012    2    1    2    0    0  0.30373980008E+02  0.17161644812E+02  0.20882183152E+02  0.50528852353E+02  0.29999977212E+02 0.  0.
         12    1    1    2    0    0 -0.30373980008E+02 -0.17161644812E+02 -0.20882183152E+02  0.40659147647E+02  0.00000000000E+00 0. -1.
         11    1    3    3    0    0  0.13009322065E+01  0.82428374060E+01  0.93944863404E+00  0.83975804316E+01  0.51100000000E-03 0. -1.
        -11    1    3    3    0    0  0.65957936761E+00  0.33518904413E+01  0.11463266407E+02  0.11961466944E+02  0.51100000000E-03 0.  1.
        -12    1    3    3    0    0  0.28413468434E+02  0.55669169642E+01  0.84794681113E+01  0.30169804978E+02  0.00000000000E+00 0.  1.
</event>
<event>
 7    1  0.3250765E-011  0.5052885E+02  0.7816164E-02  0.1300439E+00
        -11   -1    0    0    0    0  0.00000000000E+00  0.00000000000E+00  0.45593999997E+02  0.45594000000E+02  0.51100000000E-03 0.  1.
         11   -1    0    0    0    0 -0.00000000000E+00 -0.00000000000E+00 -0.45593999997E+02  0.45594000000E+02  0.51100000000E-03 0. -1.
    9900012    2    1    2    0    0  0.35614348507E+02  0.13865650882E+00  0.19615432596E+02  0.50528852921E+02  0.29999978939E+02 0.  0.
         12    1    1    2    0    0 -0.35614348507E+02 -0.13865650882E+00 -0.19615432596E+02  0.40659147079E+02  0.00000000000E+00 0. -1.
         11    1    3    3    0    0  0.12881630190E+01 -0.27507365049E+01  0.76364191747E+01  0.82183218090E+01  0.51100000000E-03 0. -1.
        -11    1    3    3    0    0  0.84058240569E+01 -0.18401297943E+01  0.13398863204E+02  0.15923991056E+02  0.51100000000E-03 0.  1.
         12    1    3    3    0    0  0.25920361431E+02  0.47295228080E+01 -0.14198497823E+01  0.26386540056E+02  0.00000000000E+00 0. -1.
</event>
<event>
 7    1  0.3250765E-011  0.5052887E+02  0.7816164E-02  0.1300439E+00
        -11   -1    0    0    0    0  0.00000000000E+00  0.00000000000E+00  0.45593999997E+02  0.45594000000E+02  0.51100000000E-03 0.  1.
         11   -1    0    0    0    0 -0.00000000000E+00 -0.00000000000E+00 -0.45593999997E+02  0.45594000000E+02  0.51100000000E-03 0. -1.
    9900012    2    1    2    0    0 -0.34234358330E+02  0.15654795079E+02 -0.15365579378E+02  0.50528869059E+02  0.30000027993E+02 0.  0.
         12    1    1    2    0    0  0.34234358330E+02 -0.15654795079E+02  0.15365579378E+02  0.40659130941E+02  0.00000000000E+00 0. -1.
         11    1    3    3    0    0 -0.13235432758E+02  0.12721167447E+02 -0.15106122231E+01  0.18419737540E+02  0.51100000000E-03 0. -1.
        -11    1    3    3    0    0 -0.12344606761E+02  0.10270912246E+02 -0.13124371895E+02  0.20739577921E+02  0.51100000000E-03 0.  1.
        -12    1    3    3    0    0 -0.86543188109E+01 -0.73372846137E+01 -0.73059525929E+00  0.11369553598E+02  0.00000000000E+00 0.  1.
</event>
<event>
 7    1  0.3250765E-011  0.5052886E+02  0.7816164E-02  0.1300439E+00
        -11   -1    0    0    0    0  0.00000000000E+00  0.00000000000E+00  0.45593999997E+02  0.45594000000E+02  0.51100000000E-03 0.  1.
         11   -1    0    0    0    0 -0.00000000000E+00 -0.00000000000E+00 -0.45593999997E+02  0.45594000000E+02  0.51100000000E-03 0. -1.
    9900012    2    1    2    0    0 -0.15695501917E+02 -0.37191213766E+02  0.48611152337E+01  0.50528860767E+02  0.30000002788E+02 0.  0.
         12    1    1    2    0    0  0.15695501917E+02  0.37191213766E+02 -0.48611152337E+01  0.40659139233E+02  0.00000000000E+00 0. -1.
         11    1    3    3    0    0  0.38153170161E+01  0.26416336323E+01 -0.19534945173E+01  0.50349789742E+01  0.51100000000E-03 0. -1.
        -11    1    3    3    0    0 -0.93640471136E+01 -0.12348512307E+02  0.43310101712E+01  0.16091264211E+02  0.51100000000E-03 0.  1.
        -12    1    3    3    0    0 -0.10146771820E+02 -0.27484335092E+02  0.24835995798E+01  0.29402617582E+02  0.00000000000E+00 0.  1.
</event>
<event>
 7    1  0.3250765E-011  0.5052885E+02  0.7816164E-02  0.1300439E+00
        -11   -1    0    0    0    0  0.00000000000E+00  0.00000000000E+00  0.45593999997E+02  0.45594000000E+02  0.51100000000E-03 0.  1.
         11   -1    0    0    0    0 -0.00000000000E+00 -0.00000000000E+00 -0.45593999997E+02  0.45594000000E+02  0.51100000000E-03 0. -1.
    9900012    2    1    2    0    0 -0.86098748240E+01 -0.71382933040E+01  0.39090680851E+02  0.50528849675E+02  0.29999969072E+02 0.  0.
         12    1    1    2    0    0  0.86098748240E+01  0.71382933040E+01 -0.39090680851E+02  0.40659150325E+02  0.00000000000E+00 0. -1.
         11    1    3    3    0    0 -0.29033620779E+01  0.83652753704E+01  0.85365388487E+01  0.12299586951E+02  0.51100000000E-03 0. -1.
        -11    1    3    3    0    0  0.19150872918E+01 -0.77447948102E+01  0.28585438922E+01  0.84747082210E+01  0.51100000000E-03 0.  1.
        -12    1    3    3    0    0 -0.76216000379E+01 -0.77587738643E+01  0.27695598110E+02  0.29754554503E+02  0.00000000000E+00 0.  1.
</event>
<event>
 7    1  0.3250765E-011  0.5052884E+02  0.7816164E-02  0.1300439E+00
        -11   -1    0    0    0    0  0.00000000000E+00  0.00000000000E+00  0.45593999997E+02  0.45594000000E+02  0.51100000000E-03 0.  1.
         11   -1    0    0    0    0 -0.00000000000E+00 -0.00000000000E+00 -0.45593999997E+02  0.45594000000E+02  0.51100000000E-03 0. -1.
    9900012    2    1    2    0    0 -0.71779547200E+01 -0.38344114861E+02  0.11461809000E+02  0.50528840589E+02  0.29999941455E+02 0.  0.
         12    1    1    2    0    0  0.71779547200E+01  0.38344114861E+02 -0.11461809000E+02  0.40659159411E+02  0.00000000000E+00 0. -1.
         11    1    3    3    0    0 -0.29008737054E+01  0.11001797574E+00 -0.16037395879E+01  0.33164971184E+01  0.51100000000E-03 0. -1.
        -11    1    3    3    0    0 -0.10808038985E+02 -0.36638082746E+02  0.87880951757E+01  0.39196854862E+02  0.51100000000E-03 0.  1.
         12    1    3    3    0    0  0.65309579705E+01 -0.18160500911E+01  0.42774534123E+01  0.80154886090E+01  0.00000000000E+00 0. -1.
</event>
<event>
 7    1  0.3250765E-011  0.5052886E+02  0.7816164E-02  0.1300439E+00
        -11   -1    0    0    0    0  0.00000000000E+00  0.00000000000E+00  0.45593999997E+02  0.45594000000E+02  0.51100000000E-03 0.  1.
         11   -1    0    0    0    0 -0.00000000000E+00 -0.00000000000E+00 -0.45593999997E+02  0.45594000000E+02  0.51100000000E-03 0. -1.
    9900012    2    1    2    0    0  0.60938291726E+01 -0.40105096236E+02  0.27589770130E+01  0.50528862623E+02  0.30000008428E+02 0.  0.
         12    1    1    2    0    0 -0.60938291726E+01  0.40105096236E+02 -0.27589770130E+01  0.40659137377E+02  0.00000000000E+00 0. -1.
         11    1    3    3    0    0 -0.96151616218E+01 -0.13661061454E+02  0.29041979704E+01  0.16956128662E+02  0.51100000000E-03 0. -1.
        -11    1    3    3    0    0  0.63976570171E+01 -0.19023111611E+02  0.48705586349E+01  0.20652630156E+02  0.51100000000E-03 0.  1.
         12    1    3    3    0    0  0.93113337773E+01 -0.74209231713E+01 -0.50157795923E+01  0.12920103806E+02  0.00000000000E+00 0. -1.
</event>
<event>
 7    1  0.3250765E-011  0.5052885E+02  0.7816164E-02  0.1300439E+00
        -11   -1    0    0    0    0  0.00000000000E+00  0.00000000000E+00  0.45593999997E+02  0.45594000000E+02  0.51100000000E-03 0.  1.
         11   -1    0    0    0    0 -0.00000000000E+00 -0.00000000000E+00 -0.45593999997E+02  0.45594000000E+02  0.51100000000E-03 0. -1.
    9900012    2    1    2    0    0 -0.18279098386E+02  0.25546506895E+02  0.25815048073E+02  0.50528853928E+02  0.29999981999E+02 0.  0.
         12    1    1    2    0    0  0.18279098386E+02 -0.25546506895E+02 -0.25815048073E+02  0.40659146072E+02  0.00000000000E+00 0. -1.
         11    1    3    3    0    0 -0.47729742558E+01  0.13039510068E+02 -0.47422029002E+01  0.14673056760E+02  0.51100000000E-03 0.  1.
        -11    1    3    3    0    0 -0.79436757950E+01  0.52507160075E+01  0.13797433816E+02  0.16764282982E+02  0.51100000000E-03 0. -1.
        -12    1    3    3    0    0 -0.55624483351E+01  0.72562808189E+01  0.16759817157E+02  0.19091514186E+02  0.00000000000E+00 0.  1.
</event>
<event>
 7    1  0.3250765E-011  0.5052886E+02  0.7816164E-02  0.1300439E+00
        -11   -1    0    0    0    0  0.00000000000E+00  0.00000000000E+00  0.45593999997E+02  0.45594000000E+02  0.51100000000E-03 0.  1.
         11   -1    0    0    0    0 -0.00000000000E+00 -0.00000000000E+00 -0.45593999997E+02  0.45594000000E+02  0.51100000000E-03 0. -1.
    9900012    2    1    2    0    0 -0.40271377157E+02  0.55875908280E+01 -0.40083409552E+00  0.50528860101E+02  0.30000000763E+02 0.  0.
         12    1    1    2    0    0  0.40271377157E+02 -0.55875908280E+01  0.40083409552E+00  0.40659139899E+02  0.00000000000E+00 0. -1.
         11    1    3    3    0    0  0.12653435627E+01  0.48166704001E+01 -0.19963169666E+01  0.53653228950E+01  0.51100000000E-03 0. -1.
        -11    1    3    3    0    0 -0.23719230654E+02  0.56847027113E+01 -0.61010852131E+01  0.25142414139E+02  0.51100000000E-03 0.  1.
        -12    1    3    3    0    0 -0.17817490066E+02 -0.49137822834E+01  0.76965680842E+01  0.20021123067E+02  0.00000000000E+00 0.  1.
</event>
<event>
 7    1  0.3250765E-011  0.5052885E+02  0.7816164E-02  0.1300439E+00
        -11   -1    0    0    0    0  0.00000000000E+00  0.00000000000E+00  0.45593999997E+02  0.45594000000E+02  0.51100000000E-03 0.  1.
         11   -1    0    0    0    0 -0.00000000000E+00 -0.00000000000E+00 -0.45593999997E+02  0.45594000000E+02  0.51100000000E-03 0. -1.
    9900012    2    1    2    0    0 -0.23411394005E+02 -0.13871482604E+02  0.30210184751E+02  0.50528847751E+02  0.29999963224E+02 0.  0.
         12    1    1    2    0    0  0.23411394005E+02  0.13871482604E+02 -0.30210184751E+02  0.40659152249E+02  0.00000000000E+00 0. -1.
         11    1    3    3    0    0 -0.58678789840E+01 -0.29000572610E+01  0.93143410297E+01  0.11384168172E+02  0.51100000000E-03 0. -1.
        -11    1    3    3    0    0 -0.17087718256E+02 -0.56902333876E+01  0.26103516540E+02  0.31713758012E+02  0.51100000000E-03 0.  1.
         12    1    3    3    0    0 -0.45579676535E+00 -0.52811919551E+01 -0.52076728186E+01  0.74309215676E+01  0.00000000000E+00 0. -1.
</event>
<event>
 7    1  0.3250765E-011  0.5052886E+02  0.7816164E-02  0.1300439E+00
        -11   -1    0    0    0    0  0.00000000000E+00  0.00000000000E+00  0.45593999997E+02  0.45594000000E+02  0.51100000000E-03 0. -1.
         11   -1    0    0    0    0 -0.00000000000E+00 -0.00000000000E+00 -0.45593999997E+02  0.45594000000E+02  0.51100000000E-03 0.  1.
    9900012    2    1    2    0    0  0.50861710426E+00  0.36802239547E+02 -0.17277207278E+02  0.50528863040E+02  0.30000009695E+02 0.  0.
         12    1    1    2    0    0 -0.50861710426E+00 -0.36802239547E+02  0.17277207278E+02  0.40659136960E+02  0.00000000000E+00 0. -1.
         11    1    3    3    0    0 -0.13631194402E+01  0.23252968265E+01  0.25243110701E+01  0.36928642785E+01  0.51100000000E-03 0. -1.
        -11    1    3    3    0    0  0.97801878985E+01  0.21020352159E+02 -0.21657764814E+01  0.23285142650E+02  0.51100000000E-03 0.  1.
        -12    1    3    3    0    0 -0.79084513541E+01  0.13456590562E+02 -0.17635741867E+02  0.23550856111E+02  0.00000000000E+00 0.  1.
</event>
<event>
 7    1  0.3250765E-011  0.5052884E+02  0.7816164E-02  0.1300439E+00
        -11   -1    0    0    0    0  0.00000000000E+00  0.00000000000E+00  0.45593999997E+02  0.45594000000E+02  0.51100000000E-03 0. -1.
         11   -1    0    0    0    0 -0.00000000000E+00 -0.00000000000E+00 -0.45593999997E+02  0.45594000000E+02  0.51100000000E-03 0.  1.
    9900012    2    1    2    0    0 -0.17188877361E+02 -0.14287024557E+02 -0.33964550753E+02  0.50528840103E+02  0.29999939978E+02 0.  0.
         12    1    1    2    0    0  0.17188877361E+02  0.14287024557E+02  0.33964550753E+02  0.40659159897E+02  0.00000000000E+00 0. -1.
         11    1    3    3    0    0 -0.18693025572E+00  0.64708817974E+01 -0.64765061587E+01  0.91570948691E+01  0.51100000000E-03 0. -1.
        -11    1    3    3    0    0 -0.13246404093E+02 -0.65392480088E+01 -0.20013248877E+02  0.24874869182E+02  0.51100000000E-03 0.  1.
        -12    1    3    3    0    0 -0.37555430120E+01 -0.14218658346E+02 -0.74747957172E+01  0.16496876052E+02  0.00000000000E+00 0.  1.
</event>
<event>
 7    1  0.3250765E-011  0.5052885E+02  0.7816164E-02  0.1300439E+00
        -11   -1    0    0    0    0  0.00000000000E+00  0.00000000000E+00  0.45593999997E+02  0.45594000000E+02  0.51100000000E-03 0.  1.
         11   -1    0    0    0    0 -0.00000000000E+00 -0.00000000000E+00 -0.45593999997E+02  0.45594000000E+02  0.51100000000E-03 0. -1.
    9900012    2    1    2    0    0  0.87614816581E+01  0.16827033456E+01  0.39668267109E+02  0.50528850147E+02  0.29999970505E+02 0.  0.
         12    1    1    2    0    0 -0.87614816581E+01 -0.16827033456E+01 -0.39668267109E+02  0.40659149853E+02  0.00000000000E+00 0. -1.
         11    1    3    3    0    0 -0.36048605714E+01  0.91896138513E+01  0.17777499466E+02  0.20334293939E+02  0.51100000000E-03 0. -1.
        -11    1    3    3    0    0  0.15966018181E+01 -0.12767742264E+01  0.16514800042E+02  0.16640850654E+02  0.51100000000E-03 0.  1.
         12    1    3    3    0    0  0.10769740411E+02 -0.62301362792E+01  0.53759676002E+01  0.13553705553E+02  0.00000000000E+00 0. -1.
</event>
<event>
 7    1  0.3250765E-011  0.5052887E+02  0.7816164E-02  0.1300439E+00
        -11   -1    0    0    0    0  0.00000000000E+00  0.00000000000E+00  0.45593999997E+02  0.45594000000E+02  0.51100000000E-03 0.  1.
         11   -1    0    0    0    0 -0.00000000000E+00 -0.00000000000E+00 -0.45593999997E+02  0.45594000000E+02  0.51100000000E-03 0. -1.
    9900012    2    1    2    0    0  0.20194502298E+02  0.34291956102E+02  0.83311911782E+01  0.50528869134E+02  0.30000028219E+02 0.  0.
         12    1    1    2    0    0 -0.20194502298E+02 -0.34291956102E+02 -0.83311911782E+01  0.40659130866E+02  0.00000000000E+00 0. -1.
         11    1    3    3    0    0  0.54601998446E+01  0.95903184821E+01 -0.38562695661E+01  0.11690115746E+02  0.51100000000E-03 0. -1.
        -11    1    3    3    0    0  0.44472076727E+01  0.25224781119E+02  0.12568565078E+02  0.28531317302E+02  0.51100000000E-03 0.  1.
        -12    1    3    3    0    0  0.10287094781E+02 -0.52314349993E+00 -0.38110433372E+00  0.10307436086E+02  0.00000000000E+00 0.  1.
</event>
<event>
 7    1  0.3250765E-011  0.5052886E+02  0.7816164E-02  0.1300439E+00
        -11   -1    0    0    0    0  0.00000000000E+00  0.00000000000E+00  0.45593999997E+02  0.45594000000E+02  0.51100000000E-03 0.  1.
         11   -1    0    0    0    0 -0.00000000000E+00 -0.00000000000E+00 -0.45593999997E+02  0.45594000000E+02  0.51100000000E-03 0. -1.
    9900012    2    1    2    0    0  0.19399453644E+02 -0.25235047473E+02  0.25298604223E+02  0.50528858367E+02  0.29999995492E+02 0.  0.
         12    1    1    2    0    0 -0.19399453644E+02  0.25235047473E+02 -0.25298604223E+02  0.40659141633E+02  0.00000000000E+00 0. -1.
         11    1    3    3    0    0 -0.31174312266E+01 -0.26516929972E+01  0.25373309024E+01  0.48153817682E+01  0.51100000000E-03 0. -1.
        -11    1    3    3    0    0  0.10707553714E+02  0.70119655875E+00  0.15062729220E+02  0.18494031334E+02  0.51100000000E-03 0.  1.
        -12    1    3    3    0    0  0.11809331157E+02 -0.23284551035E+02  0.76985441011E+01  0.27219445265E+02  0.00000000000E+00 0.  1.
</event>
<event>
 7    1  0.3250765E-011  0.5052886E+02  0.7816164E-02  0.1300439E+00
        -11   -1    0    0    0    0  0.00000000000E+00  0.00000000000E+00  0.45593999997E+02  0.45594000000E+02  0.51100000000E-03 0. -1.
         11   -1    0    0    0    0 -0.00000000000E+00 -0.00000000000E+00 -0.45593999997E+02  0.45594000000E+02  0.51100000000E-03 0.  1.
    9900012    2    1    2    0    0  0.33935413729E+02  0.58273607819E+01 -0.21623951800E+02  0.50528859206E+02  0.29999998044E+02 0.  0.
         12    1    1    2    0    0 -0.33935413729E+02 -0.58273607819E+01  0.21623951800E+02  0.40659140794E+02  0.00000000000E+00 0. -1.
         11    1    3    3    0    0 -0.66743350328E+00  0.43092399462E+01  0.46793482235E+00  0.43856561259E+01  0.51100000000E-03 0. -1.
        -11    1    3    3    0    0  0.98813751283E+01 -0.92350802961E+01 -0.81804421990E+01  0.15806578293E+02  0.51100000000E-03 0.  1.
        -12    1    3    3    0    0  0.24721472104E+02  0.10753201132E+02 -0.13911444423E+02  0.30336624788E+02  0.00000000000E+00 0.  1.
</event>
<event>
 7    1  0.3250765E-011  0.5052886E+02  0.7816164E-02  0.1300439E+00
        -11   -1    0    0    0    0  0.00000000000E+00  0.00000000000E+00  0.45593999997E+02  0.45594000000E+02  0.51100000000E-03 0.  1.
         11   -1    0    0    0    0 -0.00000000000E+00 -0.00000000000E+00 -0.45593999997E+02  0.45594000000E+02  0.51100000000E-03 0. -1.
    9900012    2    1    2    0    0 -0.33200652829E+02 -0.20448295643E+02  0.11521713196E+02  0.50528855667E+02  0.29999987285E+02 0.  0.
         12    1    1    2    0    0  0.33200652829E+02  0.20448295643E+02 -0.11521713196E+02  0.40659144333E+02  0.00000000000E+00 0. -1.
         11    1    3    3    0    0  0.48796721588E+01 -0.20186160306E+01  0.25916641482E+01  0.58824088922E+01  0.51100000000E-03 0. -1.
        -11    1    3    3    0    0 -0.14469097154E+02 -0.19541681828E+01  0.57038798436E+01  0.15675069099E+02  0.51100000000E-03 0.  1.
        -12    1    3    3    0    0 -0.23611227834E+02 -0.16475511430E+02  0.32261692039E+01  0.28971377676E+02  0.00000000000E+00 0.  1.
</event>
<event>
 7    1  0.3250765E-011  0.5052887E+02  0.7816164E-02  0.1300439E+00
        -11   -1    0    0    0    0  0.00000000000E+00  0.00000000000E+00  0.45593999997E+02  0.45594000000E+02  0.51100000000E-03 0.  1.
         11   -1    0    0    0    0 -0.00000000000E+00 -0.00000000000E+00 -0.45593999997E+02  0.45594000000E+02  0.51100000000E-03 0. -1.
    9900012    2    1    2    0    0 -0.35311016495E+02 -0.19244775621E+02  0.59946584546E+01  0.50528865668E+02  0.30000017685E+02 0.  0.
         12    1    1    2    0    0  0.35311016495E+02  0.19244775621E+02 -0.59946584546E+01  0.40659134332E+02  0.00000000000E+00 0. -1.
         11    1    3    3    0    0 -0.17030282002E+01 -0.78002769937E+01  0.67004706326E+01  0.10423096142E+02  0.51100000000E-03 0. -1.
        -11    1    3    3    0    0 -0.56314737228E+01 -0.76727274084E+01 -0.61831249812E+01  0.11349681800E+02  0.51100000000E-03 0.  1.
        -12    1    3    3    0    0 -0.27976514572E+02 -0.37717712190E+01  0.54773128033E+01  0.28756087726E+02  0.00000000000E+00 0.  1.
</event>
<event>
 7    1  0.3250765E-011  0.5052886E+02  0.7816164E-02  0.1300439E+00
        -11   -1    0    0    0    0  0.00000000000E+00  0.00000000000E+00  0.45593999997E+02  0.45594000000E+02  0.51100000000E-03 0. -1.
         11   -1    0    0    0    0 -0.00000000000E+00 -0.00000000000E+00 -0.45593999997E+02  0.45594000000E+02  0.51100000000E-03 0.  1.
    9900012    2    1    2    0    0  0.12687572441E+01 -0.40613066732E+02 -0.14611035505E+01  0.50528858864E+02  0.29999997004E+02 0.  0.
         12    1    1    2    0    0 -0.12687572441E+01  0.40613066732E+02  0.14611035505E+01  0.40659141136E+02  0.00000000000E+00 0. -1.
         11    1    3    3    0    0  0.75122950853E+01 -0.88133430678E+01  0.10566799274E+02  0.15676952530E+02  0.51100000000E-03 0. -1.
        -11    1    3    3    0    0 -0.19984888834E+01 -0.59377359589E+01 -0.71245757041E+00  0.63054153063E+01  0.51100000000E-03 0.  1.
        -12    1    3    3    0    0 -0.42450489577E+01 -0.25861987705E+02 -0.11315445254E+02  0.28546491028E+02  0.00000000000E+00 0.  1.
</event>
<event>
 7    1  0.3250765E-011  0.5052884E+02  0.7816164E-02  0.1300439E+00
        -11   -1    0    0    0    0  0.00000000000E+00  0.00000000000E+00  0.45593999997E+02  0.45594000000E+02  0.51100000000E-03 0.  1.
         11   -1    0    0    0    0 -0.00000000000E+00 -0.00000000000E+00 -0.45593999997E+02  0.45594000000E+02  0.51100000000E-03 0. -1.
    9900012    2    1    2    0    0 -0.22446716760E+02  0.60421228609E+01  0.33358726222E+02  0.50528844117E+02  0.29999952177E+02 0.  0.
         12    1    1    2    0    0  0.22446716760E+02 -0.60421228609E+01 -0.33358726222E+02  0.40659155883E+02  0.00000000000E+00 0. -1.
         11    1    3    3    0    0  0.48336553289E+01  0.35890486449E+01 -0.38532503169E+00  0.60327414710E+01  0.51100000000E-03 0. -1.
        -11    1    3    3    0    0 -0.10204676352E+02  0.49675940039E+01  0.98992882046E+01  0.15060156601E+02  0.51100000000E-03 0.  1.
        -12    1    3    3    0    0 -0.17075695737E+02 -0.25145197879E+01  0.23844763049E+02  0.29435946044E+02  0.00000000000E+00 0.  1.
</event>
<event>
 7    1  0.3250765E-011  0.5052884E+02  0.7816164E-02  0.1300439E+00
        -11   -1    0    0    0    0  0.00000000000E+00  0.00000000000E+00  0.45593999997E+02  0.45594000000E+02  0.51100000000E-03 0.  1.
         11   -1    0    0    0    0 -0.00000000000E+00 -0.00000000000E+00 -0.45593999997E+02  0.45594000000E+02  0.51100000000E-03 0. -1.
    9900012    2    1    2    0    0  0.23170651379E+02  0.30920176357E+02  0.12658245741E+02  0.50528836500E+02  0.29999929026E+02 0.  0.
         12    1    1    2    0    0 -0.23170651379E+02 -0.30920176357E+02 -0.12658245741E+02  0.40659163500E+02  0.00000000000E+00 0. -1.
         11    1    3    3    0    0  0.90595284630E+01  0.20451241450E+02  0.14263063773E+02  0.26528537865E+02  0.51100000000E-03 0. -1.
        -11    1    3    3    0    0  0.67303590143E+01  0.11527565990E+02  0.47853981826E+01  0.14180357758E+02  0.51100000000E-03 0.  1.
         12    1    3    3    0    0  0.73807639021E+01 -0.10586310828E+01 -0.63902162154E+01  0.98199408770E+01  0.00000000000E+00 0. -1.
</event>
<event>
 7    1  0.3250765E-011  0.5052876E+02  0.7816164E-02  0.1300439E+00
        -11   -1    0    0    0    0  0.00000000000E+00  0.00000000000E+00  0.45593999997E+02  0.45594000000E+02  0.51100000000E-03 0. -1.
         11   -1    0    0    0    0 -0.00000000000E+00 -0.00000000000E+00 -0.45593999997E+02  0.45594000000E+02  0.51100000000E-03 0.  1.
    9900012    2    1    2    0    0 -0.36743384181E+02  0.17221924363E+02  0.25500962678E+01  0.50528758113E+02  0.29999690759E+02 0.  0.
         12    1    1    2    0    0  0.36743384181E+02 -0.17221924363E+02 -0.25500962678E+01  0.40659241887E+02  0.00000000000E+00 0. -1.
         11    1    3    3    0    0 -0.16492576524E+02  0.96372002452E-01  0.87032313373E+01  0.18648340514E+02  0.51100000000E-03 0. -1.
        -11    1    3    3    0    0 -0.14849261530E+02  0.18956824336E+01 -0.45276071125E+01  0.15639482290E+02  0.51100000000E-03 0.  1.
        -12    1    3    3    0    0 -0.54015461266E+01  0.15229869927E+02 -0.16255279571E+01  0.16240935308E+02  0.00000000000E+00 0.  1.
</event>
<event>
 7    1  0.3250765E-011  0.5052886E+02  0.7816164E-02  0.1300439E+00
        -11   -1    0    0    0    0  0.00000000000E+00  0.00000000000E+00  0.45593999997E+02  0.45594000000E+02  0.51100000000E-03 0. -1.
         11   -1    0    0    0    0 -0.00000000000E+00 -0.00000000000E+00 -0.45593999997E+02  0.45594000000E+02  0.51100000000E-03 0.  1.
    9900012    2    1    2    0    0 -0.29653155647E+02 -0.25242155944E+02 -0.11691433683E+02  0.50528859600E+02  0.29999999240E+02 0.  0.
         12    1    1    2    0    0  0.29653155647E+02  0.25242155944E+02  0.11691433683E+02  0.40659140400E+02  0.00000000000E+00 0. -1.
         11    1    3    3    0    0 -0.23804707800E+02 -0.16482609481E+02  0.54860789726E+00  0.28959307652E+02  0.51100000000E-03 0. -1.
        -11    1    3    3    0    0 -0.58698523505E+01  0.19413955418E+01 -0.14033757715E+01  0.63398459827E+01  0.51100000000E-03 0.  1.
         12    1    3    3    0    0  0.21404504235E-01 -0.10700942005E+02 -0.10836665809E+02  0.15229705966E+02  0.00000000000E+00 0. -1.
</event>
<event>
 7    1  0.6102665E-011  0.5052886E+02  0.7816164E-02  0.1300439E+00
        -11   -1    0    0    0    0  0.00000000000E+00  0.00000000000E+00  0.45593999997E+02  0.45594000000E+02  0.51100000000E-03 0.  1.
         11   -1    0    0    0    0 -0.00000000000E+00 -0.00000000000E+00 -0.45593999997E+02  0.45594000000E+02  0.51100000000E-03 0. -1.
    9900012    2    1    2    0    0  0.33237194762E+02  0.40619680449E+01  0.23064147568E+02  0.50528860768E+02  0.30000002791E+02 0.  0.
         12    1    1    2    0    0 -0.33237194762E+02 -0.40619680449E+01 -0.23064147568E+02  0.40659139232E+02  0.00000000000E+00 0. -1.
         11    1    3    3    0    0  0.68945026909E+01 -0.46724910550E+01  0.14751024004E+02  0.16939865686E+02  0.51100000000E-03 0. -1.
        -11    1    3    3    0    0  0.15481950876E+02  0.53313305339E+01  0.13365570490E+02  0.21136517285E+02  0.51100000000E-03 0.  1.
         12    1    3    3    0    0  0.10860741195E+02  0.34031285660E+01 -0.50524469261E+01  0.12452477797E+02  0.00000000000E+00 0. -1.
</event>
<event>
 7    1  0.3250765E-011  0.5052886E+02  0.7816164E-02  0.1300439E+00
        -11   -1    0    0    0    0  0.00000000000E+00  0.00000000000E+00  0.45593999997E+02  0.45594000000E+02  0.51100000000E-03 0.  1.
         11   -1    0    0    0    0 -0.00000000000E+00 -0.00000000000E+00 -0.45593999997E+02  0.45594000000E+02  0.51100000000E-03 0. -1.
    9900012    2    1    2    0    0 -0.25133047197E+02 -0.27893757661E+02  0.15602380734E+02  0.50528855119E+02  0.29999985619E+02 0.  0.
         12    1    1    2    0    0  0.25133047197E+02  0.27893757661E+02 -0.15602380734E+02  0.40659144881E+02  0.00000000000E+00 0. -1.
         11    1    3    3    0    0 -0.16269303963E+02 -0.16074298151E+02  0.13892874697E+02  0.26759769807E+02  0.51100000000E-03 0. -1.
        -11    1    3    3    0    0 -0.11366116860E+02 -0.15490880006E+02  0.77675837353E+00  0.19229127116E+02  0.51100000000E-03 0.  1.
         12    1    3    3    0    0  0.25023736259E+01  0.36714204951E+01  0.93274766328E+00  0.45399581957E+01  0.00000000000E+00 0. -1.
</event>
<event>
 7    1  0.3250765E-011  0.5052886E+02  0.7816164E-02  0.1300439E+00
        -11   -1    0    0    0    0  0.00000000000E+00  0.00000000000E+00  0.45593999997E+02  0.45594000000E+02  0.51100000000E-03 0.  1.
         11   -1    0    0    0    0 -0.00000000000E+00 -0.00000000000E+00 -0.45593999997E+02  0.45594000000E+02  0.51100000000E-03 0. -1.
    9900012    2    1    2    0    0 -0.38999125642E+02 -0.25055552836E+01  0.11223015513E+02  0.50528859757E+02  0.29999999717E+02 0.  0.
         12    1    1    2    0    0  0.38999125642E+02  0.25055552836E+01 -0.11223015513E+02  0.40659140243E+02  0.00000000000E+00 0. -1.
         11    1    3    3    0    0 -0.23336660829E+02 -0.50051017364E+01  0.11764755763E+02  0.26609401731E+02  0.51100000000E-03 0.  1.
        -11    1    3    3    0    0 -0.15734972299E+01 -0.17881693301E+01  0.69854309219E+01  0.73803582915E+01  0.51100000000E-03 0. -1.
        -12    1    3    3    0    0 -0.14088967582E+02  0.42877157828E+01 -0.75271711717E+01  0.16539099734E+02  0.00000000000E+00 0.  1.
</event>
<event>
 7    1  0.3250765E-011  0.5052886E+02  0.7816164E-02  0.1300439E+00
        -11   -1    0    0    0    0  0.00000000000E+00  0.00000000000E+00  0.45593999997E+02  0.45594000000E+02  0.51100000000E-03 0.  1.
         11   -1    0    0    0    0 -0.00000000000E+00 -0.00000000000E+00 -0.45593999997E+02  0.45594000000E+02  0.51100000000E-03 0. -1.
    9900012    2    1    2    0    0 -0.16751696256E+02 -0.36396140247E+02  0.69186228567E+01  0.50528859643E+02  0.29999999372E+02 0.  0.
         12    1    1    2    0    0  0.16751696256E+02  0.36396140247E+02 -0.69186228567E+01  0.40659140357E+02  0.00000000000E+00 0. -1.
         11    1    3    3    0    0 -0.29250762468E+01  0.32684762496E+00  0.88029154026E+01  0.92819297706E+01  0.51100000000E-03 0. -1.
        -11    1    3    3    0    0 -0.11099591657E+02 -0.13596975294E+02  0.19018163206E+01  0.17654902370E+02  0.51100000000E-03 0.  1.
        -12    1    3    3    0    0 -0.27270283525E+01 -0.23126012577E+02 -0.37861088666E+01  0.23592027503E+02  0.00000000000E+00 0.  1.
</event>
<event>
 7    1  0.3250765E-011  0.5052887E+02  0.7816164E-02  0.1300439E+00
        -11   -1    0    0    0    0  0.00000000000E+00  0.00000000000E+00  0.45593999997E+02  0.45594000000E+02  0.51100000000E-03 0.  1.
         11   -1    0    0    0    0 -0.00000000000E+00 -0.00000000000E+00 -0.45593999997E+02  0.45594000000E+02  0.51100000000E-03 0. -1.
    9900012    2    1    2    0    0 -0.50568857903E+01  0.31642959345E+02  0.25026308563E+02  0.50528867074E+02  0.30000021958E+02 0.  0.
         12    1    1    2    0    0  0.50568857903E+01 -0.31642959345E+02 -0.25026308563E+02  0.40659132926E+02  0.00000000000E+00 0. -1.
         11    1    3    3    0    0 -0.70550439909E+01  0.15709924462E+01  0.76139679504E+01  0.10498293728E+02  0.51100000000E-03 0. -1.
        -11    1    3    3    0    0  0.43629683016E+01 -0.13246759664E+01  0.22002367464E+01  0.50627364950E+01  0.51100000000E-03 0.  1.
        -12    1    3    3    0    0 -0.23648101010E+01  0.31396642866E+02  0.15212103866E+02  0.34967836851E+02  0.00000000000E+00 0.  1.
</event>
<event>
 7    1  0.3250765E-011  0.5052885E+02  0.7816164E-02  0.1300439E+00
        -11   -1    0    0    0    0  0.00000000000E+00  0.00000000000E+00  0.45593999997E+02  0.45594000000E+02  0.51100000000E-03 0.  1.
         11   -1    0    0    0    0 -0.00000000000E+00 -0.00000000000E+00 -0.45593999997E+02  0.45594000000E+02  0.51100000000E-03 0. -1.
    9900012    2    1    2    0    0  0.29759946202E+01 -0.68240110416E+01  0.39971770083E+02  0.50528854974E+02  0.29999985179E+02 0.  0.
         12    1    1    2    0    0 -0.29759946202E+01  0.68240110416E+01 -0.39971770083E+02  0.40659145026E+02  0.00000000000E+00 0. -1.
         11    1    3    3    0    0  0.61777555028E+01  0.49588074505E+01  0.77082235710E+01  0.11053105684E+02  0.51100000000E-03 0. -1.
        -11    1    3    3    0    0 -0.48487201371E+01 -0.95361981767E+00  0.26768818341E+02  0.27221115212E+02  0.51100000000E-03 0.  1.
        -12    1    3    3    0    0  0.16469592546E+01 -0.10829198674E+02  0.54947281706E+01  0.12254634078E+02  0.00000000000E+00 0.  1.
</event>
<event>
 7    1  0.3250765E-011  0.5052886E+02  0.7816164E-02  0.1300439E+00
        -11   -1    0    0    0    0  0.00000000000E+00  0.00000000000E+00  0.45593999997E+02  0.45594000000E+02  0.51100000000E-03 0. -1.
         11   -1    0    0    0    0 -0.00000000000E+00 -0.00000000000E+00 -0.45593999997E+02  0.45594000000E+02  0.51100000000E-03 0.  1.
    9900012    2    1    2    0    0  0.39437509369E+02  0.57661486680E+01 -0.80374168304E+01  0.50528859761E+02  0.29999999729E+02 0.  0.
         12    1    1    2    0    0 -0.39437509369E+02 -0.57661486680E+01  0.80374168304E+01  0.40659140239E+02  0.00000000000E+00 0. -1.
         11    1    3    3    0    0  0.42730162447E+01  0.45017814967E+01  0.62381025612E+01  0.87999220619E+01  0.51100000000E-03 0. -1.
        -11    1    3    3    0    0  0.17681084371E+02  0.92788139688E+01 -0.67903650340E+01  0.21090903034E+02  0.51100000000E-03 0.  1.
        -12    1    3    3    0    0  0.17483408753E+02 -0.80144467975E+01 -0.74851543576E+01  0.20638034665E+02  0.00000000000E+00 0.  1.
</event>
<event>
 7    1  0.3250765E-011  0.5052885E+02  0.7816164E-02  0.1300439E+00
        -11   -1    0    0    0    0  0.00000000000E+00  0.00000000000E+00  0.45593999997E+02  0.45594000000E+02  0.51100000000E-03 0.  1.
         11   -1    0    0    0    0 -0.00000000000E+00 -0.00000000000E+00 -0.45593999997E+02  0.45594000000E+02  0.51100000000E-03 0. -1.
    9900012    2    1    2    0    0  0.63232798490E+00  0.13016464349E+02  0.38514127112E+02  0.50528853796E+02  0.29999981598E+02 0.  0.
         12    1    1    2    0    0 -0.63232798490E+00 -0.13016464349E+02 -0.38514127112E+02  0.40659146204E+02  0.00000000000E+00 0. -1.
         11    1    3    3    0    0 -0.33656998395E+01  0.71050529332E+01  0.36994679812E+02  0.37820841441E+02  0.51100000000E-03 0. -1.
        -11    1    3    3    0    0  0.94130871477E+00  0.69944377760E+01  0.44448686250E+01  0.83405682812E+01  0.51100000000E-03 0.  1.
        -12    1    3    3    0    0  0.30567191096E+01 -0.10830263603E+01 -0.29254213249E+01  0.43674440741E+01  0.00000000000E+00 0.  1.
</event>
<event>
 7    1  0.3250765E-011  0.5052891E+02  0.7816164E-02  0.1300439E+00
        -11   -1    0    0    0    0  0.00000000000E+00  0.00000000000E+00  0.45593999997E+02  0.45594000000E+02  0.51100000000E-03 0. -1.
         11   -1    0    0    0    0 -0.00000000000E+00 -0.00000000000E+00 -0.45593999997E+02  0.45594000000E+02  0.51100000000E-03 0.  1.
    9900012    2    1    2    0    0  0.36236506523E+02  0.15453898749E+02 -0.10062533950E+02  0.50528905310E+02  0.30000138180E+02 0.  0.
         12    1    1    2    0    0 -0.36236506523E+02 -0.15453898749E+02  0.10062533950E+02  0.40659094690E+02  0.00000000000E+00 0. -1.
         11    1    3    3    0    0  0.10283072328E+02  0.15137474985E+02 -0.79980223256E+01  0.19971306588E+02  0.51100000000E-03 0. -1.
        -11    1    3    3    0    0  0.10897732029E+02  0.20293361161E+01 -0.86252697271E+01  0.14045427960E+02  0.51100000000E-03 0.  1.
         12    1    3    3    0    0  0.15055702166E+02 -0.17129123526E+01  0.65607581024E+01  0.16512170763E+02  0.00000000000E+00 0. -1.
</event>
<event>
 7    1  0.3250765E-011  0.5052884E+02  0.7816164E-02  0.1300439E+00
        -11   -1    0    0    0    0  0.00000000000E+00  0.00000000000E+00  0.45593999997E+02  0.45594000000E+02  0.51100000000E-03 0.  1.
         11   -1    0    0    0    0 -0.00000000000E+00 -0.00000000000E+00 -0.45593999997E+02  0.45594000000E+02  0.51100000000E-03 0. -1.
    9900012    2    1    2    0    0  0.19844526238E+02 -0.10986284178E+02  0.33744088899E+02  0.50528841164E+02  0.29999943201E+02 0.  0.
         12    1    1    2    0    0 -0.19844526238E+02  0.10986284178E+02 -0.33744088899E+02  0.40659158836E+02  0.00000000000E+00 0. -1.
         11    1    3    3    0    0  0.58245760265E+01 -0.98603464891E+01  0.17327838721E+02  0.20770318096E+02  0.51100000000E-03 0.  1.
        -11    1    3    3    0    0 -0.18592450555E+01  0.62890363944E+01  0.79191053747E+01  0.10282071831E+02  0.51100000000E-03 0. -1.
         12    1    3    3    0    0  0.15879195267E+02 -0.74149740835E+01  0.84971448030E+01  0.19476451237E+02  0.00000000000E+00 0. -1.
</event>
<event>
 7    1  0.3250765E-011  0.5052887E+02  0.7816164E-02  0.1300439E+00
        -11   -1    0    0    0    0  0.00000000000E+00  0.00000000000E+00  0.45593999997E+02  0.45594000000E+02  0.51100000000E-03 0. -1.
         11   -1    0    0    0    0 -0.00000000000E+00 -0.00000000000E+00 -0.45593999997E+02  0.45594000000E+02  0.51100000000E-03 0.  1.
    9900012    2    1    2    0    0  0.13414458937E+02  0.10054603437E+02 -0.37042166964E+02  0.50528869510E+02  0.30000029362E+02 0.  0.
         12    1    1    2    0    0 -0.13414458937E+02 -0.10054603437E+02  0.37042166964E+02  0.40659130490E+02  0.00000000000E+00 0. -1.
         11    1    3    3    0    0 -0.36739604915E+01  0.33920070390E+01  0.50518857428E+00  0.50258246291E+01  0.51100000000E-03 0. -1.
        -11    1    3    3    0    0  0.67237528626E+01  0.78468230969E+01 -0.53063757116E+01  0.11616329400E+02  0.51100000000E-03 0.  1.
        -12    1    3    3    0    0  0.10364666566E+02 -0.11842266989E+01 -0.32240979826E+02  0.33886715481E+02  0.00000000000E+00 0.  1.
</event>
<event>
 7    1  0.3250765E-011  0.5052888E+02  0.7816164E-02  0.1300439E+00
        -11   -1    0    0    0    0  0.00000000000E+00  0.00000000000E+00  0.45593999997E+02  0.45594000000E+02  0.51100000000E-03 0. -1.
         11   -1    0    0    0    0 -0.00000000000E+00 -0.00000000000E+00 -0.45593999997E+02  0.45594000000E+02  0.51100000000E-03 0.  1.
    9900012    2    1    2    0    0  0.20169495352E+01 -0.36152090559E+02 -0.18496539419E+02  0.50528884076E+02  0.30000073639E+02 0.  0.
         12    1    1    2    0    0 -0.20169495352E+01  0.36152090559E+02  0.18496539419E+02  0.40659115924E+02  0.00000000000E+00 0. -1.
         11    1    3    3    0    0 -0.14219574568E+01  0.51187021755E-01 -0.70899801085E+01  0.72313485133E+01  0.51100000000E-03 0. -1.
        -11    1    3    3    0    0  0.85359149730E+01 -0.90799840286E+01 -0.94315819714E+01  0.15628905692E+02  0.51100000000E-03 0.  1.
         12    1    3    3    0    0 -0.50970079811E+01 -0.27123293552E+02 -0.19749773396E+01  0.27668629871E+02  0.00000000000E+00 0. -1.
</event>
<event>
 7    1  0.3250765E-011  0.5052887E+02  0.7816164E-02  0.1300439E+00
        -11   -1    0    0    0    0  0.00000000000E+00  0.00000000000E+00  0.45593999997E+02  0.45594000000E+02  0.51100000000E-03 0. -1.
         11   -1    0    0    0    0 -0.00000000000E+00 -0.00000000000E+00 -0.45593999997E+02  0.45594000000E+02  0.51100000000E-03 0.  1.
    9900012    2    1    2    0    0 -0.12779020795E+02  0.29059401008E+02 -0.25404981593E+02  0.50528865120E+02  0.30000016019E+02 0.  0.
         12    1    1    2    0    0  0.12779020795E+02 -0.29059401008E+02  0.25404981593E+02  0.40659134880E+02  0.00000000000E+00 0. -1.
         11    1    3    3    0    0 -0.10771783455E+02  0.42606487648E+01 -0.24566378799E+01  0.11841432204E+02  0.51100000000E-03 0. -1.
        -11    1    3    3    0    0 -0.79019782822E+01  0.64373633459E+01 -0.14280416539E+02  0.17544549137E+02  0.51100000000E-03 0.  1.
        -12    1    3    3    0    0  0.58947409419E+01  0.18361388897E+02 -0.86679271741E+01  0.21142883779E+02  0.00000000000E+00 0.  1.
</event>
<event>
 7    1  0.3250765E-011  0.5052885E+02  0.7816164E-02  0.1300439E+00
        -11   -1    0    0    0    0  0.00000000000E+00  0.00000000000E+00  0.45593999997E+02  0.45594000000E+02  0.51100000000E-03 0.  1.
         11   -1    0    0    0    0 -0.00000000000E+00 -0.00000000000E+00 -0.45593999997E+02  0.45594000000E+02  0.51100000000E-03 0. -1.
    9900012    2    1    2    0    0 -0.57622961426E-01 -0.20715956045E+01  0.40606296728E+02  0.50528853886E+02  0.29999981872E+02 0.  0.
         12    1    1    2    0    0  0.57622961426E-01  0.20715956045E+01 -0.40606296728E+02  0.40659146114E+02  0.00000000000E+00 0. -1.
         11    1    3    3    0    0  0.76882076597E+01 -0.59253097398E+01  0.18078759839E+02  0.20519731726E+02  0.51100000000E-03 0. -1.
        -11    1    3    3    0    0  0.58098712400E+01  0.65294117238E+00  0.57038900653E+01  0.81679433237E+01  0.51100000000E-03 0.  1.
         12    1    3    3    0    0 -0.13555701861E+02  0.32007729629E+01  0.16823646824E+02  0.21841178836E+02  0.00000000000E+00 0. -1.
</event>
<event>
 7    1  0.3250765E-011  0.5052886E+02  0.7816164E-02  0.1300439E+00
        -11   -1    0    0    0    0  0.00000000000E+00  0.00000000000E+00  0.45593999997E+02  0.45594000000E+02  0.51100000000E-03 0. -1.
         11   -1    0    0    0    0 -0.00000000000E+00 -0.00000000000E+00 -0.45593999997E+02  0.45594000000E+02  0.51100000000E-03 0.  1.
    9900012    2    1    2    0    0  0.24216452435E+02 -0.83760664726E+01 -0.31568500877E+02  0.50528864425E+02  0.30000013906E+02 0.  0.
         12    1    1    2    0    0 -0.24216452435E+02  0.83760664726E+01  0.31568500877E+02  0.40659135575E+02  0.00000000000E+00 0. -1.
         11    1    3    3    0    0  0.24732872724E+01 -0.21205281517E+01  0.64706455754E+00  0.33215180831E+01  0.51100000000E-03 0. -1.
        -11    1    3    3    0    0  0.23255245985E+02 -0.13630584662E+02 -0.25873703534E+02  0.37363723568E+02  0.51100000000E-03 0.  1.
        -12    1    3    3    0    0 -0.15120808222E+01  0.73750463411E+01 -0.63418619010E+01  0.98436227741E+01  0.00000000000E+00 0.  1.
</event>
<event>
 7    1  0.3250765E-011  0.5052886E+02  0.7816164E-02  0.1300439E+00
        -11   -1    0    0    0    0  0.00000000000E+00  0.00000000000E+00  0.45593999997E+02  0.45594000000E+02  0.51100000000E-03 0.  1.
         11   -1    0    0    0    0 -0.00000000000E+00 -0.00000000000E+00 -0.45593999997E+02  0.45594000000E+02  0.51100000000E-03 0. -1.
    9900012    2    1    2    0    0  0.38207555662E+01  0.37803894555E+01  0.40302307543E+02  0.50528861902E+02  0.30000006239E+02 0.  0.
         12    1    1    2    0    0 -0.38207555662E+01 -0.37803894555E+01 -0.40302307543E+02  0.40659138098E+02  0.00000000000E+00 0. -1.
         11    1    3    3    0    0  0.22638853965E+01  0.49000986148E+01 -0.26961350994E+01  0.60336794959E+01  0.51100000000E-03 0. -1.
        -11    1    3    3    0    0  0.10564287413E+01 -0.45461397565E+01  0.75371165497E+01  0.88651877880E+01  0.51100000000E-03 0.  1.
        -12    1    3    3    0    0  0.50044142846E+00  0.34264305972E+01  0.35461326093E+02  0.35629994619E+02  0.00000000000E+00 0.  1.
</event>
<event>
 7    1  0.3673011E-011  0.5052886E+02  0.7816164E-02  0.1300439E+00
        -11   -1    0    0    0    0  0.00000000000E+00  0.00000000000E+00  0.45593999997E+02  0.45594000000E+02  0.51100000000E-03 0. -1.
         11   -1    0    0    0    0 -0.00000000000E+00 -0.00000000000E+00 -0.45593999997E+02  0.45594000000E+02  0.51100000000E-03 0.  1.
    9900012    2    1    2    0    0  0.12410958024E+01  0.29739785996E+02 -0.27697836018E+02  0.50528864373E+02  0.30000013748E+02 0.  0.
         12    1    1    2    0    0 -0.12410958024E+01 -0.29739785996E+02  0.27697836018E+02  0.40659135627E+02  0.00000000000E+00 0. -1.
         11    1    3    3    0    0 -0.53768926043E+01  0.40592522756E+01  0.22090492149E+01  0.70900212842E+01  0.51100000000E-03 0. -1.
        -11    1    3    3    0    0  0.54519149799E+00  0.21809994034E+02 -0.13851924558E+02  0.25842772447E+02  0.51100000000E-03 0.  1.
         12    1    3    3    0    0  0.60727969087E+01  0.38705396860E+01 -0.16054960675E+02  0.17596070642E+02  0.00000000000E+00 0. -1.
</event>
<event>
 7    1  0.3250765E-011  0.5052886E+02  0.7816164E-02  0.1300439E+00
        -11   -1    0    0    0    0  0.00000000000E+00  0.00000000000E+00  0.45593999997E+02  0.45594000000E+02  0.51100000000E-03 0.  1.
         11   -1    0    0    0    0 -0.00000000000E+00 -0.00000000000E+00 -0.45593999997E+02  0.45594000000E+02  0.51100000000E-03 0. -1.
    9900012    2    1    2    0    0 -0.16662486930E+02  0.34210131243E+02  0.14324591590E+02  0.50528862349E+02  0.30000007595E+02 0.  0.
         12    1    1    2    0    0  0.16662486930E+02 -0.34210131243E+02 -0.14324591590E+02  0.40659137651E+02  0.00000000000E+00 0. -1.
         11    1    3    3    0    0 -0.26759009790E+01 -0.29054993162E+01 -0.23043047976E+00  0.39566994822E+01  0.51100000000E-03 0. -1.
        -11    1    3    3    0    0 -0.10868779881E+02  0.12390986738E+02 -0.20749934181E+01  0.16612420847E+02  0.51100000000E-03 0.  1.
        -12    1    3    3    0    0 -0.31178060694E+01  0.24724643821E+02  0.16630015487E+02  0.29959742019E+02  0.00000000000E+00 0.  1.
</event>
<event>
 7    1  0.3250765E-011  0.5052886E+02  0.7816164E-02  0.1300439E+00
        -11   -1    0    0    0    0  0.00000000000E+00  0.00000000000E+00  0.45593999997E+02  0.45594000000E+02  0.51100000000E-03 0.  1.
         11   -1    0    0    0    0 -0.00000000000E+00 -0.00000000000E+00 -0.45593999997E+02  0.45594000000E+02  0.51100000000E-03 0. -1.
    9900012    2    1    2    0    0  0.38061588584E+02  0.35596212853E+01  0.13849546117E+02  0.50528863796E+02  0.30000011994E+02 0.  0.
         12    1    1    2    0    0 -0.38061588584E+02 -0.35596212853E+01 -0.13849546117E+02  0.40659136204E+02  0.00000000000E+00 0. -1.
         11    1    3    3    0    0 -0.87049549261E+00 -0.40651942206E+01 -0.36191123269E+01  0.55119452782E+01  0.51100000000E-03 0. -1.
        -11    1    3    3    0    0  0.13808598392E+02 -0.13694213342E+01  0.15952061596E+01  0.13967726633E+02  0.51100000000E-03 0.  1.
        -12    1    3    3    0    0  0.25123485684E+02  0.89942368400E+01  0.15873452284E+02  0.31049191885E+02  0.00000000000E+00 0.  1.
</event>
<event>
 7    1  0.3250765E-011  0.5052885E+02  0.7816164E-02  0.1300439E+00
        -11   -1    0    0    0    0  0.00000000000E+00  0.00000000000E+00  0.45593999997E+02  0.45594000000E+02  0.51100000000E-03 0.  1.
         11   -1    0    0    0    0 -0.00000000000E+00 -0.00000000000E+00 -0.45593999997E+02  0.45594000000E+02  0.51100000000E-03 0. -1.
    9900012    2    1    2    0    0 -0.22588957870E+02 -0.14705960062E+02  0.30440771978E+02  0.50528845095E+02  0.29999955151E+02 0.  0.
         12    1    1    2    0    0  0.22588957870E+02  0.14705960062E+02 -0.30440771978E+02  0.40659154905E+02  0.00000000000E+00 0. -1.
         11    1    3    3    0    0 -0.15235235290E+02 -0.73250485655E+01  0.62508408920E+01  0.18023366582E+02  0.51100000000E-03 0. -1.
        -11    1    3    3    0    0 -0.70427019224E+01 -0.13617581188E+02  0.15465239803E+02  0.21776404896E+02  0.51100000000E-03 0.  1.
         12    1    3    3    0    0 -0.31102065780E+00  0.62366696922E+01  0.87246912829E+01  0.10729073617E+02  0.00000000000E+00 0. -1.
</event>
<event>
 7    1  0.3250765E-011  0.5052886E+02  0.7816164E-02  0.1300439E+00
        -11   -1    0    0    0    0  0.00000000000E+00  0.00000000000E+00  0.45593999997E+02  0.45594000000E+02  0.51100000000E-03 0.  1.
         11   -1    0    0    0    0 -0.00000000000E+00 -0.00000000000E+00 -0.45593999997E+02  0.45594000000E+02  0.51100000000E-03 0. -1.
    9900012    2    1    2    0    0 -0.25994595060E+02 -0.28834642548E+02 -0.12083463291E+02  0.50528859966E+02  0.30000000351E+02 0.  0.
         12    1    1    2    0    0  0.25994595060E+02  0.28834642548E+02  0.12083463291E+02  0.40659140034E+02  0.00000000000E+00 0. -1.
         11    1    3    3    0    0 -0.54190297563E+01 -0.17485924662E+02 -0.14331171266E+02  0.23248783085E+02  0.51100000000E-03 0. -1.
        -11    1    3    3    0    0 -0.18150251084E+02 -0.59264539228E+01 -0.30323654004E+01  0.19332607447E+02  0.51100000000E-03 0.  1.
        -12    1    3    3    0    0 -0.24253142196E+01 -0.54222639635E+01  0.52800733754E+01  0.79474694339E+01  0.00000000000E+00 0.  1.
</event>
<event>
 7    1  0.3250765E-011  0.5052887E+02  0.7816164E-02  0.1300439E+00
        -11   -1    0    0    0    0  0.00000000000E+00  0.00000000000E+00  0.45593999997E+02  0.45594000000E+02  0.51100000000E-03 0.  1.
         11   -1    0    0    0    0 -0.00000000000E+00 -0.00000000000E+00 -0.45593999997E+02  0.45594000000E+02  0.51100000000E-03 0. -1.
    9900012    2    1    2    0    0 -0.25425325471E+02 -0.21774617521E+01  0.31654008864E+02  0.50528870740E+02  0.30000033101E+02 0.  0.
         12    1    1    2    0    0  0.25425325471E+02  0.21774617521E+01 -0.31654008864E+02  0.40659129260E+02  0.00000000000E+00 0. -1.
         11    1    3    3    0    0 -0.75258121723E+01 -0.20094012822E+01 -0.31293142868E+01  0.83945309895E+01  0.51100000000E-03 0. -1.
        -11    1    3    3    0    0 -0.19846126676E+01 -0.62889392262E+01  0.77908734703E+01  0.10207210869E+02  0.51100000000E-03 0.  1.
        -12    1    3    3    0    0 -0.15914900632E+02  0.61208787563E+01  0.26992449681E+02  0.31927128882E+02  0.00000000000E+00 0.  1.
</event>
<event>
 7    1  0.3250765E-011  0.5052890E+02  0.7816164E-02  0.1300439E+00
        -11   -1    0    0    0    0  0.00000000000E+00  0.00000000000E+00  0.45593999997E+02  0.45594000000E+02  0.51100000000E-03 0.  1.
         11   -1    0    0    0    0 -0.00000000000E+00 -0.00000000000E+00 -0.45593999997E+02  0.45594000000E+02  0.51100000000E-03 0. -1.
    9900012    2    1    2    0    0 -0.10037629244E+02  0.29950132745E+02  0.25600735778E+02  0.50528903543E+02  0.30000132810E+02 0.  0.
         12    1    1    2    0    0  0.10037629244E+02 -0.29950132745E+02 -0.25600735778E+02  0.40659096457E+02  0.00000000000E+00 0. -1.
         11    1    3    3    0    0 -0.11274083966E+02  0.68536031156E+01  0.46410934917E+01  0.13986300226E+02  0.51100000000E-03 0. -1.
        -11    1    3    3    0    0 -0.69222049303E+01  0.97067099682E+01  0.16281809456E+02  0.20180051014E+02  0.51100000000E-03 0.  1.
         12    1    3    3    0    0  0.81586596526E+01  0.13389819662E+02  0.46778328305E+01  0.16362552304E+02  0.00000000000E+00 0. -1.
</event>
<event>
 7    1  0.3250765E-011  0.5052886E+02  0.7816164E-02  0.1300439E+00
        -11   -1    0    0    0    0  0.00000000000E+00  0.00000000000E+00  0.45593999997E+02  0.45594000000E+02  0.51100000000E-03 0.  1.
         11   -1    0    0    0    0 -0.00000000000E+00 -0.00000000000E+00 -0.45593999997E+02  0.45594000000E+02  0.51100000000E-03 0. -1.
    9900012    2    1    2    0    0 -0.17706750742E+02  0.21272258194E+02  0.29784687233E+02  0.50528861002E+02  0.30000003502E+02 0.  0.
         12    1    1    2    0    0  0.17706750742E+02 -0.21272258194E+02 -0.29784687233E+02  0.40659138998E+02  0.00000000000E+00 0. -1.
         11    1    3    3    0    0 -0.80455348125E+01 -0.16246065727E+01  0.40878494250E+01  0.91695414344E+01  0.51100000000E-03 0. -1.
        -11    1    3    3    0    0 -0.12339083480E+02  0.94382296930E+01  0.22377262617E+02  0.27241054373E+02  0.51100000000E-03 0.  1.
        -12    1    3    3    0    0  0.26778675507E+01  0.13458635073E+02  0.33195751907E+01  0.14118265195E+02  0.00000000000E+00 0.  1.
</event>
<event>
 7    1  0.3250765E-011  0.5052886E+02  0.7816164E-02  0.1300439E+00
        -11   -1    0    0    0    0  0.00000000000E+00  0.00000000000E+00  0.45593999997E+02  0.45594000000E+02  0.51100000000E-03 0.  1.
         11   -1    0    0    0    0 -0.00000000000E+00 -0.00000000000E+00 -0.45593999997E+02  0.45594000000E+02  0.51100000000E-03 0. -1.
    9900012    2    1    2    0    0  0.20599190530E+02 -0.23262898166E+02  0.26223591013E+02  0.50528858258E+02  0.29999995162E+02 0.  0.
         12    1    1    2    0    0 -0.20599190530E+02  0.23262898166E+02 -0.26223591013E+02  0.40659141742E+02  0.00000000000E+00 0. -1.
         11    1    3    3    0    0  0.39597307472E-01  0.48968501668E+01  0.79780591827E+01  0.93610970557E+01  0.51100000000E-03 0. -1.
        -11    1    3    3    0    0  0.86477509649E+01 -0.32162598691E+01  0.37932255564E+01  0.99757949397E+01  0.51100000000E-03 0.  1.
         12    1    3    3    0    0  0.11911842257E+02 -0.24943488464E+02  0.14452306274E+02  0.31191966263E+02  0.00000000000E+00 0. -1.
</event>
<event>
 7    1  0.3250765E-011  0.5052886E+02  0.7816164E-02  0.1300439E+00
        -11   -1    0    0    0    0  0.00000000000E+00  0.00000000000E+00  0.45593999997E+02  0.45594000000E+02  0.51100000000E-03 0.  1.
         11   -1    0    0    0    0 -0.00000000000E+00 -0.00000000000E+00 -0.45593999997E+02  0.45594000000E+02  0.51100000000E-03 0. -1.
    9900012    2    1    2    0    0 -0.65124940321E+01 -0.36861039441E+02  0.15875047990E+02  0.50528856430E+02  0.29999989604E+02 0.  0.
         12    1    1    2    0    0  0.65124940321E+01  0.36861039441E+02 -0.15875047990E+02  0.40659143570E+02  0.00000000000E+00 0. -1.
         11    1    3    3    0    0 -0.63984829240E+01 -0.17696842565E-02 -0.10738161097E+01  0.64879633291E+01  0.51100000000E-03 0. -1.
        -11    1    3    3    0    0 -0.25664296147E+01 -0.96919375565E+01  0.13094693060E+02  0.16492155746E+02  0.51100000000E-03 0.  1.
        -12    1    3    3    0    0  0.24524185066E+01 -0.27167332200E+02  0.38541710393E+01  0.27548737354E+02  0.00000000000E+00 0.  1.
</event>
<event>
 7    1  0.3250765E-011  0.5052886E+02  0.7816164E-02  0.1300439E+00
        -11   -1    0    0    0    0  0.00000000000E+00  0.00000000000E+00  0.45593999997E+02  0.45594000000E+02  0.51100000000E-03 0. -1.
         11   -1    0    0    0    0 -0.00000000000E+00 -0.00000000000E+00 -0.45593999997E+02  0.45594000000E+02  0.51100000000E-03 0.  1.
    9900012    2    1    2    0    0 -0.18768980045E+02  0.35352574566E+02  0.71474848815E+01  0.50528859816E+02  0.29999999896E+02 0.  0.
         12    1    1    2    0    0  0.18768980045E+02 -0.35352574566E+02 -0.71474848815E+01  0.40659140184E+02  0.00000000000E+00 0. -1.
         11    1    3    3    0    0 -0.56153575890E+00 -0.14278469537E+01  0.26501358965E+00  0.15570169542E+01  0.51100000000E-03 0. -1.
        -11    1    3    3    0    0 -0.50704883142E+01  0.25416750515E+02  0.14840526002E+02  0.29865737406E+02  0.51100000000E-03 0.  1.
         12    1    3    3    0    0 -0.13136955972E+02  0.11363671004E+02 -0.79580547102E+01  0.19106105456E+02  0.00000000000E+00 0. -1.
</event>
<event>
 7    1  0.3250765E-011  0.5052886E+02  0.7816164E-02  0.1300439E+00
        -11   -1    0    0    0    0  0.00000000000E+00  0.00000000000E+00  0.45593999997E+02  0.45594000000E+02  0.51100000000E-03 0.  1.
         11   -1    0    0    0    0 -0.00000000000E+00 -0.00000000000E+00 -0.45593999997E+02  0.45594000000E+02  0.51100000000E-03 0. -1.
    9900012    2    1    2    0    0  0.42035096603E+01  0.17559593173E+01  0.40403129045E+02  0.50528859291E+02  0.29999998300E+02 0.  0.
         12    1    1    2    0    0 -0.42035096603E+01 -0.17559593173E+01 -0.40403129045E+02  0.40659140709E+02  0.00000000000E+00 0. -1.
         11    1    3    3    0    0  0.70714937158E+01  0.65846192391E+01  0.10030764978E+02  0.13927651640E+02  0.51100000000E-03 0. -1.
        -11    1    3    3    0    0  0.40208543471E+01  0.11944809518E+01  0.26218458782E+02  0.26551866895E+02  0.51100000000E-03 0.  1.
         12    1    3    3    0    0 -0.68888384026E+01 -0.60231408736E+01  0.41539052852E+01  0.10049340756E+02  0.00000000000E+00 0. -1.
</event>
<event>
 7    1  0.3250765E-011  0.5052883E+02  0.7816164E-02  0.1300439E+00
        -11   -1    0    0    0    0  0.00000000000E+00  0.00000000000E+00  0.45593999997E+02  0.45594000000E+02  0.51100000000E-03 0. -1.
         11   -1    0    0    0    0 -0.00000000000E+00 -0.00000000000E+00 -0.45593999997E+02  0.45594000000E+02  0.51100000000E-03 0.  1.
    9900012    2    1    2    0    0  0.20717303883E+02  0.32630102957E+02 -0.12618943674E+02  0.50528830817E+02  0.29999911752E+02 0.  0.
         12    1    1    2    0    0 -0.20717303883E+02 -0.32630102957E+02  0.12618943674E+02  0.40659169183E+02  0.00000000000E+00 0. -1.
         11    1    3    3    0    0  0.99176036613E+00 -0.12211561998E+01 -0.49642176478E+01  0.52075203507E+01  0.51100000000E-03 0. -1.
        -11    1    3    3    0    0  0.14678086301E+02  0.26705280757E+02 -0.14938019803E+02  0.33937629170E+02  0.51100000000E-03 0.  1.
         12    1    3    3    0    0  0.50474572152E+01  0.71459783998E+01  0.72832937761E+01  0.11383681296E+02  0.00000000000E+00 0. -1.
</event>
<event>
 7    1  0.3250765E-011  0.5052879E+02  0.7816164E-02  0.1300439E+00
        -11   -1    0    0    0    0  0.00000000000E+00  0.00000000000E+00  0.45593999997E+02  0.45594000000E+02  0.51100000000E-03 0.  1.
         11   -1    0    0    0    0 -0.00000000000E+00 -0.00000000000E+00 -0.45593999997E+02  0.45594000000E+02  0.51100000000E-03 0. -1.
    9900012    2    1    2    0    0 -0.38690502452E+02  0.11178901668E+02  0.55900466627E+01  0.50528788938E+02  0.29999784454E+02 0.  0.
         12    1    1    2    0    0  0.38690502452E+02 -0.11178901668E+02 -0.55900466627E+01  0.40659211062E+02  0.00000000000E+00 0. -1.
         11    1    3    3    0    0 -0.81567051233E+01 -0.40640572432E+00  0.13558011658E+01  0.82785989843E+01  0.51100000000E-03 0. -1.
        -11    1    3    3    0    0 -0.26585782087E+02 -0.30730875188E+01  0.40558353490E+01  0.27068385188E+02  0.51100000000E-03 0.  1.
         12    1    3    3    0    0 -0.39480152420E+01  0.14658394912E+02  0.17841014791E+00  0.15181804765E+02  0.00000000000E+00 0. -1.
</event>
<event>
 7    1  0.3250765E-011  0.5052887E+02  0.7816164E-02  0.1300439E+00
        -11   -1    0    0    0    0  0.00000000000E+00  0.00000000000E+00  0.45593999997E+02  0.45594000000E+02  0.51100000000E-03 0. -1.
         11   -1    0    0    0    0 -0.00000000000E+00 -0.00000000000E+00 -0.45593999997E+02  0.45594000000E+02  0.51100000000E-03 0.  1.
    9900012    2    1    2    0    0  0.26061009584E+02  0.49484395819E+01 -0.30813986686E+02  0.50528867565E+02  0.30000023451E+02 0.  0.
         12    1    1    2    0    0 -0.26061009584E+02 -0.49484395819E+01  0.30813986686E+02  0.40659132435E+02  0.00000000000E+00 0. -1.
         11    1    3    3    0    0  0.54481541805E+01  0.93599113425E+01 -0.66564619226E+01  0.12712152056E+02  0.51100000000E-03 0. -1.
        -11    1    3    3    0    0  0.14823275169E+01 -0.64714544228E+01  0.36207840954E+00  0.66489185775E+01  0.51100000000E-03 0.  1.
        -12    1    3    3    0    0  0.19130527887E+02  0.20599826622E+01 -0.24519603173E+02  0.31167796932E+02  0.00000000000E+00 0.  1.
</event>
<event>
 7    1  0.3250765E-011  0.5052886E+02  0.7816164E-02  0.1300439E+00
        -11   -1    0    0    0    0  0.00000000000E+00  0.00000000000E+00  0.45593999997E+02  0.45594000000E+02  0.51100000000E-03 0.  1.
         11   -1    0    0    0    0 -0.00000000000E+00 -0.00000000000E+00 -0.45593999997E+02  0.45594000000E+02  0.51100000000E-03 0. -1.
    9900012    2    1    2    0    0 -0.53945558737E+01 -0.14197006807E+02  0.37716165284E+02  0.50528863769E+02  0.30000011912E+02 0.  0.
         12    1    1    2    0    0  0.53945558737E+01  0.14197006807E+02 -0.37716165284E+02  0.40659136231E+02  0.00000000000E+00 0. -1.
         11    1    3    3    0    0 -0.41273939560E+00 -0.48245144026E+01  0.16492757859E+00  0.48449452419E+01  0.51100000000E-03 0. -1.
        -11    1    3    3    0    0 -0.90647462513E+01 -0.15908199919E+02  0.26168820684E+02  0.31938184443E+02  0.51100000000E-03 0.  1.
         12    1    3    3    0    0  0.40829297731E+01  0.65357075151E+01  0.11382417022E+02  0.13745734084E+02  0.00000000000E+00 0. -1.
</event>
<event>
 7    1  0.3250765E-011  0.5052885E+02  0.7816164E-02  0.1300439E+00
        -11   -1    0    0    0    0  0.00000000000E+00  0.00000000000E+00  0.45593999997E+02  0.45594000000E+02  0.51100000000E-03 0.  1.
         11   -1    0    0    0    0 -0.00000000000E+00 -0.00000000000E+00 -0.45593999997E+02  0.45594000000E+02  0.51100000000E-03 0. -1.
    9900012    2    1    2    0    0  0.31350998162E+02 -0.17516950858E+02  0.19064035720E+02  0.50528854521E+02  0.29999983802E+02 0.  0.
         12    1    1    2    0    0 -0.31350998162E+02  0.17516950858E+02 -0.19064035720E+02  0.40659145479E+02  0.00000000000E+00 0. -1.
         11    1    3    3    0    0  0.17869884574E+00 -0.49349437930E+01 -0.53272269725E+01  0.72639487192E+01  0.51100000000E-03 0. -1.
        -11    1    3    3    0    0  0.16109570951E+02 -0.10768997227E+02  0.19069807601E+02  0.27187260614E+02  0.51100000000E-03 0.  1.
        -12    1    3    3    0    0  0.15062728365E+02 -0.18130098388E+01  0.53214550922E+01  0.16077645188E+02  0.00000000000E+00 0.  1.
</event>
<event>
 7    1  0.3250765E-011  0.5052886E+02  0.7816164E-02  0.1300439E+00
        -11   -1    0    0    0    0  0.00000000000E+00  0.00000000000E+00  0.45593999997E+02  0.45594000000E+02  0.51100000000E-03 0.  1.
         11   -1    0    0    0    0 -0.00000000000E+00 -0.00000000000E+00 -0.45593999997E+02  0.45594000000E+02  0.51100000000E-03 0. -1.
    9900012    2    1    2    0    0 -0.13097917295E+02  0.15013764685E+02  0.35442868875E+02  0.50528861771E+02  0.30000005838E+02 0.  0.
         12    1    1    2    0    0  0.13097917295E+02 -0.15013764685E+02 -0.35442868875E+02  0.40659138229E+02  0.00000000000E+00 0. -1.
         11    1    3    3    0    0 -0.75442010244E+01  0.11209180471E+02  0.46556282125E+01  0.14291101086E+02  0.51100000000E-03 0. -1.
        -11    1    3    3    0    0 -0.51882934472E+01 -0.44565860832E+01  0.34169924956E+01  0.76456122311E+01  0.51100000000E-03 0.  1.
        -12    1    3    3    0    0 -0.36542282364E+00  0.82611702970E+01  0.27370248167E+02  0.28592148454E+02  0.00000000000E+00 0.  1.
</event>
<event>
 7    1  0.3250765E-011  0.5052892E+02  0.7816164E-02  0.1300439E+00
        -11   -1    0    0    0    0  0.00000000000E+00  0.00000000000E+00  0.45593999997E+02  0.45594000000E+02  0.51100000000E-03 0. -1.
         11   -1    0    0    0    0 -0.00000000000E+00 -0.00000000000E+00 -0.45593999997E+02  0.45594000000E+02  0.51100000000E-03 0.  1.
    9900012    2    1    2    0    0 -0.20486804822E+02 -0.31879754037E+02 -0.14735428262E+02  0.50528920628E+02  0.30000184741E+02 0.  0.
         12    1    1    2    0    0  0.20486804822E+02  0.31879754037E+02  0.14735428262E+02  0.40659079372E+02  0.00000000000E+00 0. -1.
         11    1    3    3    0    0 -0.51013970482E+01 -0.57730112594E+01  0.52895559244E+01  0.93451224167E+01  0.51100000000E-03 0. -1.
        -11    1    3    3    0    0 -0.10757376958E+02 -0.28523238265E+02 -0.15152988431E+02  0.34042757509E+02  0.51100000000E-03 0.  1.
         12    1    3    3    0    0 -0.46280308157E+01  0.24164954875E+01 -0.48719957555E+01  0.71410407025E+01  0.00000000000E+00 0. -1.
</event>
<event>
 7    1  0.3250765E-011  0.5052887E+02  0.7816164E-02  0.1300439E+00
        -11   -1    0    0    0    0  0.00000000000E+00  0.00000000000E+00  0.45593999997E+02  0.45594000000E+02  0.51100000000E-03 0. -1.
         11   -1    0    0    0    0 -0.00000000000E+00 -0.00000000000E+00 -0.45593999997E+02  0.45594000000E+02  0.51100000000E-03 0.  1.
    9900012    2    1    2    0    0  0.16172135273E+02  0.32775507977E+02 -0.17815530364E+02  0.50528868128E+02  0.30000025161E+02 0.  0.
         12    1    1    2    0    0 -0.16172135273E+02 -0.32775507977E+02  0.17815530364E+02  0.40659131872E+02  0.00000000000E+00 0. -1.
         11    1    3    3    0    0  0.77667917654E+01 -0.19298199440E+01  0.95653962536E+00  0.80599148667E+01  0.51100000000E-03 0. -1.
        -11    1    3    3    0    0  0.34314604740E+00  0.71017662652E+01  0.15234803265E+01  0.72714390502E+01  0.51100000000E-03 0.  1.
         12    1    3    3    0    0  0.80621974604E+01  0.27603561656E+02 -0.20295550316E+02  0.35197514211E+02  0.00000000000E+00 0. -1.
</event>
<event>
 7    1  0.3250765E-011  0.5052886E+02  0.7816164E-02  0.1300439E+00
        -11   -1    0    0    0    0  0.00000000000E+00  0.00000000000E+00  0.45593999997E+02  0.45594000000E+02  0.51100000000E-03 0.  1.
         11   -1    0    0    0    0 -0.00000000000E+00 -0.00000000000E+00 -0.45593999997E+02  0.45594000000E+02  0.51100000000E-03 0. -1.
    9900012    2    1    2    0    0 -0.20514342055E+01  0.10280796793E+02  0.39284382221E+02  0.50528857713E+02  0.29999993505E+02 0.  0.
         12    1    1    2    0    0  0.20514342055E+01 -0.10280796793E+02 -0.39284382221E+02  0.40659142287E+02  0.00000000000E+00 0. -1.
         11    1    3    3    0    0  0.63054764462E+01 -0.11678418304E+01  0.12741439340E+02  0.14264191687E+02  0.51100000000E-03 0. -1.
        -11    1    3    3    0    0  0.41214694436E+01  0.10713852381E+02  0.17113616512E+02  0.20607013699E+02  0.51100000000E-03 0.  1.
         12    1    3    3    0    0 -0.12478380095E+02  0.73478624252E+00  0.94293263686E+01  0.15657652327E+02  0.00000000000E+00 0. -1.
</event>
<event>
 7    1  0.3250765E-011  0.5052885E+02  0.7816164E-02  0.1300439E+00
        -11   -1    0    0    0    0  0.00000000000E+00  0.00000000000E+00  0.45593999997E+02  0.45594000000E+02  0.51100000000E-03 0. -1.
         11   -1    0    0    0    0 -0.00000000000E+00 -0.00000000000E+00 -0.45593999997E+02  0.45594000000E+02  0.51100000000E-03 0.  1.
    9900012    2    1    2    0    0 -0.15266618621E+02  0.21701598133E+02 -0.30808075956E+02  0.50528849127E+02  0.29999967406E+02 0.  0.
         12    1    1    2    0    0  0.15266618621E+02 -0.21701598133E+02  0.30808075956E+02  0.40659150873E+02  0.00000000000E+00 0. -1.
         11    1    3    3    0    0 -0.59079829531E+01  0.75235986157E+01 -0.21899786296E+01  0.98135011777E+01  0.51100000000E-03 0. -1.
        -11    1    3    3    0    0  0.43970526402E+01  0.14002371048E+02 -0.10888488661E+02  0.18274562990E+02  0.51100000000E-03 0.  1.
        -12    1    3    3    0    0 -0.13755688308E+02  0.17562846939E+00 -0.17729608665E+02  0.22440784959E+02  0.00000000000E+00 0.  1.
</event>
<event>
 7    1  0.3250765E-011  0.5052884E+02  0.7816164E-02  0.1300439E+00
        -11   -1    0    0    0    0  0.00000000000E+00  0.00000000000E+00  0.45593999997E+02  0.45594000000E+02  0.51100000000E-03 0.  1.
         11   -1    0    0    0    0 -0.00000000000E+00 -0.00000000000E+00 -0.45593999997E+02  0.45594000000E+02  0.51100000000E-03 0. -1.
    9900012    2    1    2    0    0 -0.11182929617E+02 -0.82529605454E+01  0.38209915205E+02  0.50528844911E+02  0.29999954590E+02 0.  0.
         12    1    1    2    0    0  0.11182929617E+02  0.82529605454E+01 -0.38209915205E+02  0.40659155089E+02  0.00000000000E+00 0. -1.
         11    1    3    3    0    0 -0.14321324621E+02 -0.67321419740E+01  0.22962967762E+02  0.27887631006E+02  0.51100000000E-03 0. -1.
        -11    1    3    3    0    0 -0.52891673177E+01  0.36935491980E+01  0.37476703946E+01  0.74607392556E+01  0.51100000000E-03 0.  1.
         12    1    3    3    0    0  0.84275623211E+01 -0.52143677694E+01  0.11499277049E+02  0.15180474648E+02  0.00000000000E+00 0. -1.
</event>
<event>
 7    1  0.3250765E-011  0.5052886E+02  0.7816164E-02  0.1300439E+00
        -11   -1    0    0    0    0  0.00000000000E+00  0.00000000000E+00  0.45593999997E+02  0.45594000000E+02  0.51100000000E-03 0. -1.
         11   -1    0    0    0    0 -0.00000000000E+00 -0.00000000000E+00 -0.45593999997E+02  0.45594000000E+02  0.51100000000E-03 0.  1.
    9900012    2    1    2    0    0 -0.15124282207E+02  0.34436776060E+02  0.15444427258E+02  0.50528858457E+02  0.29999995767E+02 0.  0.
         12    1    1    2    0    0  0.15124282207E+02 -0.34436776060E+02 -0.15444427258E+02  0.40659141543E+02  0.00000000000E+00 0. -1.
         11    1    3    3    0    0  0.10100639478E+01  0.13641534479E+02  0.77003251422E+01  0.15697346899E+02  0.51100000000E-03 0. -1.
        -11    1    3    3    0    0 -0.20133907551E+01  0.97567558333E+01 -0.65359152373E+01  0.11914957615E+02  0.51100000000E-03 0.  1.
         12    1    3    3    0    0 -0.14120955400E+02  0.11038485747E+02  0.14280017353E+02  0.22916553943E+02  0.00000000000E+00 0. -1.
</event>
<event>
 7    1  0.3250765E-011  0.5052885E+02  0.7816164E-02  0.1300439E+00
        -11   -1    0    0    0    0  0.00000000000E+00  0.00000000000E+00  0.45593999997E+02  0.45594000000E+02  0.51100000000E-03 0.  1.
         11   -1    0    0    0    0 -0.00000000000E+00 -0.00000000000E+00 -0.45593999997E+02  0.45594000000E+02  0.51100000000E-03 0. -1.
    9900012    2    1    2    0    0 -0.56636478348E+00  0.21609534316E+02  0.34436516036E+02  0.50528851225E+02  0.29999973783E+02 0.  0.
         12    1    1    2    0    0  0.56636478348E+00 -0.21609534316E+02 -0.34436516036E+02  0.40659148775E+02  0.00000000000E+00 0. -1.
         11    1    3    3    0    0 -0.57354399046E+01  0.55195012514E+01  0.18394932595E+01  0.81696940381E+01  0.51100000000E-03 0. -1.
        -11    1    3    3    0    0 -0.65589764733E+01  0.12485687109E+02  0.22075602251E+02  0.26196273971E+02  0.51100000000E-03 0.  1.
        -12    1    3    3    0    0  0.11728051594E+02  0.36043459550E+01  0.10521420526E+02  0.16162883216E+02  0.00000000000E+00 0.  1.
</event>
<event>
 7    1  0.3250765E-011  0.5052885E+02  0.7816164E-02  0.1300439E+00
        -11   -1    0    0    0    0  0.00000000000E+00  0.00000000000E+00  0.45593999997E+02  0.45594000000E+02  0.51100000000E-03 0. -1.
         11   -1    0    0    0    0 -0.00000000000E+00 -0.00000000000E+00 -0.45593999997E+02  0.45594000000E+02  0.51100000000E-03 0.  1.
    9900012    2    1    2    0    0  0.34977076584E+02  0.15251410063E+02 -0.14041537880E+02  0.50528853658E+02  0.29999981178E+02 0.  0.
         12    1    1    2    0    0 -0.34977076584E+02 -0.15251410063E+02  0.14041537880E+02  0.40659146342E+02  0.00000000000E+00 0. -1.
         11    1    3    3    0    0  0.23629769705E+02  0.16011061787E+02  0.37648938359E+00  0.28545785335E+02  0.51100000000E-03 0. -1.
        -11    1    3    3    0    0  0.10929557612E+02  0.35391517590E+01 -0.71590424572E+01  0.13536347880E+02  0.51100000000E-03 0.  1.
         12    1    3    3    0    0  0.41774926655E+00 -0.42988034825E+01 -0.72589848060E+01  0.84467204431E+01  0.00000000000E+00 0. -1.
</event>
<event>
 7    1  0.3250765E-011  0.5052886E+02  0.7816164E-02  0.1300439E+00
        -11   -1    0    0    0    0  0.00000000000E+00  0.00000000000E+00  0.45593999997E+02  0.45594000000E+02  0.51100000000E-03 0.  1.
         11   -1    0    0    0    0 -0.00000000000E+00 -0.00000000000E+00 -0.45593999997E+02  0.45594000000E+02  0.51100000000E-03 0. -1.
    9900012    2    1    2    0    0  0.36766737082E+02 -0.77338264005E+01  0.15542212483E+02  0.50528863323E+02  0.30000010557E+02 0.  0.
         12    1    1    2    0    0 -0.36766737082E+02  0.77338264005E+01 -0.15542212483E+02  0.40659136677E+02  0.00000000000E+00 0. -1.
         11    1    3    3    0    0  0.73815135068E+01  0.26761784594E+01  0.24250371110E+01  0.82176321436E+01  0.51100000000E-03 0. -1.
        -11    1    3    3    0    0  0.27472353478E+02 -0.77911605201E+01 -0.24939296086E+00  0.28556865812E+02  0.51100000000E-03 0.  1.
        -12    1    3    3    0    0  0.19128700972E+01 -0.26188443397E+01  0.13366568332E+02  0.13754365368E+02  0.00000000000E+00 0.  1.
</event>
<event>
 7    1  0.3250765E-011  0.5052886E+02  0.7816164E-02  0.1300439E+00
        -11   -1    0    0    0    0  0.00000000000E+00  0.00000000000E+00  0.45593999997E+02  0.45594000000E+02  0.51100000000E-03 0. -1.
         11   -1    0    0    0    0 -0.00000000000E+00 -0.00000000000E+00 -0.45593999997E+02  0.45594000000E+02  0.51100000000E-03 0.  1.
    9900012    2    1    2    0    0 -0.23058615557E+02  0.15461463077E+02 -0.29705367115E+02  0.50528862929E+02  0.30000009360E+02 0.  0.
         12    1    1    2    0    0  0.23058615557E+02 -0.15461463077E+02  0.29705367115E+02  0.40659137071E+02  0.00000000000E+00 0. -1.
         11    1    3    3    0    0 -0.97360153504E+00  0.15819886835E+02 -0.39782266967E+01  0.16341450589E+02  0.51100000000E-03 0. -1.
        -11    1    3    3    0    0 -0.92544595525E+01  0.16937710904E+01 -0.12509962908E+02  0.15652892842E+02  0.51100000000E-03 0.  1.
        -12    1    3    3    0    0 -0.12830554470E+02 -0.20521948488E+01 -0.13217177510E+02  0.18534519498E+02  0.00000000000E+00 0.  1.
</event>
<event>
 7    1  0.3250765E-011  0.5052887E+02  0.7816164E-02  0.1300439E+00
        -11   -1    0    0    0    0  0.00000000000E+00  0.00000000000E+00  0.45593999997E+02  0.45594000000E+02  0.51100000000E-03 0. -1.
         11   -1    0    0    0    0 -0.00000000000E+00 -0.00000000000E+00 -0.45593999997E+02  0.45594000000E+02  0.51100000000E-03 0.  1.
    9900012    2    1    2    0    0  0.60394967718E+00  0.33038757294E+02 -0.23690520862E+02  0.50528867969E+02  0.30000024680E+02 0.  0.
         12    1    1    2    0    0 -0.60394967718E+00 -0.33038757294E+02  0.23690520862E+02  0.40659132031E+02  0.00000000000E+00 0. -1.
         11    1    3    3    0    0 -0.11470455567E+02  0.20014925904E+02 -0.64651731608E+01  0.23957609942E+02  0.51100000000E-03 0. -1.
        -11    1    3    3    0    0  0.26058307153E+01  0.21705269944E+01 -0.97929985059E+01  0.10363607535E+02  0.51100000000E-03 0.  1.
        -12    1    3    3    0    0  0.94685745291E+01  0.10853304396E+02 -0.74323491952E+01  0.16207650492E+02  0.00000000000E+00 0.  1.
</event>
<event>
 7    1  0.3250765E-011  0.5052886E+02  0.7816164E-02  0.1300439E+00
        -11   -1    0    0    0    0  0.00000000000E+00  0.00000000000E+00  0.45593999997E+02  0.45594000000E+02  0.51100000000E-03 0.  1.
         11   -1    0    0    0    0 -0.00000000000E+00 -0.00000000000E+00 -0.45593999997E+02  0.45594000000E+02  0.51100000000E-03 0. -1.
    9900012    2    1    2    0    0 -0.27535288376E+02 -0.29314897561E+02  0.59674693415E+01  0.50528855699E+02  0.29999987382E+02 0.  0.
         12    1    1    2    0    0  0.27535288376E+02  0.29314897561E+02 -0.59674693415E+01  0.40659144301E+02  0.00000000000E+00 0. -1.
         11    1    3    3    0    0 -0.15649657465E+02 -0.12718249880E+02  0.90495848353E+01  0.22103407989E+02  0.51100000000E-03 0.  1.
        -11    1    3    3    0    0 -0.78354551390E+01 -0.96363574201E+01 -0.11392385791E+02  0.16853492096E+02  0.51100000000E-03 0. -1.
         12    1    3    3    0    0 -0.40501757719E+01 -0.69602902605E+01  0.83102702974E+01  0.11571955613E+02  0.00000000000E+00 0. -1.
</event>
<event>
 7    1  0.3250765E-011  0.5052886E+02  0.7816164E-02  0.1300439E+00
        -11   -1    0    0    0    0  0.00000000000E+00  0.00000000000E+00  0.45593999997E+02  0.45594000000E+02  0.51100000000E-03 0.  1.
         11   -1    0    0    0    0 -0.00000000000E+00 -0.00000000000E+00 -0.45593999997E+02  0.45594000000E+02  0.51100000000E-03 0. -1.
    9900012    2    1    2    0    0 -0.24628949773E+02 -0.16012043457E+02  0.28110400809E+02  0.50528864049E+02  0.30000012764E+02 0.  0.
         12    1    1    2    0    0  0.24628949773E+02  0.16012043457E+02 -0.28110400809E+02  0.40659135951E+02  0.00000000000E+00 0. -1.
         11    1    3    3    0    0 -0.48266268238E+01 -0.25758328474E+01  0.58878577292E+01  0.80372949588E+01  0.51100000000E-03 0.  1.
        -11    1    3    3    0    0  0.24258577494E+01 -0.73886067299E+01 -0.29974983278E+01  0.83343441083E+01  0.51100000000E-03 0. -1.
         12    1    3    3    0    0 -0.22228180699E+02 -0.60476038800E+01  0.25220041408E+02  0.34157224982E+02  0.00000000000E+00 0. -1.
</event>
<event>
 7    1  0.3250765E-011  0.5052886E+02  0.7816164E-02  0.1300439E+00
        -11   -1    0    0    0    0  0.00000000000E+00  0.00000000000E+00  0.45593999997E+02  0.45594000000E+02  0.51100000000E-03 0.  1.
         11   -1    0    0    0    0 -0.00000000000E+00 -0.00000000000E+00 -0.45593999997E+02  0.45594000000E+02  0.51100000000E-03 0. -1.
    9900012    2    1    2    0    0  0.35685985331E+02  0.49421000218E+01  0.18848122193E+02  0.50528860660E+02  0.30000002463E+02 0.  0.
         12    1    1    2    0    0 -0.35685985331E+02 -0.49421000218E+01 -0.18848122193E+02  0.40659139340E+02  0.00000000000E+00 0. -1.
         11    1    3    3    0    0  0.12143018894E+02 -0.27529311430E+01 -0.78275761883E+00  0.12475746370E+02  0.51100000000E-03 0. -1.
        -11    1    3    3    0    0  0.27393774918E+02  0.81992150451E+01  0.16162810914E+02  0.32846346654E+02  0.51100000000E-03 0.  1.
        -12    1    3    3    0    0 -0.38508084811E+01 -0.50418388032E+00  0.34680688974E+01  0.52067676365E+01  0.00000000000E+00 0.  1.
</event>
<event>
 7    1  0.3250765E-011  0.5052888E+02  0.7816164E-02  0.1300439E+00
        -11   -1    0    0    0    0  0.00000000000E+00  0.00000000000E+00  0.45593999997E+02  0.45594000000E+02  0.51100000000E-03 0.  1.
         11   -1    0    0    0    0 -0.00000000000E+00 -0.00000000000E+00 -0.45593999997E+02  0.45594000000E+02  0.51100000000E-03 0. -1.
    9900012    2    1    2    0    0 -0.30093594668E+02 -0.16401684401E+02  0.21875203526E+02  0.50528877770E+02  0.30000054468E+02 0.  0.
         12    1    1    2    0    0  0.30093594668E+02  0.16401684401E+02 -0.21875203526E+02  0.40659122230E+02  0.00000000000E+00 0. -1.
         11    1    3    3    0    0 -0.20301228552E+02 -0.42519155757E+01  0.11724065299E+02  0.23825876147E+02  0.51100000000E-03 0. -1.
        -11    1    3    3    0    0 -0.14748994351E+02 -0.48317732368E+01  0.85533059391E+01  0.17721114799E+02  0.51100000000E-03 0.  1.
         12    1    3    3    0    0  0.49566282346E+01 -0.73179955885E+01  0.15978322879E+01  0.89818868234E+01  0.00000000000E+00 0. -1.
</event>
<event>
 7    1  0.3250765E-011  0.5052887E+02  0.7816164E-02  0.1300439E+00
        -11   -1    0    0    0    0  0.00000000000E+00  0.00000000000E+00  0.45593999997E+02  0.45594000000E+02  0.51100000000E-03 0. -1.
         11   -1    0    0    0    0 -0.00000000000E+00 -0.00000000000E+00 -0.45593999997E+02  0.45594000000E+02  0.51100000000E-03 0.  1.
    9900012    2    1    2    0    0  0.30804309217E+02 -0.12208305381E+00 -0.26537609227E+02  0.50528867274E+02  0.30000022565E+02 0.  0.
         12    1    1    2    0    0 -0.30804309217E+02  0.12208305381E+00  0.26537609227E+02  0.40659132726E+02  0.00000000000E+00 0. -1.
         11    1    3    3    0    0  0.38998897566E+01 -0.19923272016E+01 -0.10697145278E+02  0.11558867814E+02  0.51100000000E-03 0. -1.
        -11    1    3    3    0    0  0.24261931069E+02  0.61073759119E+01 -0.20343493454E+02  0.32245915492E+02  0.51100000000E-03 0.  1.
         12    1    3    3    0    0  0.26424883907E+01 -0.42371317641E+01  0.45030295049E+01  0.67240839676E+01  0.00000000000E+00 0. -1.
</event>
<event>
 7    1  0.3250765E-011  0.5052884E+02  0.7816164E-02  0.1300439E+00
        -11   -1    0    0    0    0  0.00000000000E+00  0.00000000000E+00  0.45593999997E+02  0.45594000000E+02  0.51100000000E-03 0.  1.
         11   -1    0    0    0    0 -0.00000000000E+00 -0.00000000000E+00 -0.45593999997E+02  0.45594000000E+02  0.51100000000E-03 0. -1.
    9900012    2    1    2    0    0  0.28452692168E+02  0.91200271195E+01  0.27576009737E+02  0.50528844828E+02  0.29999954340E+02 0.  0.
         12    1    1    2    0    0 -0.28452692168E+02 -0.91200271195E+01 -0.27576009737E+02  0.40659155172E+02  0.00000000000E+00 0. -1.
         11    1    3    3    0    0  0.15452707405E+02 -0.90119236782E-01  0.10069764984E+02  0.18444361055E+02  0.51100000000E-03 0.  1.
        -11    1    3    3    0    0  0.15292603331E+02  0.14325305320E+02  0.15740005287E+02  0.26207362627E+02  0.51100000000E-03 0. -1.
        -12    1    3    3    0    0 -0.22926185677E+01 -0.51151589641E+01  0.17662394654E+01  0.58771211468E+01  0.00000000000E+00 0.  1.
</event>
<event>
 7    1  0.4984647E-011  0.5052887E+02  0.7816164E-02  0.1300439E+00
        -11   -1    0    0    0    0  0.00000000000E+00  0.00000000000E+00  0.45593999997E+02  0.45594000000E+02  0.51100000000E-03 0.  1.
         11   -1    0    0    0    0 -0.00000000000E+00 -0.00000000000E+00 -0.45593999997E+02  0.45594000000E+02  0.51100000000E-03 0. -1.
    9900012    2    1    2    0    0  0.26201574532E+02  0.21302405773E+02  0.22646184982E+02  0.50528871948E+02  0.30000036773E+02 0.  0.
         12    1    1    2    0    0 -0.26201574532E+02 -0.21302405773E+02 -0.22646184982E+02  0.40659128052E+02  0.00000000000E+00 0. -1.
         11    1    3    3    0    0  0.96372178282E+01  0.10308519523E+02 -0.80976725777E+00  0.14134966059E+02  0.51100000000E-03 0. -1.
        -11    1    3    3    0    0  0.15294282420E+02  0.15360691051E+02  0.13734488635E+02  0.25661295420E+02  0.51100000000E-03 0.  1.
         12    1    3    3    0    0  0.12700742841E+01 -0.43668048006E+01  0.97214636047E+01  0.10732610469E+02  0.00000000000E+00 0. -1.
</event>
<event>
 7    1  0.3250765E-011  0.5052886E+02  0.7816164E-02  0.1300439E+00
        -11   -1    0    0    0    0  0.00000000000E+00  0.00000000000E+00  0.45593999997E+02  0.45594000000E+02  0.51100000000E-03 0.  1.
         11   -1    0    0    0    0 -0.00000000000E+00 -0.00000000000E+00 -0.45593999997E+02  0.45594000000E+02  0.51100000000E-03 0. -1.
    9900012    2    1    2    0    0  0.19378736231E+01  0.32428605924E+02  0.24449866397E+02  0.50528858307E+02  0.29999995311E+02 0.  0.
         12    1    1    2    0    0 -0.19378736231E+01 -0.32428605924E+02 -0.24449866397E+02  0.40659141693E+02  0.00000000000E+00 0. -1.
         11    1    3    3    0    0  0.19722819458E+01  0.17607622014E+02  0.36371771104E+01  0.18087213900E+02  0.51100000000E-03 0. -1.
        -11    1    3    3    0    0  0.39778769917E+01  0.17721352318E+02  0.10442576726E+02  0.20950351841E+02  0.51100000000E-03 0.  1.
         12    1    3    3    0    0 -0.40122853144E+01 -0.29003684074E+01  0.10370112560E+02  0.11491292567E+02  0.00000000000E+00 0. -1.
</event>
<event>
 7    1  0.3250765E-011  0.5052887E+02  0.7816164E-02  0.1300439E+00
        -11   -1    0    0    0    0  0.00000000000E+00  0.00000000000E+00  0.45593999997E+02  0.45594000000E+02  0.51100000000E-03 0. -1.
         11   -1    0    0    0    0 -0.00000000000E+00 -0.00000000000E+00 -0.45593999997E+02  0.45594000000E+02  0.51100000000E-03 0.  1.
    9900012    2    1    2    0    0  0.76115511898E+01  0.15045054290E+02 -0.36998314913E+02  0.50528872162E+02  0.30000037425E+02 0.  0.
         12    1    1    2    0    0 -0.76115511898E+01 -0.15045054290E+02  0.36998314913E+02  0.40659127838E+02  0.00000000000E+00 0. -1.
         11    1    3    3    0    0  0.80648123852E+01  0.33812106678E+01 -0.11519748372E+02  0.14463000629E+02  0.51100000000E-03 0. -1.
        -11    1    3    3    0    0  0.49501910979E+01  0.17063189492E+02 -0.16161509988E+02  0.24017727472E+02  0.51100000000E-03 0.  1.
        -12    1    3    3    0    0 -0.54034522932E+01 -0.53993458698E+01 -0.93170565532E+01  0.12048144061E+02  0.00000000000E+00 0.  1.
</event>
<event>
 7    1  0.3250765E-011  0.5052886E+02  0.7816164E-02  0.1300439E+00
        -11   -1    0    0    0    0  0.00000000000E+00  0.00000000000E+00  0.45593999997E+02  0.45594000000E+02  0.51100000000E-03 0. -1.
         11   -1    0    0    0    0 -0.00000000000E+00 -0.00000000000E+00 -0.45593999997E+02  0.45594000000E+02  0.51100000000E-03 0.  1.
    9900012    2    1    2    0    0  0.19795578802E+02  0.31479481815E+02 -0.16442106824E+02  0.50528860901E+02  0.30000003194E+02 0.  0.
         12    1    1    2    0    0 -0.19795578802E+02 -0.31479481815E+02  0.16442106824E+02  0.40659139099E+02  0.00000000000E+00 0. -1.
         11    1    3    3    0    0  0.21259561502E+02  0.23357147177E+02 -0.12178197797E+02  0.33850166637E+02  0.51100000000E-03 0. -1.
        -11    1    3    3    0    0  0.14424784116E+01  0.96088235294E+01 -0.73523685180E+01  0.12184726368E+02  0.51100000000E-03 0.  1.
         12    1    3    3    0    0 -0.29064611112E+01 -0.14864888912E+01  0.30884594915E+01  0.44939678955E+01  0.00000000000E+00 0. -1.
</event>
<event>
 7    1  0.3250765E-011  0.5052885E+02  0.7816164E-02  0.1300439E+00
        -11   -1    0    0    0    0  0.00000000000E+00  0.00000000000E+00  0.45593999997E+02  0.45594000000E+02  0.51100000000E-03 0.  1.
         11   -1    0    0    0    0 -0.00000000000E+00 -0.00000000000E+00 -0.45593999997E+02  0.45594000000E+02  0.51100000000E-03 0. -1.
    9900012    2    1    2    0    0  0.87218572788E+01 -0.12430416469E+02  0.37717109481E+02  0.50528851023E+02  0.29999973168E+02 0.  0.
         12    1    1    2    0    0 -0.87218572788E+01  0.12430416469E+02 -0.37717109481E+02  0.40659148977E+02  0.00000000000E+00 0. -1.
         11    1    3    3    0    0 -0.11637446054E+01 -0.72903192117E+01  0.10146338203E+02  0.12547957400E+02  0.51100000000E-03 0. -1.
        -11    1    3    3    0    0  0.15090592297E+02 -0.90780106480E+01  0.12614282586E+02  0.21662326251E+02  0.51100000000E-03 0.  1.
         12    1    3    3    0    0 -0.52049904129E+01  0.39379133903E+01  0.14956488692E+02  0.16318567372E+02  0.00000000000E+00 0. -1.
</event>
<event>
 7    1  0.3250765E-011  0.5052885E+02  0.7816164E-02  0.1300439E+00
        -11   -1    0    0    0    0  0.00000000000E+00  0.00000000000E+00  0.45593999997E+02  0.45594000000E+02  0.51100000000E-03 0.  1.
         11   -1    0    0    0    0 -0.00000000000E+00 -0.00000000000E+00 -0.45593999997E+02  0.45594000000E+02  0.51100000000E-03 0. -1.
    9900012    2    1    2    0    0  0.52949985031E+01 -0.33980709021E+02  0.21689640383E+02  0.50528854723E+02  0.29999984416E+02 0.  0.
         12    1    1    2    0    0 -0.52949985031E+01  0.33980709021E+02 -0.21689640383E+02  0.40659145277E+02  0.00000000000E+00 0. -1.
         11    1    3    3    0    0  0.21019276512E+01 -0.19834537680E+01 -0.16219124719E+01  0.33140291230E+01  0.51100000000E-03 0. -1.
        -11    1    3    3    0    0  0.13518640218E+02 -0.22684546431E+02  0.10871845617E+02  0.28557648844E+02  0.51100000000E-03 0.  1.
         12    1    3    3    0    0 -0.10325569366E+02 -0.93127088221E+01  0.12439707238E+02  0.18657176756E+02  0.00000000000E+00 0. -1.
</event>
<event>
 7    1  0.3250765E-011  0.5052887E+02  0.7816164E-02  0.1300439E+00
        -11   -1    0    0    0    0  0.00000000000E+00  0.00000000000E+00  0.45593999997E+02  0.45594000000E+02  0.51100000000E-03 0.  1.
         11   -1    0    0    0    0 -0.00000000000E+00 -0.00000000000E+00 -0.45593999997E+02  0.45594000000E+02  0.51100000000E-03 0. -1.
    9900012    2    1    2    0    0 -0.29822271759E+02  0.27040188149E+02  0.57118691010E+01  0.50528866750E+02  0.30000020973E+02 0.  0.
         12    1    1    2    0    0  0.29822271759E+02 -0.27040188149E+02 -0.57118691010E+01  0.40659133250E+02  0.00000000000E+00 0. -1.
         11    1    3    3    0    0 -0.10579040510E+02  0.73126351945E+01 -0.24778391181E+01  0.13096962188E+02  0.51100000000E-03 0. -1.
        -11    1    3    3    0    0 -0.10300697073E+02  0.15381343676E+02 -0.65635001202E+01  0.19641019005E+02  0.51100000000E-03 0.  1.
        -12    1    3    3    0    0 -0.89425341770E+01  0.43462092786E+01  0.14753208339E+02  0.17790885557E+02  0.00000000000E+00 0.  1.
</event>
<event>
 7    1  0.3250765E-011  0.5052886E+02  0.7816164E-02  0.1300439E+00
        -11   -1    0    0    0    0  0.00000000000E+00  0.00000000000E+00  0.45593999997E+02  0.45594000000E+02  0.51100000000E-03 0. -1.
         11   -1    0    0    0    0 -0.00000000000E+00 -0.00000000000E+00 -0.45593999997E+02  0.45594000000E+02  0.51100000000E-03 0.  1.
    9900012    2    1    2    0    0  0.27133828461E+02 -0.28167160860E+02  0.11114500464E+02  0.50528859350E+02  0.29999998479E+02 0.  0.
         12    1    1    2    0    0 -0.27133828461E+02  0.28167160860E+02 -0.11114500464E+02  0.40659140650E+02  0.00000000000E+00 0. -1.
         11    1    3    3    0    0  0.90968219776E+01 -0.12065356750E+02  0.12852710640E+02  0.19837267318E+02  0.51100000000E-03 0.  1.
        -11    1    3    3    0    0 -0.23492245535E+01 -0.80671162709E+01  0.15189358415E+01  0.85384066009E+01  0.51100000000E-03 0. -1.
        -12    1    3    3    0    0  0.20386231037E+02 -0.80346878393E+01 -0.32571460173E+01  0.22153185431E+02  0.00000000000E+00 0.  1.
</event>
<event>
 7    1  0.3250765E-011  0.5052887E+02  0.7816164E-02  0.1300439E+00
        -11   -1    0    0    0    0  0.00000000000E+00  0.00000000000E+00  0.45593999997E+02  0.45594000000E+02  0.51100000000E-03 0.  1.
         11   -1    0    0    0    0 -0.00000000000E+00 -0.00000000000E+00 -0.45593999997E+02  0.45594000000E+02  0.51100000000E-03 0. -1.
    9900012    2    1    2    0    0 -0.33609708479E+02  0.21222531200E+02 -0.85531601912E+01  0.50528869613E+02  0.30000029675E+02 0.  0.
         12    1    1    2    0    0  0.33609708479E+02 -0.21222531200E+02  0.85531601912E+01  0.40659130387E+02  0.00000000000E+00 0. -1.
         11    1    3    3    0    0 -0.13326326470E+02  0.45413357158E+01 -0.60877684040E+01  0.15338697196E+02  0.51100000000E-03 0. -1.
        -11    1    3    3    0    0 -0.16097772088E+02  0.16019363422E+01  0.61728461526E+01  0.17314978953E+02  0.51100000000E-03 0.  1.
        -12    1    3    3    0    0 -0.41856099210E+01  0.15079259142E+02 -0.86382379398E+01  0.17875193464E+02  0.00000000000E+00 0.  1.
</event>
<event>
 7    1  0.3250765E-011  0.5052886E+02  0.7816164E-02  0.1300439E+00
        -11   -1    0    0    0    0  0.00000000000E+00  0.00000000000E+00  0.45593999997E+02  0.45594000000E+02  0.51100000000E-03 0.  1.
         11   -1    0    0    0    0 -0.00000000000E+00 -0.00000000000E+00 -0.45593999997E+02  0.45594000000E+02  0.51100000000E-03 0. -1.
    9900012    2    1    2    0    0  0.12385477816E+02 -0.34565422713E+01  0.38572244468E+02  0.50528858488E+02  0.29999995861E+02 0.  0.
         12    1    1    2    0    0 -0.12385477816E+02  0.34565422713E+01 -0.38572244468E+02  0.40659141512E+02  0.00000000000E+00 0. -1.
         11    1    3    3    0    0  0.58927303225E+00  0.68787357351E+01  0.46914578625E+00  0.69198515916E+01  0.51100000000E-03 0. -1.
        -11    1    3    3    0    0  0.12596780434E+01 -0.97512239412E-01  0.21101827625E+02  0.21139617471E+02  0.51100000000E-03 0.  1.
        -12    1    3    3    0    0  0.10536526740E+02 -0.10237765767E+02  0.17001271056E+02  0.22469389426E+02  0.00000000000E+00 0.  1.
</event>
<event>
 7    1  0.3250765E-011  0.5052886E+02  0.7816164E-02  0.1300439E+00
        -11   -1    0    0    0    0  0.00000000000E+00  0.00000000000E+00  0.45593999997E+02  0.45594000000E+02  0.51100000000E-03 0.  1.
         11   -1    0    0    0    0 -0.00000000000E+00 -0.00000000000E+00 -0.45593999997E+02  0.45594000000E+02  0.51100000000E-03 0. -1.
    9900012    2    1    2    0    0 -0.57902051183E+01 -0.15241622083E+02  0.37246909775E+02  0.50528858263E+02  0.29999995176E+02 0.  0.
         12    1    1    2    0    0  0.57902051183E+01  0.15241622083E+02 -0.37246909775E+02  0.40659141737E+02  0.00000000000E+00 0. -1.
         11    1    3    3    0    0 -0.64304226942E+01  0.79423440592E+00  0.22330360422E+02  0.23251368587E+02  0.51100000000E-03 0. -1.
        -11    1    3    3    0    0 -0.50627788855E+01 -0.21503715350E+00  0.43796920731E+00  0.50862351802E+01  0.51100000000E-03 0.  1.
        -12    1    3    3    0    0  0.57029964614E+01 -0.15820819335E+02  0.14478580145E+02  0.22191254496E+02  0.00000000000E+00 0.  1.
</event>
<event>
 7    1  0.3250765E-011  0.5052887E+02  0.7816164E-02  0.1300439E+00
        -11   -1    0    0    0    0  0.00000000000E+00  0.00000000000E+00  0.45593999997E+02  0.45594000000E+02  0.51100000000E-03 0.  1.
         11   -1    0    0    0    0 -0.00000000000E+00 -0.00000000000E+00 -0.45593999997E+02  0.45594000000E+02  0.51100000000E-03 0. -1.
    9900012    2    1    2    0    0  0.19769893286E+02 -0.25397364287E+02  0.24845328242E+02  0.50528866601E+02  0.30000020521E+02 0.  0.
         12    1    1    2    0    0 -0.19769893286E+02  0.25397364287E+02 -0.24845328242E+02  0.40659133399E+02  0.00000000000E+00 0. -1.
         11    1    3    3    0    0  0.15560547048E+02 -0.12696420791E+02  0.49456985649E+01  0.20683076654E+02  0.51100000000E-03 0. -1.
        -11    1    3    3    0    0  0.19270537471E+01 -0.13466877430E+02  0.46042010070E+01  0.14362067784E+02  0.51100000000E-03 0.  1.
         12    1    3    3    0    0  0.22822924912E+01  0.76593393453E+00  0.15295428670E+02  0.15483722163E+02  0.00000000000E+00 0. -1.
</event>
<event>
 7    1  0.3250765E-011  0.5052887E+02  0.7816164E-02  0.1300439E+00
        -11   -1    0    0    0    0  0.00000000000E+00  0.00000000000E+00  0.45593999997E+02  0.45594000000E+02  0.51100000000E-03 0. -1.
         11   -1    0    0    0    0 -0.00000000000E+00 -0.00000000000E+00 -0.45593999997E+02  0.45594000000E+02  0.51100000000E-03 0.  1.
    9900012    2    1    2    0    0  0.15035452521E+02 -0.26036587443E+02 -0.27371446039E+02  0.50528870934E+02  0.30000033690E+02 0.  0.
         12    1    1    2    0    0 -0.15035452521E+02  0.26036587443E+02  0.27371446039E+02  0.40659129066E+02  0.00000000000E+00 0. -1.
         11    1    3    3    0    0 -0.27422808061E+01 -0.24618850855E+01  0.16752166320E+01  0.40481271249E+01  0.51100000000E-03 0. -1.
        -11    1    3    3    0    0  0.13191718177E+02 -0.19367911799E+02 -0.83631830525E+01  0.24881323657E+02  0.51100000000E-03 0.  1.
        -12    1    3    3    0    0  0.45860151501E+01 -0.42067905581E+01 -0.20683479618E+02  0.21599420152E+02  0.00000000000E+00 0.  1.
</event>
<event>
 7    1  0.3250765E-011  0.5052888E+02  0.7816164E-02  0.1300439E+00
        -11   -1    0    0    0    0  0.00000000000E+00  0.00000000000E+00  0.45593999997E+02  0.45594000000E+02  0.51100000000E-03 0.  1.
         11   -1    0    0    0    0 -0.00000000000E+00 -0.00000000000E+00 -0.45593999997E+02  0.45594000000E+02  0.51100000000E-03 0. -1.
    9900012    2    1    2    0    0 -0.23860097786E+02 -0.13026612758E+02  0.30235195842E+02  0.50528880803E+02  0.30000063688E+02 0.  0.
         12    1    1    2    0    0  0.23860097786E+02  0.13026612758E+02 -0.30235195842E+02  0.40659119197E+02  0.00000000000E+00 0. -1.
         11    1    3    3    0    0  0.35535289961E+01 -0.48013031579E+01 -0.88070280502E+00  0.60378570728E+01  0.51100000000E-03 0. -1.
        -11    1    3    3    0    0 -0.77499727410E+01  0.21805177194E+01  0.14986042975E+02  0.17011708301E+02  0.51100000000E-03 0.  1.
        -12    1    3    3    0    0 -0.19663654041E+02 -0.10405827320E+02  0.16129855672E+02  0.27479315429E+02  0.00000000000E+00 0.  1.
</event>
<event>
 7    1  0.3250765E-011  0.5052885E+02  0.7816164E-02  0.1300439E+00
        -11   -1    0    0    0    0  0.00000000000E+00  0.00000000000E+00  0.45593999997E+02  0.45594000000E+02  0.51100000000E-03 0. -1.
         11   -1    0    0    0    0 -0.00000000000E+00 -0.00000000000E+00 -0.45593999997E+02  0.45594000000E+02  0.51100000000E-03 0.  1.
    9900012    2    1    2    0    0  0.36328699105E+02  0.10076541566E+02 -0.15226801787E+02  0.50528848985E+02  0.29999966975E+02 0.  0.
         12    1    1    2    0    0 -0.36328699105E+02 -0.10076541566E+02  0.15226801787E+02  0.40659151015E+02  0.00000000000E+00 0. -1.
         11    1    3    3    0    0  0.13375121432E+02 -0.85658068366E+01 -0.30455045749E+00  0.15885832409E+02  0.51100000000E-03 0. -1.
        -11    1    3    3    0    0  0.58804731486E+01  0.36986109580E+01  0.86660433984E+00  0.70007635879E+01  0.51100000000E-03 0.  1.
         12    1    3    3    0    0  0.17073104525E+02  0.14943737445E+02 -0.15788855669E+02  0.27642252988E+02  0.00000000000E+00 0. -1.
</event>
<event>
 7    1  0.3250765E-011  0.5052886E+02  0.7816164E-02  0.1300439E+00
        -11   -1    0    0    0    0  0.00000000000E+00  0.00000000000E+00  0.45593999997E+02  0.45594000000E+02  0.51100000000E-03 0. -1.
         11   -1    0    0    0    0 -0.00000000000E+00 -0.00000000000E+00 -0.45593999997E+02  0.45594000000E+02  0.51100000000E-03 0.  1.
    9900012    2    1    2    0    0 -0.11647709726E+02 -0.37380241771E+02 -0.10964219388E+02  0.50528859287E+02  0.29999998289E+02 0.  0.
         12    1    1    2    0    0  0.11647709726E+02  0.37380241771E+02  0.10964219388E+02  0.40659140713E+02  0.00000000000E+00 0. -1.
         11    1    3    3    0    0 -0.12999536212E+02 -0.22511747961E+02  0.33067817235E+01  0.26204990815E+02  0.51100000000E-03 0. -1.
        -11    1    3    3    0    0 -0.51958206216E+01 -0.10024320172E+02 -0.63091848245E+01  0.12934038822E+02  0.51100000000E-03 0.  1.
         12    1    3    3    0    0  0.65476471074E+01 -0.48441736386E+01 -0.79618162865E+01  0.11389829650E+02  0.00000000000E+00 0. -1.
</event>
<event>
 7    1  0.3250765E-011  0.5052886E+02  0.7816164E-02  0.1300439E+00
        -11   -1    0    0    0    0  0.00000000000E+00  0.00000000000E+00  0.45593999997E+02  0.45594000000E+02  0.51100000000E-03 0.  1.
         11   -1    0    0    0    0 -0.00000000000E+00 -0.00000000000E+00 -0.45593999997E+02  0.45594000000E+02  0.51100000000E-03 0. -1.
    9900012    2    1    2    0    0 -0.25218281860E+02  0.98480554819E+01  0.30335123742E+02  0.50528859955E+02  0.30000000318E+02 0.  0.
         12    1    1    2    0    0  0.25218281860E+02 -0.98480554819E+01 -0.30335123742E+02  0.40659140045E+02  0.00000000000E+00 0. -1.
         11    1    3    3    0    0 -0.20298599152E+01 -0.22864387633E+01 -0.19778704607E+01  0.36414427517E+01  0.51100000000E-03 0. -1.
        -11    1    3    3    0    0 -0.19419408545E+02 -0.13349071811E+01  0.22765536116E+02  0.29952713405E+02  0.51100000000E-03 0.  1.
        -12    1    3    3    0    0 -0.37690134001E+01  0.13469401426E+02  0.95474580866E+01  0.16934703797E+02  0.00000000000E+00 0.  1.
</event>
<event>
 7    1  0.3250765E-011  0.5052886E+02  0.7816164E-02  0.1300439E+00
        -11   -1    0    0    0    0  0.00000000000E+00  0.00000000000E+00  0.45593999997E+02  0.45594000000E+02  0.51100000000E-03 0.  1.
         11   -1    0    0    0    0 -0.00000000000E+00 -0.00000000000E+00 -0.45593999997E+02  0.45594000000E+02  0.51100000000E-03 0. -1.
    9900012    2    1    2    0    0 -0.30015006404E+02 -0.24976909539E+02  0.11332216807E+02  0.50528858871E+02  0.29999997025E+02 0.  0.
         12    1    1    2    0    0  0.30015006404E+02  0.24976909539E+02 -0.11332216807E+02  0.40659141129E+02  0.00000000000E+00 0. -1.
         11    1    3    3    0    0 -0.87196896824E+01 -0.71656324638E+01 -0.44548818170E+01  0.12133641211E+02  0.51100000000E-03 0.  1.
        -11    1    3    3    0    0 -0.61304317231E+01  0.39695944029E+01  0.77858810576E+01  0.10675196342E+02  0.51100000000E-03 0. -1.
         12    1    3    3    0    0 -0.15164884999E+02 -0.21780871478E+02  0.80012175661E+01  0.27720021319E+02  0.00000000000E+00 0. -1.
</event>
<event>
 7    1  0.3250765E-011  0.5052886E+02  0.7816164E-02  0.1300439E+00
        -11   -1    0    0    0    0  0.00000000000E+00  0.00000000000E+00  0.45593999997E+02  0.45594000000E+02  0.51100000000E-03 0. -1.
         11   -1    0    0    0    0 -0.00000000000E+00 -0.00000000000E+00 -0.45593999997E+02  0.45594000000E+02  0.51100000000E-03 0.  1.
    9900012    2    1    2    0    0 -0.95953912804E+01  0.22744864208E+02 -0.32307353990E+02  0.50528861993E+02  0.30000006513E+02 0.  0.
         12    1    1    2    0    0  0.95953912804E+01 -0.22744864208E+02  0.32307353990E+02  0.40659138007E+02  0.00000000000E+00 0. -1.
         11    1    3    3    0    0  0.39885472639E+01  0.53092868440E+01 -0.12099270097E+01  0.67498859027E+01  0.51100000000E-03 0. -1.
        -11    1    3    3    0    0 -0.27485266538E+01 -0.50230845284E+01 -0.42003299992E+01  0.71013061693E+01  0.51100000000E-03 0.  1.
        -12    1    3    3    0    0 -0.10835411890E+02  0.22458661892E+02 -0.26897096981E+02  0.36677669921E+02  0.00000000000E+00 0.  1.
</event>
<event>
 7    1  0.3250765E-011  0.5052886E+02  0.7816164E-02  0.1300439E+00
        -11   -1    0    0    0    0  0.00000000000E+00  0.00000000000E+00  0.45593999997E+02  0.45594000000E+02  0.51100000000E-03 0.  1.
         11   -1    0    0    0    0 -0.00000000000E+00 -0.00000000000E+00 -0.45593999997E+02  0.45594000000E+02  0.51100000000E-03 0. -1.
    9900012    2    1    2    0    0 -0.17238639834E+02  0.33535344979E+02  0.15211046816E+02  0.50528855747E+02  0.29999987528E+02 0.  0.
         12    1    1    2    0    0  0.17238639834E+02 -0.33535344979E+02 -0.15211046816E+02  0.40659144253E+02  0.00000000000E+00 0. -1.
         11    1    3    3    0    0 -0.52194143294E+01  0.43344125798E+01 -0.29240747936E+00  0.67907967683E+01  0.51100000000E-03 0. -1.
        -11    1    3    3    0    0 -0.14398855373E+02  0.31454447980E+02  0.18558874863E+02  0.39257370903E+02  0.51100000000E-03 0.  1.
        -12    1    3    3    0    0  0.23796298686E+01 -0.22535155809E+01 -0.30554205678E+01  0.44806880757E+01  0.00000000000E+00 0.  1.
</event>
<event>
 7    1  0.3250765E-011  0.5052886E+02  0.7816164E-02  0.1300439E+00
        -11   -1    0    0    0    0  0.00000000000E+00  0.00000000000E+00  0.45593999997E+02  0.45594000000E+02  0.51100000000E-03 0.  1.
         11   -1    0    0    0    0 -0.00000000000E+00 -0.00000000000E+00 -0.45593999997E+02  0.45594000000E+02  0.51100000000E-03 0. -1.
    9900012    2    1    2    0    0  0.49716585624E+01  0.16611906740E+02  0.36776256499E+02  0.50528857406E+02  0.29999992573E+02 0.  0.
         12    1    1    2    0    0 -0.49716585624E+01 -0.16611906740E+02 -0.36776256499E+02  0.40659142594E+02  0.00000000000E+00 0. -1.
         11    1    3    3    0    0  0.97112766755E+01  0.10018761149E+02  0.83248273848E+01  0.16247683554E+02  0.51100000000E-03 0. -1.
        -11    1    3    3    0    0  0.57876784962E+01  0.22893579596E+01  0.17164151205E+02  0.18257778318E+02  0.51100000000E-03 0.  1.
        -12    1    3    3    0    0 -0.10527296609E+02  0.43037876312E+01  0.11287277909E+02  0.16023395535E+02  0.00000000000E+00 0.  1.
</event>
<event>
 7    1  0.3250765E-011  0.5052886E+02  0.7816164E-02  0.1300439E+00
        -11   -1    0    0    0    0  0.00000000000E+00  0.00000000000E+00  0.45593999997E+02  0.45594000000E+02  0.51100000000E-03 0.  1.
         11   -1    0    0    0    0 -0.00000000000E+00 -0.00000000000E+00 -0.45593999997E+02  0.45594000000E+02  0.51100000000E-03 0. -1.
    9900012    2    1    2    0    0  0.34145466602E+02 -0.20131801898E+02  0.90533453940E+01  0.50528863266E+02  0.30000010385E+02 0.  0.
         12    1    1    2    0    0 -0.34145466602E+02  0.20131801898E+02 -0.90533453940E+01  0.40659136734E+02  0.00000000000E+00 0. -1.
         11    1    3    3    0    0  0.98647864408E+01 -0.89722775148E+01 -0.67822558179E+01  0.14960440153E+02  0.51100000000E-03 0. -1.
        -11    1    3    3    0    0  0.38352878674E+01 -0.61808314921E+01 -0.24655345342E+01  0.76805580370E+01  0.51100000000E-03 0.  1.
        -12    1    3    3    0    0  0.20445392293E+02 -0.49786928909E+01  0.18301135746E+02  0.27887865077E+02  0.00000000000E+00 0.  1.
</event>
<event>
 7    1  0.3250765E-011  0.5052885E+02  0.7816164E-02  0.1300439E+00
        -11   -1    0    0    0    0  0.00000000000E+00  0.00000000000E+00  0.45593999997E+02  0.45594000000E+02  0.51100000000E-03 0. -1.
         11   -1    0    0    0    0 -0.00000000000E+00 -0.00000000000E+00 -0.45593999997E+02  0.45594000000E+02  0.51100000000E-03 0.  1.
    9900012    2    1    2    0    0 -0.19988121701E+02  0.10771285290E+02 -0.33728638224E+02  0.50528848111E+02  0.29999964317E+02 0.  0.
         12    1    1    2    0    0  0.19988121701E+02 -0.10771285290E+02  0.33728638224E+02  0.40659151889E+02  0.00000000000E+00 0. -1.
         11    1    3    3    0    0 -0.75356045250E+00 -0.50762531623E+01 -0.13666443828E+02  0.14598215189E+02  0.51100000000E-03 0. -1.
        -11    1    3    3    0    0  0.10084468676E+01  0.80288296021E+01 -0.59712773371E+01  0.10056600975E+02  0.51100000000E-03 0.  1.
        -12    1    3    3    0    0 -0.20243008116E+02  0.78187088503E+01 -0.14090917059E+02  0.25874031947E+02  0.00000000000E+00 0.  1.
</event>
<event>
 7    1  0.3250765E-011  0.5052889E+02  0.7816164E-02  0.1300439E+00
        -11   -1    0    0    0    0  0.00000000000E+00  0.00000000000E+00  0.45593999997E+02  0.45594000000E+02  0.51100000000E-03 0. -1.
         11   -1    0    0    0    0 -0.00000000000E+00 -0.00000000000E+00 -0.45593999997E+02  0.45594000000E+02  0.51100000000E-03 0.  1.
    9900012    2    1    2    0    0 -0.13376148872E+02  0.13661898757E+02 -0.35883069134E+02  0.50528886793E+02  0.30000081897E+02 0.  0.
         12    1    1    2    0    0  0.13376148872E+02 -0.13661898757E+02  0.35883069134E+02  0.40659113207E+02  0.00000000000E+00 0. -1.
         11    1    3    3    0    0  0.47164804131E+01  0.66091669479E+01 -0.92489371315E+01  0.12307278885E+02  0.51100000000E-03 0. -1.
        -11    1    3    3    0    0 -0.75838861900E+01  0.12480175347E+02 -0.95730897797E+01  0.17461791278E+02  0.51100000000E-03 0.  1.
        -12    1    3    3    0    0 -0.10508743095E+02 -0.54274435381E+01 -0.17061042223E+02  0.20759816630E+02  0.00000000000E+00 0.  1.
</event>
<event>
 7    1  0.3250765E-011  0.5052886E+02  0.7816164E-02  0.1300439E+00
        -11   -1    0    0    0    0  0.00000000000E+00  0.00000000000E+00  0.45593999997E+02  0.45594000000E+02  0.51100000000E-03 0.  1.
         11   -1    0    0    0    0 -0.00000000000E+00 -0.00000000000E+00 -0.45593999997E+02  0.45594000000E+02  0.51100000000E-03 0. -1.
    9900012    2    1    2    0    0  0.34102174646E+02  0.22140106300E+02  0.15201565445E+00  0.50528859191E+02  0.29999997996E+02 0.  0.
         12    1    1    2    0    0 -0.34102174646E+02 -0.22140106300E+02 -0.15201565445E+00  0.40659140809E+02  0.00000000000E+00 0. -1.
         11    1    3    3    0    0  0.94490464058E+01  0.20994718981E+01 -0.54346326959E+01  0.11100787946E+02  0.51100000000E-03 0. -1.
        -11    1    3    3    0    0  0.15295752132E+02  0.23522197927E+01 -0.56540512273E+01  0.16476081657E+02  0.51100000000E-03 0.  1.
         12    1    3    3    0    0  0.93573761090E+01  0.17688414609E+02  0.11240699578E+02  0.22951989588E+02  0.00000000000E+00 0. -1.
</event>
<event>
 7    1  0.3250765E-011  0.5052886E+02  0.7816164E-02  0.1300439E+00
        -11   -1    0    0    0    0  0.00000000000E+00  0.00000000000E+00  0.45593999997E+02  0.45594000000E+02  0.51100000000E-03 0.  1.
         11   -1    0    0    0    0 -0.00000000000E+00 -0.00000000000E+00 -0.45593999997E+02  0.45594000000E+02  0.51100000000E-03 0. -1.
    9900012    2    1    2    0    0  0.27525017260E+02  0.13485994829E+02  0.26714541634E+02  0.50528863679E+02  0.30000011638E+02 0.  0.
         12    1    1    2    0    0 -0.27525017260E+02 -0.13485994829E+02 -0.26714541634E+02  0.40659136321E+02  0.00000000000E+00 0. -1.
         11    1    3    3    0    0  0.19635335064E+02  0.55014145089E+01  0.95340992893E+01  0.22510241984E+02  0.51100000000E-03 0. -1.
        -11    1    3    3    0    0  0.10387369735E+02 -0.10016623178E+01  0.15274545772E+02  0.18498987167E+02  0.51100000000E-03 0.  1.
        -12    1    3    3    0    0 -0.24976875392E+01  0.89862426382E+01  0.19058965730E+01  0.95196345278E+01  0.00000000000E+00 0.  1.
</event>
<event>
 7    1  0.3250765E-011  0.5052886E+02  0.7816164E-02  0.1300439E+00
        -11   -1    0    0    0    0  0.00000000000E+00  0.00000000000E+00  0.45593999997E+02  0.45594000000E+02  0.51100000000E-03 0.  1.
         11   -1    0    0    0    0 -0.00000000000E+00 -0.00000000000E+00 -0.45593999997E+02  0.45594000000E+02  0.51100000000E-03 0. -1.
    9900012    2    1    2    0    0 -0.24447161215E+01 -0.20914702024E+02  0.34781661502E+02  0.50528863579E+02  0.30000011335E+02 0.  0.
         12    1    1    2    0    0  0.24447161215E+01  0.20914702024E+02 -0.34781661502E+02  0.40659136421E+02  0.00000000000E+00 0. -1.
         11    1    3    3    0    0 -0.67541719100E+00 -0.20532206619E+02  0.22910051560E+02  0.30771710381E+02  0.51100000000E-03 0. -1.
        -11    1    3    3    0    0 -0.98717743732E-01 -0.25870363835E+01  0.15206009790E+02  0.15424825329E+02  0.51100000000E-03 0.  1.
         12    1    3    3    0    0 -0.16705811868E+01  0.22045409788E+01 -0.33343998472E+01  0.43323278696E+01  0.00000000000E+00 0. -1.
</event>
<event>
 7    1  0.3250765E-011  0.5052886E+02  0.7816164E-02  0.1300439E+00
        -11   -1    0    0    0    0  0.00000000000E+00  0.00000000000E+00  0.45593999997E+02  0.45594000000E+02  0.51100000000E-03 0.  1.
         11   -1    0    0    0    0 -0.00000000000E+00 -0.00000000000E+00 -0.45593999997E+02  0.45594000000E+02  0.51100000000E-03 0. -1.
    9900012    2    1    2    0    0  0.13541751034E+02  0.36812101285E+02 -0.10707743543E+02  0.50528860881E+02  0.30000003135E+02 0.  0.
         12    1    1    2    0    0 -0.13541751034E+02 -0.36812101285E+02  0.10707743543E+02  0.40659139119E+02  0.00000000000E+00 0. -1.
         11    1    3    3    0    0 -0.12570865577E+01  0.85330514744E+00 -0.17161121201E+01  0.22920378178E+01  0.51100000000E-03 0. -1.
        -11    1    3    3    0    0  0.28472379743E+01  0.30467614632E+02  0.25926546011E+01  0.30710001035E+02  0.51100000000E-03 0.  1.
        -12    1    3    3    0    0  0.11951599617E+02  0.54911815061E+01 -0.11584286024E+02  0.17526822029E+02  0.00000000000E+00 0.  1.
</event>
<event>
 7    1  0.3250765E-011  0.5052886E+02  0.7816164E-02  0.1300439E+00
        -11   -1    0    0    0    0  0.00000000000E+00  0.00000000000E+00  0.45593999997E+02  0.45594000000E+02  0.51100000000E-03 0. -1.
         11   -1    0    0    0    0 -0.00000000000E+00 -0.00000000000E+00 -0.45593999997E+02  0.45594000000E+02  0.51100000000E-03 0.  1.
    9900012    2    1    2    0    0 -0.14069640610E+02 -0.35611594149E+02 -0.13675715728E+02  0.50528860493E+02  0.30000001956E+02 0.  0.
         12    1    1    2    0    0  0.14069640610E+02  0.35611594149E+02  0.13675715728E+02  0.40659139507E+02  0.00000000000E+00 0. -1.
         11    1    3    3    0    0 -0.20713094490E+01 -0.35946400037E+01 -0.76817381744E+01  0.87304559577E+01  0.51100000000E-03 0. -1.
        -11    1    3    3    0    0 -0.39293505877E+01 -0.17582225807E+01 -0.93594519406E+01  0.10301965035E+02  0.51100000000E-03 0.  1.
         12    1    3    3    0    0 -0.80689805732E+01 -0.30258731565E+02  0.33654743869E+01  0.31496439501E+02  0.00000000000E+00 0. -1.
</event>
<event>
 7    1  0.3250765E-011  0.5052885E+02  0.7816164E-02  0.1300439E+00
        -11   -1    0    0    0    0  0.00000000000E+00  0.00000000000E+00  0.45593999997E+02  0.45594000000E+02  0.51100000000E-03 0.  1.
         11   -1    0    0    0    0 -0.00000000000E+00 -0.00000000000E+00 -0.45593999997E+02  0.45594000000E+02  0.51100000000E-03 0. -1.
    9900012    2    1    2    0    0 -0.37618285320E+02 -0.11939126299E+02 -0.97718069899E+01  0.50528851718E+02  0.29999975282E+02 0.  0.
         12    1    1    2    0    0  0.37618285320E+02  0.11939126299E+02  0.97718069899E+01  0.40659148282E+02  0.00000000000E+00 0. -1.
         11    1    3    3    0    0  0.19509697249E+01 -0.78209883476E+01 -0.20811683535E+00  0.80633401565E+01  0.51100000000E-03 0. -1.
        -11    1    3    3    0    0 -0.50453805233E+01  0.27684045845E+01 -0.35210057247E+01  0.67466591838E+01  0.51100000000E-03 0.  1.
        -12    1    3    3    0    0 -0.34523874521E+02 -0.68865425359E+01 -0.60426844298E+01  0.35718852378E+02  0.00000000000E+00 0.  1.
</event>
<event>
 7    1  0.3250765E-011  0.5052886E+02  0.7816164E-02  0.1300439E+00
        -11   -1    0    0    0    0  0.00000000000E+00  0.00000000000E+00  0.45593999997E+02  0.45594000000E+02  0.51100000000E-03 0.  1.
         11   -1    0    0    0    0 -0.00000000000E+00 -0.00000000000E+00 -0.45593999997E+02  0.45594000000E+02  0.51100000000E-03 0. -1.
    9900012    2    1    2    0    0 -0.38525849014E+02  0.73408903024E+01  0.10725478695E+02  0.50528860733E+02  0.30000002684E+02 0.  0.
         12    1    1    2    0    0  0.38525849014E+02 -0.73408903024E+01 -0.10725478695E+02  0.40659139267E+02  0.00000000000E+00 0. -1.
         11    1    3    3    0    0 -0.12726016516E+02  0.47698663238E+01 -0.59432120501E+01  0.14833236021E+02  0.51100000000E-03 0. -1.
        -11    1    3    3    0    0  0.59497424510E+00  0.35944086598E+01  0.63819244878E+01  0.73486548697E+01  0.51100000000E-03 0.  1.
        -12    1    3    3    0    0 -0.26394806743E+02 -0.10233846812E+01  0.10286766258E+02  0.28346969842E+02  0.00000000000E+00 0.  1.
</event>
<event>
 7    1  0.3250765E-011  0.5052885E+02  0.7816164E-02  0.1300439E+00
        -11   -1    0    0    0    0  0.00000000000E+00  0.00000000000E+00  0.45593999997E+02  0.45594000000E+02  0.51100000000E-03 0.  1.
         11   -1    0    0    0    0 -0.00000000000E+00 -0.00000000000E+00 -0.45593999997E+02  0.45594000000E+02  0.51100000000E-03 0. -1.
    9900012    2    1    2    0    0  0.37021680193E+02  0.83445710154E+01 -0.14592117797E+02  0.50528848859E+02  0.29999966592E+02 0.  0.
         12    1    1    2    0    0 -0.37021680193E+02 -0.83445710154E+01  0.14592117797E+02  0.40659151141E+02  0.00000000000E+00 0. -1.
         11    1    3    3    0    0  0.10473230988E+02  0.76767308279E+01  0.21155551466E+01  0.13156608126E+02  0.51100000000E-03 0. -1.
        -11    1    3    3    0    0  0.25517398161E+02  0.42457486754E+01 -0.67400685929E+01  0.26731863302E+02  0.51100000000E-03 0.  1.
         12    1    3    3    0    0  0.10310510441E+01 -0.35779084879E+01 -0.99676043503E+01  0.10640377432E+02  0.00000000000E+00 0. -1.
</event>
<event>
 7    1  0.3250765E-011  0.5052885E+02  0.7816164E-02  0.1300439E+00
        -11   -1    0    0    0    0  0.00000000000E+00  0.00000000000E+00  0.45593999997E+02  0.45594000000E+02  0.51100000000E-03 0.  1.
         11   -1    0    0    0    0 -0.00000000000E+00 -0.00000000000E+00 -0.45593999997E+02  0.45594000000E+02  0.51100000000E-03 0. -1.
    9900012    2    1    2    0    0 -0.18174657791E+00 -0.36765946684E+02  0.17360825287E+02  0.50528854386E+02  0.29999983392E+02 0.  0.
         12    1    1    2    0    0  0.18174657791E+00  0.36765946684E+02 -0.17360825287E+02  0.40659145614E+02  0.00000000000E+00 0. -1.
         11    1    3    3    0    0  0.38972426204E+01 -0.50724015801E+01  0.36932474042E+01  0.73863275369E+01  0.51100000000E-03 0. -1.
        -11    1    3    3    0    0  0.27079579498E+01 -0.18460263997E+02 -0.49603626611E+01  0.19305946781E+02  0.51100000000E-03 0.  1.
        -12    1    3    3    0    0 -0.67869471481E+01 -0.13233281107E+02  0.18627940544E+02  0.23836580068E+02  0.00000000000E+00 0.  1.
</event>
<event>
 7    1  0.3250765E-011  0.5052886E+02  0.7816164E-02  0.1300439E+00
        -11   -1    0    0    0    0  0.00000000000E+00  0.00000000000E+00  0.45593999997E+02  0.45594000000E+02  0.51100000000E-03 0.  1.
         11   -1    0    0    0    0 -0.00000000000E+00 -0.00000000000E+00 -0.45593999997E+02  0.45594000000E+02  0.51100000000E-03 0. -1.
    9900012    2    1    2    0    0 -0.11151932897E+02 -0.36416672062E+02  0.14234691407E+02  0.50528855262E+02  0.29999986054E+02 0.  0.
         12    1    1    2    0    0  0.11151932897E+02  0.36416672062E+02 -0.14234691407E+02  0.40659144738E+02  0.00000000000E+00 0. -1.
         11    1    3    3    0    0  0.40894524389E+01 -0.34099806473E+01  0.42928160580E+01  0.68395803405E+01  0.51100000000E-03 0.  1.
        -11    1    3    3    0    0 -0.99626602886E+00 -0.13791309155E+02 -0.58637714741E+01  0.15019206715E+02  0.51100000000E-03 0. -1.
        -12    1    3    3    0    0 -0.14245119307E+02 -0.19215382260E+02  0.15805646823E+02  0.28670068206E+02  0.00000000000E+00 0.  1.
</event>
<event>
 7    1  0.3250765E-011  0.5052887E+02  0.7816164E-02  0.1300439E+00
        -11   -1    0    0    0    0  0.00000000000E+00  0.00000000000E+00  0.45593999997E+02  0.45594000000E+02  0.51100000000E-03 0.  1.
         11   -1    0    0    0    0 -0.00000000000E+00 -0.00000000000E+00 -0.45593999997E+02  0.45594000000E+02  0.51100000000E-03 0. -1.
    9900012    2    1    2    0    0  0.12276449587E+02  0.37350731108E+02  0.10362269692E+02  0.50528868653E+02  0.30000026757E+02 0.  0.
         12    1    1    2    0    0 -0.12276449587E+02 -0.37350731108E+02 -0.10362269692E+02  0.40659131347E+02  0.00000000000E+00 0. -1.
         11    1    3    3    0    0  0.12066792357E+01  0.28209332305E+02  0.22165090243E+00  0.28235998889E+02  0.51100000000E-03 0.  1.
        -11    1    3    3    0    0  0.59108373362E+01  0.12405578306E+02  0.67607076270E+01  0.15314814364E+02  0.51100000000E-03 0. -1.
         12    1    3    3    0    0  0.51589330152E+01 -0.32641795039E+01  0.33799111629E+01  0.69780553995E+01  0.00000000000E+00 0. -1.
</event>
<event>
 7    1  0.3250765E-011  0.5052886E+02  0.7816164E-02  0.1300439E+00
        -11   -1    0    0    0    0  0.00000000000E+00  0.00000000000E+00  0.45593999997E+02  0.45594000000E+02  0.51100000000E-03 0.  1.
         11   -1    0    0    0    0 -0.00000000000E+00 -0.00000000000E+00 -0.45593999997E+02  0.45594000000E+02  0.51100000000E-03 0. -1.
    9900012    2    1    2    0    0  0.61150168432E+01  0.25196995769E+00  0.40195877450E+02  0.50528862235E+02  0.30000007248E+02 0.  0.
         12    1    1    2    0    0 -0.61150168432E+01 -0.25196995769E+00 -0.40195877450E+02  0.40659137765E+02  0.00000000000E+00 0. -1.
         11    1    3    3    0    0  0.15399450429E+02  0.50439086586E+01  0.27699472950E+02  0.32091196457E+02  0.51100000000E-03 0. -1.
        -11    1    3    3    0    0  0.41666023111E+00 -0.32113703057E+01  0.54656043114E+01  0.63528997897E+01  0.51100000000E-03 0.  1.
         12    1    3    3    0    0 -0.97010938166E+01 -0.15805683952E+01  0.70308001882E+01  0.12084765988E+02  0.00000000000E+00 0. -1.
</event>
<event>
 7    1  0.3250765E-011  0.5052887E+02  0.7816164E-02  0.1300439E+00
        -11   -1    0    0    0    0  0.00000000000E+00  0.00000000000E+00  0.45593999997E+02  0.45594000000E+02  0.51100000000E-03 0.  1.
         11   -1    0    0    0    0 -0.00000000000E+00 -0.00000000000E+00 -0.45593999997E+02  0.45594000000E+02  0.51100000000E-03 0. -1.
    9900012    2    1    2    0    0 -0.16848466486E+02  0.30550816627E+02  0.20879209924E+02  0.50528872777E+02  0.30000039292E+02 0.  0.
         12    1    1    2    0    0  0.16848466486E+02 -0.30550816627E+02 -0.20879209924E+02  0.40659127223E+02  0.00000000000E+00 0. -1.
         11    1    3    3    0    0 -0.11766825380E+01  0.19569016716E+02  0.87423436441E+01  0.21465310845E+02  0.51100000000E-03 0.  1.
        -11    1    3    3    0    0  0.12501380241E+01  0.36695607061E+01  0.97287989499E+01  0.10472728877E+02  0.51100000000E-03 0. -1.
        -12    1    3    3    0    0 -0.16921921972E+02  0.73122392058E+01  0.24080673296E+01  0.18590833055E+02  0.00000000000E+00 0.  1.
</event>
<event>
 7    1  0.3250765E-011  0.5052886E+02  0.7816164E-02  0.1300439E+00
        -11   -1    0    0    0    0  0.00000000000E+00  0.00000000000E+00  0.45593999997E+02  0.45594000000E+02  0.51100000000E-03 0. -1.
         11   -1    0    0    0    0 -0.00000000000E+00 -0.00000000000E+00 -0.45593999997E+02  0.45594000000E+02  0.51100000000E-03 0.  1.
    9900012    2    1    2    0    0  0.32246108848E+02  0.16304483015E+02  0.18641834854E+02  0.50528859466E+02  0.29999998834E+02 0.  0.
         12    1    1    2    0    0 -0.32246108848E+02 -0.16304483015E+02 -0.18641834854E+02  0.40659140534E+02  0.00000000000E+00 0. -1.
         11    1    3    3    0    0  0.23164293586E+01 -0.33812064593E+01  0.19200516749E+01  0.45260358803E+01  0.51100000000E-03 0. -1.
        -11    1    3    3    0    0  0.22426600183E+02  0.39964684032E+01  0.17296461729E+02  0.28602303125E+02  0.51100000000E-03 0.  1.
         12    1    3    3    0    0  0.75030793069E+01  0.15689221071E+02 -0.57467855005E+00  0.17400520461E+02  0.00000000000E+00 0. -1.
</event>
<event>
 7    1  0.3250765E-011  0.5052887E+02  0.7816164E-02  0.1300439E+00
        -11   -1    0    0    0    0  0.00000000000E+00  0.00000000000E+00  0.45593999997E+02  0.45594000000E+02  0.51100000000E-03 0.  1.
         11   -1    0    0    0    0 -0.00000000000E+00 -0.00000000000E+00 -0.45593999997E+02  0.45594000000E+02  0.51100000000E-03 0. -1.
    9900012    2    1    2    0    0 -0.77649221841E+01  0.39519983263E+02  0.55715204974E+01  0.50528868993E+02  0.30000027791E+02 0.  0.
         12    1    1    2    0    0  0.77649221841E+01 -0.39519983263E+02 -0.55715204974E+01  0.40659131007E+02  0.00000000000E+00 0. -1.
         11    1    3    3    0    0 -0.71946272647E+01  0.63586567250E+01  0.66928696183E+01  0.11704259089E+02  0.51100000000E-03 0. -1.
        -11    1    3    3    0    0 -0.95999149283E+01  0.23452295434E+02  0.11750900496E+01  0.25368274767E+02  0.51100000000E-03 0.  1.
         12    1    3    3    0    0  0.90296200088E+01  0.97090311035E+01 -0.22964391706E+01  0.13456335138E+02  0.00000000000E+00 0. -1.
</event>
<event>
 7    1  0.3250765E-011  0.5052885E+02  0.7816164E-02  0.1300439E+00
        -11   -1    0    0    0    0  0.00000000000E+00  0.00000000000E+00  0.45593999997E+02  0.45594000000E+02  0.51100000000E-03 0. -1.
         11   -1    0    0    0    0 -0.00000000000E+00 -0.00000000000E+00 -0.45593999997E+02  0.45594000000E+02  0.51100000000E-03 0.  1.
    9900012    2    1    2    0    0 -0.15426201521E+02  0.27469615300E+02 -0.25702502296E+02  0.50528854874E+02  0.29999984874E+02 0.  0.
         12    1    1    2    0    0  0.15426201521E+02 -0.27469615300E+02  0.25702502296E+02  0.40659145126E+02  0.00000000000E+00 0. -1.
         11    1    3    3    0    0 -0.73398653203E+01 -0.43405417227E+01 -0.10984954308E+02  0.13906226907E+02  0.51100000000E-03 0. -1.
        -11    1    3    3    0    0 -0.37934794888E+01  0.57838904650E+01 -0.13367246455E+01  0.70449065701E+01  0.51100000000E-03 0.  1.
         12    1    3    3    0    0 -0.42928567124E+01  0.26026266558E+02 -0.13380823343E+02  0.29577721397E+02  0.00000000000E+00 0. -1.
</event>
<event>
 7    1  0.3250765E-011  0.5052885E+02  0.7816164E-02  0.1300439E+00
        -11   -1    0    0    0    0  0.00000000000E+00  0.00000000000E+00  0.45593999997E+02  0.45594000000E+02  0.51100000000E-03 0.  1.
         11   -1    0    0    0    0 -0.00000000000E+00 -0.00000000000E+00 -0.45593999997E+02  0.45594000000E+02  0.51100000000E-03 0. -1.
    9900012    2    1    2    0    0  0.50613058718E+01 -0.36167543723E+02  0.17873403140E+02  0.50528848805E+02  0.29999966429E+02 0.  0.
         12    1    1    2    0    0 -0.50613058718E+01  0.36167543723E+02 -0.17873403140E+02  0.40659151195E+02  0.00000000000E+00 0. -1.
         11    1    3    3    0    0  0.29255898692E+01  0.99263036859E+00  0.44538558206E+01  0.54204449137E+01  0.51100000000E-03 0. -1.
        -11    1    3    3    0    0  0.11803535798E+02 -0.18122669562E+02  0.53219009215E+01  0.22272791452E+02  0.51100000000E-03 0.  1.
         12    1    3    3    0    0 -0.96678197953E+01 -0.19037504530E+02  0.80976463976E+01  0.22835612440E+02  0.00000000000E+00 0. -1.
</event>
<event>
 7    1  0.3250765E-011  0.5052886E+02  0.7816164E-02  0.1300439E+00
        -11   -1    0    0    0    0  0.00000000000E+00  0.00000000000E+00  0.45593999997E+02  0.45594000000E+02  0.51100000000E-03 0.  1.
         11   -1    0    0    0    0 -0.00000000000E+00 -0.00000000000E+00 -0.45593999997E+02  0.45594000000E+02  0.51100000000E-03 0. -1.
    9900012    2    1    2    0    0 -0.21214094349E+02 -0.14711365413E+02  0.31411834932E+02  0.50528862710E+02  0.30000008695E+02 0.  0.
         12    1    1    2    0    0  0.21214094349E+02  0.14711365413E+02 -0.31411834932E+02  0.40659137290E+02  0.00000000000E+00 0. -1.
         11    1    3    3    0    0 -0.19974367536E+01 -0.45536340095E+01 -0.30207767206E+01  0.58181121108E+01  0.51100000000E-03 0. -1.
        -11    1    3    3    0    0 -0.49338398933E+01 -0.12977394142E+02  0.15149271384E+02  0.20548867573E+02  0.51100000000E-03 0.  1.
         12    1    3    3    0    0 -0.14282817702E+02  0.28196627392E+01  0.19283340269E+02  0.24161883027E+02  0.00000000000E+00 0. -1.
</event>
<event>
 7    1  0.3250765E-011  0.5052886E+02  0.7816164E-02  0.1300439E+00
        -11   -1    0    0    0    0  0.00000000000E+00  0.00000000000E+00  0.45593999997E+02  0.45594000000E+02  0.51100000000E-03 0. -1.
         11   -1    0    0    0    0 -0.00000000000E+00 -0.00000000000E+00 -0.45593999997E+02  0.45594000000E+02  0.51100000000E-03 0.  1.
    9900012    2    1    2    0    0  0.29137537354E+02  0.26420625467E+02 -0.10301450102E+02  0.50528863175E+02  0.30000010108E+02 0.  0.
         12    1    1    2    0    0 -0.29137537354E+02 -0.26420625467E+02  0.10301450102E+02  0.40659136825E+02  0.00000000000E+00 0. -1.
         11    1    3    3    0    0 -0.25806899039E+01 -0.34609634908E+01 -0.24252125501E+01  0.49517557330E+01  0.51100000000E-03 0. -1.
        -11    1    3    3    0    0  0.14351515866E+02  0.18674186937E+02 -0.81030487402E+01  0.24906839714E+02  0.51100000000E-03 0.  1.
        -12    1    3    3    0    0  0.17366711392E+02  0.11207402020E+02  0.22681118876E+00  0.20670267728E+02  0.00000000000E+00 0.  1.
</event>
<event>
 7    1  0.3250765E-011  0.5052891E+02  0.7816164E-02  0.1300439E+00
        -11   -1    0    0    0    0  0.00000000000E+00  0.00000000000E+00  0.45593999997E+02  0.45594000000E+02  0.51100000000E-03 0.  1.
         11   -1    0    0    0    0 -0.00000000000E+00 -0.00000000000E+00 -0.45593999997E+02  0.45594000000E+02  0.51100000000E-03 0. -1.
    9900012    2    1    2    0    0 -0.16884599897E+02  0.93800494494E+00  0.36975556921E+02  0.50528912743E+02  0.30000160772E+02 0.  0.
         12    1    1    2    0    0  0.16884599897E+02 -0.93800494494E+00 -0.36975556921E+02  0.40659087257E+02  0.00000000000E+00 0. -1.
         11    1    3    3    0    0 -0.14790758840E+02  0.46328346502E+01  0.33723871289E+02  0.37115080478E+02  0.51100000000E-03 0. -1.
        -11    1    3    3    0    0 -0.35556868917E+01  0.18314239377E+01  0.58887134642E+01  0.71185651248E+01  0.51100000000E-03 0.  1.
         12    1    3    3    0    0  0.14618458354E+01 -0.55262536430E+01 -0.26370278315E+01  0.62952671394E+01  0.00000000000E+00 0. -1.
</event>
<event>
 7    1  0.3250765E-011  0.5052886E+02  0.7816164E-02  0.1300439E+00
        -11   -1    0    0    0    0  0.00000000000E+00  0.00000000000E+00  0.45593999997E+02  0.45594000000E+02  0.51100000000E-03 0.  1.
         11   -1    0    0    0    0 -0.00000000000E+00 -0.00000000000E+00 -0.45593999997E+02  0.45594000000E+02  0.51100000000E-03 0. -1.
    9900012    2    1    2    0    0 -0.63932888614E+00 -0.21328346915E+02  0.34610089666E+02  0.50528862894E+02  0.30000009252E+02 0.  0.
         12    1    1    2    0    0  0.63932888614E+00  0.21328346915E+02 -0.34610089666E+02  0.40659137106E+02  0.00000000000E+00 0. -1.
         11    1    3    3    0    0 -0.54109915167E+01 -0.98758901799E+00  0.82313915129E+01  0.98999983718E+01  0.51100000000E-03 0.  1.
        -11    1    3    3    0    0  0.99583100216E+01 -0.10674855535E+02  0.31418455274E+01  0.14932905704E+02  0.51100000000E-03 0. -1.
         12    1    3    3    0    0 -0.51866473910E+01 -0.96659023619E+01  0.23236852626E+02  0.25695958818E+02  0.00000000000E+00 0. -1.
</event>
<event>
 7    1  0.3250765E-011  0.5052885E+02  0.7816164E-02  0.1300439E+00
        -11   -1    0    0    0    0  0.00000000000E+00  0.00000000000E+00  0.45593999997E+02  0.45594000000E+02  0.51100000000E-03 0. -1.
         11   -1    0    0    0    0 -0.00000000000E+00 -0.00000000000E+00 -0.45593999997E+02  0.45594000000E+02  0.51100000000E-03 0.  1.
    9900012    2    1    2    0    0  0.39268244620E+02 -0.18530901073E+01  0.10379682785E+02  0.50528846133E+02  0.29999958306E+02 0.  0.
         12    1    1    2    0    0 -0.39268244620E+02  0.18530901073E+01 -0.10379682785E+02  0.40659153867E+02  0.00000000000E+00 0. -1.
         11    1    3    3    0    0  0.13878108447E+02 -0.76809499734E+01  0.97688982245E+01  0.18628748196E+02  0.51100000000E-03 0. -1.
        -11    1    3    3    0    0  0.14720392384E+02  0.46598676385E+01  0.93570685523E+01  0.18054336058E+02  0.51100000000E-03 0.  1.
         12    1    3    3    0    0  0.10669743789E+02  0.11679922275E+01 -0.87462839914E+01  0.13845761879E+02  0.00000000000E+00 0. -1.
</event>
<event>
 7    1  0.3250765E-011  0.5052885E+02  0.7816164E-02  0.1300439E+00
        -11   -1    0    0    0    0  0.00000000000E+00  0.00000000000E+00  0.45593999997E+02  0.45594000000E+02  0.51100000000E-03 0.  1.
         11   -1    0    0    0    0 -0.00000000000E+00 -0.00000000000E+00 -0.45593999997E+02  0.45594000000E+02  0.51100000000E-03 0. -1.
    9900012    2    1    2    0    0 -0.27742685977E+01 -0.23581383568E+02  0.33005888301E+02  0.50528845069E+02  0.29999955071E+02 0.  0.
         12    1    1    2    0    0  0.27742685977E+01  0.23581383568E+02 -0.33005888301E+02  0.40659154931E+02  0.00000000000E+00 0. -1.
         11    1    3    3    0    0 -0.13670353883E+02 -0.10854066490E+02  0.16420037851E+02  0.23964702751E+02  0.51100000000E-03 0. -1.
        -11    1    3    3    0    0 -0.24006797258E+01 -0.32528230229E+01  0.14335031321E+01  0.42894116444E+01  0.51100000000E-03 0.  1.
        -12    1    3    3    0    0  0.13296765011E+02 -0.94744940549E+01  0.15152347318E+02  0.22274730674E+02  0.00000000000E+00 0.  1.
</event>
<event>
 7    1  0.3250765E-011  0.5052889E+02  0.7816164E-02  0.1300439E+00
        -11   -1    0    0    0    0  0.00000000000E+00  0.00000000000E+00  0.45593999997E+02  0.45594000000E+02  0.51100000000E-03 0.  1.
         11   -1    0    0    0    0 -0.00000000000E+00 -0.00000000000E+00 -0.45593999997E+02  0.45594000000E+02  0.51100000000E-03 0. -1.
    9900012    2    1    2    0    0 -0.11325720252E+02 -0.25296468357E+02  0.29748610458E+02  0.50528891860E+02  0.30000097298E+02 0.  0.
         12    1    1    2    0    0  0.11325720252E+02  0.25296468357E+02 -0.29748610458E+02  0.40659108140E+02  0.00000000000E+00 0. -1.
         11    1    3    3    0    0  0.50967842502E+01 -0.12710339898E+01  0.41801610706E+01  0.67131575234E+01  0.51100000000E-03 0. -1.
        -11    1    3    3    0    0 -0.10524460007E+01 -0.15163149701E+02  0.20199019597E+02  0.25279025780E+02  0.51100000000E-03 0.  1.
         12    1    3    3    0    0 -0.15370058502E+02 -0.88622846655E+01  0.53694297904E+01  0.18536708556E+02  0.00000000000E+00 0. -1.
</event>
<event>
 7    1  0.3250765E-011  0.5052886E+02  0.7816164E-02  0.1300439E+00
        -11   -1    0    0    0    0  0.00000000000E+00  0.00000000000E+00  0.45593999997E+02  0.45594000000E+02  0.51100000000E-03 0. -1.
         11   -1    0    0    0    0 -0.00000000000E+00 -0.00000000000E+00 -0.45593999997E+02  0.45594000000E+02  0.51100000000E-03 0.  1.
    9900012    2    1    2    0    0  0.30171722705E+02 -0.15263007920E+02 -0.22580382261E+02  0.50528856812E+02  0.29999990766E+02 0.  0.
         12    1    1    2    0    0 -0.30171722705E+02  0.15263007920E+02  0.22580382261E+02  0.40659143188E+02  0.00000000000E+00 0. -1.
         11    1    3    3    0    0  0.18424820167E+02 -0.74733634693E+01 -0.12067185579E+02  0.23258162605E+02  0.51100000000E-03 0. -1.
        -11    1    3    3    0    0  0.14530901620E+02 -0.47237856086E+01  0.72207775699E+00  0.15296491392E+02  0.51100000000E-03 0.  1.
         12    1    3    3    0    0 -0.27839990816E+01 -0.30658588420E+01 -0.11235274439E+02  0.11974202815E+02  0.00000000000E+00 0. -1.
</event>
<event>
 7    1  0.3250765E-011  0.5052884E+02  0.7816164E-02  0.1300439E+00
        -11   -1    0    0    0    0  0.00000000000E+00  0.00000000000E+00  0.45593999997E+02  0.45594000000E+02  0.51100000000E-03 0.  1.
         11   -1    0    0    0    0 -0.00000000000E+00 -0.00000000000E+00 -0.45593999997E+02  0.45594000000E+02  0.51100000000E-03 0. -1.
    9900012    2    1    2    0    0  0.40244210439E+02 -0.34540073274E+01  0.46519104249E+01  0.50528844683E+02  0.29999953899E+02 0.  0.
         12    1    1    2    0    0 -0.40244210439E+02  0.34540073274E+01 -0.46519104249E+01  0.40659155317E+02  0.00000000000E+00 0. -1.
         11    1    3    3    0    0  0.88703676096E+00  0.70758474034E+01 -0.40510364354E+01  0.82015454126E+01  0.51100000000E-03 0. -1.
        -11    1    3    3    0    0  0.10065659031E+02  0.57876482175E+00  0.16578006396E+01  0.10217669190E+02  0.51100000000E-03 0.  1.
        -12    1    3    3    0    0  0.29291514646E+02 -0.11108619553E+02  0.70451462207E+01  0.32109630081E+02  0.00000000000E+00 0.  1.
</event>
<event>
 7    1  0.3250765E-011  0.5052884E+02  0.7816164E-02  0.1300439E+00
        -11   -1    0    0    0    0  0.00000000000E+00  0.00000000000E+00  0.45593999997E+02  0.45594000000E+02  0.51100000000E-03 0. -1.
         11   -1    0    0    0    0 -0.00000000000E+00 -0.00000000000E+00 -0.45593999997E+02  0.45594000000E+02  0.51100000000E-03 0.  1.
    9900012    2    1    2    0    0 -0.36175773664E+02  0.15102890798E+02 -0.10788104868E+02  0.50528842147E+02  0.29999946191E+02 0.  0.
         12    1    1    2    0    0  0.36175773664E+02 -0.15102890798E+02  0.10788104868E+02  0.40659157853E+02  0.00000000000E+00 0. -1.
         11    1    3    3    0    0 -0.58963356835E+01  0.17274174067E+01  0.30433363816E+01  0.68565765497E+01  0.51100000000E-03 0. -1.
        -11    1    3    3    0    0 -0.19054680994E+01 -0.55593146531E+01  0.18046756949E+01  0.61476534316E+01  0.51100000000E-03 0.  1.
         12    1    3    3    0    0 -0.28373969881E+02  0.18934788044E+02 -0.15636116944E+02  0.37524612166E+02  0.00000000000E+00 0. -1.
</event>
<event>
 7    1  0.3250765E-011  0.5052885E+02  0.7816164E-02  0.1300439E+00
        -11   -1    0    0    0    0  0.00000000000E+00  0.00000000000E+00  0.45593999997E+02  0.45594000000E+02  0.51100000000E-03 0. -1.
         11   -1    0    0    0    0 -0.00000000000E+00 -0.00000000000E+00 -0.45593999997E+02  0.45594000000E+02  0.51100000000E-03 0.  1.
    9900012    2    1    2    0    0 -0.33094507207E+02  0.20293234059E+02 -0.12087362292E+02  0.50528854866E+02  0.29999984852E+02 0.  0.
         12    1    1    2    0    0  0.33094507207E+02 -0.20293234059E+02  0.12087362292E+02  0.40659145134E+02  0.00000000000E+00 0. -1.
         11    1    3    3    0    0 -0.24178180466E+01 -0.87011667856E+00 -0.58002301143E+01  0.63439433147E+01  0.51100000000E-03 0. -1.
        -11    1    3    3    0    0 -0.18978145317E+02  0.16254525399E+02 -0.14673001688E+02  0.28977173334E+02  0.51100000000E-03 0.  1.
        -12    1    3    3    0    0 -0.11698543843E+02  0.49088253385E+01  0.83858695108E+01  0.15207738218E+02  0.00000000000E+00 0.  1.
</event>
<event>
 7    1  0.3250765E-011  0.5052887E+02  0.7816164E-02  0.1300439E+00
        -11   -1    0    0    0    0  0.00000000000E+00  0.00000000000E+00  0.45593999997E+02  0.45594000000E+02  0.51100000000E-03 0.  1.
         11   -1    0    0    0    0 -0.00000000000E+00 -0.00000000000E+00 -0.45593999997E+02  0.45594000000E+02  0.51100000000E-03 0. -1.
    9900012    2    1    2    0    0 -0.17628293630E+02 -0.68039202657E+01  0.36001596090E+02  0.50528868328E+02  0.30000025770E+02 0.  0.
         12    1    1    2    0    0  0.17628293630E+02  0.68039202657E+01 -0.36001596090E+02  0.40659131672E+02  0.00000000000E+00 0. -1.
         11    1    3    3    0    0 -0.10898448590E+02 -0.10830452209E+02  0.56042294396E+01  0.16354885038E+02  0.51100000000E-03 0. -1.
        -11    1    3    3    0    0 -0.81770270196E+01 -0.27790134552E+01  0.15929054131E+02  0.18119642723E+02  0.51100000000E-03 0.  1.
         12    1    3    3    0    0  0.14471819799E+01  0.68055453989E+01  0.14468312520E+02  0.16054340567E+02  0.00000000000E+00 0. -1.
</event>
<event>
 7    1  0.3250765E-011  0.5052886E+02  0.7816164E-02  0.1300439E+00
        -11   -1    0    0    0    0  0.00000000000E+00  0.00000000000E+00  0.45593999997E+02  0.45594000000E+02  0.51100000000E-03 0.  1.
         11   -1    0    0    0    0 -0.00000000000E+00 -0.00000000000E+00 -0.45593999997E+02  0.45594000000E+02  0.51100000000E-03 0. -1.
    9900012    2    1    2    0    0  0.33504685486E+02 -0.15510595031E+02 -0.17030059968E+02  0.50528862647E+02  0.30000008503E+02 0.  0.
         12    1    1    2    0    0 -0.33504685486E+02  0.15510595031E+02  0.17030059968E+02  0.40659137353E+02  0.00000000000E+00 0. -1.
         11    1    3    3    0    0  0.86892587893E+01  0.64762710441E+01 -0.11102346275E+02  0.15514747759E+02  0.51100000000E-03 0. -1.
        -11    1    3    3    0    0  0.12528309019E+02 -0.82000611687E+01  0.16263152916E+01  0.15061355574E+02  0.51100000000E-03 0.  1.
        -12    1    3    3    0    0  0.12287117678E+02 -0.13786804907E+02 -0.75540289845E+01  0.19952759314E+02  0.00000000000E+00 0.  1.
</event>
<event>
 7    1  0.3250765E-011  0.5052886E+02  0.7816164E-02  0.1300439E+00
        -11   -1    0    0    0    0  0.00000000000E+00  0.00000000000E+00  0.45593999997E+02  0.45594000000E+02  0.51100000000E-03 0.  1.
         11   -1    0    0    0    0 -0.00000000000E+00 -0.00000000000E+00 -0.45593999997E+02  0.45594000000E+02  0.51100000000E-03 0. -1.
    9900012    2    1    2    0    0  0.25992537326E+02  0.31020742769E+02  0.39072814830E+01  0.50528864161E+02  0.30000013103E+02 0.  0.
         12    1    1    2    0    0 -0.25992537326E+02 -0.31020742769E+02 -0.39072814830E+01  0.40659135839E+02  0.00000000000E+00 0. -1.
         11    1    3    3    0    0 -0.16302771903E+01  0.24360302801E+01 -0.54289068450E+01  0.61696901896E+01  0.51100000000E-03 0. -1.
        -11    1    3    3    0    0  0.35251854380E+01  0.14793363202E+02  0.61800049356E+01  0.16415327851E+02  0.51100000000E-03 0.  1.
        -12    1    3    3    0    0  0.24097629078E+02  0.13791349288E+02  0.31561833924E+01  0.27943846120E+02  0.00000000000E+00 0.  1.
</event>
<event>
 7    1  0.3250765E-011  0.5052878E+02  0.7816164E-02  0.1300439E+00
        -11   -1    0    0    0    0  0.00000000000E+00  0.00000000000E+00  0.45593999997E+02  0.45594000000E+02  0.51100000000E-03 0.  1.
         11   -1    0    0    0    0 -0.00000000000E+00 -0.00000000000E+00 -0.45593999997E+02  0.45594000000E+02  0.51100000000E-03 0. -1.
    9900012    2    1    2    0    0 -0.39343231460E+02  0.16727222614E+01  0.10123460830E+02  0.50528778159E+02  0.29999751692E+02 0.  0.
         12    1    1    2    0    0  0.39343231460E+02 -0.16727222614E+01 -0.10123460830E+02  0.40659221841E+02  0.00000000000E+00 0. -1.
         11    1    3    3    0    0 -0.16531495002E+01 -0.86474310504E+01  0.18708540435E+01  0.90006145431E+01  0.51100000000E-03 0. -1.
        -11    1    3    3    0    0 -0.14614687695E+02 -0.47563972198E+00  0.64701945596E+01  0.15989957707E+02  0.51100000000E-03 0.  1.
        -12    1    3    3    0    0 -0.23075394266E+02  0.10795793034E+02  0.17824122265E+01  0.25538205910E+02  0.00000000000E+00 0.  1.
</event>
<event>
 7    1  0.3250765E-011  0.5052886E+02  0.7816164E-02  0.1300439E+00
        -11   -1    0    0    0    0  0.00000000000E+00  0.00000000000E+00  0.45593999997E+02  0.45594000000E+02  0.51100000000E-03 0.  1.
         11   -1    0    0    0    0 -0.00000000000E+00 -0.00000000000E+00 -0.45593999997E+02  0.45594000000E+02  0.51100000000E-03 0. -1.
    9900012    2    1    2    0    0  0.90419219204E+01 -0.35782581932E+02  0.17059199913E+02  0.50528858059E+02  0.29999994556E+02 0.  0.
         12    1    1    2    0    0 -0.90419219204E+01  0.35782581932E+02 -0.17059199913E+02  0.40659141941E+02  0.00000000000E+00 0. -1.
         11    1    3    3    0    0 -0.28708426410E+01  0.17933678765E+01  0.76971064183E+00  0.34713629230E+01  0.51100000000E-03 0. -1.
        -11    1    3    3    0    0  0.63906416716E+01 -0.34501906107E+01  0.92806176182E+01  0.11784480466E+02  0.51100000000E-03 0.  1.
        -12    1    3    3    0    0  0.55221228897E+01 -0.34125759198E+02  0.70088716528E+01  0.35273014669E+02  0.00000000000E+00 0.  1.
</event>
<event>
 7    1  0.3250765E-011  0.5052888E+02  0.7816164E-02  0.1300439E+00
        -11   -1    0    0    0    0  0.00000000000E+00  0.00000000000E+00  0.45593999997E+02  0.45594000000E+02  0.51100000000E-03 0.  1.
         11   -1    0    0    0    0 -0.00000000000E+00 -0.00000000000E+00 -0.45593999997E+02  0.45594000000E+02  0.51100000000E-03 0. -1.
    9900012    2    1    2    0    0 -0.45832350199E+01 -0.39248909179E+02 -0.95750370320E+01  0.50528877418E+02  0.30000053399E+02 0.  0.
         12    1    1    2    0    0  0.45832350199E+01  0.39248909179E+02  0.95750370320E+01  0.40659122582E+02  0.00000000000E+00 0. -1.
         11    1    3    3    0    0 -0.48733805521E+01 -0.14794095141E+01 -0.54051012078E+01  0.74265476397E+01  0.51100000000E-03 0. -1.
        -11    1    3    3    0    0 -0.89109194736E+01 -0.21242702412E+02  0.22055442832E+01  0.23141333529E+02  0.51100000000E-03 0.  1.
         12    1    3    3    0    0  0.92010650058E+01 -0.16526797253E+02 -0.63754801073E+01  0.19960996250E+02  0.00000000000E+00 0. -1.
</event>
<event>
 7    1  0.3250765E-011  0.5052886E+02  0.7816164E-02  0.1300439E+00
        -11   -1    0    0    0    0  0.00000000000E+00  0.00000000000E+00  0.45593999997E+02  0.45594000000E+02  0.51100000000E-03 0.  1.
         11   -1    0    0    0    0 -0.00000000000E+00 -0.00000000000E+00 -0.45593999997E+02  0.45594000000E+02  0.51100000000E-03 0. -1.
    9900012    2    1    2    0    0 -0.73788342564E+01 -0.47118149423E+01  0.39705376640E+02  0.50528864136E+02  0.30000013028E+02 0.  0.
         12    1    1    2    0    0  0.73788342564E+01  0.47118149423E+01 -0.39705376640E+02  0.40659135864E+02  0.00000000000E+00 0. -1.
         11    1    3    3    0    0 -0.51612741601E+00 -0.17834749447E+01 -0.36192408519E+01  0.40676866882E+01  0.51100000000E-03 0. -1.
        -11    1    3    3    0    0 -0.17576027393E+00  0.49815893707E+01  0.64046816998E+01  0.81158531448E+01  0.51100000000E-03 0.  1.
         12    1    3    3    0    0 -0.66869465665E+01 -0.79099293682E+01  0.36919935793E+02  0.38345324303E+02  0.00000000000E+00 0. -1.
</event>
<event>
 7    1  0.3250765E-011  0.5052883E+02  0.7816164E-02  0.1300439E+00
        -11   -1    0    0    0    0  0.00000000000E+00  0.00000000000E+00  0.45593999997E+02  0.45594000000E+02  0.51100000000E-03 0.  1.
         11   -1    0    0    0    0 -0.00000000000E+00 -0.00000000000E+00 -0.45593999997E+02  0.45594000000E+02  0.51100000000E-03 0. -1.
    9900012    2    1    2    0    0  0.35562195269E+01  0.16376482084E+02  0.37044999279E+02  0.50528833329E+02  0.29999919388E+02 0.  0.
         12    1    1    2    0    0 -0.35562195269E+01 -0.16376482084E+02 -0.37044999279E+02  0.40659166671E+02  0.00000000000E+00 0. -1.
         11    1    3    3    0    0 -0.11012577215E+01 -0.43310064058E+01  0.65728204725E+01  0.79481038167E+01  0.51100000000E-03 0. -1.
        -11    1    3    3    0    0  0.18638259462E+01  0.16413669524E+02  0.32973525480E+02  0.36880018672E+02  0.51100000000E-03 0.  1.
         12    1    3    3    0    0  0.27936513022E+01  0.42938189659E+01 -0.25013466735E+01  0.57007108409E+01  0.00000000000E+00 0. -1.
</event>
<event>
 7    1  0.3250765E-011  0.5052887E+02  0.7816164E-02  0.1300439E+00
        -11   -1    0    0    0    0  0.00000000000E+00  0.00000000000E+00  0.45593999997E+02  0.45594000000E+02  0.51100000000E-03 0.  1.
         11   -1    0    0    0    0 -0.00000000000E+00 -0.00000000000E+00 -0.45593999997E+02  0.45594000000E+02  0.51100000000E-03 0. -1.
    9900012    2    1    2    0    0 -0.16720025008E+00  0.31956642814E+02 -0.25137817262E+02  0.50528870243E+02  0.30000031591E+02 0.  0.
         12    1    1    2    0    0  0.16720025008E+00 -0.31956642814E+02  0.25137817262E+02  0.40659129757E+02  0.00000000000E+00 0. -1.
         11    1    3    3    0    0  0.29993422283E+01 -0.13602168969E+01 -0.15392177624E+01  0.36353040299E+01  0.51100000000E-03 0. -1.
        -11    1    3    3    0    0 -0.39827050349E+01  0.36074069826E+02 -0.17804631926E+02  0.40425306078E+02  0.51100000000E-03 0.  1.
         12    1    3    3    0    0  0.81616255651E+00 -0.27572101146E+01 -0.57939675739E+01  0.64682601356E+01  0.00000000000E+00 0. -1.
</event>
<event>
 7    1  0.3250765E-011  0.5052886E+02  0.7816164E-02  0.1300439E+00
        -11   -1    0    0    0    0  0.00000000000E+00  0.00000000000E+00  0.45593999997E+02  0.45594000000E+02  0.51100000000E-03 0. -1.
         11   -1    0    0    0    0 -0.00000000000E+00 -0.00000000000E+00 -0.45593999997E+02  0.45594000000E+02  0.51100000000E-03 0.  1.
    9900012    2    1    2    0    0 -0.31568397220E+02  0.25558940123E+02  0.18283150848E+01  0.50528857617E+02  0.29999993214E+02 0.  0.
         12    1    1    2    0    0  0.31568397220E+02 -0.25558940123E+02 -0.18283150848E+01  0.40659142383E+02  0.00000000000E+00 0. -1.
         11    1    3    3    0    0 -0.89599306738E+01  0.10749723886E+02 -0.10207181601E+02  0.17321185808E+02  0.51100000000E-03 0. -1.
        -11    1    3    3    0    0 -0.67822449197E+01  0.89318072925E+01 -0.18274308882E+01  0.11362901547E+02  0.51100000000E-03 0.  1.
         12    1    3    3    0    0 -0.15826221627E+02  0.58774089443E+01  0.13862927574E+02  0.21844770262E+02  0.00000000000E+00 0. -1.
</event>
<event>
 7    1  0.3250765E-011  0.5052884E+02  0.7816164E-02  0.1300439E+00
        -11   -1    0    0    0    0  0.00000000000E+00  0.00000000000E+00  0.45593999997E+02  0.45594000000E+02  0.51100000000E-03 0.  1.
         11   -1    0    0    0    0 -0.00000000000E+00 -0.00000000000E+00 -0.45593999997E+02  0.45594000000E+02  0.51100000000E-03 0. -1.
    9900012    2    1    2    0    0  0.34213934073E+02  0.17560176562E+02 -0.13199028745E+02  0.50528838112E+02  0.29999933925E+02 0.  0.
         12    1    1    2    0    0 -0.34213934073E+02 -0.17560176562E+02  0.13199028745E+02  0.40659161888E+02  0.00000000000E+00 0. -1.
         11    1    3    3    0    0  0.13778563152E+02  0.38185489245E+01 -0.15281863001E+01  0.14379341851E+02  0.51100000000E-03 0.  1.
        -11    1    3    3    0    0  0.55121231799E+01 -0.22962379900E+00  0.66903632175E+01  0.86716312930E+01  0.51100000000E-03 0. -1.
         12    1    3    3    0    0  0.14923247741E+02  0.13971251437E+02 -0.18361205662E+02  0.27477864968E+02  0.00000000000E+00 0. -1.
</event>
<event>
 7    1  0.3250765E-011  0.5052886E+02  0.7816164E-02  0.1300439E+00
        -11   -1    0    0    0    0  0.00000000000E+00  0.00000000000E+00  0.45593999997E+02  0.45594000000E+02  0.51100000000E-03 0. -1.
         11   -1    0    0    0    0 -0.00000000000E+00 -0.00000000000E+00 -0.45593999997E+02  0.45594000000E+02  0.51100000000E-03 0.  1.
    9900012    2    1    2    0    0 -0.14727028461E+02 -0.36310989140E+02 -0.10853228448E+02  0.50528857518E+02  0.29999992911E+02 0.  0.
         12    1    1    2    0    0  0.14727028461E+02  0.36310989140E+02  0.10853228448E+02  0.40659142482E+02  0.00000000000E+00 0. -1.
         11    1    3    3    0    0  0.17558013622E+01  0.18651344893E+01  0.35949179501E+00  0.25866580173E+01  0.51100000000E-03 0. -1.
        -11    1    3    3    0    0 -0.71759188443E+01 -0.67138657733E+01 -0.11505472696E+02  0.15130951956E+02  0.51100000000E-03 0.  1.
         12    1    3    3    0    0 -0.93069109793E+01 -0.31462257856E+02  0.29275245351E+00  0.32811247544E+02  0.00000000000E+00 0. -1.
</event>
<event>
 7    1  0.3250765E-011  0.5052884E+02  0.7816164E-02  0.1300439E+00
        -11   -1    0    0    0    0  0.00000000000E+00  0.00000000000E+00  0.45593999997E+02  0.45594000000E+02  0.51100000000E-03 0. -1.
         11   -1    0    0    0    0 -0.00000000000E+00 -0.00000000000E+00 -0.45593999997E+02  0.45594000000E+02  0.51100000000E-03 0.  1.
    9900012    2    1    2    0    0  0.98878544583E+01 -0.38836631956E+01 -0.39246841901E+02  0.50528842301E+02  0.29999946658E+02 0.  0.
         12    1    1    2    0    0 -0.98878544583E+01  0.38836631956E+01  0.39246841901E+02  0.40659157699E+02  0.00000000000E+00 0. -1.
         11    1    3    3    0    0  0.95494231706E+00 -0.64402158804E+01 -0.29938136855E+01  0.71659762810E+01  0.51100000000E-03 0. -1.
        -11    1    3    3    0    0  0.32737303147E+01 -0.61764718608E+01 -0.30860477014E+02  0.31642300116E+02  0.51100000000E-03 0.  1.
         12    1    3    3    0    0  0.56591818265E+01  0.87330245456E+01 -0.53925512014E+01  0.11720565904E+02  0.00000000000E+00 0. -1.
</event>
<event>
 7    1  0.3250765E-011  0.5052881E+02  0.7816164E-02  0.1300439E+00
        -11   -1    0    0    0    0  0.00000000000E+00  0.00000000000E+00  0.45593999997E+02  0.45594000000E+02  0.51100000000E-03 0.  1.
         11   -1    0    0    0    0 -0.00000000000E+00 -0.00000000000E+00 -0.45593999997E+02  0.45594000000E+02  0.51100000000E-03 0. -1.
    9900012    2    1    2    0    0 -0.29704072757E+02 -0.26968325198E+02 -0.65990186851E+01  0.50528812232E+02  0.29999855260E+02 0.  0.
         12    1    1    2    0    0  0.29704072757E+02  0.26968325198E+02  0.65990186851E+01  0.40659187768E+02  0.00000000000E+00 0. -1.
         11    1    3    3    0    0 -0.62452153998E+01  0.55936229222E+00 -0.50228948459E+01  0.80339949252E+01  0.51100000000E-03 0. -1.
        -11    1    3    3    0    0 -0.24204719695E+02 -0.13139762800E+02  0.21146640989E+01  0.27622339265E+02  0.51100000000E-03 0.  1.
         12    1    3    3    0    0  0.74586233747E+00 -0.14387924690E+02 -0.36907879380E+01  0.14872478042E+02  0.00000000000E+00 0. -1.
</event>
<event>
 7    1  0.3250765E-011  0.5052885E+02  0.7816164E-02  0.1300439E+00
        -11   -1    0    0    0    0  0.00000000000E+00  0.00000000000E+00  0.45593999997E+02  0.45594000000E+02  0.51100000000E-03 0. -1.
         11   -1    0    0    0    0 -0.00000000000E+00 -0.00000000000E+00 -0.45593999997E+02  0.45594000000E+02  0.51100000000E-03 0.  1.
    9900012    2    1    2    0    0 -0.35488975931E+02 -0.19780365657E+02 -0.15608967417E+01  0.50528847564E+02  0.29999962657E+02 0.  0.
         12    1    1    2    0    0  0.35488975931E+02  0.19780365657E+02  0.15608967417E+01  0.40659152436E+02  0.00000000000E+00 0. -1.
         11    1    3    3    0    0 -0.21168656880E+01 -0.95034137671E+01  0.13500934992E+01  0.98294835209E+01  0.51100000000E-03 0. -1.
        -11    1    3    3    0    0 -0.74719462849E+01 -0.65627911518E+01 -0.94616207855E+01  0.13726706711E+02  0.51100000000E-03 0.  1.
         12    1    3    3    0    0 -0.25900163958E+02 -0.37141607381E+01  0.65506305446E+01  0.26972657332E+02  0.00000000000E+00 0. -1.
</event>
<event>
 7    1  0.3250765E-011  0.5052885E+02  0.7816164E-02  0.1300439E+00
        -11   -1    0    0    0    0  0.00000000000E+00  0.00000000000E+00  0.45593999997E+02  0.45594000000E+02  0.51100000000E-03 0.  1.
         11   -1    0    0    0    0 -0.00000000000E+00 -0.00000000000E+00 -0.45593999997E+02  0.45594000000E+02  0.51100000000E-03 0. -1.
    9900012    2    1    2    0    0  0.65033528710E+01 -0.67993855021E+01  0.39555542721E+02  0.50528853406E+02  0.29999980413E+02 0.  0.
         12    1    1    2    0    0 -0.65033528710E+01  0.67993855021E+01 -0.39555542721E+02  0.40659146594E+02  0.00000000000E+00 0. -1.
         11    1    3    3    0    0  0.49588647635E+01 -0.14501475106E+02  0.12824679466E+02  0.19983881596E+02  0.51100000000E-03 0. -1.
        -11    1    3    3    0    0  0.47940404436E+01  0.46145508766E+01  0.49127306197E+01  0.82711441754E+01  0.51100000000E-03 0.  1.
        -12    1    3    3    0    0 -0.32495523361E+01  0.30875387271E+01  0.21818132636E+02  0.22273827634E+02  0.00000000000E+00 0.  1.
</event>
<event>
 7    1  0.3250765E-011  0.5052886E+02  0.7816164E-02  0.1300439E+00
        -11   -1    0    0    0    0  0.00000000000E+00  0.00000000000E+00  0.45593999997E+02  0.45594000000E+02  0.51100000000E-03 0. -1.
         11   -1    0    0    0    0 -0.00000000000E+00 -0.00000000000E+00 -0.45593999997E+02  0.45594000000E+02  0.51100000000E-03 0.  1.
    9900012    2    1    2    0    0 -0.12727881187E+02 -0.26239411940E+02 -0.28331249735E+02  0.50528863142E+02  0.30000010007E+02 0.  0.
         12    1    1    2    0    0  0.12727881187E+02  0.26239411940E+02  0.28331249735E+02  0.40659136858E+02  0.00000000000E+00 0. -1.
         11    1    3    3    0    0 -0.91165496802E+01 -0.16854117126E+02 -0.51943742400E+01  0.19853318769E+02  0.51100000000E-03 0. -1.
        -11    1    3    3    0    0 -0.43654276431E+01  0.78700552683E-01  0.12203089740E+01  0.45334651799E+01  0.51100000000E-03 0.  1.
        -12    1    3    3    0    0  0.75409613589E+00 -0.94639953674E+01 -0.24357184469E+02  0.26142079193E+02  0.00000000000E+00 0.  1.
</event>
<event>
 7    1  0.3250765E-011  0.5052881E+02  0.7816164E-02  0.1300439E+00
        -11   -1    0    0    0    0  0.00000000000E+00  0.00000000000E+00  0.45593999997E+02  0.45594000000E+02  0.51100000000E-03 0. -1.
         11   -1    0    0    0    0 -0.00000000000E+00 -0.00000000000E+00 -0.45593999997E+02  0.45594000000E+02  0.51100000000E-03 0.  1.
    9900012    2    1    2    0    0  0.97546842853E+01  0.30713270355E+01 -0.39352036668E+02  0.50528810323E+02  0.29999849459E+02 0.  0.
         12    1    1    2    0    0 -0.97546842853E+01 -0.30713270355E+01  0.39352036668E+02  0.40659189677E+02  0.00000000000E+00 0. -1.
         11    1    3    3    0    0  0.45279601445E+00  0.67530713812E+01 -0.20254454226E-01  0.67682647565E+01  0.51100000000E-03 0. -1.
        -11    1    3    3    0    0  0.91064109825E+01 -0.51147454537E+01 -0.10220007034E+02  0.14612867141E+02  0.51100000000E-03 0.  1.
         12    1    3    3    0    0  0.19547728840E+00  0.14330011080E+01 -0.29111775179E+02  0.29147678426E+02  0.00000000000E+00 0. -1.
</event>
<event>
 7    1  0.3250765E-011  0.5052886E+02  0.7816164E-02  0.1300439E+00
        -11   -1    0    0    0    0  0.00000000000E+00  0.00000000000E+00  0.45593999997E+02  0.45594000000E+02  0.51100000000E-03 0.  1.
         11   -1    0    0    0    0 -0.00000000000E+00 -0.00000000000E+00 -0.45593999997E+02  0.45594000000E+02  0.51100000000E-03 0. -1.
    9900012    2    1    2    0    0 -0.51550335262E+01  0.17956512374E+02  0.36113089229E+02  0.50528856859E+02  0.29999990908E+02 0.  0.
         12    1    1    2    0    0  0.51550335262E+01 -0.17956512374E+02 -0.36113089229E+02  0.40659143141E+02  0.00000000000E+00 0. -1.
         11    1    3    3    0    0 -0.29753394693E+00  0.13007210355E+02  0.48786078923E+01  0.13895210070E+02  0.51100000000E-03 0. -1.
        -11    1    3    3    0    0  0.36875867200E+01  0.22836883087E+01  0.25799641075E+02  0.26161708812E+02  0.51100000000E-03 0.  1.
         12    1    3    3    0    0 -0.85450862993E+01  0.26656137109E+01  0.54348402615E+01  0.10471937977E+02  0.00000000000E+00 0. -1.
</event>
<event>
 7    1  0.3250765E-011  0.5052884E+02  0.7816164E-02  0.1300439E+00
        -11   -1    0    0    0    0  0.00000000000E+00  0.00000000000E+00  0.45593999997E+02  0.45594000000E+02  0.51100000000E-03 0.  1.
         11   -1    0    0    0    0 -0.00000000000E+00 -0.00000000000E+00 -0.45593999997E+02  0.45594000000E+02  0.51100000000E-03 0. -1.
    9900012    2    1    2    0    0  0.10007714455E+02 -0.85483978052E+01  0.38469955903E+02  0.50528844071E+02  0.29999952038E+02 0.  0.
         12    1    1    2    0    0 -0.10007714455E+02  0.85483978052E+01 -0.38469955903E+02  0.40659155929E+02  0.00000000000E+00 0. -1.
         11    1    3    3    0    0 -0.10156260008E+01  0.42042269188E+01  0.75603640820E+01  0.87101162720E+01  0.51100000000E-03 0. -1.
        -11    1    3    3    0    0  0.36679038854E+01 -0.86457215717E+01  0.31976477756E+02  0.33327123343E+02  0.51100000000E-03 0.  1.
         12    1    3    3    0    0  0.73554365700E+01 -0.41069031523E+01 -0.10668859343E+01  0.84916044558E+01  0.00000000000E+00 0. -1.
</event>
<event>
 7    1  0.3250765E-011  0.5052886E+02  0.7816164E-02  0.1300439E+00
        -11   -1    0    0    0    0  0.00000000000E+00  0.00000000000E+00  0.45593999997E+02  0.45594000000E+02  0.51100000000E-03 0.  1.
         11   -1    0    0    0    0 -0.00000000000E+00 -0.00000000000E+00 -0.45593999997E+02  0.45594000000E+02  0.51100000000E-03 0. -1.
    9900012    2    1    2    0    0  0.32871199100E+02 -0.95368116727E+01  0.21947643365E+02  0.50528861342E+02  0.30000004535E+02 0.  0.
         12    1    1    2    0    0 -0.32871199100E+02  0.95368116727E+01 -0.21947643365E+02  0.40659138658E+02  0.00000000000E+00 0. -1.
         11    1    3    3    0    0  0.12183477879E+02 -0.11157402916E+02  0.10843395108E+02  0.19761173821E+02  0.51100000000E-03 0. -1.
        -11    1    3    3    0    0  0.23339466355E+02 -0.88976750497E+00  0.12917725826E+02  0.26690635375E+02  0.51100000000E-03 0.  1.
         12    1    3    3    0    0 -0.26517451347E+01  0.25103587479E+01 -0.18134775697E+01  0.40770521456E+01  0.00000000000E+00 0. -1.
</event>
<event>
 7    1  0.3250765E-011  0.5052885E+02  0.7816164E-02  0.1300439E+00
        -11   -1    0    0    0    0  0.00000000000E+00  0.00000000000E+00  0.45593999997E+02  0.45594000000E+02  0.51100000000E-03 0. -1.
         11   -1    0    0    0    0 -0.00000000000E+00 -0.00000000000E+00 -0.45593999997E+02  0.45594000000E+02  0.51100000000E-03 0.  1.
    9900012    2    1    2    0    0  0.10682058933E+02 -0.36166472834E+02  0.15200207104E+02  0.50528850522E+02  0.29999971646E+02 0.  0.
         12    1    1    2    0    0 -0.10682058933E+02  0.36166472834E+02 -0.15200207104E+02  0.40659149478E+02  0.00000000000E+00 0. -1.
         11    1    3    3    0    0 -0.49363214459E+00  0.14442853315E+01  0.22603936224E+01  0.27274552979E+01  0.51100000000E-03 0. -1.
        -11    1    3    3    0    0  0.13890573383E+02 -0.13183317390E+02  0.13135795456E+02  0.23222769190E+02  0.51100000000E-03 0.  1.
         12    1    3    3    0    0 -0.27148823056E+01 -0.24427440776E+02 -0.19598197520E+00  0.24578626034E+02  0.00000000000E+00 0. -1.
</event>
<event>
 7    1  0.3250765E-011  0.5052886E+02  0.7816164E-02  0.1300439E+00
        -11   -1    0    0    0    0  0.00000000000E+00  0.00000000000E+00  0.45593999997E+02  0.45594000000E+02  0.51100000000E-03 0.  1.
         11   -1    0    0    0    0 -0.00000000000E+00 -0.00000000000E+00 -0.45593999997E+02  0.45594000000E+02  0.51100000000E-03 0. -1.
    9900012    2    1    2    0    0 -0.40382021660E+02 -0.30920669647E+01 -0.35913092164E+01  0.50528855231E+02  0.29999985961E+02 0.  0.
         12    1    1    2    0    0  0.40382021660E+02  0.30920669647E+01  0.35913092164E+01  0.40659144769E+02  0.00000000000E+00 0. -1.
         11    1    3    3    0    0 -0.18451588000E+01 -0.62442393939E+01 -0.18151927218E+01  0.67594423945E+01  0.51100000000E-03 0.  1.
        -11    1    3    3    0    0 -0.27148788331E+02  0.92298814631E+01 -0.75142878234E+01  0.29643075776E+02  0.51100000000E-03 0. -1.
         12    1    3    3    0    0 -0.11388074528E+02 -0.60777090339E+01  0.57381713289E+01  0.14126337061E+02  0.00000000000E+00 0. -1.
</event>
<event>
 7    1  0.3250765E-011  0.5052886E+02  0.7816164E-02  0.1300439E+00
        -11   -1    0    0    0    0  0.00000000000E+00  0.00000000000E+00  0.45593999997E+02  0.45594000000E+02  0.51100000000E-03 0. -1.
         11   -1    0    0    0    0 -0.00000000000E+00 -0.00000000000E+00 -0.45593999997E+02  0.45594000000E+02  0.51100000000E-03 0.  1.
    9900012    2    1    2    0    0  0.37121576943E+02  0.14527468604E+02  0.80066567030E+01  0.50528863630E+02  0.30000011491E+02 0.  0.
         12    1    1    2    0    0 -0.37121576943E+02 -0.14527468604E+02 -0.80066567030E+01  0.40659136370E+02  0.00000000000E+00 0. -1.
         11    1    3    3    0    0  0.13350869606E+02  0.14825670152E+02  0.71961639691E+01  0.21209219477E+02  0.51100000000E-03 0.  1.
        -11    1    3    3    0    0  0.12088508826E+02  0.20932770240E+01  0.86835441126E+01  0.15030561964E+02  0.51100000000E-03 0. -1.
        -12    1    3    3    0    0  0.11682198510E+02 -0.23914785720E+01 -0.78730513786E+01  0.14289082189E+02  0.00000000000E+00 0.  1.
</event>
<event>
 7    1  0.3250765E-011  0.5052886E+02  0.7816164E-02  0.1300439E+00
        -11   -1    0    0    0    0  0.00000000000E+00  0.00000000000E+00  0.45593999997E+02  0.45594000000E+02  0.51100000000E-03 0.  1.
         11   -1    0    0    0    0 -0.00000000000E+00 -0.00000000000E+00 -0.45593999997E+02  0.45594000000E+02  0.51100000000E-03 0. -1.
    9900012    2    1    2    0    0 -0.14764125536E+02  0.37430108689E+02  0.58457838029E+01  0.50528860467E+02  0.30000001876E+02 0.  0.
         12    1    1    2    0    0  0.14764125536E+02 -0.37430108689E+02 -0.58457838029E+01  0.40659139533E+02  0.00000000000E+00 0. -1.
         11    1    3    3    0    0 -0.36944747947E+01  0.30017553128E+01 -0.75459964892E+01  0.89219808475E+01  0.51100000000E-03 0. -1.
        -11    1    3    3    0    0 -0.10856363329E+02  0.15082725070E+02  0.95625690317E+00  0.18608160785E+02  0.51100000000E-03 0.  1.
        -12    1    3    3    0    0 -0.21328741196E+00  0.19345628306E+02  0.12435523389E+02  0.22998718835E+02  0.00000000000E+00 0.  1.
</event>
<event>
 7    1  0.3250765E-011  0.5052886E+02  0.7816164E-02  0.1300439E+00
        -11   -1    0    0    0    0  0.00000000000E+00  0.00000000000E+00  0.45593999997E+02  0.45594000000E+02  0.51100000000E-03 0.  1.
         11   -1    0    0    0    0 -0.00000000000E+00 -0.00000000000E+00 -0.45593999997E+02  0.45594000000E+02  0.51100000000E-03 0. -1.
    9900012    2    1    2    0    0  0.24790025403E+02 -0.20682422595E+02  0.24715534650E+02  0.50528860598E+02  0.30000002274E+02 0.  0.
         12    1    1    2    0    0 -0.24790025403E+02  0.20682422595E+02 -0.24715534650E+02  0.40659139402E+02  0.00000000000E+00 0. -1.
         11    1    3    3    0    0 -0.34637587997E+01 -0.73359765728E+01  0.91274451412E+00  0.81637785436E+01  0.51100000000E-03 0. -1.
        -11    1    3    3    0    0  0.99309270756E+01 -0.13432299126E+02  0.12034496013E+02  0.20588323559E+02  0.51100000000E-03 0.  1.
         12    1    3    3    0    0  0.18322857127E+02  0.85853103825E-01  0.11768294122E+02  0.21776758496E+02  0.00000000000E+00 0. -1.
</event>
<event>
 7    1  0.3250765E-011  0.5052886E+02  0.7816164E-02  0.1300439E+00
        -11   -1    0    0    0    0  0.00000000000E+00  0.00000000000E+00  0.45593999997E+02  0.45594000000E+02  0.51100000000E-03 0.  1.
         11   -1    0    0    0    0 -0.00000000000E+00 -0.00000000000E+00 -0.45593999997E+02  0.45594000000E+02  0.51100000000E-03 0. -1.
    9900012    2    1    2    0    0 -0.40511378792E+02 -0.27163818726E+01 -0.21483158706E+01  0.50528858307E+02  0.29999995310E+02 0.  0.
         12    1    1    2    0    0  0.40511378792E+02  0.27163818726E+01  0.21483158706E+01  0.40659141693E+02  0.00000000000E+00 0. -1.
         11    1    3    3    0    0 -0.40870893880E+01  0.16643628541E+01 -0.41356626980E+01  0.60479839276E+01  0.51100000000E-03 0. -1.
        -11    1    3    3    0    0 -0.37694301750E+02 -0.67748210786E+01 -0.34013991588E+01  0.38449032518E+02  0.51100000000E-03 0.  1.
         12    1    3    3    0    0  0.12700123457E+01  0.23940763520E+01  0.53887459862E+01  0.60318418614E+01  0.00000000000E+00 0. -1.
</event>
<event>
 7    1  0.3250765E-011  0.5052872E+02  0.7816164E-02  0.1300439E+00
        -11   -1    0    0    0    0  0.00000000000E+00  0.00000000000E+00  0.45593999997E+02  0.45594000000E+02  0.51100000000E-03 0.  1.
         11   -1    0    0    0    0 -0.00000000000E+00 -0.00000000000E+00 -0.45593999997E+02  0.45594000000E+02  0.51100000000E-03 0. -1.
    9900012    2    1    2    0    0 -0.49224029572E+00  0.45542713442E+01  0.40400412370E+02  0.50528720522E+02  0.29999576497E+02 0.  0.
         12    1    1    2    0    0  0.49224029572E+00 -0.45542713442E+01 -0.40400412370E+02  0.40659279478E+02  0.00000000000E+00 0. -1.
         11    1    3    3    0    0  0.64929836946E+01  0.32573871906E+00 -0.28621933652E+00  0.65074468681E+01  0.51100000000E-03 0.  1.
        -11    1    3    3    0    0 -0.10993476877E+00 -0.51178076827E+01  0.10493764318E+02  0.11675749695E+02  0.51100000000E-03 0. -1.
        -12    1    3    3    0    0 -0.68752892216E+01  0.93463403078E+01  0.30192867389E+02  0.32345523959E+02  0.00000000000E+00 0.  1.
</event>
<event>
 7    1  0.3250765E-011  0.5052884E+02  0.7816164E-02  0.1300439E+00
        -11   -1    0    0    0    0  0.00000000000E+00  0.00000000000E+00  0.45593999997E+02  0.45594000000E+02  0.51100000000E-03 0.  1.
         11   -1    0    0    0    0 -0.00000000000E+00 -0.00000000000E+00 -0.45593999997E+02  0.45594000000E+02  0.51100000000E-03 0. -1.
    9900012    2    1    2    0    0 -0.25401016239E+02 -0.22915626916E+02  0.21973389114E+02  0.50528838522E+02  0.29999935172E+02 0.  0.
         12    1    1    2    0    0  0.25401016239E+02  0.22915626916E+02 -0.21973389114E+02  0.40659161478E+02  0.00000000000E+00 0. -1.
         11    1    3    3    0    0 -0.52607628484E+01  0.35983825730E+01  0.90772674605E-01  0.63743409721E+01  0.51100000000E-03 0. -1.
        -11    1    3    3    0    0  0.24567978852E+01 -0.20031028528E+01  0.69227580166E+01  0.76139907870E+01  0.51100000000E-03 0.  1.
         12    1    3    3    0    0 -0.22597051275E+02 -0.24510906636E+02  0.14959858423E+02  0.36540506763E+02  0.00000000000E+00 0. -1.
</event>
<event>
 7    1  0.3250765E-011  0.5052885E+02  0.7816164E-02  0.1300439E+00
        -11   -1    0    0    0    0  0.00000000000E+00  0.00000000000E+00  0.45593999997E+02  0.45594000000E+02  0.51100000000E-03 0.  1.
         11   -1    0    0    0    0 -0.00000000000E+00 -0.00000000000E+00 -0.45593999997E+02  0.45594000000E+02  0.51100000000E-03 0. -1.
    9900012    2    1    2    0    0 -0.19220360021E+02  0.31173884350E+02  0.17661624303E+02  0.50528852470E+02  0.29999977569E+02 0.  0.
         12    1    1    2    0    0  0.19220360021E+02 -0.31173884350E+02 -0.17661624303E+02  0.40659147530E+02  0.00000000000E+00 0. -1.
         11    1    3    3    0    0 -0.17301531858E+02  0.19637967969E+02  0.18160196579E+02  0.31855698558E+02  0.51100000000E-03 0. -1.
        -11    1    3    3    0    0 -0.39944487745E+01  0.10827760941E+02  0.51319233695E+01  0.12630624123E+02  0.51100000000E-03 0.  1.
         12    1    3    3    0    0  0.20756206114E+01  0.70815544019E+00 -0.56304956447E+01  0.60425297893E+01  0.00000000000E+00 0. -1.
</event>
<event>
 7    1  0.3250765E-011  0.5052889E+02  0.7816164E-02  0.1300439E+00
        -11   -1    0    0    0    0  0.00000000000E+00  0.00000000000E+00  0.45593999997E+02  0.45594000000E+02  0.51100000000E-03 0.  1.
         11   -1    0    0    0    0 -0.00000000000E+00 -0.00000000000E+00 -0.45593999997E+02  0.45594000000E+02  0.51100000000E-03 0. -1.
    9900012    2    1    2    0    0  0.12295065437E+02 -0.28614287605E+02  0.26138420156E+02  0.50528891581E+02  0.30000096448E+02 0.  0.
         12    1    1    2    0    0 -0.12295065437E+02  0.28614287605E+02 -0.26138420156E+02  0.40659108419E+02  0.00000000000E+00 0. -1.
         11    1    3    3    0    0 -0.58821806317E+01 -0.56820172834E+01  0.55110463182E+01  0.98618964289E+01  0.51100000000E-03 0. -1.
        -11    1    3    3    0    0  0.57972445618E+01 -0.20840915412E+02  0.17242681945E+02  0.27663367124E+02  0.51100000000E-03 0.  1.
         12    1    3    3    0    0  0.12380001507E+02 -0.20913549092E+01  0.33846918928E+01  0.13003628028E+02  0.00000000000E+00 0. -1.
</event>
<event>
 7    1  0.3250765E-011  0.5052886E+02  0.7816164E-02  0.1300439E+00
        -11   -1    0    0    0    0  0.00000000000E+00  0.00000000000E+00  0.45593999997E+02  0.45594000000E+02  0.51100000000E-03 0.  1.
         11   -1    0    0    0    0 -0.00000000000E+00 -0.00000000000E+00 -0.45593999997E+02  0.45594000000E+02  0.51100000000E-03 0. -1.
    9900012    2    1    2    0    0  0.30471616684E+02 -0.94520760432E+01  0.25205250560E+02  0.50528858092E+02  0.29999994658E+02 0.  0.
         12    1    1    2    0    0 -0.30471616684E+02  0.94520760432E+01 -0.25205250560E+02  0.40659141908E+02  0.00000000000E+00 0. -1.
         11    1    3    3    0    0  0.21827346727E+02 -0.16009185575E+02  0.67840363773E+01  0.27906096784E+02  0.51100000000E-03 0. -1.
        -11    1    3    3    0    0  0.83446531589E+01  0.50780701925E+01  0.96797850779E+01  0.13752027946E+02  0.51100000000E-03 0.  1.
        -12    1    3    3    0    0  0.29961679886E+00  0.14790393390E+01  0.87414291043E+01  0.88707333619E+01  0.00000000000E+00 0.  1.
</event>
<event>
 7    1  0.3250765E-011  0.5052887E+02  0.7816164E-02  0.1300439E+00
        -11   -1    0    0    0    0  0.00000000000E+00  0.00000000000E+00  0.45593999997E+02  0.45594000000E+02  0.51100000000E-03 0.  1.
         11   -1    0    0    0    0 -0.00000000000E+00 -0.00000000000E+00 -0.45593999997E+02  0.45594000000E+02  0.51100000000E-03 0. -1.
    9900012    2    1    2    0    0 -0.20444759771E+02  0.86389468574E+01  0.34066779076E+02  0.50528867674E+02  0.30000023782E+02 0.  0.
         12    1    1    2    0    0  0.20444759771E+02 -0.86389468574E+01 -0.34066779076E+02  0.40659132326E+02  0.00000000000E+00 0. -1.
         11    1    3    3    0    0 -0.39158549923E+01  0.65762372646E+00 -0.24073497365E+01  0.46434601647E+01  0.51100000000E-03 0. -1.
        -11    1    3    3    0    0 -0.17431020294E+00 -0.61002778560E+01  0.10173377611E+02  0.11863447486E+02  0.51100000000E-03 0.  1.
        -12    1    3    3    0    0 -0.16354594576E+02  0.14081600987E+02  0.26300751201E+02  0.34021960023E+02  0.00000000000E+00 0.  1.
</event>
<event>
 7    1  0.3250765E-011  0.5052887E+02  0.7816164E-02  0.1300439E+00
        -11   -1    0    0    0    0  0.00000000000E+00  0.00000000000E+00  0.45593999997E+02  0.45594000000E+02  0.51100000000E-03 0.  1.
         11   -1    0    0    0    0 -0.00000000000E+00 -0.00000000000E+00 -0.45593999997E+02  0.45594000000E+02  0.51100000000E-03 0. -1.
    9900012    2    1    2    0    0 -0.95329778944E+01 -0.76454147211E+01  0.38779313710E+02  0.50528865656E+02  0.30000017647E+02 0.  0.
         12    1    1    2    0    0  0.95329778944E+01  0.76454147211E+01 -0.38779313710E+02  0.40659134344E+02  0.00000000000E+00 0. -1.
         11    1    3    3    0    0  0.43979833285E+01  0.63986510220E+00  0.10191207556E+01  0.45596372753E+01  0.51100000000E-03 0. -1.
        -11    1    3    3    0    0  0.31399033668E+01 -0.67165953342E+01  0.19791990257E+02  0.21135149032E+02  0.51100000000E-03 0.  1.
        -12    1    3    3    0    0 -0.17070864590E+02 -0.15686844891E+01  0.17968202698E+02  0.24834079348E+02  0.00000000000E+00 0.  1.
</event>
<event>
 7    1  0.3250765E-011  0.5052885E+02  0.7816164E-02  0.1300439E+00
        -11   -1    0    0    0    0  0.00000000000E+00  0.00000000000E+00  0.45593999997E+02  0.45594000000E+02  0.51100000000E-03 0. -1.
         11   -1    0    0    0    0 -0.00000000000E+00 -0.00000000000E+00 -0.45593999997E+02  0.45594000000E+02  0.51100000000E-03 0.  1.
    9900012    2    1    2    0    0  0.16571337274E+02  0.21812817249E+02 -0.30045933822E+02  0.50528851526E+02  0.29999974700E+02 0.  0.
         12    1    1    2    0    0 -0.16571337274E+02 -0.21812817249E+02  0.30045933822E+02  0.40659148474E+02  0.00000000000E+00 0. -1.
         11    1    3    3    0    0  0.10302789324E+02 -0.75532327048E+00 -0.56221825451E+01  0.11761246444E+02  0.51100000000E-03 0. -1.
        -11    1    3    3    0    0  0.24080987959E+01  0.13581669374E+02 -0.15373481478E+01  0.13878909265E+02  0.51100000000E-03 0.  1.
        -12    1    3    3    0    0  0.38604491543E+01  0.89864711457E+01 -0.22886403129E+02  0.24888695818E+02  0.00000000000E+00 0.  1.
</event>
<event>
 7    1  0.3250765E-011  0.5052886E+02  0.7816164E-02  0.1300439E+00
        -11   -1    0    0    0    0  0.00000000000E+00  0.00000000000E+00  0.45593999997E+02  0.45594000000E+02  0.51100000000E-03 0. -1.
         11   -1    0    0    0    0 -0.00000000000E+00 -0.00000000000E+00 -0.45593999997E+02  0.45594000000E+02  0.51100000000E-03 0.  1.
    9900012    2    1    2    0    0 -0.26877473122E+02 -0.30243856299E+02 -0.40095059054E+01  0.50528861509E+02  0.30000005041E+02 0.  0.
         12    1    1    2    0    0  0.26877473122E+02  0.30243856299E+02  0.40095059054E+01  0.40659138491E+02  0.00000000000E+00 0. -1.
         11    1    3    3    0    0 -0.42575780029E+01 -0.11007290665E+02  0.52129082647E+01  0.12902008800E+02  0.51100000000E-03 0.  1.
        -11    1    3    3    0    0 -0.11991196170E+02 -0.22209125761E+02 -0.45707258977E+01  0.25650060198E+02  0.51100000000E-03 0. -1.
         12    1    3    3    0    0 -0.10628698949E+02  0.29725601272E+01 -0.46516882724E+01  0.11976792511E+02  0.00000000000E+00 0. -1.
</event>
<event>
 7    1  0.3250765E-011  0.5052885E+02  0.7816164E-02  0.1300439E+00
        -11   -1    0    0    0    0  0.00000000000E+00  0.00000000000E+00  0.45593999997E+02  0.45594000000E+02  0.51100000000E-03 0.  1.
         11   -1    0    0    0    0 -0.00000000000E+00 -0.00000000000E+00 -0.45593999997E+02  0.45594000000E+02  0.51100000000E-03 0. -1.
    9900012    2    1    2    0    0 -0.11730456160E+02  0.28667701341E+02  0.26338672430E+02  0.50528851371E+02  0.29999974226E+02 0.  0.
         12    1    1    2    0    0  0.11730456160E+02 -0.28667701341E+02 -0.26338672430E+02  0.40659148629E+02  0.00000000000E+00 0. -1.
         11    1    3    3    0    0  0.10003908157E+01  0.21306597016E+02  0.12438353695E+02  0.24691790156E+02  0.51100000000E-03 0.  1.
        -11    1    3    3    0    0  0.15541977562E+01 -0.21793858434E+01 -0.12299312860E+01  0.29458419084E+01  0.51100000000E-03 0. -1.
        -12    1    3    3    0    0 -0.14285044732E+02  0.95404901678E+01  0.15130250021E+02  0.22891219306E+02  0.00000000000E+00 0.  1.
</event>
<event>
 7    1  0.3250765E-011  0.5052886E+02  0.7816164E-02  0.1300439E+00
        -11   -1    0    0    0    0  0.00000000000E+00  0.00000000000E+00  0.45593999997E+02  0.45594000000E+02  0.51100000000E-03 0. -1.
         11   -1    0    0    0    0 -0.00000000000E+00 -0.00000000000E+00 -0.45593999997E+02  0.45594000000E+02  0.51100000000E-03 0.  1.
    9900012    2    1    2    0    0  0.19305030013E+02  0.33227695891E+02  0.13281636997E+02  0.50528857863E+02  0.29999993959E+02 0.  0.
         12    1    1    2    0    0 -0.19305030013E+02 -0.33227695891E+02 -0.13281636997E+02  0.40659142137E+02  0.00000000000E+00 0. -1.
         11    1    3    3    0    0  0.99621009899E+01  0.22092137255E+01 -0.35135104433E+01  0.10792072892E+02  0.51100000000E-03 0. -1.
        -11    1    3    3    0    0 -0.37200219825E+01  0.23183582331E+01  0.11284465931E+01  0.45262280567E+01  0.51100000000E-03 0.  1.
         12    1    3    3    0    0  0.13062951005E+02  0.28700123932E+02  0.15666700847E+02  0.35210556913E+02  0.00000000000E+00 0. -1.
</event>
<event>
 7    1  0.3250765E-011  0.5052887E+02  0.7816164E-02  0.1300439E+00
        -11   -1    0    0    0    0  0.00000000000E+00  0.00000000000E+00  0.45593999997E+02  0.45594000000E+02  0.51100000000E-03 0. -1.
         11   -1    0    0    0    0 -0.00000000000E+00 -0.00000000000E+00 -0.45593999997E+02  0.45594000000E+02  0.51100000000E-03 0.  1.
    9900012    2    1    2    0    0  0.25197657977E+02  0.12128762123E+02 -0.29515015412E+02  0.50528868517E+02  0.30000026346E+02 0.  0.
         12    1    1    2    0    0 -0.25197657977E+02 -0.12128762123E+02  0.29515015412E+02  0.40659131483E+02  0.00000000000E+00 0. -1.
         11    1    3    3    0    0  0.44569167388E+00 -0.23044621891E-01 -0.71355669605E+01  0.71495096498E+01  0.51100000000E-03 0. -1.
        -11    1    3    3    0    0 -0.12301285423E+01  0.37960426612E+01  0.38364311380E+01  0.55354638698E+01  0.51100000000E-03 0.  1.
        -12    1    3    3    0    0  0.25982094845E+02  0.83557640838E+01 -0.26215879589E+02  0.37843894998E+02  0.00000000000E+00 0.  1.
</event>
<event>
 7    1  0.3250765E-011  0.5052886E+02  0.7816164E-02  0.1300439E+00
        -11   -1    0    0    0    0  0.00000000000E+00  0.00000000000E+00  0.45593999997E+02  0.45594000000E+02  0.51100000000E-03 0. -1.
         11   -1    0    0    0    0 -0.00000000000E+00 -0.00000000000E+00 -0.45593999997E+02  0.45594000000E+02  0.51100000000E-03 0.  1.
    9900012    2    1    2    0    0 -0.18060631379E+02  0.36363628521E+02 -0.21600349182E+01  0.50528860365E+02  0.30000001565E+02 0.  0.
         12    1    1    2    0    0  0.18060631379E+02 -0.36363628521E+02  0.21600349182E+01  0.40659139635E+02  0.00000000000E+00 0. -1.
         11    1    3    3    0    0 -0.91716799603E+01  0.24010486848E+01 -0.18658248577E+01  0.96626109692E+01  0.51100000000E-03 0. -1.
        -11    1    3    3    0    0 -0.13857514988E+02  0.12025521354E+02 -0.83801343000E+00  0.18366985388E+02  0.51100000000E-03 0.  1.
        -12    1    3    3    0    0  0.49685635693E+01  0.21937058482E+02  0.54380336954E+00  0.22499264008E+02  0.00000000000E+00 0.  1.
</event>
<event>
 7    1  0.3250765E-011  0.5052885E+02  0.7816164E-02  0.1300439E+00
        -11   -1    0    0    0    0  0.00000000000E+00  0.00000000000E+00  0.45593999997E+02  0.45594000000E+02  0.51100000000E-03 0. -1.
         11   -1    0    0    0    0 -0.00000000000E+00 -0.00000000000E+00 -0.45593999997E+02  0.45594000000E+02  0.51100000000E-03 0.  1.
    9900012    2    1    2    0    0  0.37591232515E+02  0.13224973882E+02  0.80725132747E+01  0.50528853837E+02  0.29999981722E+02 0.  0.
         12    1    1    2    0    0 -0.37591232515E+02 -0.13224973882E+02 -0.80725132747E+01  0.40659146163E+02  0.00000000000E+00 0. -1.
         11    1    3    3    0    0  0.88640139465E+01  0.63480325315E+01  0.11448244427E+02  0.15809192294E+02  0.51100000000E-03 0. -1.
        -11    1    3    3    0    0  0.19021561236E+02  0.11992654479E+02  0.18594863114E+01  0.22563271991E+02  0.51100000000E-03 0.  1.
         12    1    3    3    0    0  0.97056573320E+01 -0.51157131289E+01 -0.52352174633E+01  0.12156389552E+02  0.00000000000E+00 0. -1.
</event>
<event>
 7    1  0.3819117E-011  0.5052885E+02  0.7816164E-02  0.1300439E+00
        -11   -1    0    0    0    0  0.00000000000E+00  0.00000000000E+00  0.45593999997E+02  0.45594000000E+02  0.51100000000E-03 0.  1.
         11   -1    0    0    0    0 -0.00000000000E+00 -0.00000000000E+00 -0.45593999997E+02  0.45594000000E+02  0.51100000000E-03 0. -1.
    9900012    2    1    2    0    0  0.85385469034E+01  0.26031785387E+02  0.30043396639E+02  0.50528852010E+02  0.29999976171E+02 0.  0.
         12    1    1    2    0    0 -0.85385469034E+01 -0.26031785387E+02 -0.30043396639E+02  0.40659147990E+02  0.00000000000E+00 0. -1.
         11    1    3    3    0    0 -0.25734449787E+01 -0.36954111990E+01  0.48402975887E+01  0.66111393872E+01  0.51100000000E-03 0. -1.
        -11    1    3    3    0    0  0.72705984038E+01  0.13203473079E+02  0.21977126805E+02  0.26649341556E+02  0.51100000000E-03 0.  1.
         12    1    3    3    0    0  0.38413934784E+01  0.16523723507E+02  0.32259722448E+01  0.17268371067E+02  0.00000000000E+00 0. -1.
</event>
<event>
 7    1  0.3250765E-011  0.5052887E+02  0.7816164E-02  0.1300439E+00
        -11   -1    0    0    0    0  0.00000000000E+00  0.00000000000E+00  0.45593999997E+02  0.45594000000E+02  0.51100000000E-03 0. -1.
         11   -1    0    0    0    0 -0.00000000000E+00 -0.00000000000E+00 -0.45593999997E+02  0.45594000000E+02  0.51100000000E-03 0.  1.
    9900012    2    1    2    0    0  0.16523769986E+01  0.38337425606E+02 -0.13441582825E+02  0.50528871865E+02  0.30000036521E+02 0.  0.
         12    1    1    2    0    0 -0.16523769986E+01 -0.38337425606E+02  0.13441582825E+02  0.40659128135E+02  0.00000000000E+00 0. -1.
         11    1    3    3    0    0 -0.21154947431E+01  0.38386320289E+02 -0.15965904502E+02  0.41628055566E+02  0.51100000000E-03 0.  1.
        -11    1    3    3    0    0 -0.14783219719E+01 -0.79838048487E-01  0.32816566619E+01  0.36001500905E+01  0.51100000000E-03 0. -1.
        -12    1    3    3    0    0  0.52461937136E+01  0.30943365233E-01 -0.75733498473E+00  0.53006662082E+01  0.00000000000E+00 0.  1.
</event>
<event>
 7    1  0.3250765E-011  0.5052887E+02  0.7816164E-02  0.1300439E+00
        -11   -1    0    0    0    0  0.00000000000E+00  0.00000000000E+00  0.45593999997E+02  0.45594000000E+02  0.51100000000E-03 0.  1.
         11   -1    0    0    0    0 -0.00000000000E+00 -0.00000000000E+00 -0.45593999997E+02  0.45594000000E+02  0.51100000000E-03 0. -1.
    9900012    2    1    2    0    0  0.20551423397E+02  0.11343902739E+02  0.33198185514E+02  0.50528872433E+02  0.30000038249E+02 0.  0.
         12    1    1    2    0    0 -0.20551423397E+02 -0.11343902739E+02 -0.33198185514E+02  0.40659127567E+02  0.00000000000E+00 0. -1.
         11    1    3    3    0    0  0.14427784079E+02  0.14473496733E+01  0.16438956008E+02  0.21920197294E+02  0.51100000000E-03 0. -1.
        -11    1    3    3    0    0  0.35177989688E+01  0.13813829189E-01  0.17975097118E+02  0.18316091752E+02  0.51100000000E-03 0.  1.
         12    1    3    3    0    0  0.26058403497E+01  0.98827392366E+01 -0.12158676112E+01  0.10292583388E+02  0.00000000000E+00 0. -1.
</event>
<event>
 7    1  0.3250765E-011  0.5052884E+02  0.7816164E-02  0.1300439E+00
        -11   -1    0    0    0    0  0.00000000000E+00  0.00000000000E+00  0.45593999997E+02  0.45594000000E+02  0.51100000000E-03 0.  1.
         11   -1    0    0    0    0 -0.00000000000E+00 -0.00000000000E+00 -0.45593999997E+02  0.45594000000E+02  0.51100000000E-03 0. -1.
    9900012    2    1    2    0    0  0.17055808418E+02 -0.10951748905E+02  0.35246644933E+02  0.50528838869E+02  0.29999936225E+02 0.  0.
         12    1    1    2    0    0 -0.17055808418E+02  0.10951748905E+02 -0.35246644933E+02  0.40659161131E+02  0.00000000000E+00 0. -1.
         11    1    3    3    0    0  0.11559184108E+02  0.53050150025E+01  0.28317583720E+02  0.31042607323E+02  0.51100000000E-03 0. -1.
        -11    1    3    3    0    0  0.43983296887E+01 -0.11273531434E+02  0.76740600428E+01  0.14329306084E+02  0.51100000000E-03 0.  1.
        -12    1    3    3    0    0  0.10982946208E+01 -0.49832324735E+01 -0.74499882952E+00  0.51569254615E+01  0.00000000000E+00 0.  1.
</event>
<event>
 7    1  0.3250765E-011  0.5052885E+02  0.7816164E-02  0.1300439E+00
        -11   -1    0    0    0    0  0.00000000000E+00  0.00000000000E+00  0.45593999997E+02  0.45594000000E+02  0.51100000000E-03 0. -1.
         11   -1    0    0    0    0 -0.00000000000E+00 -0.00000000000E+00 -0.45593999997E+02  0.45594000000E+02  0.51100000000E-03 0.  1.
    9900012    2    1    2    0    0 -0.10036844354E+02 -0.22257645573E+02 -0.32511931990E+02  0.50528846630E+02  0.29999959817E+02 0.  0.
         12    1    1    2    0    0  0.10036844354E+02  0.22257645573E+02  0.32511931990E+02  0.40659153370E+02  0.00000000000E+00 0. -1.
         11    1    3    3    0    0 -0.11066392670E+02 -0.29491228430E+01 -0.11636118930E+02  0.16326715416E+02  0.51100000000E-03 0. -1.
        -11    1    3    3    0    0 -0.19579339351E+01  0.78172313666E+00  0.24766774910E+01  0.32524649133E+01  0.51100000000E-03 0.  1.
        -12    1    3    3    0    0  0.29874822512E+01 -0.20090245867E+02 -0.23352490551E+02  0.30949666301E+02  0.00000000000E+00 0.  1.
</event>
<event>
 7    1  0.3250765E-011  0.5052886E+02  0.7816164E-02  0.1300439E+00
        -11   -1    0    0    0    0  0.00000000000E+00  0.00000000000E+00  0.45593999997E+02  0.45594000000E+02  0.51100000000E-03 0.  1.
         11   -1    0    0    0    0 -0.00000000000E+00 -0.00000000000E+00 -0.45593999997E+02  0.45594000000E+02  0.51100000000E-03 0. -1.
    9900012    2    1    2    0    0  0.29042508695E+02 -0.19482269768E+02  0.20739805548E+02  0.50528859812E+02  0.29999999886E+02 0.  0.
         12    1    1    2    0    0 -0.29042508695E+02  0.19482269768E+02 -0.20739805548E+02  0.40659140188E+02  0.00000000000E+00 0. -1.
         11    1    3    3    0    0  0.49518409753E+00  0.39123266487E+01  0.60766441211E+01  0.72441087190E+01  0.51100000000E-03 0. -1.
        -11    1    3    3    0    0  0.14741384486E+02 -0.18321399512E+01  0.77958980211E+01  0.16776208736E+02  0.51100000000E-03 0.  1.
         12    1    3    3    0    0  0.13805940112E+02 -0.21562456466E+02  0.68672634062E+01  0.26508542357E+02  0.00000000000E+00 0. -1.
</event>
<event>
 7    1  0.3250765E-011  0.5052886E+02  0.7816164E-02  0.1300439E+00
        -11   -1    0    0    0    0  0.00000000000E+00  0.00000000000E+00  0.45593999997E+02  0.45594000000E+02  0.51100000000E-03 0.  1.
         11   -1    0    0    0    0 -0.00000000000E+00 -0.00000000000E+00 -0.45593999997E+02  0.45594000000E+02  0.51100000000E-03 0. -1.
    9900012    2    1    2    0    0  0.30119962265E+01  0.21936623352E+01  0.40488042696E+02  0.50528857399E+02  0.29999992550E+02 0.  0.
         12    1    1    2    0    0 -0.30119962265E+01 -0.21936623352E+01 -0.40488042696E+02  0.40659142601E+02  0.00000000000E+00 0. -1.
         11    1    3    3    0    0 -0.61802196330E+01 -0.20290947283E+00 -0.12597333182E+01  0.63105637831E+01  0.51100000000E-03 0. -1.
        -11    1    3    3    0    0  0.10139178075E+02  0.16041883077E+01  0.20422218412E+02  0.22857019869E+02  0.51100000000E-03 0.  1.
        -12    1    3    3    0    0 -0.94696221544E+00  0.79238350035E+00  0.21325557602E+02  0.21361273746E+02  0.00000000000E+00 0.  1.
</event>
<event>
 7    1  0.3250765E-011  0.5052885E+02  0.7816164E-02  0.1300439E+00
        -11   -1    0    0    0    0  0.00000000000E+00  0.00000000000E+00  0.45593999997E+02  0.45594000000E+02  0.51100000000E-03 0.  1.
         11   -1    0    0    0    0 -0.00000000000E+00 -0.00000000000E+00 -0.45593999997E+02  0.45594000000E+02  0.51100000000E-03 0. -1.
    9900012    2    1    2    0    0  0.20111961168E+02  0.28269508980E+02  0.21201660290E+02  0.50528849504E+02  0.29999968551E+02 0.  0.
         12    1    1    2    0    0 -0.20111961168E+02 -0.28269508980E+02 -0.21201660290E+02  0.40659150496E+02  0.00000000000E+00 0. -1.
         11    1    3    3    0    0  0.11381719559E+01  0.19299223375E+02  0.79387583707E+01  0.20899266566E+02  0.51100000000E-03 0. -1.
        -11    1    3    3    0    0  0.16556610573E+02  0.13109906125E+02  0.81924932096E+01  0.22651885960E+02  0.51100000000E-03 0.  1.
         12    1    3    3    0    0  0.24171786390E+01 -0.41396205198E+01  0.50704087099E+01  0.69776969773E+01  0.00000000000E+00 0. -1.
</event>
<event>
 7    1  0.3250765E-011  0.5052886E+02  0.7816164E-02  0.1300439E+00
        -11   -1    0    0    0    0  0.00000000000E+00  0.00000000000E+00  0.45593999997E+02  0.45594000000E+02  0.51100000000E-03 0.  1.
         11   -1    0    0    0    0 -0.00000000000E+00 -0.00000000000E+00 -0.45593999997E+02  0.45594000000E+02  0.51100000000E-03 0. -1.
    9900012    2    1    2    0    0 -0.36951135010E+02 -0.70088858076E+01  0.15448446747E+02  0.50528863687E+02  0.30000011664E+02 0.  0.
         12    1    1    2    0    0  0.36951135010E+02  0.70088858076E+01 -0.15448446747E+02  0.40659136313E+02  0.00000000000E+00 0. -1.
         11    1    3    3    0    0 -0.23868144850E+02 -0.75750282396E+01  0.71680421040E+01  0.26047076981E+02  0.51100000000E-03 0. -1.
        -11    1    3    3    0    0 -0.10682542511E+02 -0.21759056171E+01  0.13972904956E+02  0.17722679056E+02  0.51100000000E-03 0.  1.
         12    1    3    3    0    0 -0.24004476493E+01  0.27420480491E+01 -0.56925003125E+01  0.67591076503E+01  0.00000000000E+00 0. -1.
</event>
<event>
 7    1  0.3250765E-011  0.5052886E+02  0.7816164E-02  0.1300439E+00
        -11   -1    0    0    0    0  0.00000000000E+00  0.00000000000E+00  0.45593999997E+02  0.45594000000E+02  0.51100000000E-03 0.  1.
         11   -1    0    0    0    0 -0.00000000000E+00 -0.00000000000E+00 -0.45593999997E+02  0.45594000000E+02  0.51100000000E-03 0. -1.
    9900012    2    1    2    0    0  0.28581625480E+02 -0.11027930598E+02  0.26732772365E+02  0.50528859740E+02  0.29999999665E+02 0.  0.
         12    1    1    2    0    0 -0.28581625480E+02  0.11027930598E+02 -0.26732772365E+02  0.40659140260E+02  0.00000000000E+00 0. -1.
         11    1    3    3    0    0  0.18895064571E+02 -0.12202760975E+02  0.15664734220E+02  0.27410121105E+02  0.51100000000E-03 0. -1.
        -11    1    3    3    0    0  0.11133428816E+02 -0.55696491278E+01  0.36141991632E+01  0.12962895682E+02  0.51100000000E-03 0.  1.
         12    1    3    3    0    0 -0.14468679062E+01  0.67444795044E+01  0.74538389819E+01  0.10155842953E+02  0.00000000000E+00 0. -1.
</event>
<event>
 7    1  0.3250765E-011  0.5052886E+02  0.7816164E-02  0.1300439E+00
        -11   -1    0    0    0    0  0.00000000000E+00  0.00000000000E+00  0.45593999997E+02  0.45594000000E+02  0.51100000000E-03 0. -1.
         11   -1    0    0    0    0 -0.00000000000E+00 -0.00000000000E+00 -0.45593999997E+02  0.45594000000E+02  0.51100000000E-03 0.  1.
    9900012    2    1    2    0    0  0.17835963586E+02  0.58940896619E+01 -0.36059724648E+02  0.50528860417E+02  0.30000001722E+02 0.  0.
         12    1    1    2    0    0 -0.17835963586E+02 -0.58940896619E+01  0.36059724648E+02  0.40659139583E+02  0.00000000000E+00 0. -1.
         11    1    3    3    0    0  0.15798472498E+02  0.17806752551E+01 -0.15341490767E+02  0.22093525677E+02  0.51100000000E-03 0.  1.
        -11    1    3    3    0    0  0.42958353255E+01  0.39455576463E+01  0.15635769195E+01  0.60387415352E+01  0.51100000000E-03 0. -1.
        -12    1    3    3    0    0 -0.22583442381E+01  0.16785676044E+00 -0.22281810801E+02  0.22396593204E+02  0.00000000000E+00 0.  1.
</event>
<event>
 7    1  0.3250765E-011  0.5052886E+02  0.7816164E-02  0.1300439E+00
        -11   -1    0    0    0    0  0.00000000000E+00  0.00000000000E+00  0.45593999997E+02  0.45594000000E+02  0.51100000000E-03 0. -1.
         11   -1    0    0    0    0 -0.00000000000E+00 -0.00000000000E+00 -0.45593999997E+02  0.45594000000E+02  0.51100000000E-03 0.  1.
    9900012    2    1    2    0    0  0.24549424627E+02  0.32398499603E+02 -0.91019892709E+00  0.50528862182E+02  0.30000007088E+02 0.  0.
         12    1    1    2    0    0 -0.24549424627E+02 -0.32398499603E+02  0.91019892709E+00  0.40659137818E+02  0.00000000000E+00 0. -1.
         11    1    3    3    0    0  0.19705058766E+01  0.57872097414E+01 -0.65785686923E+01  0.89806601261E+01  0.51100000000E-03 0. -1.
        -11    1    3    3    0    0  0.10871290288E+02  0.27347292859E+02  0.40126383135E+01  0.29701189299E+02  0.51100000000E-03 0.  1.
         12    1    3    3    0    0  0.11707628462E+02 -0.73600299809E+00  0.16557314517E+01  0.11847012757E+02  0.00000000000E+00 0. -1.
</event>
<event>
 7    1  0.3250765E-011  0.5052884E+02  0.7816164E-02  0.1300439E+00
        -11   -1    0    0    0    0  0.00000000000E+00  0.00000000000E+00  0.45593999997E+02  0.45594000000E+02  0.51100000000E-03 0.  1.
         11   -1    0    0    0    0 -0.00000000000E+00 -0.00000000000E+00 -0.45593999997E+02  0.45594000000E+02  0.51100000000E-03 0. -1.
    9900012    2    1    2    0    0  0.24367945935E+02  0.12698114581E+02  0.29968790936E+02  0.50528839493E+02  0.29999938121E+02 0.  0.
         12    1    1    2    0    0 -0.24367945935E+02 -0.12698114581E+02 -0.29968790936E+02  0.40659160507E+02  0.00000000000E+00 0. -1.
         11    1    3    3    0    0  0.11718892921E+01  0.11340124779E+02  0.22264141552E+02  0.25013271553E+02  0.51100000000E-03 0. -1.
        -11    1    3    3    0    0  0.14329806363E+02  0.46390228719E+00  0.83315654027E+01  0.16582326075E+02  0.51100000000E-03 0.  1.
        -12    1    3    3    0    0  0.88662502802E+01  0.89408751475E+00 -0.62691601823E+00  0.89332418644E+01  0.00000000000E+00 0.  1.
</event>
<event>
 7    1  0.3250765E-011  0.5052886E+02  0.7816164E-02  0.1300439E+00
        -11   -1    0    0    0    0  0.00000000000E+00  0.00000000000E+00  0.45593999997E+02  0.45594000000E+02  0.51100000000E-03 0. -1.
         11   -1    0    0    0    0 -0.00000000000E+00 -0.00000000000E+00 -0.45593999997E+02  0.45594000000E+02  0.51100000000E-03 0.  1.
    9900012    2    1    2    0    0 -0.61426992578E+00  0.39854353623E+02 -0.80261269832E+01  0.50528861487E+02  0.30000004975E+02 0.  0.
         12    1    1    2    0    0  0.61426992578E+00 -0.39854353623E+02  0.80261269832E+01  0.40659138513E+02  0.00000000000E+00 0. -1.
         11    1    3    3    0    0  0.16684416301E+01 -0.12032250419E+01  0.13717628349E+01  0.24724848859E+01  0.51100000000E-03 0. -1.
        -11    1    3    3    0    0  0.17405217653E+01 -0.21125053881E+01  0.18006693263E+01  0.32763554927E+01  0.51100000000E-03 0.  1.
        -12    1    3    3    0    0 -0.40232333212E+01  0.43170084054E+02 -0.11198559144E+02  0.44780021108E+02  0.00000000000E+00 0.  1.
</event>
<event>
 7    1  0.3250765E-011  0.5052887E+02  0.7816164E-02  0.1300439E+00
        -11   -1    0    0    0    0  0.00000000000E+00  0.00000000000E+00  0.45593999997E+02  0.45594000000E+02  0.51100000000E-03 0.  1.
         11   -1    0    0    0    0 -0.00000000000E+00 -0.00000000000E+00 -0.45593999997E+02  0.45594000000E+02  0.51100000000E-03 0. -1.
    9900012    2    1    2    0    0  0.19167747654E+02  0.17866133067E+02  0.31089607429E+02  0.50528868787E+02  0.30000027165E+02 0.  0.
         12    1    1    2    0    0 -0.19167747654E+02 -0.17866133067E+02 -0.31089607429E+02  0.40659131213E+02  0.00000000000E+00 0. -1.
         11    1    3    3    0    0 -0.10791931132E+01 -0.64156991539E+01  0.41145111306E+01  0.76977305431E+01  0.51100000000E-03 0. -1.
        -11    1    3    3    0    0 -0.49426357004E+00  0.46572486707E+01  0.31643633265E+01  0.56522081685E+01  0.51100000000E-03 0.  1.
        -12    1    3    3    0    0  0.20741204337E+02  0.19624583550E+02  0.23810732972E+02  0.37178930075E+02  0.00000000000E+00 0.  1.
</event>
<event>
 7    1  0.3250765E-011  0.5052886E+02  0.7816164E-02  0.1300439E+00
        -11   -1    0    0    0    0  0.00000000000E+00  0.00000000000E+00  0.45593999997E+02  0.45594000000E+02  0.51100000000E-03 0.  1.
         11   -1    0    0    0    0 -0.00000000000E+00 -0.00000000000E+00 -0.45593999997E+02  0.45594000000E+02  0.51100000000E-03 0. -1.
    9900012    2    1    2    0    0 -0.34662448128E+02 -0.19005346881E+02  0.95119384251E+01  0.50528862123E+02  0.30000006908E+02 0.  0.
         12    1    1    2    0    0  0.34662448128E+02  0.19005346881E+02 -0.95119384251E+01  0.40659137877E+02  0.00000000000E+00 0. -1.
         11    1    3    3    0    0 -0.21306018133E+02 -0.17256977700E+02  0.76240158876E+01  0.28458308216E+02  0.51100000000E-03 0. -1.
        -11    1    3    3    0    0 -0.17030695623E+02 -0.21542200749E+01  0.42487664691E+01  0.17684379387E+02  0.51100000000E-03 0.  1.
         12    1    3    3    0    0  0.36742656274E+01  0.40585089359E+00 -0.23608439316E+01  0.43861745198E+01  0.00000000000E+00 0. -1.
</event>
<event>
 7    1  0.3250765E-011  0.5052885E+02  0.7816164E-02  0.1300439E+00
        -11   -1    0    0    0    0  0.00000000000E+00  0.00000000000E+00  0.45593999997E+02  0.45594000000E+02  0.51100000000E-03 0.  1.
         11   -1    0    0    0    0 -0.00000000000E+00 -0.00000000000E+00 -0.45593999997E+02  0.45594000000E+02  0.51100000000E-03 0. -1.
    9900012    2    1    2    0    0 -0.14495450361E+02  0.33831320675E+02  0.17276878869E+02  0.50528845026E+02  0.29999954940E+02 0.  0.
         12    1    1    2    0    0  0.14495450361E+02 -0.33831320675E+02 -0.17276878869E+02  0.40659154974E+02  0.00000000000E+00 0. -1.
         11    1    3    3    0    0 -0.99038233170E+01  0.87183878254E+01  0.70664439717E+01  0.14967652897E+02  0.51100000000E-03 0. -1.
        -11    1    3    3    0    0 -0.54387923531E+01  0.87870799142E+01  0.15279029284E+02  0.18445649129E+02  0.51100000000E-03 0.  1.
         12    1    3    3    0    0  0.84716530919E+00  0.16325852935E+02 -0.50685943867E+01  0.17115543000E+02  0.00000000000E+00 0. -1.
</event>
<event>
 7    1  0.3250765E-011  0.5052886E+02  0.7816164E-02  0.1300439E+00
        -11   -1    0    0    0    0  0.00000000000E+00  0.00000000000E+00  0.45593999997E+02  0.45594000000E+02  0.51100000000E-03 0. -1.
         11   -1    0    0    0    0 -0.00000000000E+00 -0.00000000000E+00 -0.45593999997E+02  0.45594000000E+02  0.51100000000E-03 0.  1.
    9900012    2    1    2    0    0  0.27760906713E+02  0.26636985162E+02 -0.13151759307E+02  0.50528859664E+02  0.29999999433E+02 0.  0.
         12    1    1    2    0    0 -0.27760906713E+02 -0.26636985162E+02  0.13151759307E+02  0.40659140336E+02  0.00000000000E+00 0. -1.
         11    1    3    3    0    0 -0.10491340521E+01  0.65029676638E+01 -0.95919115311E+01  0.11635894369E+02  0.51100000000E-03 0. -1.
        -11    1    3    3    0    0  0.11056801500E+02  0.91016977915E+00  0.37718192943E+01  0.11717844916E+02  0.51100000000E-03 0.  1.
        -12    1    3    3    0    0  0.17753239266E+02  0.19223847719E+02 -0.73316670699E+01  0.27175120378E+02  0.00000000000E+00 0.  1.
</event>
<event>
 7    1  0.3250765E-011  0.5052886E+02  0.7816164E-02  0.1300439E+00
        -11   -1    0    0    0    0  0.00000000000E+00  0.00000000000E+00  0.45593999997E+02  0.45594000000E+02  0.51100000000E-03 0.  1.
         11   -1    0    0    0    0 -0.00000000000E+00 -0.00000000000E+00 -0.45593999997E+02  0.45594000000E+02  0.51100000000E-03 0. -1.
    9900012    2    1    2    0    0  0.17962771036E+02  0.36038046778E+02  0.56358976036E+01  0.50528864487E+02  0.30000014095E+02 0.  0.
         12    1    1    2    0    0 -0.17962771036E+02 -0.36038046778E+02 -0.56358976036E+01  0.40659135513E+02  0.00000000000E+00 0. -1.
         11    1    3    3    0    0  0.15848691895E+02  0.30197769012E+02  0.16782493412E+01  0.34145318994E+02  0.51100000000E-03 0. -1.
        -11    1    3    3    0    0 -0.17004148452E+01  0.10050621842E+02  0.29673052843E+01  0.10616558339E+02  0.51100000000E-03 0.  1.
         12    1    3    3    0    0  0.38144939869E+01 -0.42103440764E+01  0.99034297806E+00  0.57669871538E+01  0.00000000000E+00 0. -1.
</event>
<event>
 7    1  0.3250765E-011  0.5052886E+02  0.7816164E-02  0.1300439E+00
        -11   -1    0    0    0    0  0.00000000000E+00  0.00000000000E+00  0.45593999997E+02  0.45594000000E+02  0.51100000000E-03 0. -1.
         11   -1    0    0    0    0 -0.00000000000E+00 -0.00000000000E+00 -0.45593999997E+02  0.45594000000E+02  0.51100000000E-03 0.  1.
    9900012    2    1    2    0    0  0.33380134705E+02  0.11976477597E+02 -0.19887089250E+02  0.50528859239E+02  0.29999998143E+02 0.  0.
         12    1    1    2    0    0 -0.33380134705E+02 -0.11976477597E+02  0.19887089250E+02  0.40659140761E+02  0.00000000000E+00 0. -1.
         11    1    3    3    0    0  0.13667254559E+02  0.98216693318E+01 -0.89289306728E+01  0.19052161002E+02  0.51100000000E-03 0. -1.
        -11    1    3    3    0    0  0.22972323874E+02  0.79774323559E+00 -0.13916321462E+02  0.26870579854E+02  0.51100000000E-03 0.  1.
        -12    1    3    3    0    0 -0.32594437269E+01  0.13570650293E+01  0.29581628844E+01  0.46061183825E+01  0.00000000000E+00 0.  1.
</event>
<event>
 7    1  0.3250765E-011  0.5052887E+02  0.7816164E-02  0.1300439E+00
        -11   -1    0    0    0    0  0.00000000000E+00  0.00000000000E+00  0.45593999997E+02  0.45594000000E+02  0.51100000000E-03 0.  1.
         11   -1    0    0    0    0 -0.00000000000E+00 -0.00000000000E+00 -0.45593999997E+02  0.45594000000E+02  0.51100000000E-03 0. -1.
    9900012    2    1    2    0    0  0.25595845529E+02  0.12314890124E+02  0.29092282874E+02  0.50528871260E+02  0.30000034680E+02 0.  0.
         12    1    1    2    0    0 -0.25595845529E+02 -0.12314890124E+02 -0.29092282874E+02  0.40659128740E+02  0.00000000000E+00 0. -1.
         11    1    3    3    0    0  0.14897887643E+02  0.87991124468E+01  0.16935533931E+02  0.24211231812E+02  0.51100000000E-03 0. -1.
        -11    1    3    3    0    0  0.14822948797E+02  0.69069175509E+01  0.13026496497E+02  0.20907293760E+02  0.51100000000E-03 0.  1.
         12    1    3    3    0    0 -0.41249909103E+01 -0.33911398737E+01 -0.86974755463E+00  0.54103456879E+01  0.00000000000E+00 0. -1.
</event>
<event>
 7    1  0.3250765E-011  0.5052886E+02  0.7816164E-02  0.1300439E+00
        -11   -1    0    0    0    0  0.00000000000E+00  0.00000000000E+00  0.45593999997E+02  0.45594000000E+02  0.51100000000E-03 0.  1.
         11   -1    0    0    0    0 -0.00000000000E+00 -0.00000000000E+00 -0.45593999997E+02  0.45594000000E+02  0.51100000000E-03 0. -1.
    9900012    2    1    2    0    0 -0.13067023994E+02  0.35982120836E+02  0.13700571501E+02  0.50528858403E+02  0.29999995602E+02 0.  0.
         12    1    1    2    0    0  0.13067023994E+02 -0.35982120836E+02 -0.13700571501E+02  0.40659141597E+02  0.00000000000E+00 0. -1.
         11    1    3    3    0    0  0.23886138583E+01 -0.26408545593E+01  0.22227815131E+00  0.35677719665E+01  0.51100000000E-03 0. -1.
        -11    1    3    3    0    0 -0.75111358078E+01  0.33480548673E+01  0.56145214488E+01  0.99573833851E+01  0.51100000000E-03 0.  1.
         12    1    3    3    0    0 -0.79445020447E+01  0.35274920528E+02  0.78637719010E+01  0.37003703051E+02  0.00000000000E+00 0. -1.
</event>
<event>
 7    1  0.3250765E-011  0.5052887E+02  0.7816164E-02  0.1300439E+00
        -11   -1    0    0    0    0  0.00000000000E+00  0.00000000000E+00  0.45593999997E+02  0.45594000000E+02  0.51100000000E-03 0.  1.
         11   -1    0    0    0    0 -0.00000000000E+00 -0.00000000000E+00 -0.45593999997E+02  0.45594000000E+02  0.51100000000E-03 0. -1.
    9900012    2    1    2    0    0  0.25359323117E+02  0.12614194645E+02  0.29171077062E+02  0.50528869261E+02  0.30000028605E+02 0.  0.
         12    1    1    2    0    0 -0.25359323117E+02 -0.12614194645E+02 -0.29171077062E+02  0.40659130739E+02  0.00000000000E+00 0. -1.
         11    1    3    3    0    0  0.14215934388E+02 -0.12690043966E+01  0.13057778982E+02  0.19344476082E+02  0.51100000000E-03 0. -1.
        -11    1    3    3    0    0  0.15758971268E+02  0.73512845303E+01  0.62330039011E+01  0.18472598560E+02  0.51100000000E-03 0.  1.
         12    1    3    3    0    0 -0.46155825392E+01  0.65319145113E+01  0.98802941795E+01  0.12711794619E+02  0.00000000000E+00 0. -1.
</event>
<event>
 7    1  0.3250765E-011  0.5052885E+02  0.7816164E-02  0.1300439E+00
        -11   -1    0    0    0    0  0.00000000000E+00  0.00000000000E+00  0.45593999997E+02  0.45594000000E+02  0.51100000000E-03 0.  1.
         11   -1    0    0    0    0 -0.00000000000E+00 -0.00000000000E+00 -0.45593999997E+02  0.45594000000E+02  0.51100000000E-03 0. -1.
    9900012    2    1    2    0    0  0.37470480547E+01  0.15069750957E+02  0.37576971531E+02  0.50528849093E+02  0.29999967303E+02 0.  0.
         12    1    1    2    0    0 -0.37470480547E+01 -0.15069750957E+02 -0.37576971531E+02  0.40659150907E+02  0.00000000000E+00 0. -1.
         11    1    3    3    0    0  0.90953173137E+01  0.81698739812E+01  0.19478665122E+02  0.22997609291E+02  0.51100000000E-03 0. -1.
        -11    1    3    3    0    0 -0.23968444722E-01 -0.63687088087E+01  0.44826037997E+01  0.77881168111E+01  0.51100000000E-03 0.  1.
        -12    1    3    3    0    0 -0.53243008143E+01  0.13268585784E+02  0.13615702610E+02  0.19743122991E+02  0.00000000000E+00 0.  1.
</event>
<event>
 7    1  0.3250765E-011  0.5052887E+02  0.7816164E-02  0.1300439E+00
        -11   -1    0    0    0    0  0.00000000000E+00  0.00000000000E+00  0.45593999997E+02  0.45594000000E+02  0.51100000000E-03 0.  1.
         11   -1    0    0    0    0 -0.00000000000E+00 -0.00000000000E+00 -0.45593999997E+02  0.45594000000E+02  0.51100000000E-03 0. -1.
    9900012    2    1    2    0    0  0.72157575073E+01  0.28112310764E+02  0.28474475116E+02  0.50528869340E+02  0.30000028845E+02 0.  0.
         12    1    1    2    0    0 -0.72157575073E+01 -0.28112310764E+02 -0.28474475116E+02  0.40659130660E+02  0.00000000000E+00 0. -1.
         11    1    3    3    0    0  0.32052140174E+01 -0.35605839643E+01  0.36781636656E+01  0.60398711308E+01  0.51100000000E-03 0. -1.
        -11    1    3    3    0    0  0.79837203920E+01  0.69966731792E+01  0.23003782707E+01  0.10862088534E+02  0.51100000000E-03 0.  1.
        -12    1    3    3    0    0 -0.39731769021E+01  0.24676221549E+02  0.22495933180E+02  0.33626909675E+02  0.00000000000E+00 0.  1.
</event>
<event>
 7    1  0.3250765E-011  0.5052888E+02  0.7816164E-02  0.1300439E+00
        -11   -1    0    0    0    0  0.00000000000E+00  0.00000000000E+00  0.45593999997E+02  0.45594000000E+02  0.51100000000E-03 0.  1.
         11   -1    0    0    0    0 -0.00000000000E+00 -0.00000000000E+00 -0.45593999997E+02  0.45594000000E+02  0.51100000000E-03 0. -1.
    9900012    2    1    2    0    0  0.24613247062E+01  0.23476840081E+02  0.33105048116E+02  0.50528876175E+02  0.30000049620E+02 0.  0.
         12    1    1    2    0    0 -0.24613247062E+01 -0.23476840081E+02 -0.33105048116E+02  0.40659123825E+02  0.00000000000E+00 0. -1.
         11    1    3    3    0    0 -0.41908068516E+01  0.12249044181E+02 -0.53627836503E+00  0.12957219615E+02  0.51100000000E-03 0. -1.
        -11    1    3    3    0    0  0.51747393550E+01  0.41372418946E+00  0.16057728849E+02  0.16876011115E+02  0.51100000000E-03 0.  1.
        -12    1    3    3    0    0  0.14773922027E+01  0.10814071710E+02  0.17583597632E+02  0.20695645444E+02  0.00000000000E+00 0.  1.
</event>
<event>
 7    1  0.3250765E-011  0.5052886E+02  0.7816164E-02  0.1300439E+00
        -11   -1    0    0    0    0  0.00000000000E+00  0.00000000000E+00  0.45593999997E+02  0.45594000000E+02  0.51100000000E-03 0. -1.
         11   -1    0    0    0    0 -0.00000000000E+00 -0.00000000000E+00 -0.45593999997E+02  0.45594000000E+02  0.51100000000E-03 0.  1.
    9900012    2    1    2    0    0 -0.40161840203E+02 -0.15596619423E+01 -0.61449075610E+01  0.50528857820E+02  0.29999993830E+02 0.  0.
         12    1    1    2    0    0  0.40161840203E+02  0.15596619423E+01  0.61449075610E+01  0.40659142180E+02  0.00000000000E+00 0. -1.
         11    1    3    3    0    0 -0.47737353563E+01 -0.18080325698E+01  0.89452139512E+01  0.10299241910E+02  0.51100000000E-03 0. -1.
        -11    1    3    3    0    0 -0.11804602411E+02  0.25201532632E+01  0.12661923061E+00  0.12071281757E+02  0.51100000000E-03 0.  1.
         12    1    3    3    0    0 -0.23583502435E+02 -0.22717826357E+01 -0.15216740743E+02  0.28158334153E+02  0.00000000000E+00 0. -1.
</event>
<event>
 7    1  0.3250765E-011  0.5052888E+02  0.7816164E-02  0.1300439E+00
        -11   -1    0    0    0    0  0.00000000000E+00  0.00000000000E+00  0.45593999997E+02  0.45594000000E+02  0.51100000000E-03 0.  1.
         11   -1    0    0    0    0 -0.00000000000E+00 -0.00000000000E+00 -0.45593999997E+02  0.45594000000E+02  0.51100000000E-03 0. -1.
    9900012    2    1    2    0    0  0.16914559121E+02  0.20581517170E+02  0.30715846088E+02  0.50528876052E+02  0.30000049248E+02 0.  0.
         12    1    1    2    0    0 -0.16914559121E+02 -0.20581517170E+02 -0.30715846088E+02  0.40659123948E+02  0.00000000000E+00 0. -1.
         11    1    3    3    0    0  0.18921254444E+01  0.15027357044E+02  0.16573171196E+02  0.22451538971E+02  0.51100000000E-03 0. -1.
        -11    1    3    3    0    0 -0.31641017633E+00 -0.38194257936E+01 -0.16278299996E+01  0.41638875539E+01  0.51100000000E-03 0.  1.
        -12    1    3    3    0    0  0.15338843853E+02  0.93735859201E+01  0.15770504892E+02  0.23913449527E+02  0.00000000000E+00 0.  1.
</event>
<event>
 7    1  0.3250765E-011  0.5052885E+02  0.7816164E-02  0.1300439E+00
        -11   -1    0    0    0    0  0.00000000000E+00  0.00000000000E+00  0.45593999997E+02  0.45594000000E+02  0.51100000000E-03 0.  1.
         11   -1    0    0    0    0 -0.00000000000E+00 -0.00000000000E+00 -0.45593999997E+02  0.45594000000E+02  0.51100000000E-03 0. -1.
    9900012    2    1    2    0    0 -0.40191685274E+02 -0.61421488853E+01  0.26310112956E+00  0.50528846291E+02  0.29999958787E+02 0.  0.
         12    1    1    2    0    0  0.40191685274E+02  0.61421488853E+01 -0.26310112956E+00  0.40659153709E+02  0.00000000000E+00 0. -1.
         11    1    3    3    0    0 -0.23388991273E+02 -0.15591880233E+02 -0.35074458704E+01  0.28327615833E+02  0.51100000000E-03 0. -1.
        -11    1    3    3    0    0 -0.66164585871E+01  0.56198267776E+01 -0.32289994237E+01  0.92620955935E+01  0.51100000000E-03 0.  1.
        -12    1    3    3    0    0 -0.10186235414E+02  0.38299045700E+01  0.69995464237E+01  0.12939134865E+02  0.00000000000E+00 0.  1.
</event>
<event>
 7    1  0.3250765E-011  0.5052886E+02  0.7816164E-02  0.1300439E+00
        -11   -1    0    0    0    0  0.00000000000E+00  0.00000000000E+00  0.45593999997E+02  0.45594000000E+02  0.51100000000E-03 0.  1.
         11   -1    0    0    0    0 -0.00000000000E+00 -0.00000000000E+00 -0.45593999997E+02  0.45594000000E+02  0.51100000000E-03 0. -1.
    9900012    2    1    2    0    0 -0.17109852947E+02 -0.36604409827E+02  0.45316143374E+01  0.50528863079E+02  0.30000009814E+02 0.  0.
         12    1    1    2    0    0  0.17109852947E+02  0.36604409827E+02 -0.45316143374E+01  0.40659136921E+02  0.00000000000E+00 0. -1.
         11    1    3    3    0    0 -0.99145428071E+01 -0.34255114037E+01  0.63161932433E+01  0.12244451184E+02  0.51100000000E-03 0.  1.
        -11    1    3    3    0    0 -0.11927037740E+02 -0.29342405381E+02  0.75937949249E+00  0.31682923481E+02  0.51100000000E-03 0. -1.
         12    1    3    3    0    0  0.47317276002E+01 -0.38364930426E+01 -0.25439583983E+01  0.66014884141E+01  0.00000000000E+00 0. -1.
</event>
<event>
 7    1  0.3250765E-011  0.5052886E+02  0.7816164E-02  0.1300439E+00
        -11   -1    0    0    0    0  0.00000000000E+00  0.00000000000E+00  0.45593999997E+02  0.45594000000E+02  0.51100000000E-03 0. -1.
         11   -1    0    0    0    0 -0.00000000000E+00 -0.00000000000E+00 -0.45593999997E+02  0.45594000000E+02  0.51100000000E-03 0.  1.
    9900012    2    1    2    0    0 -0.17118886189E+01  0.40127313676E+02 -0.63272217552E+01  0.50528860798E+02  0.30000002883E+02 0.  0.
         12    1    1    2    0    0  0.17118886189E+01 -0.40127313676E+02  0.63272217552E+01  0.40659139202E+02  0.00000000000E+00 0. -1.
         11    1    3    3    0    0  0.18522770332E+01  0.71173914648E+01  0.51132096492E+01  0.89572933774E+01  0.51100000000E-03 0. -1.
        -11    1    3    3    0    0  0.14743558164E+01 -0.16574336511E+01 -0.56431973408E+01  0.60635375706E+01  0.51100000000E-03 0.  1.
        -12    1    3    3    0    0 -0.50385214685E+01  0.34667355862E+02 -0.57972340636E+01  0.35508029850E+02  0.00000000000E+00 0.  1.
</event>
<event>
 7    1  0.3250765E-011  0.5052888E+02  0.7816164E-02  0.1300439E+00
        -11   -1    0    0    0    0  0.00000000000E+00  0.00000000000E+00  0.45593999997E+02  0.45594000000E+02  0.51100000000E-03 0. -1.
         11   -1    0    0    0    0 -0.00000000000E+00 -0.00000000000E+00 -0.45593999997E+02  0.45594000000E+02  0.51100000000E-03 0.  1.
    9900012    2    1    2    0    0 -0.39836506174E+02 -0.77789041001E+01  0.23885711200E+01  0.50528882386E+02  0.30000068502E+02 0.  0.
         12    1    1    2    0    0  0.39836506174E+02  0.77789041001E+01 -0.23885711200E+01  0.40659117614E+02  0.00000000000E+00 0. -1.
         11    1    3    3    0    0 -0.28765373579E+02 -0.11130278671E+02  0.17150271698E+01  0.30891279334E+02  0.51100000000E-03 0.  1.
        -11    1    3    3    0    0 -0.11777183674E+02  0.39745116047E+01  0.62984150026E+01  0.13934447588E+02  0.51100000000E-03 0. -1.
         12    1    3    3    0    0  0.70605107968E+00 -0.62313703388E+00 -0.56248710524E+01  0.57031554640E+01  0.00000000000E+00 0. -1.
</event>
<event>
 7    1  0.3250765E-011  0.5052889E+02  0.7816164E-02  0.1300439E+00
        -11   -1    0    0    0    0  0.00000000000E+00  0.00000000000E+00  0.45593999997E+02  0.45594000000E+02  0.51100000000E-03 0.  1.
         11   -1    0    0    0    0 -0.00000000000E+00 -0.00000000000E+00 -0.45593999997E+02  0.45594000000E+02  0.51100000000E-03 0. -1.
    9900012    2    1    2    0    0 -0.10641165111E+02 -0.19257765831E+02  0.34191622845E+02  0.50528892625E+02  0.30000099624E+02 0.  0.
         12    1    1    2    0    0  0.10641165111E+02  0.19257765831E+02 -0.34191622845E+02  0.40659107375E+02  0.00000000000E+00 0. -1.
         11    1    3    3    0    0  0.19633319487E+01  0.24985214269E+01  0.54587597804E+01  0.63162758222E+01  0.51100000000E-03 0. -1.
        -11    1    3    3    0    0  0.13829465123E+01 -0.14504981260E+02  0.23425605768E+02  0.27587425184E+02  0.51100000000E-03 0.  1.
         12    1    3    3    0    0 -0.13987443572E+02 -0.72513059977E+01  0.53072572966E+01  0.16625191619E+02  0.00000000000E+00 0. -1.
</event>
<event>
 7    1  0.3250765E-011  0.5052886E+02  0.7816164E-02  0.1300439E+00
        -11   -1    0    0    0    0  0.00000000000E+00  0.00000000000E+00  0.45593999997E+02  0.45594000000E+02  0.51100000000E-03 0.  1.
         11   -1    0    0    0    0 -0.00000000000E+00 -0.00000000000E+00 -0.45593999997E+02  0.45594000000E+02  0.51100000000E-03 0. -1.
    9900012    2    1    2    0    0 -0.60900834753E+01  0.16638941352E+02  0.36595382297E+02  0.50528862140E+02  0.30000006960E+02 0.  0.
         12    1    1    2    0    0  0.60900834753E+01 -0.16638941352E+02 -0.36595382297E+02  0.40659137860E+02  0.00000000000E+00 0. -1.
         11    1    3    3    0    0 -0.19767611389E+01 -0.29061416562E-01 -0.28168419777E+01  0.34413700984E+01  0.51100000000E-03 0. -1.
        -11    1    3    3    0    0  0.66427552585E+01  0.64440206223E+01  0.23855639923E+02  0.25587949421E+02  0.51100000000E-03 0.  1.
        -12    1    3    3    0    0 -0.10756077595E+02  0.10223982147E+02  0.15556584352E+02  0.21499542620E+02  0.00000000000E+00 0.  1.
</event>
<event>
 7    1  0.3250765E-011  0.5052886E+02  0.7816164E-02  0.1300439E+00
        -11   -1    0    0    0    0  0.00000000000E+00  0.00000000000E+00  0.45593999997E+02  0.45594000000E+02  0.51100000000E-03 0.  1.
         11   -1    0    0    0    0 -0.00000000000E+00 -0.00000000000E+00 -0.45593999997E+02  0.45594000000E+02  0.51100000000E-03 0. -1.
    9900012    2    1    2    0    0 -0.34944506268E+02  0.19344371544E+02  0.76054319926E+01  0.50528858045E+02  0.29999994514E+02 0.  0.
         12    1    1    2    0    0  0.34944506268E+02 -0.19344371544E+02 -0.76054319926E+01  0.40659141955E+02  0.00000000000E+00 0. -1.
         11    1    3    3    0    0 -0.42032975203E+01 -0.21302848127E+01 -0.77166313124E+01  0.90416935637E+01  0.51100000000E-03 0. -1.
        -11    1    3    3    0    0 -0.52005666514E+01  0.58764630292E+01  0.67652519573E+01  0.10360856409E+02  0.51100000000E-03 0.  1.
        -12    1    3    3    0    0 -0.25540642096E+02  0.15598193327E+02  0.85568113477E+01  0.31126308072E+02  0.00000000000E+00 0.  1.
</event>
<event>
 7    1  0.3250765E-011  0.5052886E+02  0.7816164E-02  0.1300439E+00
        -11   -1    0    0    0    0  0.00000000000E+00  0.00000000000E+00  0.45593999997E+02  0.45594000000E+02  0.51100000000E-03 0. -1.
         11   -1    0    0    0    0 -0.00000000000E+00 -0.00000000000E+00 -0.45593999997E+02  0.45594000000E+02  0.51100000000E-03 0.  1.
    9900012    2    1    2    0    0  0.29896322902E+02 -0.66065814001E+00 -0.27548853937E+02  0.50528856557E+02  0.29999989992E+02 0.  0.
         12    1    1    2    0    0 -0.29896322902E+02  0.66065814001E+00  0.27548853937E+02  0.40659143443E+02  0.00000000000E+00 0. -1.
         11    1    3    3    0    0 -0.35347408016E+01 -0.70875817225E-01 -0.20608710896E+01  0.40922617005E+01  0.51100000000E-03 0. -1.
        -11    1    3    3    0    0  0.19120822388E+02 -0.10100204174E+02 -0.13687019030E+02  0.25592078137E+02  0.51100000000E-03 0.  1.
        -12    1    3    3    0    0  0.14310241315E+02  0.95104218510E+01 -0.11800963817E+02  0.20844516720E+02  0.00000000000E+00 0.  1.
</event>
<event>
 7    1  0.3250765E-011  0.5052886E+02  0.7816164E-02  0.1300439E+00
        -11   -1    0    0    0    0  0.00000000000E+00  0.00000000000E+00  0.45593999997E+02  0.45594000000E+02  0.51100000000E-03 0.  1.
         11   -1    0    0    0    0 -0.00000000000E+00 -0.00000000000E+00 -0.45593999997E+02  0.45594000000E+02  0.51100000000E-03 0. -1.
    9900012    2    1    2    0    0 -0.25810918931E+02 -0.14960977925E+02 -0.27624837400E+02  0.50528855421E+02  0.29999986537E+02 0.  0.
         12    1    1    2    0    0  0.25810918931E+02  0.14960977925E+02  0.27624837400E+02  0.40659144579E+02  0.00000000000E+00 0. -1.
         11    1    3    3    0    0 -0.33504568435E+00 -0.52522321853E+01 -0.10250034450E+02  0.11522213547E+02  0.51100000000E-03 0. -1.
        -11    1    3    3    0    0 -0.11266071000E+02 -0.48069258273E+01  0.39914514059E+01  0.12882646322E+02  0.51100000000E-03 0.  1.
         12    1    3    3    0    0 -0.14209802247E+02 -0.49018199126E+01 -0.21366254356E+02  0.26123995551E+02  0.00000000000E+00 0. -1.
</event>
<event>
 7    1  0.3250765E-011  0.5052887E+02  0.7816164E-02  0.1300439E+00
        -11   -1    0    0    0    0  0.00000000000E+00  0.00000000000E+00  0.45593999997E+02  0.45594000000E+02  0.51100000000E-03 0.  1.
         11   -1    0    0    0    0 -0.00000000000E+00 -0.00000000000E+00 -0.45593999997E+02  0.45594000000E+02  0.51100000000E-03 0. -1.
    9900012    2    1    2    0    0 -0.37487528753E+01  0.22859795420E+02  0.33414691725E+02  0.50528867965E+02  0.30000024667E+02 0.  0.
         12    1    1    2    0    0  0.37487528753E+01 -0.22859795420E+02 -0.33414691725E+02  0.40659132035E+02  0.00000000000E+00 0. -1.
         11    1    3    3    0    0 -0.74552130706E+01  0.13617050336E+01  0.12844831909E+02  0.14913891160E+02  0.51100000000E-03 0. -1.
        -11    1    3    3    0    0  0.99955064744E+01  0.57037268685E+01  0.11811735155E+02  0.16491201821E+02  0.51100000000E-03 0.  1.
         12    1    3    3    0    0 -0.62890462791E+01  0.15794363518E+02  0.87581246612E+01  0.19123774984E+02  0.00000000000E+00 0. -1.
</event>
<event>
 7    1  0.3250765E-011  0.5052886E+02  0.7816164E-02  0.1300439E+00
        -11   -1    0    0    0    0  0.00000000000E+00  0.00000000000E+00  0.45593999997E+02  0.45594000000E+02  0.51100000000E-03 0.  1.
         11   -1    0    0    0    0 -0.00000000000E+00 -0.00000000000E+00 -0.45593999997E+02  0.45594000000E+02  0.51100000000E-03 0. -1.
    9900012    2    1    2    0    0  0.36769282892E+02 -0.15650480422E+02  0.74998607321E+01  0.50528860648E+02  0.30000002427E+02 0.  0.
         12    1    1    2    0    0 -0.36769282892E+02  0.15650480422E+02 -0.74998607321E+01  0.40659139352E+02  0.00000000000E+00 0. -1.
         11    1    3    3    0    0  0.19840699901E+02 -0.72262391216E+01  0.42114396941E+01  0.21531561229E+02  0.51100000000E-03 0. -1.
        -11    1    3    3    0    0  0.15787675869E+02 -0.92325209579E+01 -0.62724109851E+01  0.19334769004E+02  0.51100000000E-03 0.  1.
         12    1    3    3    0    0  0.11409071215E+01  0.80827965765E+00  0.95608320231E+01  0.96625304159E+01  0.00000000000E+00 0. -1.
</event>
<event>
 7    1  0.3250765E-011  0.5052885E+02  0.7816164E-02  0.1300439E+00
        -11   -1    0    0    0    0  0.00000000000E+00  0.00000000000E+00  0.45593999997E+02  0.45594000000E+02  0.51100000000E-03 0.  1.
         11   -1    0    0    0    0 -0.00000000000E+00 -0.00000000000E+00 -0.45593999997E+02  0.45594000000E+02  0.51100000000E-03 0. -1.
    9900012    2    1    2    0    0 -0.30687256711E+02 -0.11943919735E+02  0.23849567511E+02  0.50528845883E+02  0.29999957546E+02 0.  0.
         12    1    1    2    0    0  0.30687256711E+02  0.11943919735E+02 -0.23849567511E+02  0.40659154117E+02  0.00000000000E+00 0. -1.
         11    1    3    3    0    0 -0.17345073916E+02 -0.56859149430E+01  0.15352300698E+02  0.23851087080E+02  0.51100000000E-03 0. -1.
        -11    1    3    3    0    0 -0.44321224808E+01  0.64462330894E+01  0.79460476615E+01  0.11150663856E+02  0.51100000000E-03 0.  1.
         12    1    3    3    0    0 -0.89100603138E+01 -0.12704237882E+02  0.55121915091E+00  0.15527094947E+02  0.00000000000E+00 0. -1.
</event>
<event>
 7    1  0.3250765E-011  0.5052886E+02  0.7816164E-02  0.1300439E+00
        -11   -1    0    0    0    0  0.00000000000E+00  0.00000000000E+00  0.45593999997E+02  0.45594000000E+02  0.51100000000E-03 0.  1.
         11   -1    0    0    0    0 -0.00000000000E+00 -0.00000000000E+00 -0.45593999997E+02  0.45594000000E+02  0.51100000000E-03 0. -1.
    9900012    2    1    2    0    0 -0.30926749697E+02  0.55941830571E+01  0.25795482738E+02  0.50528860061E+02  0.30000000641E+02 0.  0.
         12    1    1    2    0    0  0.30926749697E+02 -0.55941830571E+01 -0.25795482738E+02  0.40659139939E+02  0.00000000000E+00 0. -1.
         11    1    3    3    0    0 -0.18783730737E+02  0.50373173775E+01  0.60008586200E+01  0.20352233568E+02  0.51100000000E-03 0.  1.
        -11    1    3    3    0    0 -0.45095796932E+01  0.35428630804E+01  0.21109970169E+02  0.21875077797E+02  0.51100000000E-03 0. -1.
         12    1    3    3    0    0 -0.76334392672E+01 -0.29859974008E+01 -0.13153460515E+01  0.83015486965E+01  0.00000000000E+00 0. -1.
</event>
<event>
 7    1  0.3250765E-011  0.5052886E+02  0.7816164E-02  0.1300439E+00
        -11   -1    0    0    0    0  0.00000000000E+00  0.00000000000E+00  0.45593999997E+02  0.45594000000E+02  0.51100000000E-03 0.  1.
         11   -1    0    0    0    0 -0.00000000000E+00 -0.00000000000E+00 -0.45593999997E+02  0.45594000000E+02  0.51100000000E-03 0. -1.
    9900012    2    1    2    0    0  0.26673937553E+02 -0.11640247979E+02  0.28393156105E+02  0.50528860423E+02  0.30000001741E+02 0.  0.
         12    1    1    2    0    0 -0.26673937553E+02  0.11640247979E+02 -0.28393156105E+02  0.40659139577E+02  0.00000000000E+00 0. -1.
         11    1    3    3    0    0 -0.71994123555E+00 -0.60310663176E+01  0.64133948137E+01  0.88331030566E+01  0.51100000000E-03 0. -1.
        -11    1    3    3    0    0  0.26368676369E+02 -0.32121287206E+01  0.25826322171E+02  0.37048937657E+02  0.51100000000E-03 0.  1.
         12    1    3    3    0    0  0.10252024188E+01 -0.23970529407E+01 -0.38465608804E+01  0.46468197088E+01  0.00000000000E+00 0. -1.
</event>
<event>
 7    1  0.3250765E-011  0.5052885E+02  0.7816164E-02  0.1300439E+00
        -11   -1    0    0    0    0  0.00000000000E+00  0.00000000000E+00  0.45593999997E+02  0.45594000000E+02  0.51100000000E-03 0.  1.
         11   -1    0    0    0    0 -0.00000000000E+00 -0.00000000000E+00 -0.45593999997E+02  0.45594000000E+02  0.51100000000E-03 0. -1.
    9900012    2    1    2    0    0  0.15920369749E+02  0.34566415524E+02  0.14313309979E+02  0.50528854685E+02  0.29999984301E+02 0.  0.
         12    1    1    2    0    0 -0.15920369749E+02 -0.34566415524E+02 -0.14313309979E+02  0.40659145315E+02  0.00000000000E+00 0. -1.
         11    1    3    3    0    0  0.56815448973E+01  0.24878193600E+02 -0.89408597305E+00  0.25534366239E+02  0.51100000000E-03 0. -1.
        -11    1    3    3    0    0  0.52038312616E+01  0.12866293653E+02  0.10837127231E+02  0.17608654095E+02  0.51100000000E-03 0.  1.
        -12    1    3    3    0    0  0.50349935905E+01 -0.31780717288E+01  0.43702687206E+01  0.73858343510E+01  0.00000000000E+00 0.  1.
</event>
<event>
 7    1  0.5928310E-011  0.5052885E+02  0.7816164E-02  0.1300439E+00
        -11   -1    0    0    0    0  0.00000000000E+00  0.00000000000E+00  0.45593999997E+02  0.45594000000E+02  0.51100000000E-03 0.  1.
         11   -1    0    0    0    0 -0.00000000000E+00 -0.00000000000E+00 -0.45593999997E+02  0.45594000000E+02  0.51100000000E-03 0. -1.
    9900012    2    1    2    0    0 -0.34358512432E+02  0.13279934550E+02  0.17213426400E+02  0.50528854822E+02  0.29999984718E+02 0.  0.
         12    1    1    2    0    0  0.34358512432E+02 -0.13279934550E+02 -0.17213426400E+02  0.40659145178E+02  0.00000000000E+00 0. -1.
         11    1    3    3    0    0 -0.15332684088E+02 -0.49496502369E+00 -0.23653542418E+01  0.15521955182E+02  0.51100000000E-03 0. -1.
        -11    1    3    3    0    0 -0.21814910211E+02  0.10660929718E+02  0.13973349566E+02  0.28014286147E+02  0.51100000000E-03 0.  1.
         12    1    3    3    0    0  0.27890818678E+01  0.31139698549E+01  0.56054310753E+01  0.69926134930E+01  0.00000000000E+00 0. -1.
</event>
<event>
 7    1  0.3250765E-011  0.5052887E+02  0.7816164E-02  0.1300439E+00
        -11   -1    0    0    0    0  0.00000000000E+00  0.00000000000E+00  0.45593999997E+02  0.45594000000E+02  0.51100000000E-03 0. -1.
         11   -1    0    0    0    0 -0.00000000000E+00 -0.00000000000E+00 -0.45593999997E+02  0.45594000000E+02  0.51100000000E-03 0.  1.
    9900012    2    1    2    0    0  0.36602789640E+02  0.16918898784E+02 -0.52107217256E+01  0.50528868598E+02  0.30000026589E+02 0.  0.
         12    1    1    2    0    0 -0.36602789640E+02 -0.16918898784E+02  0.52107217256E+01  0.40659131402E+02  0.00000000000E+00 0. -1.
         11    1    3    3    0    0  0.89724614043E+01  0.19906546324E+01  0.64611268167E+01  0.11234497297E+02  0.51100000000E-03 0. -1.
        -11    1    3    3    0    0  0.19373496893E+01 -0.16217620570E+01 -0.81470780181E+01  0.85298485615E+01  0.51100000000E-03 0.  1.
         12    1    3    3    0    0  0.25692978546E+02  0.16550006209E+02 -0.35247705243E+01  0.30764522739E+02  0.00000000000E+00 0. -1.
</event>
<event>
 7    1  0.3250765E-011  0.5052886E+02  0.7816164E-02  0.1300439E+00
        -11   -1    0    0    0    0  0.00000000000E+00  0.00000000000E+00  0.45593999997E+02  0.45594000000E+02  0.51100000000E-03 0. -1.
         11   -1    0    0    0    0 -0.00000000000E+00 -0.00000000000E+00 -0.45593999997E+02  0.45594000000E+02  0.51100000000E-03 0.  1.
    9900012    2    1    2    0    0 -0.30533288431E+02  0.18578613569E+02 -0.19383482964E+02  0.50528855932E+02  0.29999988090E+02 0.  0.
         12    1    1    2    0    0  0.30533288431E+02 -0.18578613569E+02  0.19383482964E+02  0.40659144068E+02  0.00000000000E+00 0. -1.
         11    1    3    3    0    0 -0.16321422742E+02 -0.19023848809E+00 -0.95390651264E+01  0.18905522864E+02  0.51100000000E-03 0. -1.
        -11    1    3    3    0    0 -0.82262247112E+01  0.60810963943E+01 -0.13677841843E+02  0.17080218502E+02  0.51100000000E-03 0.  1.
         12    1    3    3    0    0 -0.59856409781E+01  0.12687755662E+02  0.38334240051E+01  0.14543114566E+02  0.00000000000E+00 0. -1.
</event>
<event>
 7    1  0.3250765E-011  0.5052886E+02  0.7816164E-02  0.1300439E+00
        -11   -1    0    0    0    0  0.00000000000E+00  0.00000000000E+00  0.45593999997E+02  0.45594000000E+02  0.51100000000E-03 0.  1.
         11   -1    0    0    0    0 -0.00000000000E+00 -0.00000000000E+00 -0.45593999997E+02  0.45594000000E+02  0.51100000000E-03 0. -1.
    9900012    2    1    2    0    0 -0.19080162541E+02  0.34927761100E+02  0.83165372975E+01  0.50528857231E+02  0.29999992039E+02 0.  0.
         12    1    1    2    0    0  0.19080162541E+02 -0.34927761100E+02 -0.83165372975E+01  0.40659142769E+02  0.00000000000E+00 0. -1.
         11    1    3    3    0    0 -0.78631144442E+01  0.80335879203E+01 -0.88006911708E+01  0.14276528604E+02  0.51100000000E-03 0. -1.
        -11    1    3    3    0    0 -0.66394791911E+01  0.24697955784E+01  0.32310828440E+01  0.77860433298E+01  0.51100000000E-03 0.  1.
         12    1    3    3    0    0 -0.45775689059E+01  0.24424377602E+02  0.13886145624E+02  0.28466285297E+02  0.00000000000E+00 0. -1.
</event>
<event>
 7    1  0.3250765E-011  0.5052885E+02  0.7816164E-02  0.1300439E+00
        -11   -1    0    0    0    0  0.00000000000E+00  0.00000000000E+00  0.45593999997E+02  0.45594000000E+02  0.51100000000E-03 0.  1.
         11   -1    0    0    0    0 -0.00000000000E+00 -0.00000000000E+00 -0.45593999997E+02  0.45594000000E+02  0.51100000000E-03 0. -1.
    9900012    2    1    2    0    0  0.79738990261E+01 -0.23309085312E+01  0.39801389955E+02  0.50528845525E+02  0.29999956458E+02 0.  0.
         12    1    1    2    0    0 -0.79738990261E+01  0.23309085312E+01 -0.39801389955E+02  0.40659154475E+02  0.00000000000E+00 0. -1.
         11    1    3    3    0    0  0.78704399486E+00  0.76274485371E+00  0.10236149119E+00  0.11007706835E+01  0.51100000000E-03 0. -1.
        -11    1    3    3    0    0 -0.66171162867E+01  0.89443679815E+01  0.15457062981E+02  0.19044913830E+02  0.51100000000E-03 0.  1.
         12    1    3    3    0    0  0.13803971318E+02 -0.12038021366E+02  0.24241965483E+02  0.30383161011E+02  0.00000000000E+00 0. -1.
</event>
<event>
 7    1  0.3250765E-011  0.5052886E+02  0.7816164E-02  0.1300439E+00
        -11   -1    0    0    0    0  0.00000000000E+00  0.00000000000E+00  0.45593999997E+02  0.45594000000E+02  0.51100000000E-03 0. -1.
         11   -1    0    0    0    0 -0.00000000000E+00 -0.00000000000E+00 -0.45593999997E+02  0.45594000000E+02  0.51100000000E-03 0.  1.
    9900012    2    1    2    0    0 -0.17320276379E+02 -0.17671650919E+02 -0.32262767593E+02  0.50528863354E+02  0.30000010652E+02 0.  0.
         12    1    1    2    0    0  0.17320276379E+02  0.17671650919E+02  0.32262767593E+02  0.40659136646E+02  0.00000000000E+00 0. -1.
         11    1    3    3    0    0 -0.21588628711E+01 -0.28816248098E+01 -0.17635214296E+02  0.17999034251E+02  0.51100000000E-03 0. -1.
        -11    1    3    3    0    0  0.67605269813E+00 -0.11731185935E+02 -0.17301256148E+01  0.11877335795E+02  0.51100000000E-03 0.  1.
         12    1    3    3    0    0 -0.15837466206E+02 -0.30588401743E+01 -0.12897427682E+02  0.20652493308E+02  0.00000000000E+00 0. -1.
</event>
<event>
 7    1  0.3250765E-011  0.5052887E+02  0.7816164E-02  0.1300439E+00
        -11   -1    0    0    0    0  0.00000000000E+00  0.00000000000E+00  0.45593999997E+02  0.45594000000E+02  0.51100000000E-03 0.  1.
         11   -1    0    0    0    0 -0.00000000000E+00 -0.00000000000E+00 -0.45593999997E+02  0.45594000000E+02  0.51100000000E-03 0. -1.
    9900012    2    1    2    0    0  0.36176345020E+02 -0.16408131049E+02  0.86723964857E+01  0.50528866164E+02  0.30000019191E+02 0.  0.
         12    1    1    2    0    0 -0.36176345020E+02  0.16408131049E+02 -0.86723964857E+01  0.40659133836E+02  0.00000000000E+00 0. -1.
         11    1    3    3    0    0  0.96856351656E+01  0.52554409438E+01 -0.24422578386E+01  0.11286975312E+02  0.51100000000E-03 0. -1.
        -11    1    3    3    0    0  0.77149382539E+01 -0.33054311307E+01  0.98656752360E+01  0.12952902970E+02  0.51100000000E-03 0.  1.
         12    1    3    3    0    0  0.18775771600E+02 -0.18358140862E+02  0.12489790883E+01  0.26288987882E+02  0.00000000000E+00 0. -1.
</event>
<event>
 7    1  0.3250765E-011  0.5052886E+02  0.7816164E-02  0.1300439E+00
        -11   -1    0    0    0    0  0.00000000000E+00  0.00000000000E+00  0.45593999997E+02  0.45594000000E+02  0.51100000000E-03 0.  1.
         11   -1    0    0    0    0 -0.00000000000E+00 -0.00000000000E+00 -0.45593999997E+02  0.45594000000E+02  0.51100000000E-03 0. -1.
    9900012    2    1    2    0    0 -0.12766895229E+02  0.35688423751E+02  0.14714236717E+02  0.50528856308E+02  0.29999989234E+02 0.  0.
         12    1    1    2    0    0  0.12766895229E+02 -0.35688423751E+02 -0.14714236717E+02  0.40659143692E+02  0.00000000000E+00 0. -1.
         11    1    3    3    0    0 -0.80258025977E+01  0.93616489522E+00  0.40462870065E+01  0.90367223510E+01  0.51100000000E-03 0. -1.
        -11    1    3    3    0    0 -0.19314632161E+00  0.85092733702E+01  0.12129524836E+02  0.14817908482E+02  0.51100000000E-03 0.  1.
         12    1    3    3    0    0 -0.45479463100E+01  0.26242985485E+02 -0.14615751257E+01  0.26674225475E+02  0.00000000000E+00 0. -1.
</event>
<event>
 7    1  0.3250765E-011  0.5052885E+02  0.7816164E-02  0.1300439E+00
        -11   -1    0    0    0    0  0.00000000000E+00  0.00000000000E+00  0.45593999997E+02  0.45594000000E+02  0.51100000000E-03 0.  1.
         11   -1    0    0    0    0 -0.00000000000E+00 -0.00000000000E+00 -0.45593999997E+02  0.45594000000E+02  0.51100000000E-03 0. -1.
    9900012    2    1    2    0    0 -0.37228941997E+02 -0.13441007592E+02  0.93011446414E+01  0.50528854670E+02  0.29999984256E+02 0.  0.
         12    1    1    2    0    0  0.37228941997E+02  0.13441007592E+02 -0.93011446414E+01  0.40659145330E+02  0.00000000000E+00 0. -1.
         11    1    3    3    0    0 -0.17173488463E+02 -0.85475429694E+01  0.10706273651E+02  0.21968465867E+02  0.51100000000E-03 0. -1.
        -11    1    3    3    0    0 -0.15586739315E+02  0.38508280582E+01  0.50239367963E+01  0.16823057404E+02  0.51100000000E-03 0.  1.
         12    1    3    3    0    0 -0.44687142190E+01 -0.87442926813E+01 -0.64290658055E+01  0.11737331400E+02  0.00000000000E+00 0. -1.
</event>
<event>
 7    1  0.3250765E-011  0.5052888E+02  0.7816164E-02  0.1300439E+00
        -11   -1    0    0    0    0  0.00000000000E+00  0.00000000000E+00  0.45593999997E+02  0.45594000000E+02  0.51100000000E-03 0.  1.
         11   -1    0    0    0    0 -0.00000000000E+00 -0.00000000000E+00 -0.45593999997E+02  0.45594000000E+02  0.51100000000E-03 0. -1.
    9900012    2    1    2    0    0 -0.98213438531E+01  0.33784329097E+02  0.20379516192E+02  0.50528875958E+02  0.30000048962E+02 0.  0.
         12    1    1    2    0    0  0.98213438531E+01 -0.33784329097E+02 -0.20379516192E+02  0.40659124042E+02  0.00000000000E+00 0. -1.
         11    1    3    3    0    0 -0.11317896858E+02  0.24318401828E+02  0.13938844514E+02  0.30228642765E+02  0.51100000000E-03 0. -1.
        -11    1    3    3    0    0  0.63126558256E+01  0.12182716947E+02  0.45069935541E+01  0.14442340771E+02  0.51100000000E-03 0.  1.
         12    1    3    3    0    0 -0.48161028204E+01 -0.27167896785E+01  0.19336781244E+01  0.58578924216E+01  0.00000000000E+00 0. -1.
</event>
<event>
 7    1  0.3250765E-011  0.5052887E+02  0.7816164E-02  0.1300439E+00
        -11   -1    0    0    0    0  0.00000000000E+00  0.00000000000E+00  0.45593999997E+02  0.45594000000E+02  0.51100000000E-03 0.  1.
         11   -1    0    0    0    0 -0.00000000000E+00 -0.00000000000E+00 -0.45593999997E+02  0.45594000000E+02  0.51100000000E-03 0. -1.
    9900012    2    1    2    0    0  0.62240992820E+01 -0.86984938010E+00  0.40170495802E+02  0.50528870855E+02  0.30000033452E+02 0.  0.
         12    1    1    2    0    0 -0.62240992820E+01  0.86984938010E+00 -0.40170495802E+02  0.40659129145E+02  0.00000000000E+00 0. -1.
         11    1    3    3    0    0  0.33401033167E+01 -0.87742629315E+00  0.17410099497E+01  0.38674646698E+01  0.51100000000E-03 0. -1.
        -11    1    3    3    0    0 -0.44003326313E+01 -0.21550489342E+01  0.38747610963E+02  0.39056171328E+02  0.51100000000E-03 0.  1.
        -12    1    3    3    0    0  0.72843285965E+01  0.21626258472E+01 -0.31812511046E+00  0.76052348579E+01  0.00000000000E+00 0.  1.
</event>
<event>
 7    1  0.3250765E-011  0.5052886E+02  0.7816164E-02  0.1300439E+00
        -11   -1    0    0    0    0  0.00000000000E+00  0.00000000000E+00  0.45593999997E+02  0.45594000000E+02  0.51100000000E-03 0.  1.
         11   -1    0    0    0    0 -0.00000000000E+00 -0.00000000000E+00 -0.45593999997E+02  0.45594000000E+02  0.51100000000E-03 0. -1.
    9900012    2    1    2    0    0  0.81597531169E+01  0.39012595606E+02  0.80375114653E+01  0.50528858624E+02  0.29999996274E+02 0.  0.
         12    1    1    2    0    0 -0.81597531169E+01 -0.39012595606E+02 -0.80375114653E+01  0.40659141376E+02  0.00000000000E+00 0. -1.
         11    1    3    3    0    0 -0.36689713332E+01  0.14532711033E+02  0.94648013636E+00  0.15018550713E+02  0.51100000000E-03 0.  1.
        -11    1    3    3    0    0  0.10271595379E+02  0.22497787390E+02 -0.31792957580E+01  0.24935196627E+02  0.51100000000E-03 0. -1.
         12    1    3    3    0    0  0.15571290715E+01  0.19820971834E+01  0.10270327087E+02  0.10575111284E+02  0.00000000000E+00 0. -1.
</event>
<event>
 7    1  0.3250765E-011  0.5052885E+02  0.7816164E-02  0.1300439E+00
        -11   -1    0    0    0    0  0.00000000000E+00  0.00000000000E+00  0.45593999997E+02  0.45594000000E+02  0.51100000000E-03 0.  1.
         11   -1    0    0    0    0 -0.00000000000E+00 -0.00000000000E+00 -0.45593999997E+02  0.45594000000E+02  0.51100000000E-03 0. -1.
    9900012    2    1    2    0    0  0.11124579237E+02 -0.21770645145E+02  0.32487679121E+02  0.50528849149E+02  0.29999967474E+02 0.  0.
         12    1    1    2    0    0 -0.11124579237E+02  0.21770645145E+02 -0.32487679121E+02  0.40659150851E+02  0.00000000000E+00 0. -1.
         11    1    3    3    0    0 -0.23453412091E+01 -0.71004715431E+00 -0.13421152013E+01  0.27939337542E+01  0.51100000000E-03 0. -1.
        -11    1    3    3    0    0  0.99749151698E+00 -0.13725311406E+02  0.29627432718E+02  0.32667475144E+02  0.51100000000E-03 0.  1.
         12    1    3    3    0    0  0.12472428930E+02 -0.73352865843E+01  0.42023616040E+01  0.15067440251E+02  0.00000000000E+00 0. -1.
</event>
<event>
 7    1  0.3250765E-011  0.5052886E+02  0.7816164E-02  0.1300439E+00
        -11   -1    0    0    0    0  0.00000000000E+00  0.00000000000E+00  0.45593999997E+02  0.45594000000E+02  0.51100000000E-03 0. -1.
         11   -1    0    0    0    0 -0.00000000000E+00 -0.00000000000E+00 -0.45593999997E+02  0.45594000000E+02  0.51100000000E-03 0.  1.
    9900012    2    1    2    0    0  0.13736469427E+02  0.38122434415E+02 -0.33399740588E+01  0.50528855583E+02  0.29999987029E+02 0.  0.
         12    1    1    2    0    0 -0.13736469427E+02 -0.38122434415E+02  0.33399740588E+01  0.40659144417E+02  0.00000000000E+00 0. -1.
         11    1    3    3    0    0  0.31074904263E+01  0.15408723993E+02 -0.80727397594E+01  0.17670721528E+02  0.51100000000E-03 0. -1.
        -11    1    3    3    0    0  0.20345393364E+01  0.23239717130E+02  0.67243617855E+00  0.23338294138E+02  0.51100000000E-03 0.  1.
        -12    1    3    3    0    0  0.85944396648E+01 -0.52600670847E+00  0.40603295220E+01  0.95198399166E+01  0.00000000000E+00 0.  1.
</event>
<event>
 7    1  0.3250765E-011  0.5052881E+02  0.7816164E-02  0.1300439E+00
        -11   -1    0    0    0    0  0.00000000000E+00  0.00000000000E+00  0.45593999997E+02  0.45594000000E+02  0.51100000000E-03 0.  1.
         11   -1    0    0    0    0 -0.00000000000E+00 -0.00000000000E+00 -0.45593999997E+02  0.45594000000E+02  0.51100000000E-03 0. -1.
    9900012    2    1    2    0    0 -0.53470088301E+01  0.29728577988E+01  0.40196280573E+02  0.50528814582E+02  0.29999862404E+02 0.  0.
         12    1    1    2    0    0  0.53470088301E+01 -0.29728577988E+01 -0.40196280573E+02  0.40659185418E+02  0.00000000000E+00 0. -1.
         11    1    3    3    0    0  0.24776718564E+01  0.51065898322E+01  0.34045363016E+01  0.66186845545E+01  0.51100000000E-03 0. -1.
        -11    1    3    3    0    0 -0.10862082636E+01 -0.47975451493E+01 -0.13382536936E+01  0.50977653007E+01  0.51100000000E-03 0.  1.
         12    1    3    3    0    0 -0.67384724229E+01  0.26638131158E+01  0.38129997965E+02  0.38812364727E+02  0.00000000000E+00 0. -1.
</event>
<event>
 7    1  0.3250765E-011  0.5052886E+02  0.7816164E-02  0.1300439E+00
        -11   -1    0    0    0    0  0.00000000000E+00  0.00000000000E+00  0.45593999997E+02  0.45594000000E+02  0.51100000000E-03 0. -1.
         11   -1    0    0    0    0 -0.00000000000E+00 -0.00000000000E+00 -0.45593999997E+02  0.45594000000E+02  0.51100000000E-03 0.  1.
    9900012    2    1    2    0    0  0.20773697265E+02  0.24967248499E+02 -0.24459259479E+02  0.50528863635E+02  0.30000011506E+02 0.  0.
         12    1    1    2    0    0 -0.20773697265E+02 -0.24967248499E+02  0.24459259479E+02  0.40659136365E+02  0.00000000000E+00 0. -1.
         11    1    3    3    0    0 -0.62973938588E-01 -0.16488253301E+01 -0.20915951721E+01  0.26640873317E+01  0.51100000000E-03 0. -1.
        -11    1    3    3    0    0  0.22783276391E+02  0.19768233767E+02 -0.70547899433E+01  0.30977908431E+02  0.51100000000E-03 0.  1.
         12    1    3    3    0    0 -0.19466051877E+01  0.68478400624E+01 -0.15312874363E+02  0.16886867873E+02  0.00000000000E+00 0. -1.
</event>
<event>
 7    1  0.3250765E-011  0.5052886E+02  0.7816164E-02  0.1300439E+00
        -11   -1    0    0    0    0  0.00000000000E+00  0.00000000000E+00  0.45593999997E+02  0.45594000000E+02  0.51100000000E-03 0.  1.
         11   -1    0    0    0    0 -0.00000000000E+00 -0.00000000000E+00 -0.45593999997E+02  0.45594000000E+02  0.51100000000E-03 0. -1.
    9900012    2    1    2    0    0 -0.21267420429E+02 -0.10852378920E+02  0.32910313113E+02  0.50528855775E+02  0.29999987614E+02 0.  0.
         12    1    1    2    0    0  0.21267420429E+02  0.10852378920E+02 -0.32910313113E+02  0.40659144225E+02  0.00000000000E+00 0. -1.
         11    1    3    3    0    0 -0.48446447975E+01  0.36290605229E+01 -0.91066634960E+00  0.61212724947E+01  0.51100000000E-03 0. -1.
        -11    1    3    3    0    0 -0.14392707749E+02 -0.37008245001E+00  0.19051264283E+02  0.23879649671E+02  0.51100000000E-03 0.  1.
        -12    1    3    3    0    0 -0.20300678825E+01 -0.14111356993E+02  0.14769715180E+02  0.20527933610E+02  0.00000000000E+00 0.  1.
</event>
<event>
 7    1  0.3250765E-011  0.5052879E+02  0.7816164E-02  0.1300439E+00
        -11   -1    0    0    0    0  0.00000000000E+00  0.00000000000E+00  0.45593999997E+02  0.45594000000E+02  0.51100000000E-03 0. -1.
         11   -1    0    0    0    0 -0.00000000000E+00 -0.00000000000E+00 -0.45593999997E+02  0.45594000000E+02  0.51100000000E-03 0.  1.
    9900012    2    1    2    0    0  0.34652137133E+02  0.19673809269E+02  0.80834523381E+01  0.50528787258E+02  0.29999779350E+02 0.  0.
         12    1    1    2    0    0 -0.34652137133E+02 -0.19673809269E+02 -0.80834523381E+01  0.40659212742E+02  0.00000000000E+00 0. -1.
         11    1    3    3    0    0  0.11080653928E+02 -0.36592191423E+01  0.11532040504E+02  0.16406057864E+02  0.51100000000E-03 0. -1.
        -11    1    3    3    0    0  0.28534941598E+01  0.14174203650E+01 -0.23234700560E+01  0.39433517182E+01  0.51100000000E-03 0.  1.
         12    1    3    3    0    0  0.20717989046E+02  0.21915608047E+02 -0.11251181096E+01  0.30179377676E+02  0.00000000000E+00 0. -1.
</event>
<event>
 7    1  0.3250765E-011  0.5052886E+02  0.7816164E-02  0.1300439E+00
        -11   -1    0    0    0    0  0.00000000000E+00  0.00000000000E+00  0.45593999997E+02  0.45594000000E+02  0.51100000000E-03 0. -1.
         11   -1    0    0    0    0 -0.00000000000E+00 -0.00000000000E+00 -0.45593999997E+02  0.45594000000E+02  0.51100000000E-03 0.  1.
    9900012    2    1    2    0    0 -0.80937235612E+00 -0.80633450612E+01 -0.39843354337E+02  0.50528862011E+02  0.30000006569E+02 0.  0.
         12    1    1    2    0    0  0.80937235612E+00  0.80633450612E+01  0.39843354337E+02  0.40659137989E+02  0.00000000000E+00 0. -1.
         11    1    3    3    0    0 -0.43244078363E+01 -0.28828931323E+01 -0.12472802396E+01  0.53448371541E+01  0.51100000000E-03 0. -1.
        -11    1    3    3    0    0 -0.10280315541E+01 -0.13711151131E+02 -0.20821970029E+02  0.24952093105E+02  0.51100000000E-03 0.  1.
         12    1    3    3    0    0  0.45430670343E+01  0.85306992019E+01 -0.17774104069E+02  0.20231931751E+02  0.00000000000E+00 0. -1.
</event>
<event>
 7    1  0.3250765E-011  0.5052886E+02  0.7816164E-02  0.1300439E+00
        -11   -1    0    0    0    0  0.00000000000E+00  0.00000000000E+00  0.45593999997E+02  0.45594000000E+02  0.51100000000E-03 0.  1.
         11   -1    0    0    0    0 -0.00000000000E+00 -0.00000000000E+00 -0.45593999997E+02  0.45594000000E+02  0.51100000000E-03 0. -1.
    9900012    2    1    2    0    0 -0.28058103492E+02  0.26731294717E+02  0.12302297589E+02  0.50528858164E+02  0.29999994877E+02 0.  0.
         12    1    1    2    0    0  0.28058103492E+02 -0.26731294717E+02 -0.12302297589E+02  0.40659141836E+02  0.00000000000E+00 0. -1.
         11    1    3    3    0    0 -0.47090536725E+01  0.31153945478E+01  0.85613250701E+01  0.10255591494E+02  0.51100000000E-03 0. -1.
        -11    1    3    3    0    0 -0.10624942148E+02 -0.25020707806E+01 -0.42329687858E+00  0.10923778392E+02  0.51100000000E-03 0.  1.
         12    1    3    3    0    0 -0.12724107671E+02  0.26117970950E+02  0.41642693978E+01  0.29349488278E+02  0.00000000000E+00 0. -1.
</event>
<event>
 7    1  0.3250765E-011  0.5052886E+02  0.7816164E-02  0.1300439E+00
        -11   -1    0    0    0    0  0.00000000000E+00  0.00000000000E+00  0.45593999997E+02  0.45594000000E+02  0.51100000000E-03 0.  1.
         11   -1    0    0    0    0 -0.00000000000E+00 -0.00000000000E+00 -0.45593999997E+02  0.45594000000E+02  0.51100000000E-03 0. -1.
    9900012    2    1    2    0    0  0.38123204618E+02 -0.13656933661E+02 -0.36434618668E+01  0.50528863490E+02  0.30000011063E+02 0.  0.
         12    1    1    2    0    0 -0.38123204618E+02  0.13656933661E+02  0.36434618668E+01  0.40659136510E+02  0.00000000000E+00 0. -1.
         11    1    3    3    0    0  0.12105360412E+01 -0.15689094728E+01  0.12645339061E+01  0.23507276962E+01  0.51100000000E-03 0. -1.
        -11    1    3    3    0    0  0.31360817261E+02 -0.17824957750E+02  0.39090803456E+01  0.36283755145E+02  0.51100000000E-03 0.  1.
         12    1    3    3    0    0  0.55518513162E+01  0.57369335609E+01 -0.88170761185E+01  0.11894380648E+02  0.00000000000E+00 0. -1.
</event>
<event>
 7    1  0.3250765E-011  0.5052886E+02  0.7816164E-02  0.1300439E+00
        -11   -1    0    0    0    0  0.00000000000E+00  0.00000000000E+00  0.45593999997E+02  0.45594000000E+02  0.51100000000E-03 0.  1.
         11   -1    0    0    0    0 -0.00000000000E+00 -0.00000000000E+00 -0.45593999997E+02  0.45594000000E+02  0.51100000000E-03 0. -1.
    9900012    2    1    2    0    0 -0.96338436035E+01  0.28601153806E+02  0.27245707393E+02  0.50528861877E+02  0.30000006160E+02 0.  0.
         12    1    1    2    0    0  0.96338436035E+01 -0.28601153806E+02 -0.27245707393E+02  0.40659138123E+02  0.00000000000E+00 0. -1.
         11    1    3    3    0    0  0.20945501252E+01  0.12436504088E+02  0.16760145161E+02  0.20975133855E+02  0.51100000000E-03 0. -1.
        -11    1    3    3    0    0 -0.21834670104E+01  0.13915975671E+02  0.13277776172E+02  0.19357718032E+02  0.51100000000E-03 0.  1.
         12    1    3    3    0    0 -0.95449267183E+01  0.22486740470E+01 -0.27922139401E+01  0.10196009990E+02  0.00000000000E+00 0. -1.
</event>
<event>
 7    1  0.3250765E-011  0.5052887E+02  0.7816164E-02  0.1300439E+00
        -11   -1    0    0    0    0  0.00000000000E+00  0.00000000000E+00  0.45593999997E+02  0.45594000000E+02  0.51100000000E-03 0. -1.
         11   -1    0    0    0    0 -0.00000000000E+00 -0.00000000000E+00 -0.45593999997E+02  0.45594000000E+02  0.51100000000E-03 0.  1.
    9900012    2    1    2    0    0  0.24451514267E+02 -0.32485201260E+02  0.48010203535E-02  0.50528869735E+02  0.30000030046E+02 0.  0.
         12    1    1    2    0    0 -0.24451514267E+02  0.32485201260E+02 -0.48010203535E-02  0.40659130265E+02  0.00000000000E+00 0. -1.
         11    1    3    3    0    0  0.20521577172E+02 -0.27392911685E+02  0.11043454758E+02  0.35964769337E+02  0.51100000000E-03 0.  1.
        -11    1    3    3    0    0  0.90060423063E+00  0.17774375077E+01 -0.23061748524E+01  0.30477556964E+01  0.51100000000E-03 0. -1.
        -12    1    3    3    0    0  0.30293328645E+01 -0.68697270829E+01 -0.87324788852E+01  0.11516344701E+02  0.00000000000E+00 0.  1.
</event>
<event>
 7    1  0.3250765E-011  0.5052886E+02  0.7816164E-02  0.1300439E+00
        -11   -1    0    0    0    0  0.00000000000E+00  0.00000000000E+00  0.45593999997E+02  0.45594000000E+02  0.51100000000E-03 0.  1.
         11   -1    0    0    0    0 -0.00000000000E+00 -0.00000000000E+00 -0.45593999997E+02  0.45594000000E+02  0.51100000000E-03 0. -1.
    9900012    2    1    2    0    0 -0.12326629813E+02 -0.37896598036E+02 -0.80664417000E+01  0.50528862934E+02  0.30000009374E+02 0.  0.
         12    1    1    2    0    0  0.12326629813E+02  0.37896598036E+02  0.80664417000E+01  0.40659137066E+02  0.00000000000E+00 0. -1.
         11    1    3    3    0    0 -0.67155037031E+00 -0.15245570119E+02 -0.42866565675E+01  0.15850987759E+02  0.51100000000E-03 0. -1.
        -11    1    3    3    0    0 -0.33771966799E+01 -0.15365633190E+02 -0.12917930611E+02  0.20356352136E+02  0.51100000000E-03 0.  1.
         12    1    3    3    0    0 -0.82778827623E+01 -0.72853947273E+01  0.91381454787E+01  0.14321523039E+02  0.00000000000E+00 0. -1.
</event>
<event>
 7    1  0.3250765E-011  0.5052884E+02  0.7816164E-02  0.1300439E+00
        -11   -1    0    0    0    0  0.00000000000E+00  0.00000000000E+00  0.45593999997E+02  0.45594000000E+02  0.51100000000E-03 0. -1.
         11   -1    0    0    0    0 -0.00000000000E+00 -0.00000000000E+00 -0.45593999997E+02  0.45594000000E+02  0.51100000000E-03 0.  1.
    9900012    2    1    2    0    0 -0.35752907720E+02  0.18939761006E+02 -0.40226854883E+01  0.50528844131E+02  0.29999952221E+02 0.  0.
         12    1    1    2    0    0  0.35752907720E+02 -0.18939761006E+02  0.40226854883E+01  0.40659155869E+02  0.00000000000E+00 0. -1.
         11    1    3    3    0    0 -0.28269032498E+01  0.65070536034E+01 -0.86844866664E+01  0.11213984016E+02  0.51100000000E-03 0. -1.
        -11    1    3    3    0    0 -0.14907725046E+02 -0.23582161220E+00 -0.43276185714E+01  0.15524952838E+02  0.51100000000E-03 0.  1.
         12    1    3    3    0    0 -0.18018279425E+02  0.12668529015E+02  0.89894197496E+01  0.23789907278E+02  0.00000000000E+00 0. -1.
</event>
<event>
 7    1  0.3250765E-011  0.5052887E+02  0.7816164E-02  0.1300439E+00
        -11   -1    0    0    0    0  0.00000000000E+00  0.00000000000E+00  0.45593999997E+02  0.45594000000E+02  0.51100000000E-03 0.  1.
         11   -1    0    0    0    0 -0.00000000000E+00 -0.00000000000E+00 -0.45593999997E+02  0.45594000000E+02  0.51100000000E-03 0. -1.
    9900012    2    1    2    0    0 -0.29815825148E+01 -0.38494055215E+02  0.12746881551E+02  0.50528866826E+02  0.30000021203E+02 0.  0.
         12    1    1    2    0    0  0.29815825148E+01  0.38494055215E+02 -0.12746881551E+02  0.40659133174E+02  0.00000000000E+00 0. -1.
         11    1    3    3    0    0 -0.38065665895E+01 -0.12704545219E+02  0.17517334593E+02  0.21971627840E+02  0.51100000000E-03 0. -1.
        -11    1    3    3    0    0  0.12418349320E+01 -0.11574552027E+02  0.34369219671E+01  0.12137744497E+02  0.51100000000E-03 0.  1.
        -12    1    3    3    0    0 -0.41685085728E+00 -0.14214957969E+02 -0.82073750092E+01  0.16419494488E+02  0.00000000000E+00 0.  1.
</event>
<event>
 7    1  0.3250765E-011  0.5052888E+02  0.7816164E-02  0.1300439E+00
        -11   -1    0    0    0    0  0.00000000000E+00  0.00000000000E+00  0.45593999997E+02  0.45594000000E+02  0.51100000000E-03 0.  1.
         11   -1    0    0    0    0 -0.00000000000E+00 -0.00000000000E+00 -0.45593999997E+02  0.45594000000E+02  0.51100000000E-03 0. -1.
    9900012    2    1    2    0    0  0.31180003235E+02  0.24470203930E+02  0.90653437451E+01  0.50528881227E+02  0.30000064979E+02 0.  0.
         12    1    1    2    0    0 -0.31180003235E+02 -0.24470203930E+02 -0.90653437451E+01  0.40659118773E+02  0.00000000000E+00 0. -1.
         11    1    3    3    0    0  0.28744891852E+00 -0.53396447053E+00 -0.47816101217E+01  0.48199108450E+01  0.51100000000E-03 0. -1.
        -11    1    3    3    0    0  0.20669200913E+02  0.24829663319E+02  0.60924792278E+01  0.32876227738E+02  0.51100000000E-03 0.  1.
         12    1    3    3    0    0  0.10223353404E+02  0.17450508218E+00  0.77544746390E+01  0.12832742644E+02  0.00000000000E+00 0. -1.
</event>
<event>
 7    1  0.3250765E-011  0.5052886E+02  0.7816164E-02  0.1300439E+00
        -11   -1    0    0    0    0  0.00000000000E+00  0.00000000000E+00  0.45593999997E+02  0.45594000000E+02  0.51100000000E-03 0.  1.
         11   -1    0    0    0    0 -0.00000000000E+00 -0.00000000000E+00 -0.45593999997E+02  0.45594000000E+02  0.51100000000E-03 0. -1.
    9900012    2    1    2    0    0  0.43427448882E+01  0.38150328670E+02  0.13373807984E+02  0.50528858952E+02  0.29999997270E+02 0.  0.
         12    1    1    2    0    0 -0.43427448882E+01 -0.38150328670E+02 -0.13373807984E+02  0.40659141048E+02  0.00000000000E+00 0. -1.
         11    1    3    3    0    0  0.81565457082E+01  0.15390570147E+02  0.44971468266E+01  0.17989530766E+02  0.51100000000E-03 0. -1.
        -11    1    3    3    0    0  0.30557706651E+01  0.91711605575E+01  0.13520286306E+02  0.16620651684E+02  0.51100000000E-03 0.  1.
         12    1    3    3    0    0 -0.68695714852E+01  0.13588597965E+02 -0.46436251490E+01  0.15918676502E+02  0.00000000000E+00 0. -1.
</event>
<event>
 7    1  0.3250765E-011  0.5052890E+02  0.7816164E-02  0.1300439E+00
        -11   -1    0    0    0    0  0.00000000000E+00  0.00000000000E+00  0.45593999997E+02  0.45594000000E+02  0.51100000000E-03 0. -1.
         11   -1    0    0    0    0 -0.00000000000E+00 -0.00000000000E+00 -0.45593999997E+02  0.45594000000E+02  0.51100000000E-03 0.  1.
    9900012    2    1    2    0    0 -0.16728334574E+02  0.19411860211E+02 -0.31567469280E+02  0.50528897560E+02  0.30000114623E+02 0.  0.
         12    1    1    2    0    0  0.16728334574E+02 -0.19411860211E+02  0.31567469280E+02  0.40659102440E+02  0.00000000000E+00 0. -1.
         11    1    3    3    0    0 -0.11790514751E+02  0.10263109471E+02 -0.61626106342E+01  0.16802542195E+02  0.51100000000E-03 0. -1.
        -11    1    3    3    0    0 -0.78172547738E+01 -0.39356533750E+01 -0.91490229759E+01  0.12661100322E+02  0.51100000000E-03 0.  1.
        -12    1    3    3    0    0  0.28794349514E+01  0.13084404116E+02 -0.16255835670E+02  0.21065255043E+02  0.00000000000E+00 0.  1.
</event>
<event>
 7    1  0.3250765E-011  0.5052881E+02  0.7816164E-02  0.1300439E+00
        -11   -1    0    0    0    0  0.00000000000E+00  0.00000000000E+00  0.45593999997E+02  0.45594000000E+02  0.51100000000E-03 0.  1.
         11   -1    0    0    0    0 -0.00000000000E+00 -0.00000000000E+00 -0.45593999997E+02  0.45594000000E+02  0.51100000000E-03 0. -1.
    9900012    2    1    2    0    0  0.15993250801E+02  0.37378979825E+02 -0.44443462521E+00  0.50528810066E+02  0.29999848676E+02 0.  0.
         12    1    1    2    0    0 -0.15993250801E+02 -0.37378979825E+02  0.44443462521E+00  0.40659189934E+02  0.00000000000E+00 0. -1.
         11    1    3    3    0    0  0.16949277290E+02  0.39688991921E+02 -0.47380999891E+01  0.43415937996E+02  0.51100000000E-03 0. -1.
        -11    1    3    3    0    0  0.28145917261E+00 -0.10649391229E+01 -0.10295104348E+01  0.15077156887E+01  0.51100000000E-03 0.  1.
        -12    1    3    3    0    0 -0.12374856616E+01 -0.12450729725E+01  0.53231757986E+01  0.56051563808E+01  0.00000000000E+00 0.  1.
</event>
<event>
 7    1  0.3250765E-011  0.5052883E+02  0.7816164E-02  0.1300439E+00
        -11   -1    0    0    0    0  0.00000000000E+00  0.00000000000E+00  0.45593999997E+02  0.45594000000E+02  0.51100000000E-03 0.  1.
         11   -1    0    0    0    0 -0.00000000000E+00 -0.00000000000E+00 -0.45593999997E+02  0.45594000000E+02  0.51100000000E-03 0. -1.
    9900012    2    1    2    0    0 -0.52836609937E+01 -0.76098195326E+01  0.39589662762E+02  0.50528833451E+02  0.29999919759E+02 0.  0.
         12    1    1    2    0    0  0.52836609937E+01  0.76098195326E+01 -0.39589662762E+02  0.40659166549E+02  0.00000000000E+00 0. -1.
         11    1    3    3    0    0  0.75574942481E+01 -0.58862847212E+01  0.64033503755E+01  0.11522454748E+02  0.51100000000E-03 0. -1.
        -11    1    3    3    0    0 -0.17458626563E+01 -0.75597630057E+01  0.15423566572E+02  0.17265122623E+02  0.51100000000E-03 0.  1.
        -12    1    3    3    0    0 -0.11095292586E+02  0.58362281942E+01  0.17762745814E+02  0.21741256080E+02  0.00000000000E+00 0.  1.
</event>
<event>
 7    1  0.3250765E-011  0.5052885E+02  0.7816164E-02  0.1300439E+00
        -11   -1    0    0    0    0  0.00000000000E+00  0.00000000000E+00  0.45593999997E+02  0.45594000000E+02  0.51100000000E-03 0.  1.
         11   -1    0    0    0    0 -0.00000000000E+00 -0.00000000000E+00 -0.45593999997E+02  0.45594000000E+02  0.51100000000E-03 0. -1.
    9900012    2    1    2    0    0 -0.25983332195E+02 -0.36942001136E+01  0.31054563385E+02  0.50528848835E+02  0.29999966518E+02 0.  0.
         12    1    1    2    0    0  0.25983332195E+02  0.36942001136E+01 -0.31054563385E+02  0.40659151165E+02  0.00000000000E+00 0. -1.
         11    1    3    3    0    0 -0.15494829759E+02  0.95604544534E+01  0.10247551292E+02  0.20892686432E+02  0.51100000000E-03 0. -1.
        -11    1    3    3    0    0 -0.88246280535E+01 -0.31365735393E+01  0.45420622004E+01  0.10408769531E+02  0.51100000000E-03 0.  1.
         12    1    3    3    0    0 -0.16638743829E+01 -0.10118081028E+02  0.16264949892E+02  0.19227392872E+02  0.00000000000E+00 0. -1.
</event>
<event>
 7    1  0.3250765E-011  0.5052886E+02  0.7816164E-02  0.1300439E+00
        -11   -1    0    0    0    0  0.00000000000E+00  0.00000000000E+00  0.45593999997E+02  0.45594000000E+02  0.51100000000E-03 0. -1.
         11   -1    0    0    0    0 -0.00000000000E+00 -0.00000000000E+00 -0.45593999997E+02  0.45594000000E+02  0.51100000000E-03 0.  1.
    9900012    2    1    2    0    0  0.29885162199E+02  0.26633011215E+02  0.71221533046E+01  0.50528864818E+02  0.30000015100E+02 0.  0.
         12    1    1    2    0    0 -0.29885162199E+02 -0.26633011215E+02 -0.71221533046E+01  0.40659135182E+02  0.00000000000E+00 0. -1.
         11    1    3    3    0    0  0.63540160468E+01  0.12495054348E+02  0.65259120919E+01  0.15462452328E+02  0.51100000000E-03 0. -1.
        -11    1    3    3    0    0  0.12779057512E+02  0.17225542071E+02 -0.57493081252E+01  0.22205363197E+02  0.51100000000E-03 0.  1.
        -12    1    3    3    0    0  0.10752088640E+02 -0.30875852041E+01  0.63455493379E+01  0.12861049293E+02  0.00000000000E+00 0.  1.
</event>
<event>
 7    1  0.3250765E-011  0.5052888E+02  0.7816164E-02  0.1300439E+00
        -11   -1    0    0    0    0  0.00000000000E+00  0.00000000000E+00  0.45593999997E+02  0.45594000000E+02  0.51100000000E-03 0.  1.
         11   -1    0    0    0    0 -0.00000000000E+00 -0.00000000000E+00 -0.45593999997E+02  0.45594000000E+02  0.51100000000E-03 0. -1.
    9900012    2    1    2    0    0  0.18299001133E+02 -0.26981622366E+02  0.24296140408E+02  0.50528882613E+02  0.30000069190E+02 0.  0.
         12    1    1    2    0    0 -0.18299001133E+02  0.26981622366E+02 -0.24296140408E+02  0.40659117387E+02  0.00000000000E+00 0. -1.
         11    1    3    3    0    0 -0.42981905908E+01 -0.74948138880E+01 -0.16076058837E+01  0.87881212161E+01  0.51100000000E-03 0. -1.
        -11    1    3    3    0    0 -0.65479086170E-01 -0.37746163904E+01  0.80442706801E+01  0.88860737923E+01  0.51100000000E-03 0.  1.
         12    1    3    3    0    0  0.22662670810E+02 -0.15712192088E+02  0.17859475611E+02  0.32854687604E+02  0.00000000000E+00 0. -1.
</event>
<event>
 7    1  0.3250765E-011  0.5052886E+02  0.7816164E-02  0.1300439E+00
        -11   -1    0    0    0    0  0.00000000000E+00  0.00000000000E+00  0.45593999997E+02  0.45594000000E+02  0.51100000000E-03 0. -1.
         11   -1    0    0    0    0 -0.00000000000E+00 -0.00000000000E+00 -0.45593999997E+02  0.45594000000E+02  0.51100000000E-03 0.  1.
    9900012    2    1    2    0    0 -0.18524752427E+02 -0.18592970415E+02 -0.31053191199E+02  0.50528859761E+02  0.29999999729E+02 0.  0.
         12    1    1    2    0    0  0.18524752427E+02  0.18592970415E+02  0.31053191199E+02  0.40659140239E+02  0.00000000000E+00 0. -1.
         11    1    3    3    0    0 -0.11173592439E+02 -0.60454320242E+01 -0.15594978308E+02  0.20114665422E+02  0.51100000000E-03 0. -1.
        -11    1    3    3    0    0 -0.10703060211E+02 -0.26265211194E+01 -0.16552033797E+02  0.19885269276E+02  0.51100000000E-03 0.  1.
         12    1    3    3    0    0  0.33519002239E+01 -0.99210172719E+01  0.10938209055E+01  0.10528925063E+02  0.00000000000E+00 0. -1.
</event>
<event>
 7    1  0.3250765E-011  0.5052886E+02  0.7816164E-02  0.1300439E+00
        -11   -1    0    0    0    0  0.00000000000E+00  0.00000000000E+00  0.45593999997E+02  0.45594000000E+02  0.51100000000E-03 0.  1.
         11   -1    0    0    0    0 -0.00000000000E+00 -0.00000000000E+00 -0.45593999997E+02  0.45594000000E+02  0.51100000000E-03 0. -1.
    9900012    2    1    2    0    0 -0.34643755058E+02 -0.20175395897E+02 -0.67771406078E+01  0.50528855900E+02  0.29999987994E+02 0.  0.
         12    1    1    2    0    0  0.34643755058E+02  0.20175395897E+02  0.67771406078E+01  0.40659144100E+02  0.00000000000E+00 0. -1.
         11    1    3    3    0    0 -0.96926807169E+01 -0.15895844905E+02 -0.17887722313E+01  0.18703626682E+02  0.51100000000E-03 0. -1.
        -11    1    3    3    0    0 -0.54501462654E+01 -0.39368745266E+01  0.63643161741E+01  0.92578397036E+01  0.51100000000E-03 0.  1.
        -12    1    3    3    0    0 -0.19500928076E+02 -0.34267646511E+00 -0.11352684551E+02  0.22567389514E+02  0.00000000000E+00 0.  1.
</event>
<event>
 7    1  0.3250765E-011  0.5052883E+02  0.7816164E-02  0.1300439E+00
        -11   -1    0    0    0    0  0.00000000000E+00  0.00000000000E+00  0.45593999997E+02  0.45594000000E+02  0.51100000000E-03 0.  1.
         11   -1    0    0    0    0 -0.00000000000E+00 -0.00000000000E+00 -0.45593999997E+02  0.45594000000E+02  0.51100000000E-03 0. -1.
    9900012    2    1    2    0    0  0.32343908986E+01  0.29740349038E+02  0.27535764166E+02  0.50528831863E+02  0.29999914931E+02 0.  0.
         12    1    1    2    0    0 -0.32343908986E+01 -0.29740349038E+02 -0.27535764166E+02  0.40659168137E+02  0.00000000000E+00 0. -1.
         11    1    3    3    0    0  0.88377541295E+00 -0.20094567059E+01  0.21484338287E+01  0.30716027430E+01  0.51100000000E-03 0. -1.
        -11    1    3    3    0    0  0.12990693668E+02  0.13350109366E+02  0.94253768905E+01  0.20876332816E+02  0.51100000000E-03 0.  1.
        -12    1    3    3    0    0 -0.10640078182E+02  0.18399696377E+02  0.15961953447E+02  0.26580896304E+02  0.00000000000E+00 0.  1.
</event>
<event>
 7    1  0.3250765E-011  0.5052887E+02  0.7816164E-02  0.1300439E+00
        -11   -1    0    0    0    0  0.00000000000E+00  0.00000000000E+00  0.45593999997E+02  0.45594000000E+02  0.51100000000E-03 0.  1.
         11   -1    0    0    0    0 -0.00000000000E+00 -0.00000000000E+00 -0.45593999997E+02  0.45594000000E+02  0.51100000000E-03 0. -1.
    9900012    2    1    2    0    0  0.59201463305E+01 -0.11602756617E+02  0.38516136986E+02  0.50528869389E+02  0.30000028996E+02 0.  0.
         12    1    1    2    0    0 -0.59201463305E+01  0.11602756617E+02 -0.38516136986E+02  0.40659130611E+02  0.00000000000E+00 0. -1.
         11    1    3    3    0    0  0.53049161577E+01  0.61896852607E+01  0.15234871648E+02  0.17278763076E+02  0.51100000000E-03 0. -1.
        -11    1    3    3    0    0  0.72275363876E+01 -0.37613396507E+01  0.67420845487E+01  0.10575474577E+02  0.51100000000E-03 0.  1.
        -12    1    3    3    0    0 -0.66123062149E+01 -0.14031102226E+02  0.16539180790E+02  0.22674631736E+02  0.00000000000E+00 0.  1.
</event>
<event>
 7    1  0.3250765E-011  0.5052886E+02  0.7816164E-02  0.1300439E+00
        -11   -1    0    0    0    0  0.00000000000E+00  0.00000000000E+00  0.45593999997E+02  0.45594000000E+02  0.51100000000E-03 0.  1.
         11   -1    0    0    0    0 -0.00000000000E+00 -0.00000000000E+00 -0.45593999997E+02  0.45594000000E+02  0.51100000000E-03 0. -1.
    9900012    2    1    2    0    0 -0.18163968489E+02  0.46201549341E+00  0.36373374830E+02  0.50528860731E+02  0.30000002678E+02 0.  0.
         12    1    1    2    0    0  0.18163968489E+02 -0.46201549341E+00 -0.36373374830E+02  0.40659139269E+02  0.00000000000E+00 0. -1.
         11    1    3    3    0    0 -0.17503360406E+02  0.16100700497E+01  0.69749356069E+01  0.18910570537E+02  0.51100000000E-03 0. -1.
        -11    1    3    3    0    0 -0.19866280625E+01  0.49279720704E+01  0.11444976102E+02  0.12618204232E+02  0.51100000000E-03 0.  1.
        -12    1    3    3    0    0  0.13260199796E+01 -0.60760266266E+01  0.17953463120E+02  0.19000085962E+02  0.00000000000E+00 0.  1.
</event>
<event>
 7    1  0.3250765E-011  0.5052883E+02  0.7816164E-02  0.1300439E+00
        -11   -1    0    0    0    0  0.00000000000E+00  0.00000000000E+00  0.45593999997E+02  0.45594000000E+02  0.51100000000E-03 0.  1.
         11   -1    0    0    0    0 -0.00000000000E+00 -0.00000000000E+00 -0.45593999997E+02  0.45594000000E+02  0.51100000000E-03 0. -1.
    9900012    2    1    2    0    0  0.63688890442E+01  0.37640198662E+02 -0.13993596217E+02  0.50528830824E+02  0.29999911772E+02 0.  0.
         12    1    1    2    0    0 -0.63688890442E+01 -0.37640198662E+02  0.13993596217E+02  0.40659169176E+02  0.00000000000E+00 0. -1.
         11    1    3    3    0    0 -0.40492727665E+01  0.13470160415E+02  0.25740653614E+01  0.14299218310E+02  0.51100000000E-03 0. -1.
        -11    1    3    3    0    0  0.53572770712E+01  0.23039841048E+02 -0.59164534703E+01  0.24383172785E+02  0.51100000000E-03 0.  1.
         12    1    3    3    0    0  0.50608847396E+01  0.11301971990E+01 -0.10651208109E+02  0.11846439728E+02  0.00000000000E+00 0. -1.
</event>
<event>
 7    1  0.3250765E-011  0.5052886E+02  0.7816164E-02  0.1300439E+00
        -11   -1    0    0    0    0  0.00000000000E+00  0.00000000000E+00  0.45593999997E+02  0.45594000000E+02  0.51100000000E-03 0. -1.
         11   -1    0    0    0    0 -0.00000000000E+00 -0.00000000000E+00 -0.45593999997E+02  0.45594000000E+02  0.51100000000E-03 0.  1.
    9900012    2    1    2    0    0 -0.13506220135E+02  0.12888013170E+01 -0.38328664580E+02  0.50528861794E+02  0.30000005909E+02 0.  0.
         12    1    1    2    0    0  0.13506220135E+02 -0.12888013170E+01  0.38328664580E+02  0.40659138206E+02  0.00000000000E+00 0. -1.
         11    1    3    3    0    0  0.19344651808E+00 -0.15133121326E+00 -0.13545920409E+02  0.13548146836E+02  0.51100000000E-03 0. -1.
        -11    1    3    3    0    0 -0.14390672134E+02  0.36255222403E+01 -0.28775460936E+02  0.32376890035E+02  0.51100000000E-03 0.  1.
         12    1    3    3    0    0  0.69100548101E+00 -0.21853897100E+01  0.39927167651E+01  0.46038249235E+01  0.00000000000E+00 0. -1.
</event>
<event>
 7    1  0.3250765E-011  0.5052885E+02  0.7816164E-02  0.1300439E+00
        -11   -1    0    0    0    0  0.00000000000E+00  0.00000000000E+00  0.45593999997E+02  0.45594000000E+02  0.51100000000E-03 0.  1.
         11   -1    0    0    0    0 -0.00000000000E+00 -0.00000000000E+00 -0.45593999997E+02  0.45594000000E+02  0.51100000000E-03 0. -1.
    9900012    2    1    2    0    0 -0.14436349195E+02 -0.13263758079E+02  0.35620653754E+02  0.50528850595E+02  0.29999971870E+02 0.  0.
         12    1    1    2    0    0  0.14436349195E+02  0.13263758079E+02 -0.35620653754E+02  0.40659149405E+02  0.00000000000E+00 0. -1.
         11    1    3    3    0    0  0.12054051776E+01 -0.43917466508E+01 -0.29602823612E+01  0.54317319711E+01  0.51100000000E-03 0. -1.
        -11    1    3    3    0    0 -0.70020734627E+01 -0.10181884303E+02  0.12440162043E+02  0.17534464139E+02  0.51100000000E-03 0.  1.
         12    1    3    3    0    0 -0.86396809097E+01  0.13098728749E+01  0.26140774072E+02  0.27562654485E+02  0.00000000000E+00 0. -1.
</event>
<event>
 7    1  0.3250765E-011  0.5052886E+02  0.7816164E-02  0.1300439E+00
        -11   -1    0    0    0    0  0.00000000000E+00  0.00000000000E+00  0.45593999997E+02  0.45594000000E+02  0.51100000000E-03 0.  1.
         11   -1    0    0    0    0 -0.00000000000E+00 -0.00000000000E+00 -0.45593999997E+02  0.45594000000E+02  0.51100000000E-03 0. -1.
    9900012    2    1    2    0    0  0.21040949851E+02  0.31966396768E+02  0.13732937786E+02  0.50528859906E+02  0.30000000170E+02 0.  0.
         12    1    1    2    0    0 -0.21040949851E+02 -0.31966396768E+02 -0.13732937786E+02  0.40659140094E+02  0.00000000000E+00 0. -1.
         11    1    3    3    0    0 -0.19004518638E+01 -0.18167503743E+01  0.43417425992E+01  0.50757293336E+01  0.51100000000E-03 0. -1.
        -11    1    3    3    0    0  0.44474973035E+01  0.10199676390E+02  0.10723616325E+02  0.15453464922E+02  0.51100000000E-03 0.  1.
        -12    1    3    3    0    0  0.18493904411E+02  0.23583470752E+02 -0.13324211380E+01  0.29999665651E+02  0.00000000000E+00 0.  1.
</event>
<event>
 7    1  0.3250765E-011  0.5052885E+02  0.7816164E-02  0.1300439E+00
        -11   -1    0    0    0    0  0.00000000000E+00  0.00000000000E+00  0.45593999997E+02  0.45594000000E+02  0.51100000000E-03 0.  1.
         11   -1    0    0    0    0 -0.00000000000E+00 -0.00000000000E+00 -0.45593999997E+02  0.45594000000E+02  0.51100000000E-03 0. -1.
    9900012    2    1    2    0    0  0.81766998892E+01  0.36381218063E+02  0.16208474110E+02  0.50528854881E+02  0.29999984898E+02 0.  0.
         12    1    1    2    0    0 -0.81766998892E+01 -0.36381218063E+02 -0.16208474110E+02  0.40659145119E+02  0.00000000000E+00 0. -1.
         11    1    3    3    0    0 -0.83219065124E+00  0.86138767666E+01 -0.44398890192E+01  0.97264602500E+01  0.51100000000E-03 0. -1.
        -11    1    3    3    0    0  0.67701740227E+01  0.25075281645E+02  0.72670984989E+01  0.26970645649E+02  0.51100000000E-03 0.  1.
        -12    1    3    3    0    0  0.22387165178E+01  0.26920596514E+01  0.13381264631E+02  0.13831748983E+02  0.00000000000E+00 0.  1.
</event>
<event>
 7    1  0.3250765E-011  0.5052886E+02  0.7816164E-02  0.1300439E+00
        -11   -1    0    0    0    0  0.00000000000E+00  0.00000000000E+00  0.45593999997E+02  0.45594000000E+02  0.51100000000E-03 0.  1.
         11   -1    0    0    0    0 -0.00000000000E+00 -0.00000000000E+00 -0.45593999997E+02  0.45594000000E+02  0.51100000000E-03 0. -1.
    9900012    2    1    2    0    0 -0.16857579739E+02 -0.31211756312E+02 -0.19869924558E+02  0.50528860454E+02  0.30000001835E+02 0.  0.
         12    1    1    2    0    0  0.16857579739E+02  0.31211756312E+02  0.19869924558E+02  0.40659139546E+02  0.00000000000E+00 0. -1.
         11    1    3    3    0    0 -0.12644774828E+02 -0.10902758034E+02 -0.56530312703E+01  0.17627172944E+02  0.51100000000E-03 0.  1.
        -11    1    3    3    0    0 -0.75453254585E+01 -0.15350317439E+02 -0.18766729233E+02  0.25392012683E+02  0.51100000000E-03 0. -1.
         12    1    3    3    0    0  0.33325205478E+01 -0.49586808391E+01  0.45498359453E+01  0.75096748261E+01  0.00000000000E+00 0. -1.
</event>
<event>
 7    1  0.3250765E-011  0.5052886E+02  0.7816164E-02  0.1300439E+00
        -11   -1    0    0    0    0  0.00000000000E+00  0.00000000000E+00  0.45593999997E+02  0.45594000000E+02  0.51100000000E-03 0.  1.
         11   -1    0    0    0    0 -0.00000000000E+00 -0.00000000000E+00 -0.45593999997E+02  0.45594000000E+02  0.51100000000E-03 0. -1.
    9900012    2    1    2    0    0  0.25218496947E+02 -0.53818576064E+01  0.31436101014E+02  0.50528862939E+02  0.30000009388E+02 0.  0.
         12    1    1    2    0    0 -0.25218496947E+02  0.53818576064E+01 -0.31436101014E+02  0.40659137061E+02  0.00000000000E+00 0. -1.
         11    1    3    3    0    0  0.15333342253E+02 -0.28321257683E+01  0.94259327341E+01  0.18220332851E+02  0.51100000000E-03 0. -1.
        -11    1    3    3    0    0  0.16233627267E+02  0.10864956440E+01  0.16271467607E+02  0.23010253918E+02  0.51100000000E-03 0.  1.
        -12    1    3    3    0    0 -0.63484725729E+01 -0.36362274820E+01  0.57387006735E+01  0.92982761698E+01  0.00000000000E+00 0.  1.
</event>
<event>
 7    1  0.3250765E-011  0.5052886E+02  0.7816164E-02  0.1300439E+00
        -11   -1    0    0    0    0  0.00000000000E+00  0.00000000000E+00  0.45593999997E+02  0.45594000000E+02  0.51100000000E-03 0.  1.
         11   -1    0    0    0    0 -0.00000000000E+00 -0.00000000000E+00 -0.45593999997E+02  0.45594000000E+02  0.51100000000E-03 0. -1.
    9900012    2    1    2    0    0  0.31355505605E+02 -0.11640756582E+02  0.23119053829E+02  0.50528860861E+02  0.30000003073E+02 0.  0.
         12    1    1    2    0    0 -0.31355505605E+02  0.11640756582E+02 -0.23119053829E+02  0.40659139139E+02  0.00000000000E+00 0. -1.
         11    1    3    3    0    0 -0.39629206419E+01 -0.20958975979E+01  0.52537308528E+01  0.69064618213E+01  0.51100000000E-03 0. -1.
        -11    1    3    3    0    0  0.24823541682E+02 -0.65637916431E+01  0.19948626132E+02  0.32515215933E+02  0.51100000000E-03 0.  1.
         12    1    3    3    0    0  0.10494884565E+02 -0.29810673409E+01 -0.20833031554E+01  0.11107183107E+02  0.00000000000E+00 0. -1.
</event>
<event>
 7    1  0.3250765E-011  0.5052886E+02  0.7816164E-02  0.1300439E+00
        -11   -1    0    0    0    0  0.00000000000E+00  0.00000000000E+00  0.45593999997E+02  0.45594000000E+02  0.51100000000E-03 0. -1.
         11   -1    0    0    0    0 -0.00000000000E+00 -0.00000000000E+00 -0.45593999997E+02  0.45594000000E+02  0.51100000000E-03 0.  1.
    9900012    2    1    2    0    0 -0.34843241330E+02  0.12627071476E+02 -0.16723376083E+02  0.50528859478E+02  0.29999998868E+02 0.  0.
         12    1    1    2    0    0  0.34843241330E+02 -0.12627071476E+02  0.16723376083E+02  0.40659140522E+02  0.00000000000E+00 0. -1.
         11    1    3    3    0    0 -0.26742247510E+01  0.11100561906E+02 -0.60098306251E+01  0.12903178564E+02  0.51100000000E-03 0. -1.
        -11    1    3    3    0    0 -0.14191640561E+01  0.86935887674E+00  0.33997997677E+01  0.37852939379E+01  0.51100000000E-03 0.  1.
        -12    1    3    3    0    0 -0.30749852522E+02  0.65715069281E+00 -0.14113345226E+02  0.33840386975E+02  0.00000000000E+00 0.  1.
</event>
<event>
 7    1  0.3849539E-011  0.5052887E+02  0.7816164E-02  0.1300439E+00
        -11   -1    0    0    0    0  0.00000000000E+00  0.00000000000E+00  0.45593999997E+02  0.45594000000E+02  0.51100000000E-03 0.  1.
         11   -1    0    0    0    0 -0.00000000000E+00 -0.00000000000E+00 -0.45593999997E+02  0.45594000000E+02  0.51100000000E-03 0. -1.
    9900012    2    1    2    0    0  0.38381420617E+02  0.10692193559E+02  0.81060587850E+01  0.50528872603E+02  0.30000038764E+02 0.  0.
         12    1    1    2    0    0 -0.38381420617E+02 -0.10692193559E+02 -0.81060587850E+01  0.40659127397E+02  0.00000000000E+00 0. -1.
         11    1    3    3    0    0  0.61530069350E+00  0.97779573064E+00 -0.39189331027E+01  0.40856720816E+01  0.51100000000E-03 0. -1.
        -11    1    3    3    0    0  0.85181088373E+01  0.12856871625E+02  0.48044480645E+01  0.16153638835E+02  0.51100000000E-03 0.  1.
         12    1    3    3    0    0  0.29248011086E+02 -0.31424737966E+01  0.72205438232E+01  0.30289561686E+02  0.00000000000E+00 0. -1.
</event>
<event>
 7    1  0.3250765E-011  0.5052886E+02  0.7816164E-02  0.1300439E+00
        -11   -1    0    0    0    0  0.00000000000E+00  0.00000000000E+00  0.45593999997E+02  0.45594000000E+02  0.51100000000E-03 0. -1.
         11   -1    0    0    0    0 -0.00000000000E+00 -0.00000000000E+00 -0.45593999997E+02  0.45594000000E+02  0.51100000000E-03 0.  1.
    9900012    2    1    2    0    0  0.60160711280E+01  0.33277644457E+02 -0.22573680785E+02  0.50528858388E+02  0.29999995558E+02 0.  0.
         12    1    1    2    0    0 -0.60160711280E+01 -0.33277644457E+02  0.22573680785E+02  0.40659141612E+02  0.00000000000E+00 0. -1.
         11    1    3    3    0    0  0.86647727410E+01  0.77537029061E+01  0.14953192060E+01  0.11723232285E+02  0.51100000000E-03 0. -1.
        -11    1    3    3    0    0  0.66098606386E+01  0.12142206756E+02 -0.13969811022E+02  0.19653983383E+02  0.51100000000E-03 0.  1.
        -12    1    3    3    0    0 -0.92585622516E+01  0.13381734795E+02 -0.10099188968E+02  0.19151642721E+02  0.00000000000E+00 0.  1.
</event>
<event>
 7    1  0.3250765E-011  0.5052886E+02  0.7816164E-02  0.1300439E+00
        -11   -1    0    0    0    0  0.00000000000E+00  0.00000000000E+00  0.45593999997E+02  0.45594000000E+02  0.51100000000E-03 0. -1.
         11   -1    0    0    0    0 -0.00000000000E+00 -0.00000000000E+00 -0.45593999997E+02  0.45594000000E+02  0.51100000000E-03 0.  1.
    9900012    2    1    2    0    0 -0.27765691338E+02  0.28985352229E+02 -0.64870080169E+01  0.50528861638E+02  0.30000005436E+02 0.  0.
         12    1    1    2    0    0  0.27765691338E+02 -0.28985352229E+02  0.64870080169E+01  0.40659138362E+02  0.00000000000E+00 0. -1.
         11    1    3    3    0    0  0.22348625597E+01  0.45429116523E-01  0.96686823663E-01  0.22374143712E+01  0.51100000000E-03 0. -1.
        -11    1    3    3    0    0 -0.11580349578E+02  0.14530119458E+02 -0.14534666655E+02  0.23589942833E+02  0.51100000000E-03 0.  1.
        -12    1    3    3    0    0 -0.18420204320E+02  0.14409803654E+02  0.79509718147E+01  0.24701504435E+02  0.00000000000E+00 0.  1.
</event>
<event>
 7    1  0.3250765E-011  0.5052885E+02  0.7816164E-02  0.1300439E+00
        -11   -1    0    0    0    0  0.00000000000E+00  0.00000000000E+00  0.45593999997E+02  0.45594000000E+02  0.51100000000E-03 0.  1.
         11   -1    0    0    0    0 -0.00000000000E+00 -0.00000000000E+00 -0.45593999997E+02  0.45594000000E+02  0.51100000000E-03 0. -1.
    9900012    2    1    2    0    0 -0.16443735478E+01 -0.29097440481E+02  0.28351394797E+02  0.50528848584E+02  0.29999965757E+02 0.  0.
         12    1    1    2    0    0  0.16443735478E+01  0.29097440481E+02 -0.28351394797E+02  0.40659151416E+02  0.00000000000E+00 0. -1.
         11    1    3    3    0    0  0.74554232344E+01 -0.91353763555E+01  0.81623254825E+01  0.14340920274E+02  0.51100000000E-03 0. -1.
        -11    1    3    3    0    0 -0.25888413880E+01 -0.21356073243E+02  0.20228580119E+02  0.29529297620E+02  0.51100000000E-03 0.  1.
         12    1    3    3    0    0 -0.65109553942E+01  0.13940091169E+01 -0.39510804092E-01  0.66586306901E+01  0.00000000000E+00 0. -1.
</event>
<event>
 7    1  0.3250765E-011  0.5052886E+02  0.7816164E-02  0.1300439E+00
        -11   -1    0    0    0    0  0.00000000000E+00  0.00000000000E+00  0.45593999997E+02  0.45594000000E+02  0.51100000000E-03 0.  1.
         11   -1    0    0    0    0 -0.00000000000E+00 -0.00000000000E+00 -0.45593999997E+02  0.45594000000E+02  0.51100000000E-03 0. -1.
    9900012    2    1    2    0    0 -0.23837759139E+02  0.29243092940E+02  0.15158107555E+02  0.50528862403E+02  0.30000007761E+02 0.  0.
         12    1    1    2    0    0  0.23837759139E+02 -0.29243092940E+02 -0.15158107555E+02  0.40659137597E+02  0.00000000000E+00 0. -1.
         11    1    3    3    0    0 -0.99627341308E+01  0.22103485622E+02  0.11484590614E+02  0.26827522618E+02  0.51100000000E-03 0. -1.
        -11    1    3    3    0    0  0.20260729707E+01  0.36844157513E+00  0.59248896810E+01  0.62725623847E+01  0.51100000000E-03 0.  1.
        -12    1    3    3    0    0 -0.15901097979E+02  0.67711657428E+01 -0.22513727406E+01  0.17428777400E+02  0.00000000000E+00 0.  1.
</event>
<event>
 7    1  0.3250765E-011  0.5052883E+02  0.7816164E-02  0.1300439E+00
        -11   -1    0    0    0    0  0.00000000000E+00  0.00000000000E+00  0.45593999997E+02  0.45594000000E+02  0.51100000000E-03 0.  1.
         11   -1    0    0    0    0 -0.00000000000E+00 -0.00000000000E+00 -0.45593999997E+02  0.45594000000E+02  0.51100000000E-03 0. -1.
    9900012    2    1    2    0    0 -0.17532742419E+02  0.54593436958E+01  0.36276257202E+02  0.50528827272E+02  0.29999900977E+02 0.  0.
         12    1    1    2    0    0  0.17532742419E+02 -0.54593436958E+01 -0.36276257202E+02  0.40659172728E+02  0.00000000000E+00 0. -1.
         11    1    3    3    0    0 -0.14294085082E+02  0.95620651126E+00  0.13238137941E+02  0.19505986149E+02  0.51100000000E-03 0. -1.
        -11    1    3    3    0    0 -0.11847943367E+01 -0.17867108215E+01  0.24208670868E+02  0.24303411667E+02  0.51100000000E-03 0.  1.
         12    1    3    3    0    0 -0.20538629998E+01  0.62898480060E+01 -0.11705516071E+01  0.67194294568E+01  0.00000000000E+00 0. -1.
</event>
<event>
 7    1  0.3250765E-011  0.5052886E+02  0.7816164E-02  0.1300439E+00
        -11   -1    0    0    0    0  0.00000000000E+00  0.00000000000E+00  0.45593999997E+02  0.45594000000E+02  0.51100000000E-03 0. -1.
         11   -1    0    0    0    0 -0.00000000000E+00 -0.00000000000E+00 -0.45593999997E+02  0.45594000000E+02  0.51100000000E-03 0.  1.
    9900012    2    1    2    0    0 -0.25089462213E+02  0.10857020256E+02 -0.30096666851E+02  0.50528863776E+02  0.30000011932E+02 0.  0.
         12    1    1    2    0    0  0.25089462213E+02 -0.10857020256E+02  0.30096666851E+02  0.40659136224E+02  0.00000000000E+00 0. -1.
         11    1    3    3    0    0 -0.11836852366E+02  0.81977735902E+01 -0.17254922878E+02  0.22473249199E+02  0.51100000000E-03 0. -1.
        -11    1    3    3    0    0 -0.18311177189E+01 -0.81662030088E+01 -0.80337355271E+01  0.11600895244E+02  0.51100000000E-03 0.  1.
         12    1    3    3    0    0 -0.11421492128E+02  0.10825449675E+02 -0.48080084454E+01  0.16454719333E+02  0.00000000000E+00 0. -1.
</event>
<event>
 7    1  0.3250765E-011  0.5052889E+02  0.7816164E-02  0.1300439E+00
        -11   -1    0    0    0    0  0.00000000000E+00  0.00000000000E+00  0.45593999997E+02  0.45594000000E+02  0.51100000000E-03 0.  1.
         11   -1    0    0    0    0 -0.00000000000E+00 -0.00000000000E+00 -0.45593999997E+02  0.45594000000E+02  0.51100000000E-03 0. -1.
    9900012    2    1    2    0    0 -0.16206975210E+02 -0.36916254666E+02  0.52618663310E+01  0.50528891041E+02  0.30000094809E+02 0.  0.
         12    1    1    2    0    0  0.16206975210E+02  0.36916254666E+02 -0.52618663310E+01  0.40659108959E+02  0.00000000000E+00 0. -1.
         11    1    3    3    0    0 -0.78130053915E+01 -0.86546801302E+01 -0.58868532254E+01  0.13061454075E+02  0.51100000000E-03 0. -1.
        -11    1    3    3    0    0 -0.13319919473E+02 -0.23262401161E+02  0.34128841139E+01  0.27022348914E+02  0.51100000000E-03 0.  1.
         12    1    3    3    0    0  0.49259496547E+01 -0.49991733743E+01  0.77358354425E+01  0.10445088052E+02  0.00000000000E+00 0. -1.
</event>
<event>
 7    1  0.3250765E-011  0.5052882E+02  0.7816164E-02  0.1300439E+00
        -11   -1    0    0    0    0  0.00000000000E+00  0.00000000000E+00  0.45593999997E+02  0.45594000000E+02  0.51100000000E-03 0.  1.
         11   -1    0    0    0    0 -0.00000000000E+00 -0.00000000000E+00 -0.45593999997E+02  0.45594000000E+02  0.51100000000E-03 0. -1.
    9900012    2    1    2    0    0 -0.37803280801E+02 -0.89830200283E+01 -0.11974384620E+02  0.50528824219E+02  0.29999891697E+02 0.  0.
         12    1    1    2    0    0  0.37803280801E+02  0.89830200283E+01  0.11974384620E+02  0.40659175781E+02  0.00000000000E+00 0. -1.
         11    1    3    3    0    0 -0.19865747825E+02 -0.10917429247E+02 -0.39357922858E+01  0.23007143656E+02  0.51100000000E-03 0. -1.
        -11    1    3    3    0    0 -0.20492422320E+02  0.26950527324E+01 -0.18116336542E+01  0.20748125181E+02  0.51100000000E-03 0.  1.
         12    1    3    3    0    0  0.25548893450E+01 -0.76064351417E+00 -0.62269586796E+01  0.67735553824E+01  0.00000000000E+00 0. -1.
</event>
<event>
 7    1  0.3250765E-011  0.5052888E+02  0.7816164E-02  0.1300439E+00
        -11   -1    0    0    0    0  0.00000000000E+00  0.00000000000E+00  0.45593999997E+02  0.45594000000E+02  0.51100000000E-03 0.  1.
         11   -1    0    0    0    0 -0.00000000000E+00 -0.00000000000E+00 -0.45593999997E+02  0.45594000000E+02  0.51100000000E-03 0. -1.
    9900012    2    1    2    0    0 -0.22086230336E+02 -0.75744045303E+01  0.33286499438E+02  0.50528877786E+02  0.30000054517E+02 0.  0.
         12    1    1    2    0    0  0.22086230336E+02  0.75744045303E+01 -0.33286499438E+02  0.40659122214E+02  0.00000000000E+00 0. -1.
         11    1    3    3    0    0 -0.75900698636E+01 -0.28770563992E+01 -0.23796466731E+01  0.84586838579E+01  0.51100000000E-03 0. -1.
        -11    1    3    3    0    0  0.33755650841E+01 -0.26342581245E+01  0.59045995530E+01  0.72936994485E+01  0.51100000000E-03 0.  1.
        -12    1    3    3    0    0 -0.17871725556E+02 -0.20630900065E+01  0.29761546558E+02  0.34776494479E+02  0.00000000000E+00 0.  1.
</event>
<event>
 7    1  0.3250765E-011  0.5052887E+02  0.7816164E-02  0.1300439E+00
        -11   -1    0    0    0    0  0.00000000000E+00  0.00000000000E+00  0.45593999997E+02  0.45594000000E+02  0.51100000000E-03 0. -1.
         11   -1    0    0    0    0 -0.00000000000E+00 -0.00000000000E+00 -0.45593999997E+02  0.45594000000E+02  0.51100000000E-03 0.  1.
    9900012    2    1    2    0    0 -0.13051816848E+02  0.38506828182E+02 -0.19702569906E+00  0.50528873610E+02  0.30000041826E+02 0.  0.
         12    1    1    2    0    0  0.13051816848E+02 -0.38506828182E+02  0.19702569906E+00  0.40659126390E+02  0.00000000000E+00 0. -1.
         11    1    3    3    0    0 -0.93615417078E+00  0.24110804325E+01 -0.40180534759E+01  0.47785403084E+01  0.51100000000E-03 0. -1.
        -11    1    3    3    0    0 -0.24641152896E+01  0.14250186977E+01  0.89553812217E+01  0.93968822243E+01  0.51100000000E-03 0.  1.
        -12    1    3    3    0    0 -0.96515473874E+01  0.34670729052E+02 -0.51343534449E+01  0.36353451078E+02  0.00000000000E+00 0.  1.
</event>
<event>
 7    1  0.3250765E-011  0.5052887E+02  0.7816164E-02  0.1300439E+00
        -11   -1    0    0    0    0  0.00000000000E+00  0.00000000000E+00  0.45593999997E+02  0.45594000000E+02  0.51100000000E-03 0.  1.
         11   -1    0    0    0    0 -0.00000000000E+00 -0.00000000000E+00 -0.45593999997E+02  0.45594000000E+02  0.51100000000E-03 0. -1.
    9900012    2    1    2    0    0  0.38945307196E+02 -0.64616344482E+01  0.97301324506E+01  0.50528866341E+02  0.30000019732E+02 0.  0.
         12    1    1    2    0    0 -0.38945307196E+02  0.64616344482E+01 -0.97301324506E+01  0.40659133659E+02  0.00000000000E+00 0. -1.
         11    1    3    3    0    0  0.23987182505E+02  0.51630939880E+01  0.25710706343E+01  0.24670891117E+02  0.51100000000E-03 0. -1.
        -11    1    3    3    0    0  0.10105042459E+02 -0.38032143071E+01 -0.38905844689E+01  0.11476627115E+02  0.51100000000E-03 0.  1.
         12    1    3    3    0    0  0.48530822332E+01 -0.78215141290E+01  0.11049646285E+02  0.14381348110E+02  0.00000000000E+00 0. -1.
</event>
<event>
 7    1  0.3250765E-011  0.5052886E+02  0.7816164E-02  0.1300439E+00
        -11   -1    0    0    0    0  0.00000000000E+00  0.00000000000E+00  0.45593999997E+02  0.45594000000E+02  0.51100000000E-03 0. -1.
         11   -1    0    0    0    0 -0.00000000000E+00 -0.00000000000E+00 -0.45593999997E+02  0.45594000000E+02  0.51100000000E-03 0.  1.
    9900012    2    1    2    0    0 -0.39739242497E+02  0.85998530027E+01 -0.25938879317E-01  0.50528861559E+02  0.30000005195E+02 0.  0.
         12    1    1    2    0    0  0.39739242497E+02 -0.85998530027E+01  0.25938879317E-01  0.40659138441E+02  0.00000000000E+00 0. -1.
         11    1    3    3    0    0  0.18575094688E+01 -0.12508553968E+01 -0.38206248305E+00  0.22717730196E+01  0.51100000000E-03 0. -1.
        -11    1    3    3    0    0 -0.24204060993E+02 -0.24339907812E+01  0.80386579982E+01  0.25619931740E+02  0.51100000000E-03 0.  1.
         12    1    3    3    0    0 -0.17392690973E+02  0.12284699181E+02 -0.76825343944E+01  0.22637156800E+02  0.00000000000E+00 0. -1.
</event>
<event>
 7    1  0.3250765E-011  0.5052887E+02  0.7816164E-02  0.1300439E+00
        -11   -1    0    0    0    0  0.00000000000E+00  0.00000000000E+00  0.45593999997E+02  0.45594000000E+02  0.51100000000E-03 0.  1.
         11   -1    0    0    0    0 -0.00000000000E+00 -0.00000000000E+00 -0.45593999997E+02  0.45594000000E+02  0.51100000000E-03 0. -1.
    9900012    2    1    2    0    0  0.13263796672E+02 -0.13272500907E+02  0.36070454298E+02  0.50528865040E+02  0.30000015774E+02 0.  0.
         12    1    1    2    0    0 -0.13263796672E+02  0.13272500907E+02 -0.36070454298E+02  0.40659134960E+02  0.00000000000E+00 0. -1.
         11    1    3    3    0    0  0.69139295308E+01  0.30172121480E+01  0.11022183286E+02  0.13356440969E+02  0.51100000000E-03 0. -1.
        -11    1    3    3    0    0  0.18942021472E+01  0.29180973208E+01  0.14296518649E+02  0.14713726227E+02  0.51100000000E-03 0.  1.
         12    1    3    3    0    0  0.44556649937E+01 -0.19207810375E+02  0.10751752363E+02  0.22458697844E+02  0.00000000000E+00 0. -1.
</event>
<event>
 7    1  0.3250765E-011  0.5052886E+02  0.7816164E-02  0.1300439E+00
        -11   -1    0    0    0    0  0.00000000000E+00  0.00000000000E+00  0.45593999997E+02  0.45594000000E+02  0.51100000000E-03 0.  1.
         11   -1    0    0    0    0 -0.00000000000E+00 -0.00000000000E+00 -0.45593999997E+02  0.45594000000E+02  0.51100000000E-03 0. -1.
    9900012    2    1    2    0    0 -0.15158879265E+01 -0.26167616802E+02  0.31082525489E+02  0.50528862329E+02  0.30000007537E+02 0.  0.
         12    1    1    2    0    0  0.15158879265E+01  0.26167616802E+02 -0.31082525489E+02  0.40659137671E+02  0.00000000000E+00 0. -1.
         11    1    3    3    0    0  0.79543174549E+01  0.65733407657E+00  0.11243251901E+02  0.13788182180E+02  0.51100000000E-03 0. -1.
        -11    1    3    3    0    0 -0.33503050152E+01 -0.38023309428E+01  0.95090487921E+01  0.10775169302E+02  0.51100000000E-03 0.  1.
        -12    1    3    3    0    0 -0.61199003662E+01 -0.23022619936E+02  0.10330224796E+02  0.25965510847E+02  0.00000000000E+00 0.  1.
</event>
<event>
 7    1  0.3250765E-011  0.5052888E+02  0.7816164E-02  0.1300439E+00
        -11   -1    0    0    0    0  0.00000000000E+00  0.00000000000E+00  0.45593999997E+02  0.45594000000E+02  0.51100000000E-03 0.  1.
         11   -1    0    0    0    0 -0.00000000000E+00 -0.00000000000E+00 -0.45593999997E+02  0.45594000000E+02  0.51100000000E-03 0. -1.
    9900012    2    1    2    0    0 -0.75790503493E+00 -0.39996548645E+02  0.72708773788E+01  0.50528880710E+02  0.30000063406E+02 0.  0.
         12    1    1    2    0    0  0.75790503493E+00  0.39996548645E+02 -0.72708773788E+01  0.40659119290E+02  0.00000000000E+00 0. -1.
         11    1    3    3    0    0  0.92245664718E+00 -0.38635263504E+02 -0.22645168508E+01  0.38712563195E+02  0.51100000000E-03 0. -1.
        -11    1    3    3    0    0  0.21241189697E+01 -0.10018622443E+01  0.11795716344E+01  0.26281169791E+01  0.51100000000E-03 0.  1.
         12    1    3    3    0    0 -0.38044806518E+01 -0.35942289693E+00  0.83558225951E+01  0.91882005360E+01  0.00000000000E+00 0. -1.
</event>
<event>
 7    1  0.3250765E-011  0.5052886E+02  0.7816164E-02  0.1300439E+00
        -11   -1    0    0    0    0  0.00000000000E+00  0.00000000000E+00  0.45593999997E+02  0.45594000000E+02  0.51100000000E-03 0.  1.
         11   -1    0    0    0    0 -0.00000000000E+00 -0.00000000000E+00 -0.45593999997E+02  0.45594000000E+02  0.51100000000E-03 0. -1.
    9900012    2    1    2    0    0 -0.31762003839E+01  0.27472168901E+02  0.29805329146E+02  0.50528856397E+02  0.29999989505E+02 0.  0.
         12    1    1    2    0    0  0.31762003839E+01 -0.27472168901E+02 -0.29805329146E+02  0.40659143603E+02  0.00000000000E+00 0. -1.
         11    1    3    3    0    0  0.77660461353E+01  0.12798185490E+02  0.10291352890E+02  0.18166369175E+02  0.51100000000E-03 0. -1.
        -11    1    3    3    0    0 -0.28994989096E+00  0.85732222591E+01 -0.81282678993E+00  0.86165479454E+01  0.51100000000E-03 0.  1.
         12    1    3    3    0    0 -0.10652296628E+02  0.61007611514E+01  0.20326803046E+02  0.23745939277E+02  0.00000000000E+00 0. -1.
</event>
<event>
 7    1  0.3250765E-011  0.5052886E+02  0.7816164E-02  0.1300439E+00
        -11   -1    0    0    0    0  0.00000000000E+00  0.00000000000E+00  0.45593999997E+02  0.45594000000E+02  0.51100000000E-03 0.  1.
         11   -1    0    0    0    0 -0.00000000000E+00 -0.00000000000E+00 -0.45593999997E+02  0.45594000000E+02  0.51100000000E-03 0. -1.
    9900012    2    1    2    0    0 -0.27874639945E+02 -0.24554873349E+02  0.16529620955E+02  0.50528859255E+02  0.29999998191E+02 0.  0.
         12    1    1    2    0    0  0.27874639945E+02  0.24554873349E+02 -0.16529620955E+02  0.40659140745E+02  0.00000000000E+00 0. -1.
         11    1    3    3    0    0 -0.11666960109E+02  0.16031526968E+01 -0.20395991749E+01  0.11951904526E+02  0.51100000000E-03 0. -1.
        -11    1    3    3    0    0 -0.17309430939E+02 -0.21316148163E+02  0.11121656769E+02  0.29625762800E+02  0.51100000000E-03 0.  1.
        -12    1    3    3    0    0  0.11017511028E+01 -0.48418778825E+01  0.74475633614E+01  0.89511919286E+01  0.00000000000E+00 0.  1.
</event>
<event>
 7    1  0.3250765E-011  0.5052886E+02  0.7816164E-02  0.1300439E+00
        -11   -1    0    0    0    0  0.00000000000E+00  0.00000000000E+00  0.45593999997E+02  0.45594000000E+02  0.51100000000E-03 0. -1.
         11   -1    0    0    0    0 -0.00000000000E+00 -0.00000000000E+00 -0.45593999997E+02  0.45594000000E+02  0.51100000000E-03 0.  1.
    9900012    2    1    2    0    0  0.19206082461E+02  0.33306978773E+02  0.13226383850E+02  0.50528859967E+02  0.30000000356E+02 0.  0.
         12    1    1    2    0    0 -0.19206082461E+02 -0.33306978773E+02 -0.13226383850E+02  0.40659140033E+02  0.00000000000E+00 0. -1.
         11    1    3    3    0    0 -0.45181086601E+00  0.47639694117E+01 -0.31242589607E+00  0.47955341534E+01  0.51100000000E-03 0. -1.
        -11    1    3    3    0    0 -0.49090559557E+01  0.14330717777E+02  0.29011211261E+01  0.15423514724E+02  0.51100000000E-03 0.  1.
        -12    1    3    3    0    0  0.24566949282E+02  0.14212291584E+02  0.10637688620E+02  0.30309811090E+02  0.00000000000E+00 0.  1.
</event>
<event>
 7    1  0.3250765E-011  0.5052887E+02  0.7816164E-02  0.1300439E+00
        -11   -1    0    0    0    0  0.00000000000E+00  0.00000000000E+00  0.45593999997E+02  0.45594000000E+02  0.51100000000E-03 0.  1.
         11   -1    0    0    0    0 -0.00000000000E+00 -0.00000000000E+00 -0.45593999997E+02  0.45594000000E+02  0.51100000000E-03 0. -1.
    9900012    2    1    2    0    0  0.13842459928E+02  0.38021849686E+02  0.39862381218E+01  0.50528870093E+02  0.30000031136E+02 0.  0.
         12    1    1    2    0    0 -0.13842459928E+02 -0.38021849686E+02 -0.39862381218E+01  0.40659129907E+02  0.00000000000E+00 0. -1.
         11    1    3    3    0    0  0.15887098813E+02  0.29821460050E+02  0.13199126055E+02  0.36275836546E+02  0.51100000000E-03 0. -1.
        -11    1    3    3    0    0 -0.13504294763E+01  0.55511405838E-01  0.60227379229E+00  0.14796875578E+01  0.51100000000E-03 0.  1.
         12    1    3    3    0    0 -0.69420940851E+00  0.81448782299E+01 -0.98151617254E+01  0.12773345990E+02  0.00000000000E+00 0. -1.
</event>
<event>
 7    1  0.3250765E-011  0.5052886E+02  0.7816164E-02  0.1300439E+00
        -11   -1    0    0    0    0  0.00000000000E+00  0.00000000000E+00  0.45593999997E+02  0.45594000000E+02  0.51100000000E-03 0. -1.
         11   -1    0    0    0    0 -0.00000000000E+00 -0.00000000000E+00 -0.45593999997E+02  0.45594000000E+02  0.51100000000E-03 0.  1.
    9900012    2    1    2    0    0 -0.16718528898E+02  0.33889685840E+01 -0.36907606277E+02  0.50528859359E+02  0.29999998506E+02 0.  0.
         12    1    1    2    0    0  0.16718528898E+02 -0.33889685840E+01  0.36907606277E+02  0.40659140641E+02  0.00000000000E+00 0. -1.
         11    1    3    3    0    0 -0.15198306541E+02  0.70739258896E+00 -0.46009169070E+01  0.15895199358E+02  0.51100000000E-03 0. -1.
        -11    1    3    3    0    0 -0.36275376767E+01  0.52233976467E+01 -0.85881143799E+01  0.10686375505E+02  0.51100000000E-03 0.  1.
        -12    1    3    3    0    0  0.21073153188E+01 -0.25418216516E+01 -0.23718574990E+02  0.23947284496E+02  0.00000000000E+00 0.  1.
</event>
<event>
 7    1  0.3250765E-011  0.5052883E+02  0.7816164E-02  0.1300439E+00
        -11   -1    0    0    0    0  0.00000000000E+00  0.00000000000E+00  0.45593999997E+02  0.45594000000E+02  0.51100000000E-03 0. -1.
         11   -1    0    0    0    0 -0.00000000000E+00 -0.00000000000E+00 -0.45593999997E+02  0.45594000000E+02  0.51100000000E-03 0.  1.
    9900012    2    1    2    0    0  0.32127201042E+02 -0.24910274020E+02  0.69960154932E+00  0.50528828330E+02  0.29999904193E+02 0.  0.
         12    1    1    2    0    0 -0.32127201042E+02  0.24910274020E+02 -0.69960154932E+00  0.40659171670E+02  0.00000000000E+00 0. -1.
         11    1    3    3    0    0  0.26384405878E+02 -0.20850861723E+02  0.56105591223E+01  0.34093601776E+02  0.51100000000E-03 0. -1.
        -11    1    3    3    0    0  0.39967136577E+01  0.43776851039E+01  0.96590181072E+00  0.60058982259E+01  0.51100000000E-03 0.  1.
        -12    1    3    3    0    0  0.17460815063E+01 -0.84370974005E+01 -0.58768593837E+01  0.10429328329E+02  0.00000000000E+00 0.  1.
</event>
<event>
 7    1  0.3250765E-011  0.5052886E+02  0.7816164E-02  0.1300439E+00
        -11   -1    0    0    0    0  0.00000000000E+00  0.00000000000E+00  0.45593999997E+02  0.45594000000E+02  0.51100000000E-03 0. -1.
         11   -1    0    0    0    0 -0.00000000000E+00 -0.00000000000E+00 -0.45593999997E+02  0.45594000000E+02  0.51100000000E-03 0.  1.
    9900012    2    1    2    0    0  0.77594442911E+01 -0.11143008149E+02 -0.38324800315E+02  0.50528856803E+02  0.29999990738E+02 0.  0.
         12    1    1    2    0    0 -0.77594442911E+01  0.11143008149E+02  0.38324800315E+02  0.40659143197E+02  0.00000000000E+00 0. -1.
         11    1    3    3    0    0  0.35000012777E+00 -0.65816413289E+01 -0.24872966653E+02  0.25731400527E+02  0.51100000000E-03 0. -1.
        -11    1    3    3    0    0  0.67853326222E+01 -0.11496254552E+02 -0.61172644598E+01  0.14684193279E+02  0.51100000000E-03 0.  1.
         12    1    3    3    0    0  0.62411154109E+00  0.69348877319E+01 -0.73345692018E+01  0.10113262997E+02  0.00000000000E+00 0. -1.
</event>
<event>
 7    1  0.3250765E-011  0.5052885E+02  0.7816164E-02  0.1300439E+00
        -11   -1    0    0    0    0  0.00000000000E+00  0.00000000000E+00  0.45593999997E+02  0.45594000000E+02  0.51100000000E-03 0.  1.
         11   -1    0    0    0    0 -0.00000000000E+00 -0.00000000000E+00 -0.45593999997E+02  0.45594000000E+02  0.51100000000E-03 0. -1.
    9900012    2    1    2    0    0  0.45833933134E+01 -0.11975279300E+02  0.38584339732E+02  0.50528854889E+02  0.29999984921E+02 0.  0.
         12    1    1    2    0    0 -0.45833933134E+01  0.11975279300E+02 -0.38584339732E+02  0.40659145111E+02  0.00000000000E+00 0. -1.
         11    1    3    3    0    0 -0.74286093129E+01 -0.37828007770E+01  0.91847110146E+01  0.12403738740E+02  0.51100000000E-03 0. -1.
        -11    1    3    3    0    0 -0.16154285939E+00  0.51952928702E+01  0.26614834956E+01  0.58395769334E+01  0.51100000000E-03 0.  1.
        -12    1    3    3    0    0  0.12173545486E+02 -0.13387771393E+02  0.26738145222E+02  0.32285539216E+02  0.00000000000E+00 0.  1.
</event>
<event>
 7    1  0.3250765E-011  0.5052882E+02  0.7816164E-02  0.1300439E+00
        -11   -1    0    0    0    0  0.00000000000E+00  0.00000000000E+00  0.45593999997E+02  0.45594000000E+02  0.51100000000E-03 0.  1.
         11   -1    0    0    0    0 -0.00000000000E+00 -0.00000000000E+00 -0.45593999997E+02  0.45594000000E+02  0.51100000000E-03 0. -1.
    9900012    2    1    2    0    0  0.35856860202E+01  0.37385778659E+01  0.40327838255E+02  0.50528823336E+02  0.29999889011E+02 0.  0.
         12    1    1    2    0    0 -0.35856860202E+01 -0.37385778659E+01 -0.40327838255E+02  0.40659176664E+02  0.00000000000E+00 0. -1.
         11    1    3    3    0    0 -0.25932741535E+01 -0.34967244627E+00 -0.68213529036E+00  0.27041912785E+01  0.51100000000E-03 0. -1.
        -11    1    3    3    0    0  0.44888123935E+01 -0.61934242061E+01  0.34936607684E+02  0.35764151001E+02  0.51100000000E-03 0.  1.
         12    1    3    3    0    0  0.16901477802E+01  0.10281674518E+02  0.60733658614E+01  0.12060481056E+02  0.00000000000E+00 0. -1.
</event>
<event>
 7    1  0.3250765E-011  0.5052886E+02  0.7816164E-02  0.1300439E+00
        -11   -1    0    0    0    0  0.00000000000E+00  0.00000000000E+00  0.45593999997E+02  0.45594000000E+02  0.51100000000E-03 0.  1.
         11   -1    0    0    0    0 -0.00000000000E+00 -0.00000000000E+00 -0.45593999997E+02  0.45594000000E+02  0.51100000000E-03 0. -1.
    9900012    2    1    2    0    0 -0.81827882614E+01 -0.32875186772E+02  0.22481767404E+02  0.50528858412E+02  0.29999995629E+02 0.  0.
         12    1    1    2    0    0  0.81827882614E+01  0.32875186772E+02 -0.22481767404E+02  0.40659141588E+02  0.00000000000E+00 0. -1.
         11    1    3    3    0    0 -0.71736479544E+01 -0.36567510396E+01  0.11177288976E+02  0.13775516043E+02  0.51100000000E-03 0. -1.
        -11    1    3    3    0    0 -0.10054158428E+02 -0.16136524384E+02  0.71784465648E+01  0.20322490404E+02  0.51100000000E-03 0.  1.
        -12    1    3    3    0    0  0.90450181210E+01 -0.13081911349E+02  0.41260318636E+01  0.16430851965E+02  0.00000000000E+00 0.  1.
</event>
<event>
 7    1  0.3250765E-011  0.5052886E+02  0.7816164E-02  0.1300439E+00
        -11   -1    0    0    0    0  0.00000000000E+00  0.00000000000E+00  0.45593999997E+02  0.45594000000E+02  0.51100000000E-03 0. -1.
         11   -1    0    0    0    0 -0.00000000000E+00 -0.00000000000E+00 -0.45593999997E+02  0.45594000000E+02  0.51100000000E-03 0.  1.
    9900012    2    1    2    0    0 -0.24378509492E+02 -0.31558523079E+02  0.79317882423E+01  0.50528863650E+02  0.30000011552E+02 0.  0.
         12    1    1    2    0    0  0.24378509492E+02  0.31558523079E+02 -0.79317882423E+01  0.40659136350E+02  0.00000000000E+00 0. -1.
         11    1    3    3    0    0 -0.16234392569E+02 -0.24482031078E+01 -0.45175143532E+01  0.17028127810E+02  0.51100000000E-03 0. -1.
        -11    1    3    3    0    0 -0.60969298279E+01 -0.17389797641E+02  0.38632092630E+01  0.18828223533E+02  0.51100000000E-03 0.  1.
        -12    1    3    3    0    0 -0.20471870949E+01 -0.11720522330E+02  0.85860933325E+01  0.14672512307E+02  0.00000000000E+00 0.  1.
</event>
<event>
 7    1  0.3250765E-011  0.5052886E+02  0.7816164E-02  0.1300439E+00
        -11   -1    0    0    0    0  0.00000000000E+00  0.00000000000E+00  0.45593999997E+02  0.45594000000E+02  0.51100000000E-03 0. -1.
         11   -1    0    0    0    0 -0.00000000000E+00 -0.00000000000E+00 -0.45593999997E+02  0.45594000000E+02  0.51100000000E-03 0.  1.
    9900012    2    1    2    0    0 -0.30847345112E+02 -0.16495112710E+02  0.20724815393E+02  0.50528863058E+02  0.30000009752E+02 0.  0.
         12    1    1    2    0    0  0.30847345112E+02  0.16495112710E+02 -0.20724815393E+02  0.40659136942E+02  0.00000000000E+00 0. -1.
         11    1    3    3    0    0 -0.17442034435E+02 -0.37605393112E+01  0.97628638871E+01  0.20339118287E+02  0.51100000000E-03 0. -1.
        -11    1    3    3    0    0 -0.99045296570E+01 -0.10765168127E+02  0.17318917856E+02  0.22670100760E+02  0.51100000000E-03 0.  1.
        -12    1    3    3    0    0 -0.35007810199E+01 -0.19694052718E+01 -0.63569663502E+01  0.75196440110E+01  0.00000000000E+00 0.  1.
</event>
<event>
 7    1  0.3250765E-011  0.5052886E+02  0.7816164E-02  0.1300439E+00
        -11   -1    0    0    0    0  0.00000000000E+00  0.00000000000E+00  0.45593999997E+02  0.45594000000E+02  0.51100000000E-03 0.  1.
         11   -1    0    0    0    0 -0.00000000000E+00 -0.00000000000E+00 -0.45593999997E+02  0.45594000000E+02  0.51100000000E-03 0. -1.
    9900012    2    1    2    0    0  0.73970160714E+01 -0.33363104544E+02  0.22030733316E+02  0.50528858322E+02  0.29999995354E+02 0.  0.
         12    1    1    2    0    0 -0.73970160714E+01  0.33363104544E+02 -0.22030733316E+02  0.40659141678E+02  0.00000000000E+00 0. -1.
         11    1    3    3    0    0  0.34383308340E+01 -0.18213252251E+02  0.11422082989E+02  0.21771739861E+02  0.51100000000E-03 0. -1.
        -11    1    3    3    0    0 -0.49680112360E+01 -0.11854694152E+02  0.13667516996E+02  0.18762087575E+02  0.51100000000E-03 0.  1.
         12    1    3    3    0    0  0.89266964734E+01 -0.32951581413E+01 -0.30588666696E+01  0.99950308857E+01  0.00000000000E+00 0. -1.
</event>
<event>
 7    1  0.3250765E-011  0.5052886E+02  0.7816164E-02  0.1300439E+00
        -11   -1    0    0    0    0  0.00000000000E+00  0.00000000000E+00  0.45593999997E+02  0.45594000000E+02  0.51100000000E-03 0.  1.
         11   -1    0    0    0    0 -0.00000000000E+00 -0.00000000000E+00 -0.45593999997E+02  0.45594000000E+02  0.51100000000E-03 0. -1.
    9900012    2    1    2    0    0 -0.31899072599E+02  0.13577883307E+02  0.21242791058E+02  0.50528856875E+02  0.29999990957E+02 0.  0.
         12    1    1    2    0    0  0.31899072599E+02 -0.13577883307E+02 -0.21242791058E+02  0.40659143125E+02  0.00000000000E+00 0. -1.
         11    1    3    3    0    0 -0.14135956638E+02  0.10071378563E+02 -0.16550245332E+01  0.17435510968E+02  0.51100000000E-03 0. -1.
        -11    1    3    3    0    0 -0.11752500252E+02  0.86216835838E+01  0.90575751692E+01  0.17160837922E+02  0.51100000000E-03 0.  1.
        -12    1    3    3    0    0 -0.60106157091E+01 -0.51151788399E+01  0.13840240422E+02  0.15932507985E+02  0.00000000000E+00 0.  1.
</event>
<event>
 7    1  0.3250765E-011  0.5052886E+02  0.7816164E-02  0.1300439E+00
        -11   -1    0    0    0    0  0.00000000000E+00  0.00000000000E+00  0.45593999997E+02  0.45594000000E+02  0.51100000000E-03 0.  1.
         11   -1    0    0    0    0 -0.00000000000E+00 -0.00000000000E+00 -0.45593999997E+02  0.45594000000E+02  0.51100000000E-03 0. -1.
    9900012    2    1    2    0    0 -0.40230073563E+02 -0.56727307104E+01  0.15896819351E+01  0.50528858577E+02  0.29999996131E+02 0.  0.
         12    1    1    2    0    0  0.40230073563E+02  0.56727307104E+01 -0.15896819351E+01  0.40659141423E+02  0.00000000000E+00 0. -1.
         11    1    3    3    0    0 -0.64267445027E+01  0.54124495076E+01  0.64631186686E+01  0.10600450828E+02  0.51100000000E-03 0. -1.
        -11    1    3    3    0    0 -0.25045130849E+02 -0.62977470165E-01 -0.61598143304E+01  0.25791585028E+02  0.51100000000E-03 0.  1.
         12    1    3    3    0    0 -0.87581982110E+01 -0.11022202748E+02  0.12863775970E+01  0.14136822721E+02  0.00000000000E+00 0. -1.
</event>
<event>
 7    1  0.3250765E-011  0.5052887E+02  0.7816164E-02  0.1300439E+00
        -11   -1    0    0    0    0  0.00000000000E+00  0.00000000000E+00  0.45593999997E+02  0.45594000000E+02  0.51100000000E-03 0.  1.
         11   -1    0    0    0    0 -0.00000000000E+00 -0.00000000000E+00 -0.45593999997E+02  0.45594000000E+02  0.51100000000E-03 0. -1.
    9900012    2    1    2    0    0 -0.44297911301E+01  0.34444819540E+02  0.21144649111E+02  0.50528870292E+02  0.30000031739E+02 0.  0.
         12    1    1    2    0    0  0.44297911301E+01 -0.34444819540E+02 -0.21144649111E+02  0.40659129708E+02  0.00000000000E+00 0. -1.
         11    1    3    3    0    0 -0.39581638314E+01  0.37300438235E+01  0.42934471532E+01  0.69292118282E+01  0.51100000000E-03 0. -1.
        -11    1    3    3    0    0  0.60215226920E+01  0.15081378531E+02  0.20630226992E+02  0.26254770613E+02  0.51100000000E-03 0.  1.
        -12    1    3    3    0    0 -0.64931499907E+01  0.15633397185E+02 -0.37790250336E+01  0.17344887851E+02  0.00000000000E+00 0.  1.
</event>
<event>
 7    1  0.3250765E-011  0.5052884E+02  0.7816164E-02  0.1300439E+00
        -11   -1    0    0    0    0  0.00000000000E+00  0.00000000000E+00  0.45593999997E+02  0.45594000000E+02  0.51100000000E-03 0.  1.
         11   -1    0    0    0    0 -0.00000000000E+00 -0.00000000000E+00 -0.45593999997E+02  0.45594000000E+02  0.51100000000E-03 0. -1.
    9900012    2    1    2    0    0 -0.52522630480E+01 -0.82870131340E+01  0.39457653397E+02  0.50528840326E+02  0.29999940655E+02 0.  0.
         12    1    1    2    0    0  0.52522630480E+01  0.82870131340E+01 -0.39457653397E+02  0.40659159674E+02  0.00000000000E+00 0. -1.
         11    1    3    3    0    0 -0.15339514816E+02 -0.34429971554E+01  0.20174105986E+02  0.25576346432E+02  0.51100000000E-03 0. -1.
        -11    1    3    3    0    0 -0.42485502402E+00 -0.52460802027E+01  0.74115083599E+01  0.90902318845E+01  0.51100000000E-03 0.  1.
         12    1    3    3    0    0  0.10512106792E+02  0.40206422404E+00  0.11872039051E+02  0.15862262010E+02  0.00000000000E+00 0. -1.
</event>
<event>
 7    1  0.3250765E-011  0.5052886E+02  0.7816164E-02  0.1300439E+00
        -11   -1    0    0    0    0  0.00000000000E+00  0.00000000000E+00  0.45593999997E+02  0.45594000000E+02  0.51100000000E-03 0.  1.
         11   -1    0    0    0    0 -0.00000000000E+00 -0.00000000000E+00 -0.45593999997E+02  0.45594000000E+02  0.51100000000E-03 0. -1.
    9900012    2    1    2    0    0  0.39735267848E+02 -0.67407302700E+01 -0.53699721951E+01  0.50528861336E+02  0.30000004517E+02 0.  0.
         12    1    1    2    0    0 -0.39735267848E+02  0.67407302700E+01  0.53699721951E+01  0.40659138664E+02  0.00000000000E+00 0. -1.
         11    1    3    3    0    0  0.74061502464E+01  0.81605153993E+00 -0.73258436500E+01  0.10449162025E+02  0.51100000000E-03 0. -1.
        -11    1    3    3    0    0  0.19578937791E+02 -0.14410957445E+02 -0.35971901750E+01  0.24575399833E+02  0.51100000000E-03 0.  1.
         12    1    3    3    0    0  0.12750179811E+02  0.68541756354E+01  0.55530616299E+01  0.15504299478E+02  0.00000000000E+00 0. -1.
</event>
<event>
 7    1  0.3250765E-011  0.5052888E+02  0.7816164E-02  0.1300439E+00
        -11   -1    0    0    0    0  0.00000000000E+00  0.00000000000E+00  0.45593999997E+02  0.45594000000E+02  0.51100000000E-03 0.  1.
         11   -1    0    0    0    0 -0.00000000000E+00 -0.00000000000E+00 -0.45593999997E+02  0.45594000000E+02  0.51100000000E-03 0. -1.
    9900012    2    1    2    0    0  0.25321171292E+02 -0.12138176700E+01  0.31788821638E+02  0.50528877407E+02  0.30000053366E+02 0.  0.
         12    1    1    2    0    0 -0.25321171292E+02  0.12138176700E+01 -0.31788821638E+02  0.40659122593E+02  0.00000000000E+00 0. -1.
         11    1    3    3    0    0 -0.27142246284E+01 -0.42422605343E+01  0.64739115727E+01  0.82021534421E+01  0.51100000000E-03 0.  1.
        -11    1    3    3    0    0  0.17837235801E+02 -0.43462234451E+01  0.23166951797E+02  0.29559504310E+02  0.51100000000E-03 0. -1.
         12    1    3    3    0    0  0.10198160119E+02  0.73746663094E+01  0.21479582684E+01  0.12767219654E+02  0.00000000000E+00 0. -1.
</event>
<event>
 7    1  0.3250765E-011  0.5052886E+02  0.7816164E-02  0.1300439E+00
        -11   -1    0    0    0    0  0.00000000000E+00  0.00000000000E+00  0.45593999997E+02  0.45594000000E+02  0.51100000000E-03 0.  1.
         11   -1    0    0    0    0 -0.00000000000E+00 -0.00000000000E+00 -0.45593999997E+02  0.45594000000E+02  0.51100000000E-03 0. -1.
    9900012    2    1    2    0    0 -0.16065623212E+02 -0.11544942447E+02  0.35521482922E+02  0.50528859646E+02  0.29999999381E+02 0.  0.
         12    1    1    2    0    0  0.16065623212E+02  0.11544942447E+02 -0.35521482922E+02  0.40659140354E+02  0.00000000000E+00 0. -1.
         11    1    3    3    0    0 -0.89207715979E+01 -0.17140761530E+01  0.21754823390E+01  0.93408215179E+01  0.51100000000E-03 0. -1.
        -11    1    3    3    0    0  0.38933485115E+01 -0.10317019707E+02  0.82635990717E+01  0.13779917567E+02  0.51100000000E-03 0.  1.
         12    1    3    3    0    0 -0.11038200126E+02  0.48615341282E+00  0.25082401511E+02  0.27408120562E+02  0.00000000000E+00 0. -1.
</event>
<event>
 7    1  0.3250765E-011  0.5052886E+02  0.7816164E-02  0.1300439E+00
        -11   -1    0    0    0    0  0.00000000000E+00  0.00000000000E+00  0.45593999997E+02  0.45594000000E+02  0.51100000000E-03 0.  1.
         11   -1    0    0    0    0 -0.00000000000E+00 -0.00000000000E+00 -0.45593999997E+02  0.45594000000E+02  0.51100000000E-03 0. -1.
    9900012    2    1    2    0    0  0.43238939071E+01  0.40142006000E+02  0.48050972383E+01  0.50528860023E+02  0.30000000526E+02 0.  0.
         12    1    1    2    0    0 -0.43238939071E+01 -0.40142006000E+02 -0.48050972383E+01  0.40659139977E+02  0.00000000000E+00 0. -1.
         11    1    3    3    0    0 -0.20955070962E+01  0.52742726986E+01  0.46176629617E+01  0.73165506885E+01  0.51100000000E-03 0. -1.
        -11    1    3    3    0    0  0.14449912199E+02  0.19853048418E+02  0.58972457230E+01  0.25253138447E+02  0.51100000000E-03 0.  1.
         12    1    3    3    0    0 -0.80305111959E+01  0.15014684883E+02 -0.57098114463E+01  0.17959170887E+02  0.00000000000E+00 0. -1.
</event>
<event>
 7    1  0.3250765E-011  0.5052886E+02  0.7816164E-02  0.1300439E+00
        -11   -1    0    0    0    0  0.00000000000E+00  0.00000000000E+00  0.45593999997E+02  0.45594000000E+02  0.51100000000E-03 0.  1.
         11   -1    0    0    0    0 -0.00000000000E+00 -0.00000000000E+00 -0.45593999997E+02  0.45594000000E+02  0.51100000000E-03 0. -1.
    9900012    2    1    2    0    0 -0.24834671696E+02  0.11198161442E+02  0.30182878851E+02  0.50528856949E+02  0.29999991182E+02 0.  0.
         12    1    1    2    0    0  0.24834671696E+02 -0.11198161442E+02 -0.30182878851E+02  0.40659143051E+02  0.00000000000E+00 0. -1.
         11    1    3    3    0    0 -0.92486775333E+01  0.15064751483E+02  0.22098081283E+02  0.28298586007E+02  0.51100000000E-03 0. -1.
        -11    1    3    3    0    0  0.18553880965E+01 -0.15386287274E+01  0.31288154824E+01  0.39495987054E+01  0.51100000000E-03 0.  1.
        -12    1    3    3    0    0 -0.17441382259E+02 -0.23279613131E+01  0.49559820849E+01  0.18280672236E+02  0.00000000000E+00 0.  1.
</event>
<event>
 7    1  0.3250765E-011  0.5052885E+02  0.7816164E-02  0.1300439E+00
        -11   -1    0    0    0    0  0.00000000000E+00  0.00000000000E+00  0.45593999997E+02  0.45594000000E+02  0.51100000000E-03 0.  1.
         11   -1    0    0    0    0 -0.00000000000E+00 -0.00000000000E+00 -0.45593999997E+02  0.45594000000E+02  0.51100000000E-03 0. -1.
    9900012    2    1    2    0    0 -0.68623219924E+01  0.19416286467E+02  0.35058280183E+02  0.50528847861E+02  0.29999963558E+02 0.  0.
         12    1    1    2    0    0  0.68623219924E+01 -0.19416286467E+02 -0.35058280183E+02  0.40659152139E+02  0.00000000000E+00 0. -1.
         11    1    3    3    0    0  0.12021548965E+01  0.88664659971E+01  0.23691674098E+01  0.92559359413E+01  0.51100000000E-03 0. -1.
        -11    1    3    3    0    0  0.73945654716E+01  0.38299504287E+01  0.10196850882E+02  0.13165253016E+02  0.51100000000E-03 0.  1.
        -12    1    3    3    0    0 -0.15459042361E+02  0.67198700407E+01  0.22492261892E+02  0.28107658904E+02  0.00000000000E+00 0.  1.
</event>
<event>
 7    1  0.3250765E-011  0.5052886E+02  0.7816164E-02  0.1300439E+00
        -11   -1    0    0    0    0  0.00000000000E+00  0.00000000000E+00  0.45593999997E+02  0.45594000000E+02  0.51100000000E-03 0.  1.
         11   -1    0    0    0    0 -0.00000000000E+00 -0.00000000000E+00 -0.45593999997E+02  0.45594000000E+02  0.51100000000E-03 0. -1.
    9900012    2    1    2    0    0 -0.51130416480E+01  0.19076623841E+02  0.35540182318E+02  0.50528864111E+02  0.30000012952E+02 0.  0.
         12    1    1    2    0    0  0.51130416480E+01 -0.19076623841E+02 -0.35540182318E+02  0.40659135889E+02  0.00000000000E+00 0. -1.
         11    1    3    3    0    0  0.39734315914E+01  0.29934715976E+01  0.89586837278E+01  0.10247294531E+02  0.51100000000E-03 0. -1.
        -11    1    3    3    0    0 -0.85268778284E+01  0.14763536157E+02  0.31140735934E+02  0.35502324996E+02  0.51100000000E-03 0.  1.
         12    1    3    3    0    0 -0.55959541099E+00  0.13196160858E+01 -0.45592373434E+01  0.47792445838E+01  0.00000000000E+00 0. -1.
</event>
<event>
 7    1  0.3250765E-011  0.5052885E+02  0.7816164E-02  0.1300439E+00
        -11   -1    0    0    0    0  0.00000000000E+00  0.00000000000E+00  0.45593999997E+02  0.45594000000E+02  0.51100000000E-03 0.  1.
         11   -1    0    0    0    0 -0.00000000000E+00 -0.00000000000E+00 -0.45593999997E+02  0.45594000000E+02  0.51100000000E-03 0. -1.
    9900012    2    1    2    0    0  0.16192864849E+02  0.26679183951E+02  0.26061056878E+02  0.50528850797E+02  0.29999972483E+02 0.  0.
         12    1    1    2    0    0 -0.16192864849E+02 -0.26679183951E+02 -0.26061056878E+02  0.40659149203E+02  0.00000000000E+00 0. -1.
         11    1    3    3    0    0  0.15638634760E+02  0.25553425057E+02  0.76336484393E+01  0.30916290496E+02  0.51100000000E-03 0. -1.
        -11    1    3    3    0    0  0.29364936460E+01  0.18907858404E+01  0.60583737615E+01  0.69929935594E+01  0.51100000000E-03 0.  1.
        -12    1    3    3    0    0 -0.23822635573E+01 -0.76502694694E+00  0.12369034678E+02  0.12619566741E+02  0.00000000000E+00 0.  1.
</event>
<event>
 7    1  0.3250765E-011  0.5052897E+02  0.7816164E-02  0.1300438E+00
        -11   -1    0    0    0    0  0.00000000000E+00  0.00000000000E+00  0.45593999997E+02  0.45594000000E+02  0.51100000000E-03 0.  1.
         11   -1    0    0    0    0 -0.00000000000E+00 -0.00000000000E+00 -0.45593999997E+02  0.45594000000E+02  0.51100000000E-03 0. -1.
    9900012    2    1    2    0    0  0.31523407208E+02  0.12278123075E+01 -0.25650031942E+02  0.50528968240E+02  0.30000329461E+02 0.  0.
         12    1    1    2    0    0 -0.31523407208E+02 -0.12278123075E+01  0.25650031942E+02  0.40659031760E+02  0.00000000000E+00 0. -1.
         11    1    3    3    0    0  0.15982240093E+01  0.71537645339E+01 -0.35320117274E+01  0.81366930687E+01  0.51100000000E-03 0.  1.
        -11    1    3    3    0    0  0.24557019031E+01  0.54982284923E+01 -0.15305976894E+01  0.62131890312E+01  0.51100000000E-03 0. -1.
         12    1    3    3    0    0  0.27469481295E+02 -0.11424180719E+02 -0.20587422525E+02  0.36179086140E+02  0.00000000000E+00 0. -1.
</event>
<event>
 7    1  0.3250765E-011  0.5052886E+02  0.7816164E-02  0.1300439E+00
        -11   -1    0    0    0    0  0.00000000000E+00  0.00000000000E+00  0.45593999997E+02  0.45594000000E+02  0.51100000000E-03 0.  1.
         11   -1    0    0    0    0 -0.00000000000E+00 -0.00000000000E+00 -0.45593999997E+02  0.45594000000E+02  0.51100000000E-03 0. -1.
    9900012    2    1    2    0    0  0.39662441677E+02  0.62662836510E+01 -0.63866800621E+01  0.50528864829E+02  0.30000015136E+02 0.  0.
         12    1    1    2    0    0 -0.39662441677E+02 -0.62662836510E+01  0.63866800621E+01  0.40659135171E+02  0.00000000000E+00 0. -1.
         11    1    3    3    0    0  0.16056600932E+02  0.36945024980E+01 -0.80401056988E+01  0.18333223451E+02  0.51100000000E-03 0. -1.
        -11    1    3    3    0    0  0.11700921936E+02 -0.69853226560E+01 -0.62641102546E+01  0.14998179366E+02  0.51100000000E-03 0.  1.
        -12    1    3    3    0    0  0.11904918810E+02  0.95571038089E+01  0.79175358912E+01  0.17197462012E+02  0.00000000000E+00 0.  1.
</event>
<event>
 7    1  0.3939906E-011  0.5052886E+02  0.7816164E-02  0.1300439E+00
        -11   -1    0    0    0    0  0.00000000000E+00  0.00000000000E+00  0.45593999997E+02  0.45594000000E+02  0.51100000000E-03 0. -1.
         11   -1    0    0    0    0 -0.00000000000E+00 -0.00000000000E+00 -0.45593999997E+02  0.45594000000E+02  0.51100000000E-03 0.  1.
    9900012    2    1    2    0    0  0.85564983432E+01 -0.23166961711E+02 -0.32299280345E+02  0.50528864623E+02  0.30000014507E+02 0.  0.
         12    1    1    2    0    0 -0.85564983432E+01  0.23166961711E+02  0.32299280345E+02  0.40659135377E+02  0.00000000000E+00 0. -1.
         11    1    3    3    0    0  0.14047886396E+02 -0.64428029163E+01 -0.10728906194E+02  0.18813884500E+02  0.51100000000E-03 0. -1.
        -11    1    3    3    0    0  0.20018918260E+01 -0.28814158227E+01 -0.13650333435E+02  0.14094031758E+02  0.51100000000E-03 0.  1.
         12    1    3    3    0    0 -0.74932798789E+01 -0.13842742972E+02 -0.79200407159E+01  0.17620948365E+02  0.00000000000E+00 0. -1.
</event>
<event>
 7    1  0.3250765E-011  0.5052886E+02  0.7816164E-02  0.1300439E+00
        -11   -1    0    0    0    0  0.00000000000E+00  0.00000000000E+00  0.45593999997E+02  0.45594000000E+02  0.51100000000E-03 0.  1.
         11   -1    0    0    0    0 -0.00000000000E+00 -0.00000000000E+00 -0.45593999997E+02  0.45594000000E+02  0.51100000000E-03 0. -1.
    9900012    2    1    2    0    0  0.27737569382E+02  0.29720564445E+02  0.69366865208E+00  0.50528857334E+02  0.29999992351E+02 0.  0.
         12    1    1    2    0    0 -0.27737569382E+02 -0.29720564445E+02 -0.69366865208E+00  0.40659142666E+02  0.00000000000E+00 0. -1.
         11    1    3    3    0    0  0.25332327500E+01 -0.47588976249E+01 -0.28002395844E+00  0.53984061026E+01  0.51100000000E-03 0. -1.
        -11    1    3    3    0    0  0.81688477297E+01  0.12295428237E+02  0.72781713496E+01  0.16458414481E+02  0.51100000000E-03 0.  1.
        -12    1    3    3    0    0  0.17035488902E+02  0.22184033833E+02 -0.63044787391E+01  0.28672036750E+02  0.00000000000E+00 0.  1.
</event>
<event>
 7    1  0.3250765E-011  0.5052884E+02  0.7816164E-02  0.1300439E+00
        -11   -1    0    0    0    0  0.00000000000E+00  0.00000000000E+00  0.45593999997E+02  0.45594000000E+02  0.51100000000E-03 0. -1.
         11   -1    0    0    0    0 -0.00000000000E+00 -0.00000000000E+00 -0.45593999997E+02  0.45594000000E+02  0.51100000000E-03 0.  1.
    9900012    2    1    2    0    0 -0.29287067378E+02 -0.27284817698E+02 -0.71395799006E+01  0.50528841209E+02  0.29999943339E+02 0.  0.
         12    1    1    2    0    0  0.29287067378E+02  0.27284817698E+02  0.71395799006E+01  0.40659158791E+02  0.00000000000E+00 0. -1.
         11    1    3    3    0    0 -0.29915197379E+02 -0.11346049386E+02 -0.19272144278E+01  0.32052551015E+02  0.51100000000E-03 0. -1.
        -11    1    3    3    0    0 -0.29727261738E+01 -0.66572471627E+01 -0.43348370757E+01  0.84821491040E+01  0.51100000000E-03 0.  1.
        -12    1    3    3    0    0  0.36008561745E+01 -0.92815211493E+01 -0.87752839720E+00  0.99941410898E+01  0.00000000000E+00 0.  1.
</event>
<event>
 7    1  0.3250765E-011  0.5052885E+02  0.7816164E-02  0.1300439E+00
        -11   -1    0    0    0    0  0.00000000000E+00  0.00000000000E+00  0.45593999997E+02  0.45594000000E+02  0.51100000000E-03 0.  1.
         11   -1    0    0    0    0 -0.00000000000E+00 -0.00000000000E+00 -0.45593999997E+02  0.45594000000E+02  0.51100000000E-03 0. -1.
    9900012    2    1    2    0    0  0.48553717638E+01  0.30035207530E+02  0.26971803806E+02  0.50528849408E+02  0.29999968260E+02 0.  0.
         12    1    1    2    0    0 -0.48553717638E+01 -0.30035207530E+02 -0.26971803806E+02  0.40659150592E+02  0.00000000000E+00 0. -1.
         11    1    3    3    0    0  0.36537438383E+01  0.82452629454E+01  0.12867245854E+02  0.15713058938E+02  0.51100000000E-03 0. -1.
        -11    1    3    3    0    0  0.11504406943E+02  0.90731417980E+01  0.27796297621E+01  0.14913068869E+02  0.51100000000E-03 0.  1.
         12    1    3    3    0    0 -0.10302779018E+02  0.12716802787E+02  0.11324928190E+02  0.19902721601E+02  0.00000000000E+00 0. -1.
</event>
<event>
 7    1  0.3250765E-011  0.5052887E+02  0.7816164E-02  0.1300439E+00
        -11   -1    0    0    0    0  0.00000000000E+00  0.00000000000E+00  0.45593999997E+02  0.45594000000E+02  0.51100000000E-03 0. -1.
         11   -1    0    0    0    0 -0.00000000000E+00 -0.00000000000E+00 -0.45593999997E+02  0.45594000000E+02  0.51100000000E-03 0.  1.
    9900012    2    1    2    0    0 -0.38797613977E+02 -0.55173205167E+01  0.10838304734E+02  0.50528874019E+02  0.30000043069E+02 0.  0.
         12    1    1    2    0    0  0.38797613977E+02  0.55173205167E+01 -0.10838304734E+02  0.40659125981E+02  0.00000000000E+00 0. -1.
         11    1    3    3    0    0  0.14469532118E+00  0.39504016260E+01  0.46957535710E+01  0.61381358411E+01  0.51100000000E-03 0. -1.
        -11    1    3    3    0    0 -0.21624037152E+02 -0.88586681797E+01  0.11777786496E+02  0.26168516191E+02  0.51100000000E-03 0.  1.
         12    1    3    3    0    0 -0.17318272147E+02 -0.60905396296E+00 -0.56352353332E+01  0.18222221987E+02  0.00000000000E+00 0. -1.
</event>
<event>
 7    1  0.3250765E-011  0.5052886E+02  0.7816164E-02  0.1300439E+00
        -11   -1    0    0    0    0  0.00000000000E+00  0.00000000000E+00  0.45593999997E+02  0.45594000000E+02  0.51100000000E-03 0.  1.
         11   -1    0    0    0    0 -0.00000000000E+00 -0.00000000000E+00 -0.45593999997E+02  0.45594000000E+02  0.51100000000E-03 0. -1.
    9900012    2    1    2    0    0 -0.21463560104E+02  0.11362760142E+02  0.32609341609E+02  0.50528857232E+02  0.29999992043E+02 0.  0.
         12    1    1    2    0    0  0.21463560104E+02 -0.11362760142E+02 -0.32609341609E+02  0.40659142768E+02  0.00000000000E+00 0. -1.
         11    1    3    3    0    0  0.12338201871E+01  0.51919407722E+01 -0.14788538837E+01  0.55376502514E+01  0.51100000000E-03 0. -1.
        -11    1    3    3    0    0 -0.84332146956E+01 -0.20719724753E+01  0.19855638645E+01  0.89081223701E+01  0.51100000000E-03 0.  1.
        -12    1    3    3    0    0 -0.14264165596E+02  0.82427918453E+01  0.32102631629E+02  0.36083084611E+02  0.00000000000E+00 0.  1.
</event>
<event>
 7    1  0.3250765E-011  0.5052886E+02  0.7816164E-02  0.1300439E+00
        -11   -1    0    0    0    0  0.00000000000E+00  0.00000000000E+00  0.45593999997E+02  0.45594000000E+02  0.51100000000E-03 0.  1.
         11   -1    0    0    0    0 -0.00000000000E+00 -0.00000000000E+00 -0.45593999997E+02  0.45594000000E+02  0.51100000000E-03 0. -1.
    9900012    2    1    2    0    0 -0.12867511404E+02  0.17138425753E+02  0.34552384777E+02  0.50528858583E+02  0.29999996148E+02 0.  0.
         12    1    1    2    0    0  0.12867511404E+02 -0.17138425753E+02 -0.34552384777E+02  0.40659141417E+02  0.00000000000E+00 0. -1.
         11    1    3    3    0    0  0.17658006067E+01  0.44241761625E+01  0.28099801484E+01  0.55305854297E+01  0.51100000000E-03 0. -1.
        -11    1    3    3    0    0 -0.12929371019E+02  0.85585673918E+01  0.35757027880E+02  0.38974129289E+02  0.51100000000E-03 0.  1.
         12    1    3    3    0    0 -0.17039409917E+01  0.41556821990E+01 -0.40146232516E+01  0.60241438640E+01  0.00000000000E+00 0. -1.
</event>
<event>
 7    1  0.3250765E-011  0.5052886E+02  0.7816164E-02  0.1300439E+00
        -11   -1    0    0    0    0  0.00000000000E+00  0.00000000000E+00  0.45593999997E+02  0.45594000000E+02  0.51100000000E-03 0. -1.
         11   -1    0    0    0    0 -0.00000000000E+00 -0.00000000000E+00 -0.45593999997E+02  0.45594000000E+02  0.51100000000E-03 0.  1.
    9900012    2    1    2    0    0  0.17531829216E+02  0.51002071028E+01 -0.36328888774E+02  0.50528864401E+02  0.30000013832E+02 0.  0.
         12    1    1    2    0    0 -0.17531829216E+02 -0.51002071028E+01  0.36328888774E+02  0.40659135599E+02  0.00000000000E+00 0. -1.
         11    1    3    3    0    0  0.30273508165E+01  0.44449369656E+00 -0.36538345076E+00  0.30815471666E+01  0.51100000000E-03 0. -1.
        -11    1    3    3    0    0  0.13935728366E+02  0.12307383967E+02 -0.35107771534E+02  0.39726966252E+02  0.51100000000E-03 0.  1.
        -12    1    3    3    0    0  0.56875003282E+00 -0.76516705607E+01 -0.85573378888E+00  0.77203509821E+01  0.00000000000E+00 0.  1.
</event>
<event>
 7    1  0.3250765E-011  0.5052886E+02  0.7816164E-02  0.1300439E+00
        -11   -1    0    0    0    0  0.00000000000E+00  0.00000000000E+00  0.45593999997E+02  0.45594000000E+02  0.51100000000E-03 0. -1.
         11   -1    0    0    0    0 -0.00000000000E+00 -0.00000000000E+00 -0.45593999997E+02  0.45594000000E+02  0.51100000000E-03 0.  1.
    9900012    2    1    2    0    0 -0.25507876785E+02  0.88738628927E+01 -0.30393565255E+02  0.50528855523E+02  0.29999986848E+02 0.  0.
         12    1    1    2    0    0  0.25507876785E+02 -0.88738628927E+01  0.30393565255E+02  0.40659144477E+02  0.00000000000E+00 0. -1.
         11    1    3    3    0    0 -0.58136033551E+01  0.18672506884E+01  0.48443521571E+01  0.77943798462E+01  0.51100000000E-03 0. -1.
        -11    1    3    3    0    0 -0.45088462964E+01  0.62037592275E+01 -0.58511786856E+01  0.96463783748E+01  0.51100000000E-03 0.  1.
         12    1    3    3    0    0 -0.15185427133E+02  0.80285297670E+00 -0.29386738726E+02  0.33088097302E+02  0.00000000000E+00 0. -1.
</event>
<event>
 7    1  0.3250765E-011  0.5052890E+02  0.7816164E-02  0.1300439E+00
        -11   -1    0    0    0    0  0.00000000000E+00  0.00000000000E+00  0.45593999997E+02  0.45594000000E+02  0.51100000000E-03 0. -1.
         11   -1    0    0    0    0 -0.00000000000E+00 -0.00000000000E+00 -0.45593999997E+02  0.45594000000E+02  0.51100000000E-03 0.  1.
    9900012    2    1    2    0    0  0.23228761192E+02  0.33365160855E+02 -0.59394775959E+00  0.50528904101E+02  0.30000134505E+02 0.  0.
         12    1    1    2    0    0 -0.23228761192E+02 -0.33365160855E+02  0.59394775959E+00  0.40659095899E+02  0.00000000000E+00 0. -1.
         11    1    3    3    0    0  0.15168435870E+02  0.36274838960E+01 -0.50459528300E+01  0.16392123913E+02  0.51100000000E-03 0. -1.
        -11    1    3    3    0    0  0.92786002970E+01  0.99673284692E+01  0.44584957369E+01  0.14328930343E+02  0.51100000000E-03 0.  1.
        -12    1    3    3    0    0 -0.12182749754E+01  0.19770348490E+02 -0.64906665172E-02  0.19807849845E+02  0.00000000000E+00 0.  1.
</event>
<event>
 7    1  0.3250765E-011  0.5052887E+02  0.7816164E-02  0.1300439E+00
        -11   -1    0    0    0    0  0.00000000000E+00  0.00000000000E+00  0.45593999997E+02  0.45594000000E+02  0.51100000000E-03 0.  1.
         11   -1    0    0    0    0 -0.00000000000E+00 -0.00000000000E+00 -0.45593999997E+02  0.45594000000E+02  0.51100000000E-03 0. -1.
    9900012    2    1    2    0    0  0.27610962464E+02 -0.23814492804E+02  0.17990820645E+02  0.50528868883E+02  0.30000027456E+02 0.  0.
         12    1    1    2    0    0 -0.27610962464E+02  0.23814492804E+02 -0.17990820645E+02  0.40659131117E+02  0.00000000000E+00 0. -1.
         11    1    3    3    0    0  0.26996852272E+01 -0.20131400879E+02  0.12530680896E+02  0.23865866120E+02  0.51100000000E-03 0. -1.
        -11    1    3    3    0    0  0.47394062252E+01 -0.24461413219E+01 -0.10394751393E+01  0.54337912695E+01  0.51100000000E-03 0.  1.
        -12    1    3    3    0    0  0.20171871012E+02 -0.12369506030E+01  0.64996148886E+01  0.21229211493E+02  0.00000000000E+00 0.  1.
</event>
<event>
 7    1  0.3250765E-011  0.5052878E+02  0.7816164E-02  0.1300439E+00
        -11   -1    0    0    0    0  0.00000000000E+00  0.00000000000E+00  0.45593999997E+02  0.45594000000E+02  0.51100000000E-03 0. -1.
         11   -1    0    0    0    0 -0.00000000000E+00 -0.00000000000E+00 -0.45593999997E+02  0.45594000000E+02  0.51100000000E-03 0.  1.
    9900012    2    1    2    0    0 -0.30262395457E+02 -0.25979214716E+02 -0.79018874075E+01  0.50528782094E+02  0.29999763653E+02 0.  0.
         12    1    1    2    0    0  0.30262395457E+02  0.25979214716E+02  0.79018874075E+01  0.40659217906E+02  0.00000000000E+00 0. -1.
         11    1    3    3    0    0 -0.98801893044E+00 -0.47100010378E+01 -0.33187952417E+01  0.58459125294E+01  0.51100000000E-03 0. -1.
        -11    1    3    3    0    0 -0.11180581815E+02 -0.19474306044E+02 -0.11500035475E+02  0.25229047184E+02  0.51100000000E-03 0.  1.
        -12    1    3    3    0    0 -0.18093794711E+02 -0.17949076346E+01  0.69169433094E+01  0.19453822381E+02  0.00000000000E+00 0.  1.
</event>
<event>
 7    1  0.3250765E-011  0.5052886E+02  0.7816164E-02  0.1300439E+00
        -11   -1    0    0    0    0  0.00000000000E+00  0.00000000000E+00  0.45593999997E+02  0.45594000000E+02  0.51100000000E-03 0.  1.
         11   -1    0    0    0    0 -0.00000000000E+00 -0.00000000000E+00 -0.45593999997E+02  0.45594000000E+02  0.51100000000E-03 0. -1.
    9900012    2    1    2    0    0 -0.60002915848E+01  0.17954323822E+02  0.35983389599E+02  0.50528861174E+02  0.30000004025E+02 0.  0.
         12    1    1    2    0    0  0.60002915848E+01 -0.17954323822E+02 -0.35983389599E+02  0.40659138826E+02  0.00000000000E+00 0. -1.
         11    1    3    3    0    0  0.49562416603E+01  0.75675416910E+01  0.18105511619E+01  0.92255143169E+01  0.51100000000E-03 0. -1.
        -11    1    3    3    0    0 -0.58102045876E+00 -0.33817755218E+01  0.49182601498E+00  0.34663934490E+01  0.51100000000E-03 0.  1.
        -12    1    3    3    0    0 -0.10375512786E+02  0.13768557652E+02  0.33681012423E+02  0.37836953408E+02  0.00000000000E+00 0.  1.
</event>
<event>
 7    1  0.3250765E-011  0.5052886E+02  0.7816164E-02  0.1300439E+00
        -11   -1    0    0    0    0  0.00000000000E+00  0.00000000000E+00  0.45593999997E+02  0.45594000000E+02  0.51100000000E-03 0.  1.
         11   -1    0    0    0    0 -0.00000000000E+00 -0.00000000000E+00 -0.45593999997E+02  0.45594000000E+02  0.51100000000E-03 0. -1.
    9900012    2    1    2    0    0  0.14069260031E+02 -0.25523849920E+02  0.28350563007E+02  0.50528863076E+02  0.30000009806E+02 0.  0.
         12    1    1    2    0    0 -0.14069260031E+02  0.25523849920E+02 -0.28350563007E+02  0.40659136924E+02  0.00000000000E+00 0. -1.
         11    1    3    3    0    0 -0.38252505781E+01  0.69373489264E-01  0.30377489307E+01  0.48852096673E+01  0.51100000000E-03 0. -1.
        -11    1    3    3    0    0  0.20002200248E+02 -0.10517097798E+02  0.13049348735E+02  0.26095648364E+02  0.51100000000E-03 0.  1.
         12    1    3    3    0    0 -0.21076896387E+01 -0.15076125611E+02  0.12263465341E+02  0.19548005045E+02  0.00000000000E+00 0. -1.
</event>
<event>
 7    1  0.3250765E-011  0.5052874E+02  0.7816164E-02  0.1300439E+00
        -11   -1    0    0    0    0  0.00000000000E+00  0.00000000000E+00  0.45593999997E+02  0.45594000000E+02  0.51100000000E-03 0.  1.
         11   -1    0    0    0    0 -0.00000000000E+00 -0.00000000000E+00 -0.45593999997E+02  0.45594000000E+02  0.51100000000E-03 0. -1.
    9900012    2    1    2    0    0  0.38717599178E+02  0.32630812489E+01  0.11978105661E+02  0.50528742744E+02  0.29999644043E+02 0.  0.
         12    1    1    2    0    0 -0.38717599178E+02 -0.32630812489E+01 -0.11978105661E+02  0.40659257256E+02  0.00000000000E+00 0. -1.
         11    1    3    3    0    0  0.11524421254E+02 -0.94120442498E+01  0.70338336230E+01  0.16458240425E+02  0.51100000000E-03 0. -1.
        -11    1    3    3    0    0  0.17210870879E+02  0.16070228779E+01 -0.24052877465E+01  0.17452278028E+02  0.51100000000E-03 0.  1.
        -12    1    3    3    0    0  0.99823070448E+01  0.11068102621E+02  0.73495597841E+01  0.16618224291E+02  0.00000000000E+00 0.  1.
</event>
<event>
 7    1  0.3250765E-011  0.5052886E+02  0.7816164E-02  0.1300439E+00
        -11   -1    0    0    0    0  0.00000000000E+00  0.00000000000E+00  0.45593999997E+02  0.45594000000E+02  0.51100000000E-03 0. -1.
         11   -1    0    0    0    0 -0.00000000000E+00 -0.00000000000E+00 -0.45593999997E+02  0.45594000000E+02  0.51100000000E-03 0.  1.
    9900012    2    1    2    0    0  0.24903614152E+02 -0.27770070499E+02 -0.16180210062E+02  0.50528855751E+02  0.29999987542E+02 0.  0.
         12    1    1    2    0    0 -0.24903614152E+02  0.27770070499E+02  0.16180210062E+02  0.40659144249E+02  0.00000000000E+00 0. -1.
         11    1    3    3    0    0 -0.73144803204E+00 -0.23539310487E+01  0.11994986825E+01  0.27413144577E+01  0.51100000000E-03 0. -1.
        -11    1    3    3    0    0  0.28337039458E+02 -0.19874168392E+02 -0.64047612568E+01  0.35199308822E+02  0.51100000000E-03 0.  1.
         12    1    3    3    0    0 -0.27019772738E+01 -0.55419710586E+01 -0.10974947488E+02  0.12588232472E+02  0.00000000000E+00 0. -1.
</event>
<event>
 7    1  0.3250765E-011  0.5052886E+02  0.7816164E-02  0.1300439E+00
        -11   -1    0    0    0    0  0.00000000000E+00  0.00000000000E+00  0.45593999997E+02  0.45594000000E+02  0.51100000000E-03 0.  1.
         11   -1    0    0    0    0 -0.00000000000E+00 -0.00000000000E+00 -0.45593999997E+02  0.45594000000E+02  0.51100000000E-03 0. -1.
    9900012    2    1    2    0    0  0.13624467943E+02 -0.12740925137E+01  0.38287290035E+02  0.50528855681E+02  0.29999987329E+02 0.  0.
         12    1    1    2    0    0 -0.13624467943E+02  0.12740925137E+01 -0.38287290035E+02  0.40659144319E+02  0.00000000000E+00 0. -1.
         11    1    3    3    0    0  0.91492025468E+01  0.12223794636E+02  0.22747180143E+02  0.27396409752E+02  0.51100000000E-03 0. -1.
        -11    1    3    3    0    0 -0.24713474556E+01 -0.74537873227E+00  0.28734109850E+01  0.38625948080E+01  0.51100000000E-03 0.  1.
        -12    1    3    3    0    0  0.69466128517E+01 -0.12752508418E+02  0.12666698907E+02  0.19269851122E+02  0.00000000000E+00 0.  1.
</event>
<event>
 7    1  0.3250765E-011  0.5052885E+02  0.7816164E-02  0.1300439E+00
        -11   -1    0    0    0    0  0.00000000000E+00  0.00000000000E+00  0.45593999997E+02  0.45594000000E+02  0.51100000000E-03 0.  1.
         11   -1    0    0    0    0 -0.00000000000E+00 -0.00000000000E+00 -0.45593999997E+02  0.45594000000E+02  0.51100000000E-03 0. -1.
    9900012    2    1    2    0    0  0.27205881069E+02 -0.12168185702E+01  0.30191487555E+02  0.50528849333E+02  0.29999968032E+02 0.  0.
         12    1    1    2    0    0 -0.27205881069E+02  0.12168185702E+01 -0.30191487555E+02  0.40659150667E+02  0.00000000000E+00 0. -1.
         11    1    3    3    0    0  0.75909552462E+01 -0.22417937682E+01 -0.27154882164E+01  0.83679219262E+01  0.51100000000E-03 0. -1.
        -11    1    3    3    0    0  0.17093876294E+02 -0.66007570426E+01  0.23046071205E+02  0.29443029710E+02  0.51100000000E-03 0.  1.
        -12    1    3    3    0    0  0.25210495287E+01  0.76257322407E+01  0.98609045672E+01  0.12717897696E+02  0.00000000000E+00 0.  1.
</event>
<event>
 7    1  0.3250765E-011  0.5052887E+02  0.7816164E-02  0.1300439E+00
        -11   -1    0    0    0    0  0.00000000000E+00  0.00000000000E+00  0.45593999997E+02  0.45594000000E+02  0.51100000000E-03 0.  1.
         11   -1    0    0    0    0 -0.00000000000E+00 -0.00000000000E+00 -0.45593999997E+02  0.45594000000E+02  0.51100000000E-03 0. -1.
    9900012    2    1    2    0    0  0.83861767256E+01  0.93240258867E+01  0.38676863085E+02  0.50528866255E+02  0.30000019470E+02 0.  0.
         12    1    1    2    0    0 -0.83861767256E+01 -0.93240258867E+01 -0.38676863085E+02  0.40659133745E+02  0.00000000000E+00 0. -1.
         11    1    3    3    0    0 -0.48789634658E+00  0.55874601010E+01  0.73314921681E+01  0.92308467054E+01  0.51100000000E-03 0. -1.
        -11    1    3    3    0    0 -0.36236023118E+01 -0.74928259533E+01  0.18035644832E+02  0.19863469467E+02  0.51100000000E-03 0.  1.
         12    1    3    3    0    0  0.12497675384E+02  0.11229391739E+02  0.13309726084E+02  0.21434550083E+02  0.00000000000E+00 0. -1.
</event>
<event>
 7    1  0.3952189E-011  0.5052886E+02  0.7816164E-02  0.1300439E+00
        -11   -1    0    0    0    0  0.00000000000E+00  0.00000000000E+00  0.45593999997E+02  0.45594000000E+02  0.51100000000E-03 0.  1.
         11   -1    0    0    0    0 -0.00000000000E+00 -0.00000000000E+00 -0.45593999997E+02  0.45594000000E+02  0.51100000000E-03 0. -1.
    9900012    2    1    2    0    0  0.22197944016E+01  0.39197258362E+02 -0.10574171014E+02  0.50528860279E+02  0.30000001303E+02 0.  0.
         12    1    1    2    0    0 -0.22197944016E+01 -0.39197258362E+02  0.10574171014E+02  0.40659139721E+02  0.00000000000E+00 0. -1.
         11    1    3    3    0    0 -0.14599615052E+01  0.23733554808E+02 -0.85382467878E+01  0.25264892042E+02  0.51100000000E-03 0. -1.
        -11    1    3    3    0    0  0.24097886379E+01  0.18306228643E+02  0.36126207534E+01  0.18814253038E+02  0.51100000000E-03 0.  1.
         12    1    3    3    0    0  0.12699672689E+01 -0.28425250897E+01 -0.56485449798E+01  0.64497151983E+01  0.00000000000E+00 0. -1.
</event>
<event>
 7    1  0.3250765E-011  0.5052886E+02  0.7816164E-02  0.1300439E+00
        -11   -1    0    0    0    0  0.00000000000E+00  0.00000000000E+00  0.45593999997E+02  0.45594000000E+02  0.51100000000E-03 0. -1.
         11   -1    0    0    0    0 -0.00000000000E+00 -0.00000000000E+00 -0.45593999997E+02  0.45594000000E+02  0.51100000000E-03 0.  1.
    9900012    2    1    2    0    0 -0.25173827576E+02 -0.19734264863E+02 -0.25099865086E+02  0.50528855496E+02  0.29999986765E+02 0.  0.
         12    1    1    2    0    0  0.25173827576E+02  0.19734264863E+02  0.25099865086E+02  0.40659144504E+02  0.00000000000E+00 0. -1.
         11    1    3    3    0    0 -0.24635562343E+02 -0.20095178289E+02 -0.17608316372E+02  0.36342536072E+02  0.51100000000E-03 0. -1.
        -11    1    3    3    0    0 -0.34275067745E+01 -0.44203979416E+01 -0.63898977224E+01  0.84922619964E+01  0.51100000000E-03 0.  1.
         12    1    3    3    0    0  0.28892415420E+01  0.47813113672E+01 -0.11016509913E+01  0.56940574272E+01  0.00000000000E+00 0. -1.
</event>
<event>
 7    1  0.3250765E-011  0.5052886E+02  0.7816164E-02  0.1300439E+00
        -11   -1    0    0    0    0  0.00000000000E+00  0.00000000000E+00  0.45593999997E+02  0.45594000000E+02  0.51100000000E-03 0. -1.
         11   -1    0    0    0    0 -0.00000000000E+00 -0.00000000000E+00 -0.45593999997E+02  0.45594000000E+02  0.51100000000E-03 0.  1.
    9900012    2    1    2    0    0  0.24225172834E+02  0.15928483684E+02 -0.28505966425E+02  0.50528859415E+02  0.29999998677E+02 0.  0.
         12    1    1    2    0    0 -0.24225172834E+02 -0.15928483684E+02  0.28505966425E+02  0.40659140585E+02  0.00000000000E+00 0. -1.
         11    1    3    3    0    0 -0.34907058518E+01 -0.44385079575E+00  0.21049819515E+01  0.41003634168E+01  0.51100000000E-03 0. -1.
        -11    1    3    3    0    0  0.38617373184E+01  0.85442219128E+01 -0.11720601933E+02  0.15009638675E+02  0.51100000000E-03 0.  1.
         12    1    3    3    0    0  0.23854141367E+02  0.78281125665E+01 -0.18890346444E+02  0.31418857323E+02  0.00000000000E+00 0. -1.
</event>
<event>
 7    1  0.3250765E-011  0.5052887E+02  0.7816164E-02  0.1300439E+00
        -11   -1    0    0    0    0  0.00000000000E+00  0.00000000000E+00  0.45593999997E+02  0.45594000000E+02  0.51100000000E-03 0.  1.
         11   -1    0    0    0    0 -0.00000000000E+00 -0.00000000000E+00 -0.45593999997E+02  0.45594000000E+02  0.51100000000E-03 0. -1.
    9900012    2    1    2    0    0 -0.39688878806E+02 -0.84008633204E+01 -0.27171892301E+01  0.50528871594E+02  0.30000035698E+02 0.  0.
         12    1    1    2    0    0  0.39688878806E+02  0.84008633204E+01  0.27171892301E+01  0.40659128406E+02  0.00000000000E+00 0. -1.
         11    1    3    3    0    0 -0.11415650905E+02  0.79257686225E+00 -0.86054895050E+01  0.14317811060E+02  0.51100000000E-03 0. -1.
        -11    1    3    3    0    0 -0.26943436660E+02 -0.24512600087E+01  0.92085607859E+01  0.28578926619E+02  0.51100000000E-03 0.  1.
         12    1    3    3    0    0 -0.13297912409E+01 -0.67421801739E+01 -0.33202605111E+01  0.76321339154E+01  0.00000000000E+00 0. -1.
</event>
<event>
 7    1  0.3250765E-011  0.5052885E+02  0.7816164E-02  0.1300439E+00
        -11   -1    0    0    0    0  0.00000000000E+00  0.00000000000E+00  0.45593999997E+02  0.45594000000E+02  0.51100000000E-03 0. -1.
         11   -1    0    0    0    0 -0.00000000000E+00 -0.00000000000E+00 -0.45593999997E+02  0.45594000000E+02  0.51100000000E-03 0.  1.
    9900012    2    1    2    0    0  0.19813164973E+02  0.70221478303E+01 -0.34803658142E+02  0.50528847446E+02  0.29999962296E+02 0.  0.
         12    1    1    2    0    0 -0.19813164973E+02 -0.70221478303E+01  0.34803658142E+02  0.40659152554E+02  0.00000000000E+00 0. -1.
         11    1    3    3    0    0 -0.28638567857E+01 -0.23244087325E+01 -0.22993893908E+01  0.43464633296E+01  0.51100000000E-03 0. -1.
        -11    1    3    3    0    0  0.12991583681E+01  0.44447614089E+01 -0.20825554844E+02  0.21334185039E+02  0.51100000000E-03 0.  1.
         12    1    3    3    0    0  0.21377863390E+02  0.49017951539E+01 -0.11678713907E+02  0.24848199077E+02  0.00000000000E+00 0. -1.
</event>
<event>
 7    1  0.3250765E-011  0.5052886E+02  0.7816164E-02  0.1300439E+00
        -11   -1    0    0    0    0  0.00000000000E+00  0.00000000000E+00  0.45593999997E+02  0.45594000000E+02  0.51100000000E-03 0. -1.
         11   -1    0    0    0    0 -0.00000000000E+00 -0.00000000000E+00 -0.45593999997E+02  0.45594000000E+02  0.51100000000E-03 0.  1.
    9900012    2    1    2    0    0 -0.30498527752E+02  0.19004372410E+02 -0.19022083692E+02  0.50528855472E+02  0.29999986693E+02 0.  0.
         12    1    1    2    0    0  0.30498527752E+02 -0.19004372410E+02  0.19022083692E+02  0.40659144528E+02  0.00000000000E+00 0. -1.
         11    1    3    3    0    0 -0.15062403370E+02 -0.12104733353E+00 -0.14576343458E+02  0.20960926426E+02  0.51100000000E-03 0.  1.
        -11    1    3    3    0    0 -0.16402452191E+02  0.11949070831E+02 -0.75997579748E+01  0.21669726652E+02  0.51100000000E-03 0. -1.
        -12    1    3    3    0    0  0.96632780940E+00  0.71763489127E+01  0.31540177417E+01  0.78982023946E+01  0.00000000000E+00 0.  1.
</event>
<event>
 7    1  0.3250765E-011  0.5052886E+02  0.7816164E-02  0.1300439E+00
        -11   -1    0    0    0    0  0.00000000000E+00  0.00000000000E+00  0.45593999997E+02  0.45594000000E+02  0.51100000000E-03 0. -1.
         11   -1    0    0    0    0 -0.00000000000E+00 -0.00000000000E+00 -0.45593999997E+02  0.45594000000E+02  0.51100000000E-03 0.  1.
    9900012    2    1    2    0    0 -0.35363596428E+02  0.10581243938E+02 -0.17047548800E+02  0.50528860859E+02  0.30000003067E+02 0.  0.
         12    1    1    2    0    0  0.35363596428E+02 -0.10581243938E+02  0.17047548800E+02  0.40659139141E+02  0.00000000000E+00 0. -1.
         11    1    3    3    0    0 -0.72250649854E+01  0.50346521206E+01 -0.12596728989E+02  0.15369673631E+02  0.51100000000E-03 0.  1.
        -11    1    3    3    0    0  0.10689747823E+01 -0.40015329603E+01 -0.73861176128E+00  0.42071986776E+01  0.51100000000E-03 0. -1.
        -12    1    3    3    0    0 -0.29207506225E+02  0.95481247776E+01 -0.37122080497E+01  0.30951988551E+02  0.00000000000E+00 0.  1.
</event>
<event>
 7    1  0.3250765E-011  0.5052886E+02  0.7816164E-02  0.1300439E+00
        -11   -1    0    0    0    0  0.00000000000E+00  0.00000000000E+00  0.45593999997E+02  0.45594000000E+02  0.51100000000E-03 0.  1.
         11   -1    0    0    0    0 -0.00000000000E+00 -0.00000000000E+00 -0.45593999997E+02  0.45594000000E+02  0.51100000000E-03 0. -1.
    9900012    2    1    2    0    0  0.10806288080E+01 -0.39883301628E+02 -0.78307248411E+01  0.50528858852E+02  0.29999996965E+02 0.  0.
         12    1    1    2    0    0 -0.10806288080E+01  0.39883301628E+02  0.78307248411E+01  0.40659141148E+02  0.00000000000E+00 0. -1.
         11    1    3    3    0    0 -0.51759137055E+01  0.60044428866E+00 -0.50935551961E+01  0.72866261622E+01  0.51100000000E-03 0. -1.
        -11    1    3    3    0    0  0.79407534902E+01 -0.10779153385E+02 -0.32328574742E+00  0.13392170385E+02  0.51100000000E-03 0.  1.
         12    1    3    3    0    0 -0.16842109766E+01 -0.29704592532E+02 -0.24138838976E+01  0.29850062305E+02  0.00000000000E+00 0. -1.
</event>
<event>
 7    1  0.3250765E-011  0.5052886E+02  0.7816164E-02  0.1300439E+00
        -11   -1    0    0    0    0  0.00000000000E+00  0.00000000000E+00  0.45593999997E+02  0.45594000000E+02  0.51100000000E-03 0.  1.
         11   -1    0    0    0    0 -0.00000000000E+00 -0.00000000000E+00 -0.45593999997E+02  0.45594000000E+02  0.51100000000E-03 0. -1.
    9900012    2    1    2    0    0 -0.20243991474E+02  0.24492991610E+01  0.35175948702E+02  0.50528860508E+02  0.30000001999E+02 0.  0.
         12    1    1    2    0    0  0.20243991474E+02 -0.24492991610E+01 -0.35175948702E+02  0.40659139492E+02  0.00000000000E+00 0. -1.
         11    1    3    3    0    0 -0.14282703928E+02 -0.38352933546E+01  0.95061909668E+01  0.17580465681E+02  0.51100000000E-03 0. -1.
        -11    1    3    3    0    0 -0.20898083243E+01  0.22717770294E+01 -0.26602029686E+01  0.40749171524E+01  0.51100000000E-03 0.  1.
        -12    1    3    3    0    0 -0.38714792213E+01  0.40128154862E+01  0.28329960704E+02  0.28873477674E+02  0.00000000000E+00 0.  1.
</event>
<event>
 7    1  0.3250765E-011  0.5052886E+02  0.7816164E-02  0.1300439E+00
        -11   -1    0    0    0    0  0.00000000000E+00  0.00000000000E+00  0.45593999997E+02  0.45594000000E+02  0.51100000000E-03 0. -1.
         11   -1    0    0    0    0 -0.00000000000E+00 -0.00000000000E+00 -0.45593999997E+02  0.45594000000E+02  0.51100000000E-03 0.  1.
    9900012    2    1    2    0    0  0.75309278959E+01 -0.32676434968E+02 -0.22993506624E+02  0.50528860510E+02  0.30000002005E+02 0.  0.
         12    1    1    2    0    0 -0.75309278959E+01  0.32676434968E+02  0.22993506624E+02  0.40659139490E+02  0.00000000000E+00 0. -1.
         11    1    3    3    0    0  0.89183767044E+00 -0.86163135101E+01 -0.13996998780E+02  0.16460625991E+02  0.51100000000E-03 0.  1.
        -11    1    3    3    0    0  0.12064654325E+02 -0.85602875209E+01 -0.96002248791E+01  0.17635155922E+02  0.51100000000E-03 0. -1.
        -12    1    3    3    0    0 -0.54255640993E+01 -0.15499833937E+02  0.60371703429E+00  0.16433078596E+02  0.00000000000E+00 0.  1.
</event>
<event>
 7    1  0.3250765E-011  0.5052886E+02  0.7816164E-02  0.1300439E+00
        -11   -1    0    0    0    0  0.00000000000E+00  0.00000000000E+00  0.45593999997E+02  0.45594000000E+02  0.51100000000E-03 0. -1.
         11   -1    0    0    0    0 -0.00000000000E+00 -0.00000000000E+00 -0.45593999997E+02  0.45594000000E+02  0.51100000000E-03 0.  1.
    9900012    2    1    2    0    0 -0.10770239030E+02 -0.18096416492E+02 -0.34780557021E+02  0.50528862216E+02  0.30000007193E+02 0.  0.
         12    1    1    2    0    0  0.10770239030E+02  0.18096416492E+02  0.34780557021E+02  0.40659137784E+02  0.00000000000E+00 0. -1.
         11    1    3    3    0    0  0.20472499342E+01  0.54755651691E+00  0.35094411987E+01  0.40996619642E+01  0.51100000000E-03 0. -1.
        -11    1    3    3    0    0 -0.11947416738E+02 -0.60932783943E+01 -0.16444789840E+02  0.21220271474E+02  0.51100000000E-03 0.  1.
        -12    1    3    3    0    0 -0.87007222697E+00 -0.12550694615E+02 -0.21845208380E+02  0.25208928778E+02  0.00000000000E+00 0.  1.
</event>
<event>
 7    1  0.3250765E-011  0.5052886E+02  0.7816164E-02  0.1300439E+00
        -11   -1    0    0    0    0  0.00000000000E+00  0.00000000000E+00  0.45593999997E+02  0.45594000000E+02  0.51100000000E-03 0.  1.
         11   -1    0    0    0    0 -0.00000000000E+00 -0.00000000000E+00 -0.45593999997E+02  0.45594000000E+02  0.51100000000E-03 0. -1.
    9900012    2    1    2    0    0  0.15629889769E+02 -0.23565253626E+02  0.29215593416E+02  0.50528861651E+02  0.30000005474E+02 0.  0.
         12    1    1    2    0    0 -0.15629889769E+02  0.23565253626E+02 -0.29215593416E+02  0.40659138349E+02  0.00000000000E+00 0. -1.
         11    1    3    3    0    0  0.20877775273E+01  0.68667770853E+00 -0.19293450488E+01  0.29245023264E+01  0.51100000000E-03 0. -1.
        -11    1    3    3    0    0  0.13918253969E+02 -0.40025338091E+01  0.19342569988E+02  0.24163465903E+02  0.51100000000E-03 0.  1.
        -12    1    3    3    0    0 -0.37614172739E+00 -0.20249397525E+02  0.11802368477E+02  0.23440893422E+02  0.00000000000E+00 0.  1.
</event>
<event>
 7    1  0.3250765E-011  0.5052886E+02  0.7816164E-02  0.1300439E+00
        -11   -1    0    0    0    0  0.00000000000E+00  0.00000000000E+00  0.45593999997E+02  0.45594000000E+02  0.51100000000E-03 0. -1.
         11   -1    0    0    0    0 -0.00000000000E+00 -0.00000000000E+00 -0.45593999997E+02  0.45594000000E+02  0.51100000000E-03 0.  1.
    9900012    2    1    2    0    0 -0.32452952383E+02 -0.29046518857E+01 -0.24321489163E+02  0.50528856428E+02  0.29999989598E+02 0.  0.
         12    1    1    2    0    0  0.32452952383E+02  0.29046518857E+01  0.24321489163E+02  0.40659143572E+02  0.00000000000E+00 0. -1.
         11    1    3    3    0    0 -0.18561861278E+02 -0.81260795516E+01 -0.13144926165E+02  0.24152949036E+02  0.51100000000E-03 0. -1.
        -11    1    3    3    0    0 -0.15883258147E+02 -0.22988714460E+01 -0.84111134055E+01  0.18119313681E+02  0.51100000000E-03 0.  1.
         12    1    3    3    0    0  0.19921670426E+01  0.75202991119E+01 -0.27654495919E+01  0.82565937107E+01  0.00000000000E+00 0. -1.
</event>
<event>
 7    1  0.3250765E-011  0.5052883E+02  0.7816164E-02  0.1300439E+00
        -11   -1    0    0    0    0  0.00000000000E+00  0.00000000000E+00  0.45593999997E+02  0.45594000000E+02  0.51100000000E-03 0.  1.
         11   -1    0    0    0    0 -0.00000000000E+00 -0.00000000000E+00 -0.45593999997E+02  0.45594000000E+02  0.51100000000E-03 0. -1.
    9900012    2    1    2    0    0  0.21404528905E+02 -0.65115504522E+01  0.33950164318E+02  0.50528833701E+02  0.29999920516E+02 0.  0.
         12    1    1    2    0    0 -0.21404528905E+02  0.65115504522E+01 -0.33950164318E+02  0.40659166299E+02  0.00000000000E+00 0. -1.
         11    1    3    3    0    0 -0.53784173741E+01 -0.72726091405E-01  0.94836079714E+01  0.10902819954E+02  0.51100000000E-03 0. -1.
        -11    1    3    3    0    0  0.42618467332E+01 -0.69201067550E+01  0.34881456952E+01  0.88441153163E+01  0.51100000000E-03 0.  1.
         12    1    3    3    0    0  0.22521099546E+02  0.48128239413E+00  0.20978410651E+02  0.30781898430E+02  0.00000000000E+00 0. -1.
</event>
<event>
 7    1  0.3250765E-011  0.5052884E+02  0.7816164E-02  0.1300439E+00
        -11   -1    0    0    0    0  0.00000000000E+00  0.00000000000E+00  0.45593999997E+02  0.45594000000E+02  0.51100000000E-03 0. -1.
         11   -1    0    0    0    0 -0.00000000000E+00 -0.00000000000E+00 -0.45593999997E+02  0.45594000000E+02  0.51100000000E-03 0.  1.
    9900012    2    1    2    0    0 -0.33642014434E+01  0.38963507611E+02 -0.11121790982E+02  0.50528843450E+02  0.29999950151E+02 0.  0.
         12    1    1    2    0    0  0.33642014434E+01 -0.38963507611E+02  0.11121790982E+02  0.40659156550E+02  0.00000000000E+00 0. -1.
         11    1    3    3    0    0  0.47066483876E-02  0.91250393568E+00 -0.49770609489E+01  0.50600218908E+01  0.51100000000E-03 0. -1.
        -11    1    3    3    0    0 -0.12644360900E+02  0.30426182852E+02 -0.58081527547E+01  0.33456944036E+02  0.51100000000E-03 0.  1.
         12    1    3    3    0    0  0.92754528082E+01  0.76248208229E+01 -0.33657727882E+00  0.12011877524E+02  0.00000000000E+00 0. -1.
</event>
<event>
 7    1  0.3250765E-011  0.5052887E+02  0.7816164E-02  0.1300439E+00
        -11   -1    0    0    0    0  0.00000000000E+00  0.00000000000E+00  0.45593999997E+02  0.45594000000E+02  0.51100000000E-03 0. -1.
         11   -1    0    0    0    0 -0.00000000000E+00 -0.00000000000E+00 -0.45593999997E+02  0.45594000000E+02  0.51100000000E-03 0.  1.
    9900012    2    1    2    0    0  0.93461410108E+01  0.26882364682E+02 -0.29037099022E+02  0.50528868156E+02  0.30000025246E+02 0.  0.
         12    1    1    2    0    0 -0.93461410108E+01 -0.26882364682E+02  0.29037099022E+02  0.40659131844E+02  0.00000000000E+00 0. -1.
         11    1    3    3    0    0 -0.44243383958E+00 -0.22602990764E+01  0.11310623237E+01  0.25659309925E+01  0.51100000000E-03 0. -1.
        -11    1    3    3    0    0 -0.24030124509E+01  0.12356240002E+02 -0.16480457174E+01  0.12695164070E+02  0.51100000000E-03 0.  1.
        -12    1    3    3    0    0  0.12191587301E+02  0.16786423757E+02 -0.28520115628E+02  0.35267773093E+02  0.00000000000E+00 0.  1.
</event>
<event>
 7    1  0.3250765E-011  0.5052886E+02  0.7816164E-02  0.1300439E+00
        -11   -1    0    0    0    0  0.00000000000E+00  0.00000000000E+00  0.45593999997E+02  0.45594000000E+02  0.51100000000E-03 0.  1.
         11   -1    0    0    0    0 -0.00000000000E+00 -0.00000000000E+00 -0.45593999997E+02  0.45594000000E+02  0.51100000000E-03 0. -1.
    9900012    2    1    2    0    0  0.78585728337E+01  0.18479678145E+02  0.35354070352E+02  0.50528856357E+02  0.29999989383E+02 0.  0.
         12    1    1    2    0    0 -0.78585728337E+01 -0.18479678145E+02 -0.35354070352E+02  0.40659143643E+02  0.00000000000E+00 0. -1.
         11    1    3    3    0    0 -0.28798287324E+01  0.59088855510E+01  0.32698836024E+01  0.73416946965E+01  0.51100000000E-03 0. -1.
        -11    1    3    3    0    0 -0.50467295131E+01 -0.28870434604E-01  0.17663306835E+02  0.18370158434E+02  0.51100000000E-03 0.  1.
        -12    1    3    3    0    0  0.15785131079E+02  0.12599663029E+02  0.14420879914E+02  0.24817003226E+02  0.00000000000E+00 0.  1.
</event>
<event>
 7    1  0.3250765E-011  0.5052886E+02  0.7816164E-02  0.1300439E+00
        -11   -1    0    0    0    0  0.00000000000E+00  0.00000000000E+00  0.45593999997E+02  0.45594000000E+02  0.51100000000E-03 0.  1.
         11   -1    0    0    0    0 -0.00000000000E+00 -0.00000000000E+00 -0.45593999997E+02  0.45594000000E+02  0.51100000000E-03 0. -1.
    9900012    2    1    2    0    0  0.10288838842E+02  0.26361283467E+02  0.29195683886E+02  0.50528862917E+02  0.30000009323E+02 0.  0.
         12    1    1    2    0    0 -0.10288838842E+02 -0.26361283467E+02 -0.29195683886E+02  0.40659137083E+02  0.00000000000E+00 0. -1.
         11    1    3    3    0    0  0.20733733512E+01  0.60961948258E+01  0.27512796364E+01  0.70022859343E+01  0.51100000000E-03 0. -1.
        -11    1    3    3    0    0  0.26781457206E+01  0.11493733858E+02  0.30255428434E+02  0.32475672934E+02  0.51100000000E-03 0.  1.
         12    1    3    3    0    0  0.55373197701E+01  0.87713547830E+01 -0.38110241846E+01  0.11050904049E+02  0.00000000000E+00 0. -1.
</event>
<event>
 7    1  0.3250765E-011  0.5052887E+02  0.7816164E-02  0.1300439E+00
        -11   -1    0    0    0    0  0.00000000000E+00  0.00000000000E+00  0.45593999997E+02  0.45594000000E+02  0.51100000000E-03 0. -1.
         11   -1    0    0    0    0 -0.00000000000E+00 -0.00000000000E+00 -0.45593999997E+02  0.45594000000E+02  0.51100000000E-03 0.  1.
    9900012    2    1    2    0    0 -0.22598593514E+02  0.28669054701E+02  0.17904010797E+02  0.50528871518E+02  0.30000035467E+02 0.  0.
         12    1    1    2    0    0  0.22598593514E+02 -0.28669054701E+02 -0.17904010797E+02  0.40659128482E+02  0.00000000000E+00 0. -1.
         11    1    3    3    0    0 -0.98855649944E+01  0.14683465953E+02  0.20438071323E+02  0.27037812917E+02  0.51100000000E-03 0. -1.
        -11    1    3    3    0    0 -0.57792682152E+01 -0.37035255695E+00  0.31166872653E+01  0.65765372264E+01  0.51100000000E-03 0.  1.
        -12    1    3    3    0    0 -0.69337603048E+01  0.14355941305E+02 -0.56507477920E+01  0.16914521375E+02  0.00000000000E+00 0.  1.
</event>
<event>
 7    1  0.3250765E-011  0.5052886E+02  0.7816164E-02  0.1300439E+00
        -11   -1    0    0    0    0  0.00000000000E+00  0.00000000000E+00  0.45593999997E+02  0.45594000000E+02  0.51100000000E-03 0.  1.
         11   -1    0    0    0    0 -0.00000000000E+00 -0.00000000000E+00 -0.45593999997E+02  0.45594000000E+02  0.51100000000E-03 0. -1.
    9900012    2    1    2    0    0  0.31749206902E+02 -0.30938084070E+01  0.25210752402E+02  0.50528858026E+02  0.29999994455E+02 0.  0.
         12    1    1    2    0    0 -0.31749206902E+02  0.30938084070E+01 -0.25210752402E+02  0.40659141974E+02  0.00000000000E+00 0. -1.
         11    1    3    3    0    0  0.10491652886E+02 -0.46590976445E+01 -0.10196615182E+01  0.11524828893E+02  0.51100000000E-03 0. -1.
        -11    1    3    3    0    0  0.12527195919E+02  0.10512464017E+02  0.14306104000E+02  0.21728026813E+02  0.51100000000E-03 0.  1.
         12    1    3    3    0    0  0.87303580978E+01 -0.89471747795E+01  0.11924309921E+02  0.17276002319E+02  0.00000000000E+00 0. -1.
</event>
<event>
 7    1  0.3250765E-011  0.5052886E+02  0.7816164E-02  0.1300439E+00
        -11   -1    0    0    0    0  0.00000000000E+00  0.00000000000E+00  0.45593999997E+02  0.45594000000E+02  0.51100000000E-03 0. -1.
         11   -1    0    0    0    0 -0.00000000000E+00 -0.00000000000E+00 -0.45593999997E+02  0.45594000000E+02  0.51100000000E-03 0.  1.
    9900012    2    1    2    0    0  0.17559634113E+02  0.23300671932E+01 -0.36597757125E+02  0.50528858470E+02  0.29999995807E+02 0.  0.
         12    1    1    2    0    0 -0.17559634113E+02 -0.23300671932E+01  0.36597757125E+02  0.40659141530E+02  0.00000000000E+00 0. -1.
         11    1    3    3    0    0  0.72317349070E+01 -0.11001295440E+01 -0.32268050544E+02  0.33086785292E+02  0.51100000000E-03 0. -1.
        -11    1    3    3    0    0  0.90518152655E+00 -0.42211500058E+01  0.56581009137E+00  0.43540328763E+01  0.51100000000E-03 0.  1.
         12    1    3    3    0    0  0.94227176796E+01  0.76513467430E+01 -0.48955166724E+01  0.13088040302E+02  0.00000000000E+00 0. -1.
</event>
<event>
 7    1  0.3250765E-011  0.5052887E+02  0.7816164E-02  0.1300439E+00
        -11   -1    0    0    0    0  0.00000000000E+00  0.00000000000E+00  0.45593999997E+02  0.45594000000E+02  0.51100000000E-03 0. -1.
         11   -1    0    0    0    0 -0.00000000000E+00 -0.00000000000E+00 -0.45593999997E+02  0.45594000000E+02  0.51100000000E-03 0.  1.
    9900012    2    1    2    0    0  0.12462924758E+02  0.33009081527E+02 -0.20204974105E+02  0.50528868979E+02  0.30000027749E+02 0.  0.
         12    1    1    2    0    0 -0.12462924758E+02 -0.33009081527E+02  0.20204974105E+02  0.40659131021E+02  0.00000000000E+00 0. -1.
         11    1    3    3    0    0  0.92029028469E+01  0.13334491944E+02  0.32956505845E+01  0.16533705249E+02  0.51100000000E-03 0. -1.
        -11    1    3    3    0    0  0.41413560416E+01 -0.47304005757E+00 -0.24120807944E+01  0.48158831775E+01  0.51100000000E-03 0.  1.
         12    1    3    3    0    0 -0.88133412997E+00  0.20147629641E+02 -0.21088543895E+02  0.29179280553E+02  0.00000000000E+00 0. -1.
</event>
<event>
 7    1  0.3250765E-011  0.5052886E+02  0.7816164E-02  0.1300439E+00
        -11   -1    0    0    0    0  0.00000000000E+00  0.00000000000E+00  0.45593999997E+02  0.45594000000E+02  0.51100000000E-03 0.  1.
         11   -1    0    0    0    0 -0.00000000000E+00 -0.00000000000E+00 -0.45593999997E+02  0.45594000000E+02  0.51100000000E-03 0. -1.
    9900012    2    1    2    0    0  0.33480201628E+02 -0.23068979788E+02  0.25261195849E+00  0.50528861515E+02  0.30000005061E+02 0.  0.
         12    1    1    2    0    0 -0.33480201628E+02  0.23068979788E+02 -0.25261195849E+00  0.40659138485E+02  0.00000000000E+00 0. -1.
         11    1    3    3    0    0  0.26433501116E+01 -0.62888351412E+01  0.35497432949E+00  0.68310141474E+01  0.51100000000E-03 0. -1.
        -11    1    3    3    0    0  0.19057625895E+02 -0.14240012515E+02  0.11977750937E+02  0.26635269455E+02  0.51100000000E-03 0.  1.
         12    1    3    3    0    0  0.11779225622E+02 -0.25401321319E+01 -0.12080113308E+02  0.17062577913E+02  0.00000000000E+00 0. -1.
</event>
<event>
 7    1  0.3250765E-011  0.5052893E+02  0.7816164E-02  0.1300439E+00
        -11   -1    0    0    0    0  0.00000000000E+00  0.00000000000E+00  0.45593999997E+02  0.45594000000E+02  0.51100000000E-03 0.  1.
         11   -1    0    0    0    0 -0.00000000000E+00 -0.00000000000E+00 -0.45593999997E+02  0.45594000000E+02  0.51100000000E-03 0. -1.
    9900012    2    1    2    0    0  0.81511084974E+01 -0.39733052488E+02  0.28291825845E+01  0.50528925935E+02  0.30000200870E+02 0.  0.
         12    1    1    2    0    0 -0.81511084974E+01  0.39733052488E+02 -0.28291825845E+01  0.40659074065E+02  0.00000000000E+00 0. -1.
         11    1    3    3    0    0  0.87269668512E+01 -0.12237799096E+02 -0.38262437440E+01  0.15510119876E+02  0.51100000000E-03 0. -1.
        -11    1    3    3    0    0 -0.34331594245E+00  0.18813159579E+01  0.52726984163E+01  0.56087934906E+01  0.51100000000E-03 0.  1.
        -12    1    3    3    0    0 -0.23254241135E+00 -0.29376569350E+02  0.13827279122E+01  0.29410012568E+02  0.00000000000E+00 0.  1.
</event>
<event>
 7    1  0.3250765E-011  0.5052888E+02  0.7816164E-02  0.1300439E+00
        -11   -1    0    0    0    0  0.00000000000E+00  0.00000000000E+00  0.45593999997E+02  0.45594000000E+02  0.51100000000E-03 0. -1.
         11   -1    0    0    0    0 -0.00000000000E+00 -0.00000000000E+00 -0.45593999997E+02  0.45594000000E+02  0.51100000000E-03 0.  1.
    9900012    2    1    2    0    0 -0.33357448765E+02 -0.21119382965E+02  0.97167859627E+01  0.50528884732E+02  0.30000075631E+02 0.  0.
         12    1    1    2    0    0  0.33357448765E+02  0.21119382965E+02 -0.97167859627E+01  0.40659115268E+02  0.00000000000E+00 0. -1.
         11    1    3    3    0    0  0.11639798892E+01  0.18609838197E+01  0.26133962540E+01  0.34129093455E+01  0.51100000000E-03 0. -1.
        -11    1    3    3    0    0  0.12598905827E+01 -0.64235838718E+01  0.37580948387E+01  0.75480481660E+01  0.51100000000E-03 0.  1.
         12    1    3    3    0    0 -0.35781319237E+02 -0.16556782912E+02  0.33452948700E+01  0.39567927220E+02  0.00000000000E+00 0. -1.
</event>
<event>
 7    1  0.3250765E-011  0.5052886E+02  0.7816164E-02  0.1300439E+00
        -11   -1    0    0    0    0  0.00000000000E+00  0.00000000000E+00  0.45593999997E+02  0.45594000000E+02  0.51100000000E-03 0.  1.
         11   -1    0    0    0    0 -0.00000000000E+00 -0.00000000000E+00 -0.45593999997E+02  0.45594000000E+02  0.51100000000E-03 0. -1.
    9900012    2    1    2    0    0 -0.18534952040E+02  0.26004204430E+01  0.36095141169E+02  0.50528857737E+02  0.29999993576E+02 0.  0.
         12    1    1    2    0    0  0.18534952040E+02 -0.26004204430E+01 -0.36095141169E+02  0.40659142263E+02  0.00000000000E+00 0. -1.
         11    1    3    3    0    0  0.22175794152E+01  0.24264921197E+01 -0.23793835996E+01  0.40579538003E+01  0.51100000000E-03 0. -1.
        -11    1    3    3    0    0 -0.43641928045E+01 -0.65632749567E+01  0.16136443447E+02  0.17958495604E+02  0.51100000000E-03 0.  1.
         12    1    3    3    0    0 -0.16388338651E+02  0.67372032800E+01  0.22338081321E+02  0.28512408332E+02  0.00000000000E+00 0. -1.
</event>
<event>
 7    1  0.3250765E-011  0.5052887E+02  0.7816164E-02  0.1300439E+00
        -11   -1    0    0    0    0  0.00000000000E+00  0.00000000000E+00  0.45593999997E+02  0.45594000000E+02  0.51100000000E-03 0.  1.
         11   -1    0    0    0    0 -0.00000000000E+00 -0.00000000000E+00 -0.45593999997E+02  0.45594000000E+02  0.51100000000E-03 0. -1.
    9900012    2    1    2    0    0 -0.38724513065E+02  0.18988311706E+01  0.12246294165E+02  0.50528865815E+02  0.30000018131E+02 0.  0.
         12    1    1    2    0    0  0.38724513065E+02 -0.18988311706E+01 -0.12246294165E+02  0.40659134185E+02  0.00000000000E+00 0. -1.
         11    1    3    3    0    0 -0.14605127251E+02 -0.56812129343E+01  0.54345507082E+01  0.16586749654E+02  0.51100000000E-03 0.  1.
        -11    1    3    3    0    0  0.27012044564E+00 -0.55339573018E+01  0.70574451152E+00  0.55853132455E+01  0.51100000000E-03 0. -1.
        -12    1    3    3    0    0 -0.24389506260E+02  0.13114001407E+02  0.61059989457E+01  0.28356802916E+02  0.00000000000E+00 0.  1.
</event>
<event>
 7    1  0.3250765E-011  0.5052888E+02  0.7816164E-02  0.1300439E+00
        -11   -1    0    0    0    0  0.00000000000E+00  0.00000000000E+00  0.45593999997E+02  0.45594000000E+02  0.51100000000E-03 0.  1.
         11   -1    0    0    0    0 -0.00000000000E+00 -0.00000000000E+00 -0.45593999997E+02  0.45594000000E+02  0.51100000000E-03 0. -1.
    9900012    2    1    2    0    0  0.34335652732E+01  0.11881437844E+02  0.38732498309E+02  0.50528876043E+02  0.30000049220E+02 0.  0.
         12    1    1    2    0    0 -0.34335652732E+01 -0.11881437844E+02 -0.38732498309E+02  0.40659123957E+02  0.00000000000E+00 0. -1.
         11    1    3    3    0    0 -0.42651534175E+01  0.11064109898E+01  0.34089222644E+00  0.44194894189E+01  0.51100000000E-03 0. -1.
        -11    1    3    3    0    0 -0.40465142400E+01  0.12955651361E+02  0.19539960664E+02  0.23791453144E+02  0.51100000000E-03 0.  1.
        -12    1    3    3    0    0  0.11745232931E+02 -0.21806245069E+01  0.18851645418E+02  0.22317933480E+02  0.00000000000E+00 0.  1.
</event>
<event>
 7    1  0.3250765E-011  0.5052886E+02  0.7816164E-02  0.1300439E+00
        -11   -1    0    0    0    0  0.00000000000E+00  0.00000000000E+00  0.45593999997E+02  0.45594000000E+02  0.51100000000E-03 0.  1.
         11   -1    0    0    0    0 -0.00000000000E+00 -0.00000000000E+00 -0.45593999997E+02  0.45594000000E+02  0.51100000000E-03 0. -1.
    9900012    2    1    2    0    0  0.66490420864E+01  0.18023155085E+02  0.35834645549E+02  0.50528859558E+02  0.29999999111E+02 0.  0.
         12    1    1    2    0    0 -0.66490420864E+01 -0.18023155085E+02 -0.35834645549E+02  0.40659140442E+02  0.00000000000E+00 0. -1.
         11    1    3    3    0    0 -0.55869627462E+01  0.10682440484E+01  0.74648905691E+00  0.57369455503E+01  0.51100000000E-03 0. -1.
        -11    1    3    3    0    0 -0.22074309118E+01  0.71693885847E+01  0.21214824292E+02  0.22502036661E+02  0.51100000000E-03 0.  1.
        -12    1    3    3    0    0  0.14443435744E+02  0.97855224520E+01  0.13873332201E+02  0.22289877346E+02  0.00000000000E+00 0.  1.
</event>
<event>
 7    1  0.3250765E-011  0.5052886E+02  0.7816164E-02  0.1300439E+00
        -11   -1    0    0    0    0  0.00000000000E+00  0.00000000000E+00  0.45593999997E+02  0.45594000000E+02  0.51100000000E-03 0. -1.
         11   -1    0    0    0    0 -0.00000000000E+00 -0.00000000000E+00 -0.45593999997E+02  0.45594000000E+02  0.51100000000E-03 0.  1.
    9900012    2    1    2    0    0  0.40308370020E+02 -0.29635605848E+01  0.44292831959E+01  0.50528856690E+02  0.29999990396E+02 0.  0.
         12    1    1    2    0    0 -0.40308370020E+02  0.29635605848E+01 -0.44292831959E+01  0.40659143310E+02  0.00000000000E+00 0. -1.
         11    1    3    3    0    0  0.34160421447E+01  0.26425506172E+00  0.78113988011E+01  0.85297787875E+01  0.51100000000E-03 0. -1.
        -11    1    3    3    0    0  0.23025609017E+02 -0.88401390763E+01  0.45289369892E+01  0.25076642518E+02  0.51100000000E-03 0.  1.
         12    1    3    3    0    0  0.13866718859E+02  0.56123234298E+01 -0.79110525944E+01  0.16922435385E+02  0.00000000000E+00 0. -1.
</event>
<event>
 7    1  0.3250765E-011  0.5052886E+02  0.7816164E-02  0.1300439E+00
        -11   -1    0    0    0    0  0.00000000000E+00  0.00000000000E+00  0.45593999997E+02  0.45594000000E+02  0.51100000000E-03 0. -1.
         11   -1    0    0    0    0 -0.00000000000E+00 -0.00000000000E+00 -0.45593999997E+02  0.45594000000E+02  0.51100000000E-03 0.  1.
    9900012    2    1    2    0    0 -0.39003897535E+02 -0.99261833123E+01 -0.57734373620E+01  0.50528859367E+02  0.29999998532E+02 0.  0.
         12    1    1    2    0    0  0.39003897535E+02  0.99261833123E+01  0.57734373620E+01  0.40659140633E+02  0.00000000000E+00 0. -1.
         11    1    3    3    0    0 -0.38928894919E+01  0.34759107908E+01 -0.71880763192E+01  0.88828478460E+01  0.51100000000E-03 0. -1.
        -11    1    3    3    0    0 -0.20899199010E+02 -0.74314745418E+01 -0.80042303882E+01  0.23581158527E+02  0.51100000000E-03 0.  1.
         12    1    3    3    0    0 -0.14211809033E+02 -0.59706195613E+01  0.94188693455E+01  0.18064852994E+02  0.00000000000E+00 0. -1.
</event>
<event>
 7    1  0.3250765E-011  0.5052886E+02  0.7816164E-02  0.1300439E+00
        -11   -1    0    0    0    0  0.00000000000E+00  0.00000000000E+00  0.45593999997E+02  0.45594000000E+02  0.51100000000E-03 0.  1.
         11   -1    0    0    0    0 -0.00000000000E+00 -0.00000000000E+00 -0.45593999997E+02  0.45594000000E+02  0.51100000000E-03 0. -1.
    9900012    2    1    2    0    0  0.35424056171E+02  0.20933450012E+01  0.19847421629E+02  0.50528855958E+02  0.29999988170E+02 0.  0.
         12    1    1    2    0    0 -0.35424056171E+02 -0.20933450012E+01 -0.19847421629E+02  0.40659144042E+02  0.00000000000E+00 0. -1.
         11    1    3    3    0    0  0.86273191571E+01 -0.49119796617E+01  0.10811690797E+02  0.14678243702E+02  0.51100000000E-03 0.  1.
        -11    1    3    3    0    0  0.81732375401E+01 -0.37857123081E+01  0.11022921355E+02  0.14235105375E+02  0.51100000000E-03 0. -1.
        -12    1    3    3    0    0  0.18623499474E+02  0.10791036971E+02 -0.19871905229E+01  0.21615506881E+02  0.00000000000E+00 0.  1.
</event>
<event>
 7    1  0.3250765E-011  0.5052889E+02  0.7816164E-02  0.1300439E+00
        -11   -1    0    0    0    0  0.00000000000E+00  0.00000000000E+00  0.45593999997E+02  0.45594000000E+02  0.51100000000E-03 0. -1.
         11   -1    0    0    0    0 -0.00000000000E+00 -0.00000000000E+00 -0.45593999997E+02  0.45594000000E+02  0.51100000000E-03 0.  1.
    9900012    2    1    2    0    0  0.19680616657E+02  0.31333193468E+02  0.16854304655E+02  0.50528889456E+02  0.30000089989E+02 0.  0.
         12    1    1    2    0    0 -0.19680616657E+02 -0.31333193468E+02 -0.16854304655E+02  0.40659110544E+02  0.00000000000E+00 0. -1.
         11    1    3    3    0    0  0.11579370099E+01  0.19881963758E+01 -0.51634327741E+01  0.56528560234E+01  0.51100000000E-03 0. -1.
        -11    1    3    3    0    0  0.18712209081E+02  0.28515772095E+02  0.14090176194E+02  0.36902968611E+02  0.51100000000E-03 0.  1.
         12    1    3    3    0    0 -0.18952943416E+00  0.82922499648E+00  0.79275612352E+01  0.79730648210E+01  0.00000000000E+00 0. -1.
</event>
<event>
 7    1  0.3250765E-011  0.5052886E+02  0.7816164E-02  0.1300439E+00
        -11   -1    0    0    0    0  0.00000000000E+00  0.00000000000E+00  0.45593999997E+02  0.45594000000E+02  0.51100000000E-03 0.  1.
         11   -1    0    0    0    0 -0.00000000000E+00 -0.00000000000E+00 -0.45593999997E+02  0.45594000000E+02  0.51100000000E-03 0. -1.
    9900012    2    1    2    0    0 -0.29315838180E+02 -0.12546482787E+02  0.25225650422E+02  0.50528855423E+02  0.29999986544E+02 0.  0.
         12    1    1    2    0    0  0.29315838180E+02  0.12546482787E+02 -0.25225650422E+02  0.40659144577E+02  0.00000000000E+00 0. -1.
         11    1    3    3    0    0 -0.11972422734E+02 -0.13595681241E+02  0.13366827876E+02  0.22513408055E+02  0.51100000000E-03 0. -1.
        -11    1    3    3    0    0  0.21531503426E+01 -0.38454892081E+01 -0.47316046762E+00  0.44325754068E+01  0.51100000000E-03 0.  1.
         12    1    3    3    0    0 -0.19496565789E+02  0.48946876628E+01  0.12331983013E+02  0.23582871961E+02  0.00000000000E+00 0. -1.
</event>
<event>
 7    1  0.3250765E-011  0.5052885E+02  0.7816164E-02  0.1300439E+00
        -11   -1    0    0    0    0  0.00000000000E+00  0.00000000000E+00  0.45593999997E+02  0.45594000000E+02  0.51100000000E-03 0.  1.
         11   -1    0    0    0    0 -0.00000000000E+00 -0.00000000000E+00 -0.45593999997E+02  0.45594000000E+02  0.51100000000E-03 0. -1.
    9900012    2    1    2    0    0  0.36046186522E+02 -0.18807706201E+02  0.32977180947E+00  0.50528854353E+02  0.29999983291E+02 0.  0.
         12    1    1    2    0    0 -0.36046186522E+02  0.18807706201E+02 -0.32977180947E+00  0.40659145647E+02  0.00000000000E+00 0. -1.
         11    1    3    3    0    0  0.88345032861E+01 -0.10512774860E+01 -0.11954237249E+02  0.14901591229E+02  0.51100000000E-03 0. -1.
        -11    1    3    3    0    0  0.17713212842E+02 -0.72026729701E+01  0.55376312646E+01  0.19907329489E+02  0.51100000000E-03 0.  1.
        -12    1    3    3    0    0  0.94984703932E+01 -0.10553755745E+02  0.67463777942E+01  0.15719933635E+02  0.00000000000E+00 0.  1.
</event>
<event>
 7    1  0.3250765E-011  0.5052886E+02  0.7816164E-02  0.1300439E+00
        -11   -1    0    0    0    0  0.00000000000E+00  0.00000000000E+00  0.45593999997E+02  0.45594000000E+02  0.51100000000E-03 0.  1.
         11   -1    0    0    0    0 -0.00000000000E+00 -0.00000000000E+00 -0.45593999997E+02  0.45594000000E+02  0.51100000000E-03 0. -1.
    9900012    2    1    2    0    0 -0.63577425968E+01  0.31563558046E+02  0.24829140181E+02  0.50528864623E+02  0.30000014509E+02 0.  0.
         12    1    1    2    0    0  0.63577425968E+01 -0.31563558046E+02 -0.24829140181E+02  0.40659135377E+02  0.00000000000E+00 0. -1.
         11    1    3    3    0    0  0.99073757418E+00 -0.23938117350E+01  0.10160101958E+01  0.27828353423E+01  0.51100000000E-03 0. -1.
        -11    1    3    3    0    0  0.68705386840E+01  0.13793906766E+02  0.15113093689E+02  0.21584294447E+02  0.51100000000E-03 0.  1.
        -12    1    3    3    0    0 -0.14219018855E+02  0.20163463015E+02  0.87000362965E+01  0.26161734834E+02  0.00000000000E+00 0.  1.
</event>
<event>
 7    1  0.3250765E-011  0.5052885E+02  0.7816164E-02  0.1300439E+00
        -11   -1    0    0    0    0  0.00000000000E+00  0.00000000000E+00  0.45593999997E+02  0.45594000000E+02  0.51100000000E-03 0. -1.
         11   -1    0    0    0    0 -0.00000000000E+00 -0.00000000000E+00 -0.45593999997E+02  0.45594000000E+02  0.51100000000E-03 0.  1.
    9900012    2    1    2    0    0 -0.36975939593E+02 -0.37715531077E+01 -0.16483991555E+02  0.50528847288E+02  0.29999961817E+02 0.  0.
         12    1    1    2    0    0  0.36975939593E+02  0.37715531077E+01  0.16483991555E+02  0.40659152712E+02  0.00000000000E+00 0. -1.
         11    1    3    3    0    0 -0.38741442359E+01  0.29812482925E+01 -0.11089283857E+02  0.12118954231E+02  0.51100000000E-03 0. -1.
        -11    1    3    3    0    0 -0.24128725256E+02  0.22759528327E+01  0.80909527788E+00  0.24249329459E+02  0.51100000000E-03 0.  1.
         12    1    3    3    0    0 -0.89730701019E+01 -0.90287542329E+01 -0.62038029758E+01  0.14160563598E+02  0.00000000000E+00 0. -1.
</event>
<event>
 7    1  0.3250765E-011  0.5052887E+02  0.7816164E-02  0.1300439E+00
        -11   -1    0    0    0    0  0.00000000000E+00  0.00000000000E+00  0.45593999997E+02  0.45594000000E+02  0.51100000000E-03 0. -1.
         11   -1    0    0    0    0 -0.00000000000E+00 -0.00000000000E+00 -0.45593999997E+02  0.45594000000E+02  0.51100000000E-03 0.  1.
    9900012    2    1    2    0    0 -0.31559231026E+02  0.22218669487E+02  0.12787133832E+02  0.50528866605E+02  0.30000020534E+02 0.  0.
         12    1    1    2    0    0  0.31559231026E+02 -0.22218669487E+02 -0.12787133832E+02  0.40659133395E+02  0.00000000000E+00 0. -1.
         11    1    3    3    0    0 -0.16269154164E+02  0.11558930771E+02  0.13823397335E+02  0.24277161529E+02  0.51100000000E-03 0. -1.
        -11    1    3    3    0    0 -0.77079752082E+01  0.15298461759E+02 -0.22612738331E+01  0.17279154309E+02  0.51100000000E-03 0.  1.
        -12    1    3    3    0    0 -0.75821016542E+01 -0.46387230433E+01  0.12250103302E+01  0.89725507676E+01  0.00000000000E+00 0.  1.
</event>
<event>
 7    1  0.3250765E-011  0.5052886E+02  0.7816164E-02  0.1300439E+00
        -11   -1    0    0    0    0  0.00000000000E+00  0.00000000000E+00  0.45593999997E+02  0.45594000000E+02  0.51100000000E-03 0.  1.
         11   -1    0    0    0    0 -0.00000000000E+00 -0.00000000000E+00 -0.45593999997E+02  0.45594000000E+02  0.51100000000E-03 0. -1.
    9900012    2    1    2    0    0 -0.11461475378E+02 -0.67474316098E+00  0.39004419279E+02  0.50528863026E+02  0.30000009653E+02 0.  0.
         12    1    1    2    0    0  0.11461475378E+02  0.67474316098E+00 -0.39004419279E+02  0.40659136974E+02  0.00000000000E+00 0. -1.
         11    1    3    3    0    0 -0.32680609593E+00 -0.42036965436E+00 -0.10354009207E+01  0.11642887092E+01  0.51100000000E-03 0. -1.
        -11    1    3    3    0    0 -0.19292539060E+02 -0.26247615864E+01  0.33070218131E+02  0.38376174435E+02  0.51100000000E-03 0.  1.
        -12    1    3    3    0    0  0.81578697780E+01  0.23703880798E+01  0.69696020694E+01  0.10988399882E+02  0.00000000000E+00 0.  1.
</event>
<event>
 7    1  0.3250765E-011  0.5052886E+02  0.7816164E-02  0.1300439E+00
        -11   -1    0    0    0    0  0.00000000000E+00  0.00000000000E+00  0.45593999997E+02  0.45594000000E+02  0.51100000000E-03 0. -1.
         11   -1    0    0    0    0 -0.00000000000E+00 -0.00000000000E+00 -0.45593999997E+02  0.45594000000E+02  0.51100000000E-03 0.  1.
    9900012    2    1    2    0    0  0.19617357604E+02 -0.30461793563E+02  0.18450047746E+02  0.50528857753E+02  0.29999993627E+02 0.  0.
         12    1    1    2    0    0 -0.19617357604E+02  0.30461793563E+02 -0.18450047746E+02  0.40659142247E+02  0.00000000000E+00 0. -1.
         11    1    3    3    0    0 -0.20973610447E+01 -0.83514193277E+00  0.28763215643E+01  0.36564479214E+01  0.51100000000E-03 0. -1.
        -11    1    3    3    0    0  0.13320738866E+02 -0.31676866092E+02  0.16614073487E+02  0.38169272556E+02  0.51100000000E-03 0.  1.
         12    1    3    3    0    0  0.83939797826E+01  0.20502144621E+01 -0.10403473052E+01  0.87031372761E+01  0.00000000000E+00 0. -1.
</event>
<event>
 7    1  0.3250765E-011  0.5052886E+02  0.7816164E-02  0.1300439E+00
        -11   -1    0    0    0    0  0.00000000000E+00  0.00000000000E+00  0.45593999997E+02  0.45594000000E+02  0.51100000000E-03 0.  1.
         11   -1    0    0    0    0 -0.00000000000E+00 -0.00000000000E+00 -0.45593999997E+02  0.45594000000E+02  0.51100000000E-03 0. -1.
    9900012    2    1    2    0    0 -0.39022242946E+02  0.78057711299E+01  0.83366938972E+01  0.50528856224E+02  0.29999988979E+02 0.  0.
         12    1    1    2    0    0  0.39022242946E+02 -0.78057711299E+01 -0.83366938972E+01  0.40659143776E+02  0.00000000000E+00 0. -1.
         11    1    3    3    0    0 -0.14281875802E+02  0.11583384050E+02 -0.59789223728E+01  0.19336345970E+02  0.51100000000E-03 0. -1.
        -11    1    3    3    0    0  0.22816235903E+00  0.60260982057E+00  0.36230119314E+01  0.36798658093E+01  0.51100000000E-03 0.  1.
         12    1    3    3    0    0 -0.24968529503E+02 -0.43802227409E+01  0.10692604339E+02  0.27512644445E+02  0.00000000000E+00 0. -1.
</event>
<event>
 7    1  0.3250765E-011  0.5052887E+02  0.7816164E-02  0.1300439E+00
        -11   -1    0    0    0    0  0.00000000000E+00  0.00000000000E+00  0.45593999997E+02  0.45594000000E+02  0.51100000000E-03 0.  1.
         11   -1    0    0    0    0 -0.00000000000E+00 -0.00000000000E+00 -0.45593999997E+02  0.45594000000E+02  0.51100000000E-03 0. -1.
    9900012    2    1    2    0    0 -0.16725064887E+02  0.31513329576E+02  0.19502498708E+02  0.50528865819E+02  0.30000018144E+02 0.  0.
         12    1    1    2    0    0  0.16725064887E+02 -0.31513329576E+02 -0.19502498708E+02  0.40659134181E+02  0.00000000000E+00 0. -1.
         11    1    3    3    0    0 -0.11914044643E+02  0.38138536781E+00  0.11798178459E+01  0.11978392420E+02  0.51100000000E-03 0. -1.
        -11    1    3    3    0    0 -0.42181225099E+01  0.49672945229E+01  0.82367799305E+01  0.10502909895E+02  0.51100000000E-03 0.  1.
         12    1    3    3    0    0 -0.59289773406E+00  0.26164649685E+02  0.10085900932E+02  0.28047563504E+02  0.00000000000E+00 0. -1.
</event>
<event>
 7    1  0.3250765E-011  0.5052887E+02  0.7816164E-02  0.1300439E+00
        -11   -1    0    0    0    0  0.00000000000E+00  0.00000000000E+00  0.45593999997E+02  0.45594000000E+02  0.51100000000E-03 0. -1.
         11   -1    0    0    0    0 -0.00000000000E+00 -0.00000000000E+00 -0.45593999997E+02  0.45594000000E+02  0.51100000000E-03 0.  1.
    9900012    2    1    2    0    0  0.85818352048E+01 -0.29124536204E+02 -0.27042164710E+02  0.50528866010E+02  0.30000018724E+02 0.  0.
         12    1    1    2    0    0 -0.85818352048E+01  0.29124536204E+02  0.27042164710E+02  0.40659133990E+02  0.00000000000E+00 0. -1.
         11    1    3    3    0    0  0.37028761002E+01 -0.82348351990E+01 -0.11404042566E+01  0.91007870153E+01  0.51100000000E-03 0. -1.
        -11    1    3    3    0    0  0.13341168658E+02 -0.51080788960E+01 -0.13416886270E+02  0.19598267490E+02  0.51100000000E-03 0.  1.
        -12    1    3    3    0    0 -0.84622095536E+01 -0.15781622109E+02 -0.12484874184E+02  0.21829811505E+02  0.00000000000E+00 0.  1.
</event>
<event>
 7    1  0.3250765E-011  0.5052886E+02  0.7816164E-02  0.1300439E+00
        -11   -1    0    0    0    0  0.00000000000E+00  0.00000000000E+00  0.45593999997E+02  0.45594000000E+02  0.51100000000E-03 0. -1.
         11   -1    0    0    0    0 -0.00000000000E+00 -0.00000000000E+00 -0.45593999997E+02  0.45594000000E+02  0.51100000000E-03 0.  1.
    9900012    2    1    2    0    0  0.50416450260E+01  0.33916968526E+02 -0.21849175739E+02  0.50528863031E+02  0.30000009669E+02 0.  0.
         12    1    1    2    0    0 -0.50416450260E+01 -0.33916968526E+02  0.21849175739E+02  0.40659136969E+02  0.00000000000E+00 0. -1.
         11    1    3    3    0    0  0.24027735253E+01 -0.17870660477E+01  0.96167393566E-01  0.29960263853E+01  0.51100000000E-03 0. -1.
        -11    1    3    3    0    0 -0.21828689203E+01  0.44848881287E+01 -0.14139367120E+02  0.14993359899E+02  0.51100000000E-03 0.  1.
         12    1    3    3    0    0  0.48217404209E+01  0.31219146445E+02 -0.78059760134E+01  0.32539476747E+02  0.00000000000E+00 0. -1.
</event>
<event>
 7    1  0.3250765E-011  0.5052887E+02  0.7816164E-02  0.1300439E+00
        -11   -1    0    0    0    0  0.00000000000E+00  0.00000000000E+00  0.45593999997E+02  0.45594000000E+02  0.51100000000E-03 0.  1.
         11   -1    0    0    0    0 -0.00000000000E+00 -0.00000000000E+00 -0.45593999997E+02  0.45594000000E+02  0.51100000000E-03 0. -1.
    9900012    2    1    2    0    0 -0.30898656145E+02 -0.11024415988E+02  0.24018744938E+02  0.50528870548E+02  0.30000032517E+02 0.  0.
         12    1    1    2    0    0  0.30898656145E+02  0.11024415988E+02 -0.24018744938E+02  0.40659129452E+02  0.00000000000E+00 0. -1.
         11    1    3    3    0    0 -0.13896238456E+02 -0.11436669426E+02  0.63215141693E+00  0.18008399886E+02  0.51100000000E-03 0. -1.
        -11    1    3    3    0    0 -0.86865089364E+01 -0.71474597676E+01  0.10096550315E+02  0.15115619311E+02  0.51100000000E-03 0.  1.
        -12    1    3    3    0    0 -0.83159087523E+01  0.75597132054E+01  0.13290043206E+02  0.17404851351E+02  0.00000000000E+00 0.  1.
</event>
<event>
 7    1  0.3250765E-011  0.5052885E+02  0.7816164E-02  0.1300439E+00
        -11   -1    0    0    0    0  0.00000000000E+00  0.00000000000E+00  0.45593999997E+02  0.45594000000E+02  0.51100000000E-03 0. -1.
         11   -1    0    0    0    0 -0.00000000000E+00 -0.00000000000E+00 -0.45593999997E+02  0.45594000000E+02  0.51100000000E-03 0.  1.
    9900012    2    1    2    0    0  0.25912750820E+02  0.27094647380E+02 -0.15734553217E+02  0.50528846828E+02  0.29999960419E+02 0.  0.
         12    1    1    2    0    0 -0.25912750820E+02 -0.27094647380E+02  0.15734553217E+02  0.40659153172E+02  0.00000000000E+00 0. -1.
         11    1    3    3    0    0  0.32676786629E+01 -0.24377566533E+01 -0.36997248985E+01  0.55053016203E+01  0.51100000000E-03 0. -1.
        -11    1    3    3    0    0  0.14466700016E+02  0.64161254273E+01  0.32135089895E+01  0.16148644374E+02  0.51100000000E-03 0.  1.
        -12    1    3    3    0    0  0.81783721415E+01  0.23116278606E+02 -0.15248337308E+02  0.28874900833E+02  0.00000000000E+00 0.  1.
</event>
<event>
 7    1  0.3250765E-011  0.5052885E+02  0.7816164E-02  0.1300439E+00
        -11   -1    0    0    0    0  0.00000000000E+00  0.00000000000E+00  0.45593999997E+02  0.45594000000E+02  0.51100000000E-03 0.  1.
         11   -1    0    0    0    0 -0.00000000000E+00 -0.00000000000E+00 -0.45593999997E+02  0.45594000000E+02  0.51100000000E-03 0. -1.
    9900012    2    1    2    0    0 -0.18438242280E+02 -0.18501102648E+02  0.31159376337E+02  0.50528852059E+02  0.29999976317E+02 0.  0.
         12    1    1    2    0    0  0.18438242280E+02  0.18501102648E+02 -0.31159376337E+02  0.40659147941E+02  0.00000000000E+00 0. -1.
         11    1    3    3    0    0  0.32176087414E+01 -0.41214416362E+01  0.14179325160E+02  0.15112661891E+02  0.51100000000E-03 0. -1.
        -11    1    3    3    0    0 -0.42632629109E+01 -0.11759688445E+02  0.11504781552E+02  0.16994872221E+02  0.51100000000E-03 0.  1.
         12    1    3    3    0    0 -0.17392588111E+02 -0.26199725672E+01  0.54752696252E+01  0.18421317947E+02  0.00000000000E+00 0. -1.
</event>
<event>
 7    1  0.3250765E-011  0.5052886E+02  0.7816164E-02  0.1300439E+00
        -11   -1    0    0    0    0  0.00000000000E+00  0.00000000000E+00  0.45593999997E+02  0.45594000000E+02  0.51100000000E-03 0.  1.
         11   -1    0    0    0    0 -0.00000000000E+00 -0.00000000000E+00 -0.45593999997E+02  0.45594000000E+02  0.51100000000E-03 0. -1.
    9900012    2    1    2    0    0 -0.71483616201E+01 -0.12808902128E+02  0.37920948257E+02  0.50528863704E+02  0.30000011715E+02 0.  0.
         12    1    1    2    0    0  0.71483616201E+01  0.12808902128E+02 -0.37920948257E+02  0.40659136296E+02  0.00000000000E+00 0. -1.
         11    1    3    3    0    0  0.10920380582E+01 -0.18342601171E+01 -0.80053875356E+00  0.22798947026E+01  0.51100000000E-03 0. -1.
        -11    1    3    3    0    0  0.56859970291E+01 -0.33788149136E+01  0.28774962366E+02  0.29525335085E+02  0.51100000000E-03 0.  1.
        -12    1    3    3    0    0 -0.13926396707E+02 -0.75958270973E+01  0.99465246450E+01  0.18723633917E+02  0.00000000000E+00 0.  1.
</event>
<event>
 7    1  0.3250765E-011  0.5052886E+02  0.7816164E-02  0.1300439E+00
        -11   -1    0    0    0    0  0.00000000000E+00  0.00000000000E+00  0.45593999997E+02  0.45594000000E+02  0.51100000000E-03 0.  1.
         11   -1    0    0    0    0 -0.00000000000E+00 -0.00000000000E+00 -0.45593999997E+02  0.45594000000E+02  0.51100000000E-03 0. -1.
    9900012    2    1    2    0    0 -0.11059185549E+02 -0.34843331729E+02  0.17798938038E+02  0.50528861467E+02  0.30000004915E+02 0.  0.
         12    1    1    2    0    0  0.11059185549E+02  0.34843331729E+02 -0.17798938038E+02  0.40659138533E+02  0.00000000000E+00 0. -1.
         11    1    3    3    0    0 -0.58874194358E+01 -0.19820648709E+02  0.78207690949E+01  0.22106203934E+02  0.51100000000E-03 0. -1.
        -11    1    3    3    0    0 -0.64180870015E+01 -0.92148250176E+01 -0.50128261179E+01  0.12297693557E+02  0.51100000000E-03 0.  1.
         12    1    3    3    0    0  0.12463208885E+01 -0.58078580025E+01  0.14990995061E+02  0.16124963976E+02  0.00000000000E+00 0. -1.
</event>
<event>
 7    1  0.3250765E-011  0.5052885E+02  0.7816164E-02  0.1300439E+00
        -11   -1    0    0    0    0  0.00000000000E+00  0.00000000000E+00  0.45593999997E+02  0.45594000000E+02  0.51100000000E-03 0.  1.
         11   -1    0    0    0    0 -0.00000000000E+00 -0.00000000000E+00 -0.45593999997E+02  0.45594000000E+02  0.51100000000E-03 0. -1.
    9900012    2    1    2    0    0 -0.68930573918E+00 -0.12423661036E+02  0.38708444440E+02  0.50528853834E+02  0.29999981714E+02 0.  0.
         12    1    1    2    0    0  0.68930573918E+00  0.12423661036E+02 -0.38708444440E+02  0.40659146166E+02  0.00000000000E+00 0. -1.
         11    1    3    3    0    0  0.51679937572E+00 -0.10199543757E+02  0.19722258426E+01  0.10401319603E+02  0.51100000000E-03 0. -1.
        -11    1    3    3    0    0 -0.67411645611E+01 -0.52861475649E+01  0.13044858064E+02  0.15606248040E+02  0.51100000000E-03 0.  1.
        -12    1    3    3    0    0  0.55350594462E+01  0.30620302856E+01  0.23691360534E+02  0.24521286191E+02  0.00000000000E+00 0.  1.
</event>
<event>
 7    1  0.3250765E-011  0.5052885E+02  0.7816164E-02  0.1300439E+00
        -11   -1    0    0    0    0  0.00000000000E+00  0.00000000000E+00  0.45593999997E+02  0.45594000000E+02  0.51100000000E-03 0. -1.
         11   -1    0    0    0    0 -0.00000000000E+00 -0.00000000000E+00 -0.45593999997E+02  0.45594000000E+02  0.51100000000E-03 0.  1.
    9900012    2    1    2    0    0 -0.21518483302E+02 -0.33852259904E+02 -0.66442198321E+01  0.50528852426E+02  0.29999977436E+02 0.  0.
         12    1    1    2    0    0  0.21518483302E+02  0.33852259904E+02  0.66442198321E+01  0.40659147574E+02  0.00000000000E+00 0. -1.
         11    1    3    3    0    0  0.78272744150E+00  0.18254994689E+01  0.18331101121E+01  0.27028509953E+01  0.51100000000E-03 0. -1.
        -11    1    3    3    0    0 -0.66463231990E+01 -0.51086964094E+01 -0.10483511020E+02  0.13422980096E+02  0.51100000000E-03 0.  1.
        -12    1    3    3    0    0 -0.15654887544E+02 -0.30569062964E+02  0.20061810763E+01  0.34403021336E+02  0.00000000000E+00 0.  1.
</event>
<event>
 7    1  0.3250765E-011  0.5052886E+02  0.7816164E-02  0.1300439E+00
        -11   -1    0    0    0    0  0.00000000000E+00  0.00000000000E+00  0.45593999997E+02  0.45594000000E+02  0.51100000000E-03 0.  1.
         11   -1    0    0    0    0 -0.00000000000E+00 -0.00000000000E+00 -0.45593999997E+02  0.45594000000E+02  0.51100000000E-03 0. -1.
    9900012    2    1    2    0    0  0.26474627749E+02 -0.95105570789E+01  0.29356587915E+02  0.50528857555E+02  0.29999993023E+02 0.  0.
         12    1    1    2    0    0 -0.26474627749E+02  0.95105570789E+01 -0.29356587915E+02  0.40659142445E+02  0.00000000000E+00 0. -1.
         11    1    3    3    0    0  0.26234016755E+01 -0.11793653137E-01  0.17294735523E+02  0.17492577069E+02  0.51100000000E-03 0. -1.
        -11    1    3    3    0    0  0.21504086840E+02 -0.34654119969E+01  0.14446892902E+02  0.26137091382E+02  0.51100000000E-03 0.  1.
         12    1    3    3    0    0  0.23471392335E+01 -0.60333514289E+01 -0.23850405105E+01  0.68991891033E+01  0.00000000000E+00 0. -1.
</event>
<event>
 7    1  0.3250765E-011  0.5052890E+02  0.7816164E-02  0.1300439E+00
        -11   -1    0    0    0    0  0.00000000000E+00  0.00000000000E+00  0.45593999997E+02  0.45594000000E+02  0.51100000000E-03 0. -1.
         11   -1    0    0    0    0 -0.00000000000E+00 -0.00000000000E+00 -0.45593999997E+02  0.45594000000E+02  0.51100000000E-03 0.  1.
    9900012    2    1    2    0    0  0.67732852555E+00  0.54196624357E+00 -0.40649849898E+02  0.50528895262E+02  0.30000107639E+02 0.  0.
         12    1    1    2    0    0 -0.67732852555E+00 -0.54196624357E+00  0.40649849898E+02  0.40659104738E+02  0.00000000000E+00 0. -1.
         11    1    3    3    0    0 -0.22211728664E+01  0.11214885070E+02 -0.93715498034E+01  0.14782868531E+02  0.51100000000E-03 0. -1.
        -11    1    3    3    0    0  0.29221020409E+01 -0.56343559831E+01 -0.29963367554E+01  0.70187379132E+01  0.51100000000E-03 0.  1.
        -12    1    3    3    0    0 -0.23600648921E-01 -0.50385628432E+01 -0.28281963339E+02  0.28727288818E+02  0.00000000000E+00 0.  1.
</event>
<event>
 7    1  0.3250765E-011  0.5052886E+02  0.7816164E-02  0.1300439E+00
        -11   -1    0    0    0    0  0.00000000000E+00  0.00000000000E+00  0.45593999997E+02  0.45594000000E+02  0.51100000000E-03 0. -1.
         11   -1    0    0    0    0 -0.00000000000E+00 -0.00000000000E+00 -0.45593999997E+02  0.45594000000E+02  0.51100000000E-03 0.  1.
    9900012    2    1    2    0    0 -0.27558091610E+02  0.29895044343E+02 -0.62916587934E-01  0.50528855298E+02  0.29999986163E+02 0.  0.
         12    1    1    2    0    0  0.27558091610E+02 -0.29895044343E+02  0.62916587934E-01  0.40659144702E+02  0.00000000000E+00 0. -1.
         11    1    3    3    0    0 -0.13597914666E+01 -0.47412305890E+01 -0.37562783441E+01  0.61998328679E+01  0.51100000000E-03 0. -1.
        -11    1    3    3    0    0 -0.12769677524E+02  0.13180969345E+02 -0.17619918059E+01  0.18436573226E+02  0.51100000000E-03 0.  1.
        -12    1    3    3    0    0 -0.13428622619E+02  0.21455305587E+02  0.54553535620E+01  0.25892449204E+02  0.00000000000E+00 0.  1.
</event>
<event>
 7    1  0.3250765E-011  0.5052886E+02  0.7816164E-02  0.1300439E+00
        -11   -1    0    0    0    0  0.00000000000E+00  0.00000000000E+00  0.45593999997E+02  0.45594000000E+02  0.51100000000E-03 0.  1.
         11   -1    0    0    0    0 -0.00000000000E+00 -0.00000000000E+00 -0.45593999997E+02  0.45594000000E+02  0.51100000000E-03 0. -1.
    9900012    2    1    2    0    0 -0.14758899672E+02 -0.37381556834E+02  0.61611425003E+01  0.50528860956E+02  0.30000003363E+02 0.  0.
         12    1    1    2    0    0  0.14758899672E+02  0.37381556834E+02 -0.61611425003E+01  0.40659139044E+02  0.00000000000E+00 0. -1.
         11    1    3    3    0    0  0.59805562506E+01 -0.66104059269E+01 -0.37815263633E+00  0.89223045937E+01  0.51100000000E-03 0. -1.
        -11    1    3    3    0    0 -0.20050816766E+02 -0.33060116525E+02  0.57574094097E+01  0.39091614459E+02  0.51100000000E-03 0.  1.
         12    1    3    3    0    0 -0.68863915617E+00  0.22889656181E+01  0.78188572688E+00  0.25149419036E+01  0.00000000000E+00 0. -1.
</event>
<event>
 7    1  0.3250765E-011  0.5052887E+02  0.7816164E-02  0.1300439E+00
        -11   -1    0    0    0    0  0.00000000000E+00  0.00000000000E+00  0.45593999997E+02  0.45594000000E+02  0.51100000000E-03 0.  1.
         11   -1    0    0    0    0 -0.00000000000E+00 -0.00000000000E+00 -0.45593999997E+02  0.45594000000E+02  0.51100000000E-03 0. -1.
    9900012    2    1    2    0    0 -0.93556100890E+01  0.74407046311E+01  0.38862239021E+02  0.50528866374E+02  0.30000019830E+02 0.  0.
         12    1    1    2    0    0  0.93556100890E+01 -0.74407046311E+01 -0.38862239021E+02  0.40659133626E+02  0.00000000000E+00 0. -1.
         11    1    3    3    0    0 -0.58191416453E+01 -0.49845885709E+01  0.49677003627E+01  0.91316252587E+01  0.51100000000E-03 0. -1.
        -11    1    3    3    0    0 -0.94242728340E+01  0.22216550548E+01  0.24452645948E+02  0.26299896649E+02  0.51100000000E-03 0.  1.
         12    1    3    3    0    0  0.58878043904E+01  0.10203638147E+02  0.94418927095E+01  0.15097344466E+02  0.00000000000E+00 0. -1.
</event>
<event>
 7    1  0.3250765E-011  0.5052886E+02  0.7816164E-02  0.1300439E+00
        -11   -1    0    0    0    0  0.00000000000E+00  0.00000000000E+00  0.45593999997E+02  0.45594000000E+02  0.51100000000E-03 0.  1.
         11   -1    0    0    0    0 -0.00000000000E+00 -0.00000000000E+00 -0.45593999997E+02  0.45594000000E+02  0.51100000000E-03 0. -1.
    9900012    2    1    2    0    0 -0.81037709620E+01  0.78245066694E+01  0.39067524887E+02  0.50528861922E+02  0.30000006300E+02 0.  0.
         12    1    1    2    0    0  0.81037709620E+01 -0.78245066694E+01 -0.39067524887E+02  0.40659138078E+02  0.00000000000E+00 0. -1.
         11    1    3    3    0    0  0.12536468629E+01  0.79022276947E+01  0.10788211386E+02  0.13431393754E+02  0.51100000000E-03 0. -1.
        -11    1    3    3    0    0 -0.41039695877E+01  0.10874883678E+02  0.16447581410E+02  0.20140223332E+02  0.51100000000E-03 0.  1.
         12    1    3    3    0    0 -0.52534482372E+01 -0.10952604703E+02  0.11831732091E+02  0.16957244837E+02  0.00000000000E+00 0. -1.
</event>
<event>
 7    1  0.3250765E-011  0.5052883E+02  0.7816164E-02  0.1300439E+00
        -11   -1    0    0    0    0  0.00000000000E+00  0.00000000000E+00  0.45593999997E+02  0.45594000000E+02  0.51100000000E-03 0.  1.
         11   -1    0    0    0    0 -0.00000000000E+00 -0.00000000000E+00 -0.45593999997E+02  0.45594000000E+02  0.51100000000E-03 0. -1.
    9900012    2    1    2    0    0  0.46273474347E+01 -0.21849690917E+02  0.33975675148E+02  0.50528833269E+02  0.29999919205E+02 0.  0.
         12    1    1    2    0    0 -0.46273474347E+01  0.21849690917E+02 -0.33975675148E+02  0.40659166731E+02  0.00000000000E+00 0. -1.
         11    1    3    3    0    0 -0.38909291510E+01 -0.17339545299E+02  0.41953424717E+01  0.18259245864E+02  0.51100000000E-03 0. -1.
        -11    1    3    3    0    0  0.77512058940E+01 -0.32863087769E+01  0.13397520911E+02  0.15823229285E+02  0.51100000000E-03 0.  1.
        -12    1    3    3    0    0  0.76707069166E+00 -0.12238368420E+01  0.16382811765E+02  0.16446358119E+02  0.00000000000E+00 0.  1.
</event>
<event>
 7    1  0.3250765E-011  0.5052886E+02  0.7816164E-02  0.1300439E+00
        -11   -1    0    0    0    0  0.00000000000E+00  0.00000000000E+00  0.45593999997E+02  0.45594000000E+02  0.51100000000E-03 0.  1.
         11   -1    0    0    0    0 -0.00000000000E+00 -0.00000000000E+00 -0.45593999997E+02  0.45594000000E+02  0.51100000000E-03 0. -1.
    9900012    2    1    2    0    0 -0.24315733953E+02  0.21607046485E+01  0.32515259258E+02  0.50528860230E+02  0.30000001155E+02 0.  0.
         12    1    1    2    0    0  0.24315733953E+02 -0.21607046485E+01 -0.32515259258E+02  0.40659139770E+02  0.00000000000E+00 0. -1.
         11    1    3    3    0    0 -0.15283570394E+02  0.44334468008E+01  0.19624913559E+02  0.25266187029E+02  0.51100000000E-03 0. -1.
        -11    1    3    3    0    0 -0.67053382915E+01  0.39138137841E+01  0.16130350635E+02  0.17901611989E+02  0.51100000000E-03 0.  1.
         12    1    3    3    0    0 -0.23268252675E+01 -0.61865559364E+01 -0.32400049364E+01  0.73610612120E+01  0.00000000000E+00 0. -1.
</event>
<event>
 7    1  0.3250765E-011  0.5052884E+02  0.7816164E-02  0.1300439E+00
        -11   -1    0    0    0    0  0.00000000000E+00  0.00000000000E+00  0.45593999997E+02  0.45594000000E+02  0.51100000000E-03 0. -1.
         11   -1    0    0    0    0 -0.00000000000E+00 -0.00000000000E+00 -0.45593999997E+02  0.45594000000E+02  0.51100000000E-03 0.  1.
    9900012    2    1    2    0    0 -0.29618300231E+02  0.25190401063E+02 -0.11889813601E+02  0.50528835206E+02  0.29999925094E+02 0.  0.
         12    1    1    2    0    0  0.29618300231E+02 -0.25190401063E+02  0.11889813601E+02  0.40659164794E+02  0.00000000000E+00 0. -1.
         11    1    3    3    0    0 -0.16618660995E+02  0.88968689962E+01 -0.10572726435E+02  0.21612883096E+02  0.51100000000E-03 0. -1.
        -11    1    3    3    0    0  0.25145104337E+01  0.10974355819E+02 -0.46479929312E+01  0.12180438700E+02  0.51100000000E-03 0.  1.
         12    1    3    3    0    0 -0.15514149669E+02  0.53191762473E+01  0.33309057649E+01  0.16735513411E+02  0.00000000000E+00 0. -1.
</event>
<event>
 7    1  0.3250765E-011  0.5052886E+02  0.7816164E-02  0.1300439E+00
        -11   -1    0    0    0    0  0.00000000000E+00  0.00000000000E+00  0.45593999997E+02  0.45594000000E+02  0.51100000000E-03 0.  1.
         11   -1    0    0    0    0 -0.00000000000E+00 -0.00000000000E+00 -0.45593999997E+02  0.45594000000E+02  0.51100000000E-03 0. -1.
    9900012    2    1    2    0    0  0.46530441603E+01 -0.25674909455E+02  0.31181947959E+02  0.50528859896E+02  0.30000000140E+02 0.  0.
         12    1    1    2    0    0 -0.46530441603E+01  0.25674909455E+02 -0.31181947959E+02  0.40659140104E+02  0.00000000000E+00 0. -1.
         11    1    3    3    0    0 -0.90869448837E+01 -0.13202322290E+02  0.18437380792E+02  0.24429713300E+02  0.51100000000E-03 0. -1.
        -11    1    3    3    0    0  0.47501390718E+01 -0.11874335501E+02  0.36557933480E+01  0.13301446916E+02  0.51100000000E-03 0.  1.
        -12    1    3    3    0    0  0.89898499722E+01 -0.59825166383E+00  0.90887738190E+01  0.12797699680E+02  0.00000000000E+00 0.  1.
</event>
<event>
 7    1  0.3250765E-011  0.5052887E+02  0.7816164E-02  0.1300439E+00
        -11   -1    0    0    0    0  0.00000000000E+00  0.00000000000E+00  0.45593999997E+02  0.45594000000E+02  0.51100000000E-03 0.  1.
         11   -1    0    0    0    0 -0.00000000000E+00 -0.00000000000E+00 -0.45593999997E+02  0.45594000000E+02  0.51100000000E-03 0. -1.
    9900012    2    1    2    0    0  0.29119444528E+02  0.16605950228E+01  0.28327815918E+02  0.50528870889E+02  0.30000033553E+02 0.  0.
         12    1    1    2    0    0 -0.29119444528E+02 -0.16605950228E+01 -0.28327815918E+02  0.40659129111E+02  0.00000000000E+00 0. -1.
         11    1    3    3    0    0  0.15991670474E+02  0.84746128781E+01  0.80491723096E+01  0.19807618815E+02  0.51100000000E-03 0. -1.
        -11    1    3    3    0    0 -0.24256726005E+00 -0.38469179803E+00 -0.30451180293E+01  0.30788911525E+01  0.51100000000E-03 0.  1.
        -12    1    3    3    0    0  0.13370341314E+02 -0.64293260573E+01  0.23323761637E+02  0.27642360922E+02  0.00000000000E+00 0.  1.
</event>
<event>
 7    1  0.3250765E-011  0.5052886E+02  0.7816164E-02  0.1300439E+00
        -11   -1    0    0    0    0  0.00000000000E+00  0.00000000000E+00  0.45593999997E+02  0.45594000000E+02  0.51100000000E-03 0.  1.
         11   -1    0    0    0    0 -0.00000000000E+00 -0.00000000000E+00 -0.45593999997E+02  0.45594000000E+02  0.51100000000E-03 0. -1.
    9900012    2    1    2    0    0  0.22794126970E+02  0.30443572934E+02  0.14379919660E+02  0.50528862691E+02  0.30000008635E+02 0.  0.
         12    1    1    2    0    0 -0.22794126970E+02 -0.30443572934E+02 -0.14379919660E+02  0.40659137309E+02  0.00000000000E+00 0. -1.
         11    1    3    3    0    0 -0.55847844920E+00  0.99616893236E+01  0.69658553362E+01  0.12168413750E+02  0.51100000000E-03 0. -1.
        -11    1    3    3    0    0  0.16086058989E+02  0.13120707589E+02  0.14933988873E+02  0.25572217060E+02  0.51100000000E-03 0.  1.
        -12    1    3    3    0    0  0.72665464308E+01  0.73611760206E+01 -0.75199245488E+01  0.12788231882E+02  0.00000000000E+00 0.  1.
</event>
<event>
 7    1  0.3250765E-011  0.5052886E+02  0.7816164E-02  0.1300439E+00
        -11   -1    0    0    0    0  0.00000000000E+00  0.00000000000E+00  0.45593999997E+02  0.45594000000E+02  0.51100000000E-03 0.  1.
         11   -1    0    0    0    0 -0.00000000000E+00 -0.00000000000E+00 -0.45593999997E+02  0.45594000000E+02  0.51100000000E-03 0. -1.
    9900012    2    1    2    0    0 -0.18204144915E+01 -0.20988625255E+02  0.34775414020E+02  0.50528859339E+02  0.29999998448E+02 0.  0.
         12    1    1    2    0    0  0.18204144915E+01  0.20988625255E+02 -0.34775414020E+02  0.40659140661E+02  0.00000000000E+00 0. -1.
         11    1    3    3    0    0 -0.94636747500E+01 -0.31383889050E+01  0.15563806496E+02  0.18483579134E+02  0.51100000000E-03 0. -1.
        -11    1    3    3    0    0  0.28450208612E+01 -0.15266663304E+02  0.42181500341E+01  0.16092170211E+02  0.51100000000E-03 0.  1.
         12    1    3    3    0    0  0.47982393973E+01 -0.25835730467E+01  0.14993457489E+02  0.15953109994E+02  0.00000000000E+00 0. -1.
</event>
<event>
 7    1  0.3250765E-011  0.5052886E+02  0.7816164E-02  0.1300439E+00
        -11   -1    0    0    0    0  0.00000000000E+00  0.00000000000E+00  0.45593999997E+02  0.45594000000E+02  0.51100000000E-03 0.  1.
         11   -1    0    0    0    0 -0.00000000000E+00 -0.00000000000E+00 -0.45593999997E+02  0.45594000000E+02  0.51100000000E-03 0. -1.
    9900012    2    1    2    0    0 -0.31239337636E+02 -0.25977796902E+02  0.15567822733E+01  0.50528859344E+02  0.29999998463E+02 0.  0.
         12    1    1    2    0    0  0.31239337636E+02  0.25977796902E+02 -0.15567822733E+01  0.40659140656E+02  0.00000000000E+00 0. -1.
         11    1    3    3    0    0 -0.27488102432E+01 -0.11132621783E+02  0.35983933177E+01  0.12018305216E+02  0.51100000000E-03 0. -1.
        -11    1    3    3    0    0 -0.13336906186E+02 -0.14895767804E+02  0.66134825968E+01  0.21059323764E+02  0.51100000000E-03 0.  1.
         12    1    3    3    0    0 -0.15153621207E+02  0.50592685226E-01 -0.86550936412E+01  0.17451230365E+02  0.00000000000E+00 0. -1.
</event>
<event>
 7    1  0.3250765E-011  0.5052886E+02  0.7816164E-02  0.1300439E+00
        -11   -1    0    0    0    0  0.00000000000E+00  0.00000000000E+00  0.45593999997E+02  0.45594000000E+02  0.51100000000E-03 0. -1.
         11   -1    0    0    0    0 -0.00000000000E+00 -0.00000000000E+00 -0.45593999997E+02  0.45594000000E+02  0.51100000000E-03 0.  1.
    9900012    2    1    2    0    0 -0.19224006630E+02  0.23629543006E+02 -0.26930430288E+02  0.50528858235E+02  0.29999995090E+02 0.  0.
         12    1    1    2    0    0  0.19224006630E+02 -0.23629543006E+02  0.26930430288E+02  0.40659141765E+02  0.00000000000E+00 0. -1.
         11    1    3    3    0    0 -0.20009797386E+02  0.92712432155E+01 -0.26238561569E+02  0.34275502267E+02  0.51100000000E-03 0.  1.
        -11    1    3    3    0    0  0.14497582604E+01 -0.31814462474E+00  0.35013173018E+00  0.15249942641E+01  0.51100000000E-03 0. -1.
        -12    1    3    3    0    0 -0.66396750471E+00  0.14676444416E+02 -0.10420004493E+01  0.14728361703E+02  0.00000000000E+00 0.  1.
</event>
<event>
 7    1  0.3250765E-011  0.5052887E+02  0.7816164E-02  0.1300439E+00
        -11   -1    0    0    0    0  0.00000000000E+00  0.00000000000E+00  0.45593999997E+02  0.45594000000E+02  0.51100000000E-03 0.  1.
         11   -1    0    0    0    0 -0.00000000000E+00 -0.00000000000E+00 -0.45593999997E+02  0.45594000000E+02  0.51100000000E-03 0. -1.
    9900012    2    1    2    0    0 -0.30564559466E+02 -0.57499093758E+01  0.26189911742E+02  0.50528865353E+02  0.30000016727E+02 0.  0.
         12    1    1    2    0    0  0.30564559466E+02  0.57499093758E+01 -0.26189911742E+02  0.40659134647E+02  0.00000000000E+00 0. -1.
         11    1    3    3    0    0 -0.10200869032E+02  0.43108361425E+00  0.46417852869E+01  0.11215602213E+02  0.51100000000E-03 0. -1.
        -11    1    3    3    0    0 -0.15021303911E+02 -0.10322240413E+02  0.25605323895E+02  0.31429617089E+02  0.51100000000E-03 0.  1.
         12    1    3    3    0    0 -0.53423865228E+01  0.41412474229E+01 -0.40571974406E+01  0.78836460504E+01  0.00000000000E+00 0. -1.
</event>
<event>
 7    1  0.3250765E-011  0.5052886E+02  0.7816164E-02  0.1300439E+00
        -11   -1    0    0    0    0  0.00000000000E+00  0.00000000000E+00  0.45593999997E+02  0.45594000000E+02  0.51100000000E-03 0. -1.
         11   -1    0    0    0    0 -0.00000000000E+00 -0.00000000000E+00 -0.45593999997E+02  0.45594000000E+02  0.51100000000E-03 0.  1.
    9900012    2    1    2    0    0  0.18095397344E+02  0.28760938060E+02 -0.22327800007E+02  0.50528860606E+02  0.30000002297E+02 0.  0.
         12    1    1    2    0    0 -0.18095397344E+02 -0.28760938060E+02  0.22327800007E+02  0.40659139394E+02  0.00000000000E+00 0. -1.
         11    1    3    3    0    0  0.63923346316E+01  0.15259400757E+02 -0.18202653716E+01  0.16644056590E+02  0.51100000000E-03 0. -1.
        -11    1    3    3    0    0  0.16230866970E+02  0.10612845940E+02 -0.20885787133E+02  0.28500695535E+02  0.51100000000E-03 0.  1.
         12    1    3    3    0    0 -0.45278042568E+01  0.28886913627E+01  0.37825249761E+00  0.53841084804E+01  0.00000000000E+00 0. -1.
</event>
<event>
 7    1  0.3250765E-011  0.5052882E+02  0.7816164E-02  0.1300439E+00
        -11   -1    0    0    0    0  0.00000000000E+00  0.00000000000E+00  0.45593999997E+02  0.45594000000E+02  0.51100000000E-03 0.  1.
         11   -1    0    0    0    0 -0.00000000000E+00 -0.00000000000E+00 -0.45593999997E+02  0.45594000000E+02  0.51100000000E-03 0. -1.
    9900012    2    1    2    0    0  0.38480915084E+01 -0.40428661259E+02  0.19710002329E+01  0.50528815289E+02  0.29999864553E+02 0.  0.
         12    1    1    2    0    0 -0.38480915084E+01  0.40428661259E+02 -0.19710002329E+01  0.40659184711E+02  0.00000000000E+00 0. -1.
         11    1    3    3    0    0 -0.28734526878E+01 -0.50371290074E+01  0.21359336426E+01  0.61799362273E+01  0.51100000000E-03 0. -1.
        -11    1    3    3    0    0  0.10577001267E+02 -0.88914547810E+01  0.84759103368E+01  0.16210243065E+02  0.51100000000E-03 0.  1.
         12    1    3    3    0    0 -0.38554570704E+01 -0.26500077470E+02 -0.86408437465E+01  0.28138635997E+02  0.00000000000E+00 0. -1.
</event>
<event>
 7    1  0.3250765E-011  0.5052886E+02  0.7816164E-02  0.1300439E+00
        -11   -1    0    0    0    0  0.00000000000E+00  0.00000000000E+00  0.45593999997E+02  0.45594000000E+02  0.51100000000E-03 0.  1.
         11   -1    0    0    0    0 -0.00000000000E+00 -0.00000000000E+00 -0.45593999997E+02  0.45594000000E+02  0.51100000000E-03 0. -1.
    9900012    2    1    2    0    0 -0.37865119856E+02 -0.42844756491E+01 -0.14178918832E+02  0.50528858684E+02  0.29999996456E+02 0.  0.
         12    1    1    2    0    0  0.37865119856E+02  0.42844756491E+01  0.14178918832E+02  0.40659141316E+02  0.00000000000E+00 0. -1.
         11    1    3    3    0    0 -0.27875779670E+02 -0.15278693238E+01  0.18391119342E+01  0.27978130921E+02  0.51100000000E-03 0. -1.
        -11    1    3    3    0    0 -0.10671973231E+02  0.54925263638E+00 -0.66336000355E+01  0.12577652435E+02  0.51100000000E-03 0.  1.
         12    1    3    3    0    0  0.68263304460E+00 -0.33058589617E+01 -0.93844307305E+01  0.99730753273E+01  0.00000000000E+00 0. -1.
</event>
<event>
 7    1  0.3250765E-011  0.5052887E+02  0.7816164E-02  0.1300439E+00
        -11   -1    0    0    0    0  0.00000000000E+00  0.00000000000E+00  0.45593999997E+02  0.45594000000E+02  0.51100000000E-03 0.  1.
         11   -1    0    0    0    0 -0.00000000000E+00 -0.00000000000E+00 -0.45593999997E+02  0.45594000000E+02  0.51100000000E-03 0. -1.
    9900012    2    1    2    0    0  0.13054682033E+02  0.12721967866E+02  0.36344072936E+02  0.50528870312E+02  0.30000031801E+02 0.  0.
         12    1    1    2    0    0 -0.13054682033E+02 -0.12721967866E+02 -0.36344072936E+02  0.40659129688E+02  0.00000000000E+00 0. -1.
         11    1    3    3    0    0  0.46204273101E-02  0.31494233129E+01  0.28574394720E+02  0.28747433319E+02  0.51100000000E-03 0.  1.
        -11    1    3    3    0    0  0.65285194236E+00 -0.14543332038E+00 -0.27561682006E+01  0.28361646497E+01  0.51100000000E-03 0. -1.
        -12    1    3    3    0    0  0.12397209663E+02  0.97179778735E+01  0.10525846417E+02  0.18945272344E+02  0.00000000000E+00 0.  1.
</event>
<event>
 7    1  0.3250765E-011  0.5052885E+02  0.7816164E-02  0.1300439E+00
        -11   -1    0    0    0    0  0.00000000000E+00  0.00000000000E+00  0.45593999997E+02  0.45594000000E+02  0.51100000000E-03 0. -1.
         11   -1    0    0    0    0 -0.00000000000E+00 -0.00000000000E+00 -0.45593999997E+02  0.45594000000E+02  0.51100000000E-03 0.  1.
    9900012    2    1    2    0    0 -0.86497448616E+01 -0.37058255389E+02  0.14318999020E+02  0.50528854515E+02  0.29999983783E+02 0.  0.
         12    1    1    2    0    0  0.86497448616E+01  0.37058255389E+02 -0.14318999020E+02  0.40659145485E+02  0.00000000000E+00 0. -1.
         11    1    3    3    0    0 -0.56823892794E+01 -0.96335821048E+01 -0.70434838405E+01  0.13217644153E+02  0.51100000000E-03 0. -1.
        -11    1    3    3    0    0 -0.38272364717E+01 -0.13553571313E+02  0.32017825909E+01  0.14442937595E+02  0.51100000000E-03 0.  1.
        -12    1    3    3    0    0  0.85988088949E+00 -0.13871101971E+02  0.18160700269E+02  0.22868272766E+02  0.00000000000E+00 0.  1.
</event>
<event>
 7    1  0.3250765E-011  0.5052887E+02  0.7816164E-02  0.1300439E+00
        -11   -1    0    0    0    0  0.00000000000E+00  0.00000000000E+00  0.45593999997E+02  0.45594000000E+02  0.51100000000E-03 0.  1.
         11   -1    0    0    0    0 -0.00000000000E+00 -0.00000000000E+00 -0.45593999997E+02  0.45594000000E+02  0.51100000000E-03 0. -1.
    9900012    2    1    2    0    0 -0.20566930679E+02 -0.19146314939E+02  0.29386816853E+02  0.50528867962E+02  0.30000024659E+02 0.  0.
         12    1    1    2    0    0  0.20566930679E+02  0.19146314939E+02 -0.29386816853E+02  0.40659132038E+02  0.00000000000E+00 0. -1.
         11    1    3    3    0    0 -0.15739277176E+01 -0.90646998564E+01  0.34266854021E+00  0.92067070083E+01  0.51100000000E-03 0. -1.
        -11    1    3    3    0    0 -0.39715039095E+01 -0.13348353558E+02  0.15458321983E+02  0.20806515922E+02  0.51100000000E-03 0.  1.
        -12    1    3    3    0    0 -0.15021499052E+02  0.32667384753E+01  0.13585826330E+02  0.20515645032E+02  0.00000000000E+00 0.  1.
</event>
<event>
 7    1  0.3250765E-011  0.5052883E+02  0.7816164E-02  0.1300439E+00
        -11   -1    0    0    0    0  0.00000000000E+00  0.00000000000E+00  0.45593999997E+02  0.45594000000E+02  0.51100000000E-03 0.  1.
         11   -1    0    0    0    0 -0.00000000000E+00 -0.00000000000E+00 -0.45593999997E+02  0.45594000000E+02  0.51100000000E-03 0. -1.
    9900012    2    1    2    0    0  0.19598840205E+02  0.32262224080E+02 -0.15106373194E+02  0.50528829435E+02  0.29999907551E+02 0.  0.
         12    1    1    2    0    0 -0.19598840205E+02 -0.32262224080E+02  0.15106373194E+02  0.40659170565E+02  0.00000000000E+00 0. -1.
         11    1    3    3    0    0  0.10313813146E+02  0.10778966888E+02 -0.12742721228E+02  0.19619832143E+02  0.51100000000E-03 0. -1.
        -11    1    3    3    0    0  0.14481450158E+02  0.20499845398E+02 -0.39036612832E+01  0.25400681717E+02  0.51100000000E-03 0.  1.
         12    1    3    3    0    0 -0.51964230984E+01  0.98341179382E+00  0.15400093174E+01  0.55083155748E+01  0.00000000000E+00 0. -1.
</event>
<event>
 7    1  0.3250765E-011  0.5052883E+02  0.7816164E-02  0.1300439E+00
        -11   -1    0    0    0    0  0.00000000000E+00  0.00000000000E+00  0.45593999997E+02  0.45594000000E+02  0.51100000000E-03 0.  1.
         11   -1    0    0    0    0 -0.00000000000E+00 -0.00000000000E+00 -0.45593999997E+02  0.45594000000E+02  0.51100000000E-03 0. -1.
    9900012    2    1    2    0    0  0.43199603094E+01  0.60865368006E+01  0.39968237518E+02  0.50528831322E+02  0.29999913286E+02 0.  0.
         12    1    1    2    0    0 -0.43199603094E+01 -0.60865368006E+01 -0.39968237518E+02  0.40659168678E+02  0.00000000000E+00 0. -1.
         11    1    3    3    0    0  0.11061372859E+01  0.10138446760E+02  0.45952530297E+01  0.11186062447E+02  0.51100000000E-03 0. -1.
        -11    1    3    3    0    0  0.99380220487E+01 -0.16533513326E+01  0.21306309354E+02  0.23568128297E+02  0.51100000000E-03 0.  1.
         12    1    3    3    0    0 -0.67241990252E+01 -0.23985586273E+01  0.14066675134E+02  0.15774640577E+02  0.00000000000E+00 0. -1.
</event>
<event>
 7    1  0.3250765E-011  0.5052886E+02  0.7816164E-02  0.1300439E+00
        -11   -1    0    0    0    0  0.00000000000E+00  0.00000000000E+00  0.45593999997E+02  0.45594000000E+02  0.51100000000E-03 0.  1.
         11   -1    0    0    0    0 -0.00000000000E+00 -0.00000000000E+00 -0.45593999997E+02  0.45594000000E+02  0.51100000000E-03 0. -1.
    9900012    2    1    2    0    0 -0.39494148783E+02  0.44593268121E+01  0.85727537673E+01  0.50528862148E+02  0.30000006986E+02 0.  0.
         12    1    1    2    0    0  0.39494148783E+02 -0.44593268121E+01 -0.85727537673E+01  0.40659137852E+02  0.00000000000E+00 0. -1.
         11    1    3    3    0    0 -0.64335629877E+01 -0.43029819206E+01  0.60154513932E+01  0.98026548369E+01  0.51100000000E-03 0. -1.
        -11    1    3    3    0    0 -0.27056905086E+02  0.35905213483E+01  0.10744027330E+02  0.29332611202E+02  0.51100000000E-03 0.  1.
        -12    1    3    3    0    0 -0.60036807088E+01  0.51717873845E+01 -0.81867249561E+01  0.11393596110E+02  0.00000000000E+00 0.  1.
</event>
<event>
 7    1  0.3250765E-011  0.5052888E+02  0.7816164E-02  0.1300439E+00
        -11   -1    0    0    0    0  0.00000000000E+00  0.00000000000E+00  0.45593999997E+02  0.45594000000E+02  0.51100000000E-03 0.  1.
         11   -1    0    0    0    0 -0.00000000000E+00 -0.00000000000E+00 -0.45593999997E+02  0.45594000000E+02  0.51100000000E-03 0. -1.
    9900012    2    1    2    0    0 -0.15966114210E+02  0.13637384569E+02  0.34817656524E+02  0.50528877203E+02  0.30000052746E+02 0.  0.
         12    1    1    2    0    0  0.15966114210E+02 -0.13637384569E+02 -0.34817656524E+02  0.40659122797E+02  0.00000000000E+00 0. -1.
         11    1    3    3    0    0  0.36559477356E+01  0.56138245795E+01  0.12331409569E+01  0.68118732472E+01  0.51100000000E-03 0. -1.
        -11    1    3    3    0    0 -0.12150163123E+02  0.24147766907E+00  0.29968403270E+02  0.32338676074E+02  0.51100000000E-03 0.  1.
         12    1    3    3    0    0 -0.74718988222E+01  0.77820823200E+01  0.36161122962E+01  0.11378327882E+02  0.00000000000E+00 0. -1.
</event>
<event>
 7    1  0.3250765E-011  0.5052886E+02  0.7816164E-02  0.1300439E+00
        -11   -1    0    0    0    0  0.00000000000E+00  0.00000000000E+00  0.45593999997E+02  0.45594000000E+02  0.51100000000E-03 0.  1.
         11   -1    0    0    0    0 -0.00000000000E+00 -0.00000000000E+00 -0.45593999997E+02  0.45594000000E+02  0.51100000000E-03 0. -1.
    9900012    2    1    2    0    0  0.18192837427E+02 -0.27773300967E+02  0.23469761217E+02  0.50528864842E+02  0.30000015172E+02 0.  0.
         12    1    1    2    0    0 -0.18192837427E+02  0.27773300967E+02 -0.23469761217E+02  0.40659135158E+02  0.00000000000E+00 0. -1.
         11    1    3    3    0    0  0.97259662512E+01 -0.76479272000E+01  0.18888652224E+02  0.22580221281E+02  0.51100000000E-03 0.  1.
        -11    1    3    3    0    0  0.97163865113E+01 -0.15930582270E+02  0.98490434710E+01  0.21099651084E+02  0.51100000000E-03 0. -1.
         12    1    3    3    0    0 -0.12495153360E+01 -0.41947914971E+01 -0.52679344784E+01  0.68489924768E+01  0.00000000000E+00 0. -1.
</event>
<event>
 7    1  0.3250765E-011  0.5052885E+02  0.7816164E-02  0.1300439E+00
        -11   -1    0    0    0    0  0.00000000000E+00  0.00000000000E+00  0.45593999997E+02  0.45594000000E+02  0.51100000000E-03 0.  1.
         11   -1    0    0    0    0 -0.00000000000E+00 -0.00000000000E+00 -0.45593999997E+02  0.45594000000E+02  0.51100000000E-03 0. -1.
    9900012    2    1    2    0    0 -0.53637422926E+01 -0.22380182629E+02  0.33519013033E+02  0.50528849239E+02  0.29999967748E+02 0.  0.
         12    1    1    2    0    0  0.53637422926E+01  0.22380182629E+02 -0.33519013033E+02  0.40659150761E+02  0.00000000000E+00 0. -1.
         11    1    3    3    0    0 -0.62724331737E+00  0.77759265014E+00  0.33808076702E+01  0.35253291013E+01  0.51100000000E-03 0. -1.
        -11    1    3    3    0    0  0.40581833854E+01 -0.13202963583E+02 -0.27579927232E+00  0.13815323567E+02  0.51100000000E-03 0.  1.
        -12    1    3    3    0    0 -0.87946823606E+01 -0.99548116966E+01  0.30414004635E+02  0.33188196571E+02  0.00000000000E+00 0.  1.
</event>
<event>
 7    1  0.3250765E-011  0.5052886E+02  0.7816164E-02  0.1300439E+00
        -11   -1    0    0    0    0  0.00000000000E+00  0.00000000000E+00  0.45593999997E+02  0.45594000000E+02  0.51100000000E-03 0.  1.
         11   -1    0    0    0    0 -0.00000000000E+00 -0.00000000000E+00 -0.45593999997E+02  0.45594000000E+02  0.51100000000E-03 0. -1.
    9900012    2    1    2    0    0 -0.28861696425E+01  0.40512579814E+02 -0.18886163211E+01  0.50528856256E+02  0.29999989075E+02 0.  0.
         12    1    1    2    0    0  0.28861696425E+01 -0.40512579814E+02  0.18886163211E+01  0.40659143744E+02  0.00000000000E+00 0. -1.
         11    1    3    3    0    0 -0.12599342244E+02  0.22441424903E+02  0.16261782656E+01  0.25787699251E+02  0.51100000000E-03 0. -1.
        -11    1    3    3    0    0  0.12326735204E+01  0.14941976748E+02 -0.44866508741E+01  0.15649670587E+02  0.51100000000E-03 0.  1.
         12    1    3    3    0    0  0.84804990810E+01  0.31291781631E+01  0.97185628736E+00  0.90914864177E+01  0.00000000000E+00 0. -1.
</event>
<event>
 7    1  0.3250765E-011  0.5052886E+02  0.7816164E-02  0.1300439E+00
        -11   -1    0    0    0    0  0.00000000000E+00  0.00000000000E+00  0.45593999997E+02  0.45594000000E+02  0.51100000000E-03 0.  1.
         11   -1    0    0    0    0 -0.00000000000E+00 -0.00000000000E+00 -0.45593999997E+02  0.45594000000E+02  0.51100000000E-03 0. -1.
    9900012    2    1    2    0    0  0.21232762740E+02 -0.30769243473E+02  0.15987154138E+02  0.50528860130E+02  0.30000000852E+02 0.  0.
         12    1    1    2    0    0 -0.21232762740E+02  0.30769243473E+02 -0.15987154138E+02  0.40659139870E+02  0.00000000000E+00 0. -1.
         11    1    3    3    0    0  0.16031222932E+01 -0.16995323509E+01 -0.31271935489E+01  0.39035562058E+01  0.51100000000E-03 0. -1.
        -11    1    3    3    0    0  0.36213821973E+01 -0.35089085194E+00  0.12589939724E+02  0.13105117929E+02  0.51100000000E-03 0.  1.
        -12    1    3    3    0    0  0.16008258250E+02 -0.28718820271E+02  0.65244079628E+01  0.33520185996E+02  0.00000000000E+00 0.  1.
</event>
<event>
 7    1  0.3250765E-011  0.5052886E+02  0.7816164E-02  0.1300439E+00
        -11   -1    0    0    0    0  0.00000000000E+00  0.00000000000E+00  0.45593999997E+02  0.45594000000E+02  0.51100000000E-03 0. -1.
         11   -1    0    0    0    0 -0.00000000000E+00 -0.00000000000E+00 -0.45593999997E+02  0.45594000000E+02  0.51100000000E-03 0.  1.
    9900012    2    1    2    0    0 -0.13463810795E+02  0.59523966612E+00 -0.38360624282E+02  0.50528855805E+02  0.29999987704E+02 0.  0.
         12    1    1    2    0    0  0.13463810795E+02 -0.59523966612E+00  0.38360624282E+02  0.40659144195E+02  0.00000000000E+00 0. -1.
         11    1    3    3    0    0 -0.14258755652E+02  0.12262177507E+01 -0.11028933446E+02  0.18068013060E+02  0.51100000000E-03 0. -1.
        -11    1    3    3    0    0  0.69317198424E+01 -0.31578537118E+00 -0.24905986216E+02  0.25854527844E+02  0.51100000000E-03 0.  1.
         12    1    3    3    0    0 -0.61367749858E+01 -0.31519271341E+00 -0.24257046205E+01  0.66063149016E+01  0.00000000000E+00 0. -1.
</event>
<event>
 7    1  0.3250765E-011  0.5052887E+02  0.7816164E-02  0.1300439E+00
        -11   -1    0    0    0    0  0.00000000000E+00  0.00000000000E+00  0.45593999997E+02  0.45594000000E+02  0.51100000000E-03 0.  1.
         11   -1    0    0    0    0 -0.00000000000E+00 -0.00000000000E+00 -0.45593999997E+02  0.45594000000E+02  0.51100000000E-03 0. -1.
    9900012    2    1    2    0    0  0.13704516701E+02  0.23758768380E+02  0.30014535426E+02  0.50528865851E+02  0.30000018241E+02 0.  0.
         12    1    1    2    0    0 -0.13704516701E+02 -0.23758768380E+02 -0.30014535426E+02  0.40659134149E+02  0.00000000000E+00 0. -1.
         11    1    3    3    0    0  0.16606911024E+01  0.12945033995E+02  0.36271047485E+01  0.13545762776E+02  0.51100000000E-03 0. -1.
        -11    1    3    3    0    0 -0.36778624269E+01 -0.22292971341E+01  0.10325321768E+01  0.44229583652E+01  0.51100000000E-03 0.  1.
        -12    1    3    3    0    0  0.15721688025E+02  0.13043031519E+02  0.25354898500E+02  0.32560144710E+02  0.00000000000E+00 0.  1.
</event>
<event>
 7    1  0.3250765E-011  0.5052885E+02  0.7816164E-02  0.1300439E+00
        -11   -1    0    0    0    0  0.00000000000E+00  0.00000000000E+00  0.45593999997E+02  0.45594000000E+02  0.51100000000E-03 0.  1.
         11   -1    0    0    0    0 -0.00000000000E+00 -0.00000000000E+00 -0.45593999997E+02  0.45594000000E+02  0.51100000000E-03 0. -1.
    9900012    2    1    2    0    0  0.24037853324E+02  0.29377069211E+02  0.14571739408E+02  0.50528853707E+02  0.29999981328E+02 0.  0.
         12    1    1    2    0    0 -0.24037853324E+02 -0.29377069211E+02 -0.14571739408E+02  0.40659146293E+02  0.00000000000E+00 0. -1.
         11    1    3    3    0    0  0.15020130484E+02  0.11551013153E+01  0.52536049239E+01  0.15954276661E+02  0.51100000000E-03 0.  1.
        -11    1    3    3    0    0  0.18005685331E+01  0.33354706591E+01  0.77356974146E+01  0.86144312820E+01  0.51100000000E-03 0. -1.
         12    1    3    3    0    0  0.72171543070E+01  0.24886497237E+02  0.15824370697E+01  0.25960145764E+02  0.00000000000E+00 0. -1.
</event>
<event>
 7    1  0.3250765E-011  0.5052886E+02  0.7816164E-02  0.1300439E+00
        -11   -1    0    0    0    0  0.00000000000E+00  0.00000000000E+00  0.45593999997E+02  0.45594000000E+02  0.51100000000E-03 0. -1.
         11   -1    0    0    0    0 -0.00000000000E+00 -0.00000000000E+00 -0.45593999997E+02  0.45594000000E+02  0.51100000000E-03 0.  1.
    9900012    2    1    2    0    0 -0.17021302919E+02  0.30995137617E+02 -0.20068441189E+02  0.50528860305E+02  0.30000001384E+02 0.  0.
         12    1    1    2    0    0  0.17021302919E+02 -0.30995137617E+02  0.20068441189E+02  0.40659139695E+02  0.00000000000E+00 0. -1.
         11    1    3    3    0    0 -0.17266837429E+02  0.26957048892E+02 -0.14421852138E+02  0.35111479307E+02  0.51100000000E-03 0. -1.
        -11    1    3    3    0    0 -0.58212450406E+01  0.55565051650E+01 -0.37788825049E+01  0.88905341076E+01  0.51100000000E-03 0.  1.
         12    1    3    3    0    0  0.60667795505E+01 -0.15184164399E+01 -0.18677065461E+01  0.65268468912E+01  0.00000000000E+00 0. -1.
</event>
<event>
 7    1  0.3250765E-011  0.5052887E+02  0.7816164E-02  0.1300439E+00
        -11   -1    0    0    0    0  0.00000000000E+00  0.00000000000E+00  0.45593999997E+02  0.45594000000E+02  0.51100000000E-03 0. -1.
         11   -1    0    0    0    0 -0.00000000000E+00 -0.00000000000E+00 -0.45593999997E+02  0.45594000000E+02  0.51100000000E-03 0.  1.
    9900012    2    1    2    0    0  0.20030556054E+02 -0.23052625353E+02 -0.26842466490E+02  0.50528871643E+02  0.30000035846E+02 0.  0.
         12    1    1    2    0    0 -0.20030556054E+02  0.23052625353E+02  0.26842466490E+02  0.40659128357E+02  0.00000000000E+00 0. -1.
         11    1    3    3    0    0  0.55037004633E+01 -0.14134068783E+02 -0.15512068618E+02  0.21695319593E+02  0.51100000000E-03 0.  1.
        -11    1    3    3    0    0  0.46254747615E+01  0.64160000365E+01 -0.56377041068E+01  0.97130726907E+01  0.51100000000E-03 0. -1.
         12    1    3    3    0    0  0.99013808295E+01 -0.15334556606E+02 -0.56926937648E+01  0.19120479359E+02  0.00000000000E+00 0. -1.
</event>
<event>
 7    1  0.3250765E-011  0.5052886E+02  0.7816164E-02  0.1300439E+00
        -11   -1    0    0    0    0  0.00000000000E+00  0.00000000000E+00  0.45593999997E+02  0.45594000000E+02  0.51100000000E-03 0. -1.
         11   -1    0    0    0    0 -0.00000000000E+00 -0.00000000000E+00 -0.45593999997E+02  0.45594000000E+02  0.51100000000E-03 0.  1.
    9900012    2    1    2    0    0  0.98345709089E+01  0.16461928626E+02 -0.35853196586E+02  0.50528860997E+02  0.30000003487E+02 0.  0.
         12    1    1    2    0    0 -0.98345709089E+01 -0.16461928626E+02  0.35853196586E+02  0.40659139003E+02  0.00000000000E+00 0. -1.
         11    1    3    3    0    0  0.14744333522E+01  0.27717297572E+01 -0.21293699876E+02  0.21523895888E+02  0.51100000000E-03 0. -1.
        -11    1    3    3    0    0 -0.47408679853E+01 -0.13922525556E+01 -0.42826986282E+01  0.65387846144E+01  0.51100000000E-03 0.  1.
         12    1    3    3    0    0  0.13101005542E+02  0.15082451425E+02 -0.10276798082E+02  0.22466180494E+02  0.00000000000E+00 0. -1.
</event>
<event>
 7    1  0.3250765E-011  0.5052885E+02  0.7816164E-02  0.1300439E+00
        -11   -1    0    0    0    0  0.00000000000E+00  0.00000000000E+00  0.45593999997E+02  0.45594000000E+02  0.51100000000E-03 0.  1.
         11   -1    0    0    0    0 -0.00000000000E+00 -0.00000000000E+00 -0.45593999997E+02  0.45594000000E+02  0.51100000000E-03 0. -1.
    9900012    2    1    2    0    0 -0.64637578756E+01  0.34136208379E+02 -0.21121212029E+02  0.50528849912E+02  0.29999969791E+02 0.  0.
         12    1    1    2    0    0  0.64637578756E+01 -0.34136208379E+02  0.21121212029E+02  0.40659150088E+02  0.00000000000E+00 0. -1.
         11    1    3    3    0    0  0.42653794574E+01  0.17105181340E+01 -0.76018925141E+01  0.88830233738E+01  0.51100000000E-03 0. -1.
        -11    1    3    3    0    0  0.46223083187E+01  0.96302161376E+01  0.69525156784E+00  0.10704679914E+02  0.51100000000E-03 0.  1.
         12    1    3    3    0    0 -0.15351445652E+02  0.22795474107E+02 -0.14214571082E+02  0.30941146624E+02  0.00000000000E+00 0. -1.
</event>
<event>
 7    1  0.3250765E-011  0.5052887E+02  0.7816164E-02  0.1300439E+00
        -11   -1    0    0    0    0  0.00000000000E+00  0.00000000000E+00  0.45593999997E+02  0.45594000000E+02  0.51100000000E-03 0.  1.
         11   -1    0    0    0    0 -0.00000000000E+00 -0.00000000000E+00 -0.45593999997E+02  0.45594000000E+02  0.51100000000E-03 0. -1.
    9900012    2    1    2    0    0 -0.30006727784E+02 -0.27388511205E+02  0.16220141650E+01  0.50528865869E+02  0.30000018296E+02 0.  0.
         12    1    1    2    0    0  0.30006727784E+02  0.27388511205E+02 -0.16220141650E+01  0.40659134131E+02  0.00000000000E+00 0. -1.
         11    1    3    3    0    0 -0.92397203682E+01 -0.18048102083E+02  0.72374988269E+00  0.20288672589E+02  0.51100000000E-03 0. -1.
        -11    1    3    3    0    0 -0.19316462848E+02 -0.12802320644E+02 -0.45577290816E+01  0.23617748527E+02  0.51100000000E-03 0.  1.
        -12    1    3    3    0    0 -0.14505445671E+01  0.34619115216E+01  0.54559933639E+01  0.66224447534E+01  0.00000000000E+00 0.  1.
</event>
<event>
 7    1  0.3250765E-011  0.5052886E+02  0.7816164E-02  0.1300439E+00
        -11   -1    0    0    0    0  0.00000000000E+00  0.00000000000E+00  0.45593999997E+02  0.45594000000E+02  0.51100000000E-03 0.  1.
         11   -1    0    0    0    0 -0.00000000000E+00 -0.00000000000E+00 -0.45593999997E+02  0.45594000000E+02  0.51100000000E-03 0. -1.
    9900012    2    1    2    0    0 -0.66398554745E+01  0.15927641881E+02  0.36815600980E+02  0.50528856722E+02  0.29999990491E+02 0.  0.
         12    1    1    2    0    0  0.66398554745E+01 -0.15927641881E+02 -0.36815600980E+02  0.40659143278E+02  0.00000000000E+00 0. -1.
         11    1    3    3    0    0  0.27519948777E+01  0.30637175127E-01 -0.19528944516E+01  0.33746424172E+01  0.51100000000E-03 0. -1.
        -11    1    3    3    0    0 -0.81286613415E+01 -0.20560463978E+01  0.85015170425E+01  0.11940613648E+02  0.51100000000E-03 0.  1.
        -12    1    3    3    0    0 -0.12631890107E+01  0.17953051104E+02  0.30266978389E+02  0.35213600657E+02  0.00000000000E+00 0.  1.
</event>
<event>
 7    1  0.3250765E-011  0.5052883E+02  0.7816164E-02  0.1300439E+00
        -11   -1    0    0    0    0  0.00000000000E+00  0.00000000000E+00  0.45593999997E+02  0.45594000000E+02  0.51100000000E-03 0. -1.
         11   -1    0    0    0    0 -0.00000000000E+00 -0.00000000000E+00 -0.45593999997E+02  0.45594000000E+02  0.51100000000E-03 0.  1.
    9900012    2    1    2    0    0  0.34374858959E+02  0.13655320182E+02 -0.16884003717E+02  0.50528827858E+02  0.29999902758E+02 0.  0.
         12    1    1    2    0    0 -0.34374858959E+02 -0.13655320182E+02  0.16884003717E+02  0.40659172142E+02  0.00000000000E+00 0. -1.
         11    1    3    3    0    0  0.11201023586E+01  0.53719141738E+01 -0.38430442253E+01  0.66993343224E+01  0.51100000000E-03 0. -1.
        -11    1    3    3    0    0  0.22057745378E+01 -0.50261000077E+01  0.31928505364E+01  0.63499147560E+01  0.51100000000E-03 0.  1.
        -12    1    3    3    0    0  0.31048982063E+02  0.13309506016E+02 -0.16233810028E+02  0.37479578780E+02  0.00000000000E+00 0.  1.
</event>
<event>
 7    1  0.3250765E-011  0.5052887E+02  0.7816164E-02  0.1300439E+00
        -11   -1    0    0    0    0  0.00000000000E+00  0.00000000000E+00  0.45593999997E+02  0.45594000000E+02  0.51100000000E-03 0.  1.
         11   -1    0    0    0    0 -0.00000000000E+00 -0.00000000000E+00 -0.45593999997E+02  0.45594000000E+02  0.51100000000E-03 0. -1.
    9900012    2    1    2    0    0 -0.18156877553E+02 -0.48672042581E+01  0.36052778985E+02  0.50528871230E+02  0.30000034592E+02 0.  0.
         12    1    1    2    0    0  0.18156877553E+02  0.48672042581E+01 -0.36052778985E+02  0.40659128770E+02  0.00000000000E+00 0. -1.
         11    1    3    3    0    0 -0.11772214153E+02 -0.35234870881E+01  0.18179100291E+01  0.12421947691E+02  0.51100000000E-03 0. -1.
        -11    1    3    3    0    0 -0.10921325229E+02 -0.17577684612E+01  0.17015378959E+02  0.20295029345E+02  0.51100000000E-03 0.  1.
         12    1    3    3    0    0  0.45366618291E+01  0.41405129109E+00  0.17219489997E+02  0.17811894194E+02  0.00000000000E+00 0. -1.
</event>
<event>
 7    1  0.3250765E-011  0.5052887E+02  0.7816164E-02  0.1300439E+00
        -11   -1    0    0    0    0  0.00000000000E+00  0.00000000000E+00  0.45593999997E+02  0.45594000000E+02  0.51100000000E-03 0.  1.
         11   -1    0    0    0    0 -0.00000000000E+00 -0.00000000000E+00 -0.45593999997E+02  0.45594000000E+02  0.51100000000E-03 0. -1.
    9900012    2    1    2    0    0 -0.35793609933E+02  0.81855877914E+01 -0.17463644209E+02  0.50528865373E+02  0.30000016789E+02 0.  0.
         12    1    1    2    0    0  0.35793609933E+02 -0.81855877914E+01  0.17463644209E+02  0.40659134627E+02  0.00000000000E+00 0. -1.
         11    1    3    3    0    0  0.95324117227E+00  0.39148850999E+01 -0.48682798074E+01  0.63194258142E+01  0.51100000000E-03 0. -1.
        -11    1    3    3    0    0 -0.81920261745E+01  0.62748996334E+01  0.40628403260E+01  0.11090100542E+02  0.51100000000E-03 0.  1.
        -12    1    3    3    0    0 -0.28554824931E+02 -0.20041969419E+01 -0.16658204727E+02  0.33119339017E+02  0.00000000000E+00 0.  1.
</event>
<event>
 7    1  0.3250765E-011  0.5052885E+02  0.7816164E-02  0.1300439E+00
        -11   -1    0    0    0    0  0.00000000000E+00  0.00000000000E+00  0.45593999997E+02  0.45594000000E+02  0.51100000000E-03 0.  1.
         11   -1    0    0    0    0 -0.00000000000E+00 -0.00000000000E+00 -0.45593999997E+02  0.45594000000E+02  0.51100000000E-03 0. -1.
    9900012    2    1    2    0    0  0.26082650187E+02  0.25596167363E+02  0.17824080242E+02  0.50528852678E+02  0.29999978200E+02 0.  0.
         12    1    1    2    0    0 -0.26082650187E+02 -0.25596167363E+02 -0.17824080242E+02  0.40659147322E+02  0.00000000000E+00 0. -1.
         11    1    3    3    0    0  0.83246110339E+01  0.34489431563E+01  0.99733985790E+01  0.13441095091E+02  0.51100000000E-03 0. -1.
        -11    1    3    3    0    0  0.49432472026E+01  0.10476043421E+02 -0.76112038243E+01  0.13860505135E+02  0.51100000000E-03 0.  1.
         12    1    3    3    0    0  0.12814791950E+02  0.11671180785E+02  0.15461885488E+02  0.23227252453E+02  0.00000000000E+00 0. -1.
</event>
<event>
 7    1  0.3250765E-011  0.5052886E+02  0.7816164E-02  0.1300439E+00
        -11   -1    0    0    0    0  0.00000000000E+00  0.00000000000E+00  0.45593999997E+02  0.45594000000E+02  0.51100000000E-03 0. -1.
         11   -1    0    0    0    0 -0.00000000000E+00 -0.00000000000E+00 -0.45593999997E+02  0.45594000000E+02  0.51100000000E-03 0.  1.
    9900012    2    1    2    0    0  0.14432418517E+02  0.27455399459E+02 -0.26288241312E+02  0.50528864557E+02  0.30000014306E+02 0.  0.
         12    1    1    2    0    0 -0.14432418517E+02 -0.27455399459E+02  0.26288241312E+02  0.40659135443E+02  0.00000000000E+00 0. -1.
         11    1    3    3    0    0  0.61480986338E+01  0.18827585452E+00 -0.19966908009E+02  0.20892869126E+02  0.51100000000E-03 0. -1.
        -11    1    3    3    0    0  0.39127087211E+01  0.14032718412E+02 -0.58250923696E+01  0.15689428828E+02  0.51100000000E-03 0.  1.
        -12    1    3    3    0    0  0.43716111625E+01  0.13234405193E+02 -0.49624093376E+00  0.13946566603E+02  0.00000000000E+00 0.  1.
</event>
<event>
 7    1  0.3250765E-011  0.5052886E+02  0.7816164E-02  0.1300439E+00
        -11   -1    0    0    0    0  0.00000000000E+00  0.00000000000E+00  0.45593999997E+02  0.45594000000E+02  0.51100000000E-03 0.  1.
         11   -1    0    0    0    0 -0.00000000000E+00 -0.00000000000E+00 -0.45593999997E+02  0.45594000000E+02  0.51100000000E-03 0. -1.
    9900012    2    1    2    0    0 -0.12641606035E+02 -0.25299957669E+01  0.38561054928E+02  0.50528855409E+02  0.29999986502E+02 0.  0.
         12    1    1    2    0    0  0.12641606035E+02  0.25299957669E+01 -0.38561054928E+02  0.40659144591E+02  0.00000000000E+00 0. -1.
         11    1    3    3    0    0  0.27638845146E+00  0.76144422508E+01  0.15599158342E+02  0.17360583590E+02  0.51100000000E-03 0.  1.
        -11    1    3    3    0    0  0.22516340831E+01 -0.83318404774E+01  0.75429966125E+01  0.11462382821E+02  0.51100000000E-03 0. -1.
        -12    1    3    3    0    0 -0.15169628569E+02 -0.18125975403E+01  0.15418899973E+02  0.21705888997E+02  0.00000000000E+00 0.  1.
</event>
<event>
 7    1  0.3250765E-011  0.5052886E+02  0.7816164E-02  0.1300439E+00
        -11   -1    0    0    0    0  0.00000000000E+00  0.00000000000E+00  0.45593999997E+02  0.45594000000E+02  0.51100000000E-03 0.  1.
         11   -1    0    0    0    0 -0.00000000000E+00 -0.00000000000E+00 -0.45593999997E+02  0.45594000000E+02  0.51100000000E-03 0. -1.
    9900012    2    1    2    0    0  0.28430757317E+02  0.16144635469E+02  0.24170399780E+02  0.50528862754E+02  0.30000008827E+02 0.  0.
         12    1    1    2    0    0 -0.28430757317E+02 -0.16144635469E+02 -0.24170399780E+02  0.40659137246E+02  0.00000000000E+00 0. -1.
         11    1    3    3    0    0  0.28993556814E+02  0.10317270184E+02  0.10095828389E+02  0.32388240951E+02  0.51100000000E-03 0. -1.
        -11    1    3    3    0    0  0.24423729531E+01  0.28774058980E+01  0.35679886789E+00  0.37910362749E+01  0.51100000000E-03 0.  1.
        -12    1    3    3    0    0 -0.30051724492E+01  0.29499593867E+01  0.13717772523E+02  0.14349585528E+02  0.00000000000E+00 0.  1.
</event>
<event>
 7    1  0.3250765E-011  0.5052885E+02  0.7816164E-02  0.1300439E+00
        -11   -1    0    0    0    0  0.00000000000E+00  0.00000000000E+00  0.45593999997E+02  0.45594000000E+02  0.51100000000E-03 0.  1.
         11   -1    0    0    0    0 -0.00000000000E+00 -0.00000000000E+00 -0.45593999997E+02  0.45594000000E+02  0.51100000000E-03 0. -1.
    9900012    2    1    2    0    0 -0.30790233957E+02 -0.93333634416E+01  0.24859932640E+02  0.50528850585E+02  0.29999971840E+02 0.  0.
         12    1    1    2    0    0  0.30790233957E+02  0.93333634416E+01 -0.24859932640E+02  0.40659149415E+02  0.00000000000E+00 0. -1.
         11    1    3    3    0    0  0.23951866771E+01 -0.62270890890E+01 -0.16805523269E+01  0.68802481151E+01  0.51100000000E-03 0. -1.
        -11    1    3    3    0    0 -0.92986303863E+01 -0.50100766685E+01  0.98832844373E+01  0.14465293181E+02  0.51100000000E-03 0.  1.
        -12    1    3    3    0    0 -0.23886790247E+02  0.19038023159E+01  0.16657200530E+02  0.29183309289E+02  0.00000000000E+00 0.  1.
</event>
<event>
 7    1  0.3250765E-011  0.5052886E+02  0.7816164E-02  0.1300439E+00
        -11   -1    0    0    0    0  0.00000000000E+00  0.00000000000E+00  0.45593999997E+02  0.45594000000E+02  0.51100000000E-03 0.  1.
         11   -1    0    0    0    0 -0.00000000000E+00 -0.00000000000E+00 -0.45593999997E+02  0.45594000000E+02  0.51100000000E-03 0. -1.
    9900012    2    1    2    0    0 -0.18301718932E+02  0.31336371111E+02 -0.18336969224E+02  0.50528861905E+02  0.30000006248E+02 0.  0.
         12    1    1    2    0    0  0.18301718932E+02 -0.31336371111E+02  0.18336969224E+02  0.40659138095E+02  0.00000000000E+00 0. -1.
         11    1    3    3    0    0 -0.12643488415E+01  0.47225133883E+01 -0.13517338309E+02  0.14374252882E+02  0.51100000000E-03 0. -1.
        -11    1    3    3    0    0 -0.77653268786E+00  0.12803408582E+01 -0.58451994514E+01  0.60339566302E+01  0.51100000000E-03 0.  1.
        -12    1    3    3    0    0 -0.16260837403E+02  0.25333516865E+02  0.10255685365E+01  0.30120652393E+02  0.00000000000E+00 0.  1.
</event>
<event>
 7    1  0.3250765E-011  0.5052886E+02  0.7816164E-02  0.1300439E+00
        -11   -1    0    0    0    0  0.00000000000E+00  0.00000000000E+00  0.45593999997E+02  0.45594000000E+02  0.51100000000E-03 0. -1.
         11   -1    0    0    0    0 -0.00000000000E+00 -0.00000000000E+00 -0.45593999997E+02  0.45594000000E+02  0.51100000000E-03 0.  1.
    9900012    2    1    2    0    0 -0.20729322170E+02  0.30919741867E+02 -0.16353300315E+02  0.50528859995E+02  0.30000000441E+02 0.  0.
         12    1    1    2    0    0  0.20729322170E+02 -0.30919741867E+02  0.16353300315E+02  0.40659140005E+02  0.00000000000E+00 0. -1.
         11    1    3    3    0    0 -0.40681163946E+01  0.96021841039E+01  0.51605789458E+01  0.11635423752E+02  0.51100000000E-03 0. -1.
        -11    1    3    3    0    0 -0.68680384726E+01  0.80899620867E+01  0.13758683505E+01  0.10700955705E+02  0.51100000000E-03 0.  1.
        -12    1    3    3    0    0 -0.97931673028E+01  0.13227595676E+02 -0.22889747611E+02  0.28192480538E+02  0.00000000000E+00 0.  1.
</event>
<event>
 7    1  0.3250765E-011  0.5052886E+02  0.7816164E-02  0.1300439E+00
        -11   -1    0    0    0    0  0.00000000000E+00  0.00000000000E+00  0.45593999997E+02  0.45594000000E+02  0.51100000000E-03 0.  1.
         11   -1    0    0    0    0 -0.00000000000E+00 -0.00000000000E+00 -0.45593999997E+02  0.45594000000E+02  0.51100000000E-03 0. -1.
    9900012    2    1    2    0    0  0.30368215853E+02  0.11863547019E+02  0.24293892294E+02  0.50528862223E+02  0.30000007213E+02 0.  0.
         12    1    1    2    0    0 -0.30368215853E+02 -0.11863547019E+02 -0.24293892294E+02  0.40659137777E+02  0.00000000000E+00 0. -1.
         11    1    3    3    0    0  0.23570638907E+01 -0.19716517340E+01 -0.30296817567E+01  0.43153368992E+01  0.51100000000E-03 0. -1.
        -11    1    3    3    0    0 -0.26738991547E+01  0.11412170671E+01  0.62256938864E+01  0.68710536100E+01  0.51100000000E-03 0.  1.
        -12    1    3    3    0    0  0.30685051117E+02  0.12693981686E+02  0.21097880165E+02  0.39342471714E+02  0.00000000000E+00 0.  1.
</event>
<event>
 7    1  0.3250765E-011  0.5052887E+02  0.7816164E-02  0.1300439E+00
        -11   -1    0    0    0    0  0.00000000000E+00  0.00000000000E+00  0.45593999997E+02  0.45594000000E+02  0.51100000000E-03 0.  1.
         11   -1    0    0    0    0 -0.00000000000E+00 -0.00000000000E+00 -0.45593999997E+02  0.45594000000E+02  0.51100000000E-03 0. -1.
    9900012    2    1    2    0    0  0.75624687270E+01  0.30028984325E+02  0.26348319189E+02  0.50528871173E+02  0.30000034419E+02 0.  0.
         12    1    1    2    0    0 -0.75624687270E+01 -0.30028984325E+02 -0.26348319189E+02  0.40659128827E+02  0.00000000000E+00 0. -1.
         11    1    3    3    0    0  0.74896170996E+01  0.31150413276E+01 -0.13043377368E+01  0.82157862657E+01  0.51100000000E-03 0. -1.
        -11    1    3    3    0    0 -0.27902124990E+01  0.12936608704E+02  0.26066626410E+01  0.13488358719E+02  0.51100000000E-03 0.  1.
        -12    1    3    3    0    0  0.28630641264E+01  0.13977334294E+02  0.25045994284E+02  0.28824726189E+02  0.00000000000E+00 0.  1.
</event>
<event>
 7    1  0.3250765E-011  0.5052887E+02  0.7816164E-02  0.1300439E+00
        -11   -1    0    0    0    0  0.00000000000E+00  0.00000000000E+00  0.45593999997E+02  0.45594000000E+02  0.51100000000E-03 0.  1.
         11   -1    0    0    0    0 -0.00000000000E+00 -0.00000000000E+00 -0.45593999997E+02  0.45594000000E+02  0.51100000000E-03 0. -1.
    9900012    2    1    2    0    0  0.29994374132E+02  0.37115590078E+01  0.27197924038E+02  0.50528865457E+02  0.30000017043E+02 0.  0.
         12    1    1    2    0    0 -0.29994374132E+02 -0.37115590078E+01 -0.27197924038E+02  0.40659134543E+02  0.00000000000E+00 0. -1.
         11    1    3    3    0    0  0.15702921190E+02  0.12287995236E+02  0.70908295007E+01  0.21162618555E+02  0.51100000000E-03 0.  1.
        -11    1    3    3    0    0  0.32606507845E-01 -0.33870608481E+01 -0.85036818357E+00  0.34923302653E+01  0.51100000000E-03 0. -1.
         12    1    3    3    0    0  0.14258846434E+02 -0.51893753803E+01  0.20957462720E+02  0.25873916637E+02  0.00000000000E+00 0. -1.
</event>
<event>
 7    1  0.3250765E-011  0.5052887E+02  0.7816164E-02  0.1300439E+00
        -11   -1    0    0    0    0  0.00000000000E+00  0.00000000000E+00  0.45593999997E+02  0.45594000000E+02  0.51100000000E-03 0.  1.
         11   -1    0    0    0    0 -0.00000000000E+00 -0.00000000000E+00 -0.45593999997E+02  0.45594000000E+02  0.51100000000E-03 0. -1.
    9900012    2    1    2    0    0  0.22749589827E+02  0.29865653111E+01  0.33566378822E+02  0.50528865764E+02  0.30000017976E+02 0.  0.
         12    1    1    2    0    0 -0.22749589827E+02 -0.29865653111E+01 -0.33566378822E+02  0.40659134236E+02  0.00000000000E+00 0. -1.
         11    1    3    3    0    0 -0.45409790229E+01  0.26950496636E+00  0.26901908750E+01  0.52849078155E+01  0.51100000000E-03 0. -1.
        -11    1    3    3    0    0  0.15671583896E+02  0.94042507068E+01  0.11201838296E+02  0.21436409556E+02  0.51100000000E-03 0.  1.
        -12    1    3    3    0    0  0.11618984953E+02 -0.66871903620E+01  0.19674349651E+02  0.23807548392E+02  0.00000000000E+00 0.  1.
</event>
<event>
 7    1  0.3250765E-011  0.5052885E+02  0.7816164E-02  0.1300439E+00
        -11   -1    0    0    0    0  0.00000000000E+00  0.00000000000E+00  0.45593999997E+02  0.45594000000E+02  0.51100000000E-03 0.  1.
         11   -1    0    0    0    0 -0.00000000000E+00 -0.00000000000E+00 -0.45593999997E+02  0.45594000000E+02  0.51100000000E-03 0. -1.
    9900012    2    1    2    0    0  0.18176118180E+02  0.90026961058E+01  0.35238421450E+02  0.50528853975E+02  0.29999982141E+02 0.  0.
         12    1    1    2    0    0 -0.18176118180E+02 -0.90026961058E+01 -0.35238421450E+02  0.40659146025E+02  0.00000000000E+00 0. -1.
         11    1    3    3    0    0 -0.88909146187E+00  0.58892211246E+01  0.93864655676E+01  0.11116615726E+02  0.51100000000E-03 0. -1.
        -11    1    3    3    0    0  0.17785037135E+02  0.11535991143E+02  0.17616246664E+02  0.27562996650E+02  0.51100000000E-03 0.  1.
        -12    1    3    3    0    0  0.12801725067E+01 -0.84225161619E+01  0.82357092183E+01  0.11849241599E+02  0.00000000000E+00 0.  1.
</event>
<event>
 7    1  0.3250765E-011  0.5052885E+02  0.7816164E-02  0.1300439E+00
        -11   -1    0    0    0    0  0.00000000000E+00  0.00000000000E+00  0.45593999997E+02  0.45594000000E+02  0.51100000000E-03 0.  1.
         11   -1    0    0    0    0 -0.00000000000E+00 -0.00000000000E+00 -0.45593999997E+02  0.45594000000E+02  0.51100000000E-03 0. -1.
    9900012    2    1    2    0    0 -0.23051180150E+02  0.28926501409E+02  0.16883920071E+02  0.50528854079E+02  0.29999982459E+02 0.  0.
         12    1    1    2    0    0  0.23051180150E+02 -0.28926501409E+02 -0.16883920071E+02  0.40659145921E+02  0.00000000000E+00 0. -1.
         11    1    3    3    0    0 -0.12043809652E+00  0.27502259184E+01 -0.28920057171E+01  0.39927365636E+01  0.51100000000E-03 0. -1.
        -11    1    3    3    0    0 -0.55531913367E+01  0.23962386913E+02  0.12040084882E+02  0.27386083415E+02  0.51100000000E-03 0.  1.
        -12    1    3    3    0    0 -0.17377550716E+02  0.22138885775E+01  0.77358409065E+01  0.19150034101E+02  0.00000000000E+00 0.  1.
</event>
<event>
 7    1  0.3250765E-011  0.5052886E+02  0.7816164E-02  0.1300439E+00
        -11   -1    0    0    0    0  0.00000000000E+00  0.00000000000E+00  0.45593999997E+02  0.45594000000E+02  0.51100000000E-03 0.  1.
         11   -1    0    0    0    0 -0.00000000000E+00 -0.00000000000E+00 -0.45593999997E+02  0.45594000000E+02  0.51100000000E-03 0. -1.
    9900012    2    1    2    0    0  0.12924647953E+02  0.36663101359E+02 -0.11913691328E+02  0.50528861212E+02  0.30000004140E+02 0.  0.
         12    1    1    2    0    0 -0.12924647953E+02 -0.36663101359E+02  0.11913691328E+02  0.40659138788E+02  0.00000000000E+00 0. -1.
         11    1    3    3    0    0  0.26690615856E+00  0.51689829823E+01 -0.59745748300E+01  0.79047560765E+01  0.51100000000E-03 0. -1.
        -11    1    3    3    0    0  0.45757628143E+01 -0.37863737549E+01  0.39212958942E-01  0.59393408272E+01  0.51100000000E-03 0.  1.
        -12    1    3    3    0    0  0.80819789802E+01  0.35280492131E+02 -0.59783294567E+01  0.36684764308E+02  0.00000000000E+00 0.  1.
</event>
<event>
 7    1  0.3250765E-011  0.5052886E+02  0.7816164E-02  0.1300439E+00
        -11   -1    0    0    0    0  0.00000000000E+00  0.00000000000E+00  0.45593999997E+02  0.45594000000E+02  0.51100000000E-03 0.  1.
         11   -1    0    0    0    0 -0.00000000000E+00 -0.00000000000E+00 -0.45593999997E+02  0.45594000000E+02  0.51100000000E-03 0. -1.
    9900012    2    1    2    0    0 -0.18288134476E+02  0.32054640386E+02  0.17064872553E+02  0.50528859476E+02  0.29999998864E+02 0.  0.
         12    1    1    2    0    0  0.18288134476E+02 -0.32054640386E+02 -0.17064872553E+02  0.40659140524E+02  0.00000000000E+00 0. -1.
         11    1    3    3    0    0  0.47465713397E+01  0.14746971578E+01  0.24484403531E+00  0.49764063392E+01  0.51100000000E-03 0. -1.
        -11    1    3    3    0    0  0.27341765371E+01  0.53122071659E+01  0.66447129803E+00  0.60113882487E+01  0.51100000000E-03 0.  1.
         12    1    3    3    0    0 -0.25768882352E+02  0.25267736062E+02  0.16155557220E+02  0.39541064888E+02  0.00000000000E+00 0. -1.
</event>
<event>
 7    1  0.3250765E-011  0.5052887E+02  0.7816164E-02  0.1300439E+00
        -11   -1    0    0    0    0  0.00000000000E+00  0.00000000000E+00  0.45593999997E+02  0.45594000000E+02  0.51100000000E-03 0.  1.
         11   -1    0    0    0    0 -0.00000000000E+00 -0.00000000000E+00 -0.45593999997E+02  0.45594000000E+02  0.51100000000E-03 0. -1.
    9900012    2    1    2    0    0  0.18794399031E+02  0.35505130799E+02  0.62706387080E+01  0.50528872393E+02  0.30000038126E+02 0.  0.
         12    1    1    2    0    0 -0.18794399031E+02 -0.35505130799E+02 -0.62706387080E+01  0.40659127607E+02  0.00000000000E+00 0. -1.
         11    1    3    3    0    0 -0.17820217744E+00 -0.19233039109E+01 -0.18271610901E+01  0.26588290392E+01  0.51100000000E-03 0. -1.
        -11    1    3    3    0    0  0.18890057306E+02  0.24367093303E+02 -0.26633550293E+01  0.30946453130E+02  0.51100000000E-03 0.  1.
         12    1    3    3    0    0  0.82543902073E-01  0.13061341407E+02  0.10761154827E+02  0.16923590224E+02  0.00000000000E+00 0. -1.
</event>
<event>
 7    1  0.3250765E-011  0.5052887E+02  0.7816164E-02  0.1300439E+00
        -11   -1    0    0    0    0  0.00000000000E+00  0.00000000000E+00  0.45593999997E+02  0.45594000000E+02  0.51100000000E-03 0.  1.
         11   -1    0    0    0    0 -0.00000000000E+00 -0.00000000000E+00 -0.45593999997E+02  0.45594000000E+02  0.51100000000E-03 0. -1.
    9900012    2    1    2    0    0 -0.37808653661E+02 -0.13082926158E+02  0.72462374721E+01  0.50528865651E+02  0.30000017633E+02 0.  0.
         12    1    1    2    0    0  0.37808653661E+02  0.13082926158E+02 -0.72462374721E+01  0.40659134349E+02  0.00000000000E+00 0. -1.
         11    1    3    3    0    0 -0.96491733775E+00  0.39864798182E+01 -0.11258168496E+01  0.42532987961E+01  0.51100000000E-03 0. -1.
        -11    1    3    3    0    0 -0.22256730709E+02 -0.59651617797E+01  0.14166811041E+02  0.27048914068E+02  0.51100000000E-03 0.  1.
        -12    1    3    3    0    0 -0.14587005614E+02 -0.11104244196E+02 -0.57947567196E+01  0.19226652787E+02  0.00000000000E+00 0.  1.
</event>
<event>
 7    1  0.3250765E-011  0.5052880E+02  0.7816164E-02  0.1300439E+00
        -11   -1    0    0    0    0  0.00000000000E+00  0.00000000000E+00  0.45593999997E+02  0.45594000000E+02  0.51100000000E-03 0.  1.
         11   -1    0    0    0    0 -0.00000000000E+00 -0.00000000000E+00 -0.45593999997E+02  0.45594000000E+02  0.51100000000E-03 0. -1.
    9900012    2    1    2    0    0  0.17082313506E+02  0.31982779555E+02 -0.18397466307E+02  0.50528801910E+02  0.29999823886E+02 0.  0.
         12    1    1    2    0    0 -0.17082313506E+02 -0.31982779555E+02  0.18397466307E+02  0.40659198090E+02  0.00000000000E+00 0. -1.
         11    1    3    3    0    0  0.16864225897E+01  0.57763326291E+01  0.69716322370E+01  0.92094351674E+01  0.51100000000E-03 0. -1.
        -11    1    3    3    0    0  0.88811817889E+01  0.78730040446E+01 -0.42561312276E+01  0.12608498560E+02  0.51100000000E-03 0.  1.
         12    1    3    3    0    0  0.65147091276E+01  0.18333442882E+02 -0.21112967316E+02  0.28710868183E+02  0.00000000000E+00 0. -1.
</event>
<event>
 7    1  0.3250765E-011  0.5052877E+02  0.7816164E-02  0.1300439E+00
        -11   -1    0    0    0    0  0.00000000000E+00  0.00000000000E+00  0.45593999997E+02  0.45594000000E+02  0.51100000000E-03 0.  1.
         11   -1    0    0    0    0 -0.00000000000E+00 -0.00000000000E+00 -0.45593999997E+02  0.45594000000E+02  0.51100000000E-03 0. -1.
    9900012    2    1    2    0    0 -0.11359422014E-01 -0.97558939430E+01  0.39471445526E+02  0.50528774631E+02  0.29999740968E+02 0.  0.
         12    1    1    2    0    0  0.11359422014E-01  0.97558939430E+01 -0.39471445526E+02  0.40659225369E+02  0.00000000000E+00 0. -1.
         11    1    3    3    0    0 -0.82774086860E+01 -0.87363270441E+01  0.16019605336E+02  0.20036632955E+02  0.51100000000E-03 0. -1.
        -11    1    3    3    0    0  0.41355354518E+01 -0.92853781121E+01  0.13683028313E+02  0.17045414757E+02  0.51100000000E-03 0.  1.
         12    1    3    3    0    0  0.41305138122E+01  0.82658112132E+01  0.97688118766E+01  0.13446726919E+02  0.00000000000E+00 0. -1.
</event>
<event>
 7    1  0.3250765E-011  0.5052886E+02  0.7816164E-02  0.1300439E+00
        -11   -1    0    0    0    0  0.00000000000E+00  0.00000000000E+00  0.45593999997E+02  0.45594000000E+02  0.51100000000E-03 0.  1.
         11   -1    0    0    0    0 -0.00000000000E+00 -0.00000000000E+00 -0.45593999997E+02  0.45594000000E+02  0.51100000000E-03 0. -1.
    9900012    2    1    2    0    0  0.28345495862E+02  0.25896157970E+02  0.13382357363E+02  0.50528860537E+02  0.30000002090E+02 0.  0.
         12    1    1    2    0    0 -0.28345495862E+02 -0.25896157970E+02 -0.13382357363E+02  0.40659139463E+02  0.00000000000E+00 0. -1.
         11    1    3    3    0    0  0.41557941593E+01  0.21741813005E+01  0.12386503993E+02  0.13244741253E+02  0.51100000000E-03 0. -1.
        -11    1    3    3    0    0  0.11002246970E+02  0.10437228469E+02  0.81839958073E+01  0.17232613387E+02  0.51100000000E-03 0.  1.
        -12    1    3    3    0    0  0.13187454732E+02  0.13284748200E+02 -0.71881424377E+01  0.20051505898E+02  0.00000000000E+00 0.  1.
</event>
<event>
 7    1  0.3300809E-011  0.5052886E+02  0.7816164E-02  0.1300439E+00
        -11   -1    0    0    0    0  0.00000000000E+00  0.00000000000E+00  0.45593999997E+02  0.45594000000E+02  0.51100000000E-03 0.  1.
         11   -1    0    0    0    0 -0.00000000000E+00 -0.00000000000E+00 -0.45593999997E+02  0.45594000000E+02  0.51100000000E-03 0. -1.
    9900012    2    1    2    0    0 -0.36668544967E+02  0.69288354445E+01  0.16142316863E+02  0.50528863950E+02  0.30000012464E+02 0.  0.
         12    1    1    2    0    0  0.36668544967E+02 -0.69288354445E+01 -0.16142316863E+02  0.40659136050E+02  0.00000000000E+00 0. -1.
         11    1    3    3    0    0 -0.45968692825E+01  0.55602502460E+01  0.52795001247E+01  0.89398384676E+01  0.51100000000E-03 0. -1.
        -11    1    3    3    0    0 -0.28555321472E+02  0.96652088394E+01  0.43232857890E+01  0.30455105427E+02  0.51100000000E-03 0.  1.
         12    1    3    3    0    0 -0.35163542125E+01 -0.82966236409E+01  0.65395309490E+01  0.11133920056E+02  0.00000000000E+00 0. -1.
</event>
<event>
 7    1  0.3250765E-011  0.5052888E+02  0.7816164E-02  0.1300439E+00
        -11   -1    0    0    0    0  0.00000000000E+00  0.00000000000E+00  0.45593999997E+02  0.45594000000E+02  0.51100000000E-03 0.  1.
         11   -1    0    0    0    0 -0.00000000000E+00 -0.00000000000E+00 -0.45593999997E+02  0.45594000000E+02  0.51100000000E-03 0. -1.
    9900012    2    1    2    0    0 -0.25182152599E+02 -0.31857159491E+02 -0.20359203991E+01  0.50528875659E+02  0.30000048053E+02 0.  0.
         12    1    1    2    0    0  0.25182152599E+02  0.31857159491E+02  0.20359203991E+01  0.40659124341E+02  0.00000000000E+00 0. -1.
         11    1    3    3    0    0 -0.66069455232E+01 -0.18129954260E+01 -0.54816323904E+01  0.87742222154E+01  0.51100000000E-03 0. -1.
        -11    1    3    3    0    0 -0.11262591229E+02 -0.30963869728E+01  0.69837511461E+01  0.13609054111E+02  0.51100000000E-03 0.  1.
         12    1    3    3    0    0 -0.73126158467E+01 -0.26947777092E+02 -0.35380391548E+01  0.28145599332E+02  0.00000000000E+00 0. -1.
</event>
<event>
 7    1  0.3250765E-011  0.5052885E+02  0.7816164E-02  0.1300439E+00
        -11   -1    0    0    0    0  0.00000000000E+00  0.00000000000E+00  0.45593999997E+02  0.45594000000E+02  0.51100000000E-03 0. -1.
         11   -1    0    0    0    0 -0.00000000000E+00 -0.00000000000E+00 -0.45593999997E+02  0.45594000000E+02  0.51100000000E-03 0.  1.
    9900012    2    1    2    0    0 -0.22015943152E+02 -0.50252433074E-01 -0.34182772717E+02  0.50528853073E+02  0.29999979400E+02 0.  0.
         12    1    1    2    0    0  0.22015943152E+02  0.50252433074E-01  0.34182772717E+02  0.40659146927E+02  0.00000000000E+00 0. -1.
         11    1    3    3    0    0 -0.12781033117E+02  0.13449177803E+01 -0.26085141612E+01  0.13113655393E+02  0.51100000000E-03 0. -1.
        -11    1    3    3    0    0 -0.71828495466E+01  0.68862597629E+01 -0.95324466952E+01  0.13779747508E+02  0.51100000000E-03 0.  1.
        -12    1    3    3    0    0 -0.20520604890E+01 -0.82814299763E+01 -0.22041811861E+02  0.23635450172E+02  0.00000000000E+00 0.  1.
</event>
<event>
 7    1  0.3250765E-011  0.5052886E+02  0.7816164E-02  0.1300439E+00
        -11   -1    0    0    0    0  0.00000000000E+00  0.00000000000E+00  0.45593999997E+02  0.45594000000E+02  0.51100000000E-03 0.  1.
         11   -1    0    0    0    0 -0.00000000000E+00 -0.00000000000E+00 -0.45593999997E+02  0.45594000000E+02  0.51100000000E-03 0. -1.
    9900012    2    1    2    0    0 -0.27951456929E+02 -0.68634318894E+01  0.28718903551E+02  0.50528855113E+02  0.29999985603E+02 0.  0.
         12    1    1    2    0    0  0.27951456929E+02  0.68634318894E+01 -0.28718903551E+02  0.40659144887E+02  0.00000000000E+00 0. -1.
         11    1    3    3    0    0  0.96473167840E+00  0.28344034997E+01 -0.16657908289E+01  0.34262822064E+01  0.51100000000E-03 0. -1.
        -11    1    3    3    0    0 -0.22603611169E+02  0.18372754037E+01  0.17027892587E+02  0.28359265594E+02  0.51100000000E-03 0.  1.
        -12    1    3    3    0    0 -0.63125774382E+01 -0.11535110793E+02  0.13356801793E+02  0.18743307314E+02  0.00000000000E+00 0.  1.
</event>
<event>
 7    1  0.3250765E-011  0.5052886E+02  0.7816164E-02  0.1300439E+00
        -11   -1    0    0    0    0  0.00000000000E+00  0.00000000000E+00  0.45593999997E+02  0.45594000000E+02  0.51100000000E-03 0.  1.
         11   -1    0    0    0    0 -0.00000000000E+00 -0.00000000000E+00 -0.45593999997E+02  0.45594000000E+02  0.51100000000E-03 0. -1.
    9900012    2    1    2    0    0 -0.10033121208E+02 -0.82636848123E+01  0.38525490810E+02  0.50528862651E+02  0.30000008513E+02 0.  0.
         12    1    1    2    0    0  0.10033121208E+02  0.82636848123E+01 -0.38525490810E+02  0.40659137349E+02  0.00000000000E+00 0. -1.
         11    1    3    3    0    0 -0.11175345471E+02  0.64310103658E+00  0.22492795984E+02  0.25124247188E+02  0.51100000000E-03 0. -1.
        -11    1    3    3    0    0  0.24339363125E+01 -0.24154608898E+01  0.18137964060E+02  0.18459258863E+02  0.51100000000E-03 0.  1.
        -12    1    3    3    0    0 -0.12917120490E+01 -0.64913249591E+01 -0.21052692338E+01  0.69453565991E+01  0.00000000000E+00 0.  1.
</event>
<event>
 7    1  0.3250765E-011  0.5052889E+02  0.7816164E-02  0.1300439E+00
        -11   -1    0    0    0    0  0.00000000000E+00  0.00000000000E+00  0.45593999997E+02  0.45594000000E+02  0.51100000000E-03 0.  1.
         11   -1    0    0    0    0 -0.00000000000E+00 -0.00000000000E+00 -0.45593999997E+02  0.45594000000E+02  0.51100000000E-03 0. -1.
    9900012    2    1    2    0    0 -0.40259873218E+02 -0.38697202003E+01  0.41630979883E+01  0.50528886497E+02  0.30000080997E+02 0.  0.
         12    1    1    2    0    0  0.40259873218E+02  0.38697202003E+01 -0.41630979883E+01  0.40659113503E+02  0.00000000000E+00 0. -1.
         11    1    3    3    0    0 -0.16045311230E+02  0.21277202486E+01 -0.92514385235E+01  0.18643184302E+02  0.51100000000E-03 0. -1.
        -11    1    3    3    0    0  0.18732831532E+01 -0.38212534299E+00 -0.21019491601E+00  0.19233802832E+01  0.51100000000E-03 0.  1.
        -12    1    3    3    0    0 -0.26087845141E+02 -0.56153151059E+01  0.13624731428E+02  0.29962321912E+02  0.00000000000E+00 0.  1.
</event>
<event>
 7    1  0.3250765E-011  0.5052883E+02  0.7816164E-02  0.1300439E+00
        -11   -1    0    0    0    0  0.00000000000E+00  0.00000000000E+00  0.45593999997E+02  0.45594000000E+02  0.51100000000E-03 0. -1.
         11   -1    0    0    0    0 -0.00000000000E+00 -0.00000000000E+00 -0.45593999997E+02  0.45594000000E+02  0.51100000000E-03 0.  1.
    9900012    2    1    2    0    0  0.28904600776E+02 -0.11011410026E+02 -0.26390171341E+02  0.50528828338E+02  0.29999904217E+02 0.  0.
         12    1    1    2    0    0 -0.28904600776E+02  0.11011410026E+02  0.26390171341E+02  0.40659171662E+02  0.00000000000E+00 0. -1.
         11    1    3    3    0    0  0.22640015424E+01  0.55633084887E+00  0.24021147089E+01  0.33474411621E+01  0.51100000000E-03 0. -1.
        -11    1    3    3    0    0  0.15385328499E+01  0.23291422205E+01 -0.15161039019E+02  0.15415871407E+02  0.51100000000E-03 0.  1.
        -12    1    3    3    0    0  0.25102066384E+02 -0.13896883096E+02 -0.13631247031E+02  0.31765515770E+02  0.00000000000E+00 0.  1.
</event>
<event>
 7    1  0.3250765E-011  0.5052888E+02  0.7816164E-02  0.1300439E+00
        -11   -1    0    0    0    0  0.00000000000E+00  0.00000000000E+00  0.45593999997E+02  0.45594000000E+02  0.51100000000E-03 0. -1.
         11   -1    0    0    0    0 -0.00000000000E+00 -0.00000000000E+00 -0.45593999997E+02  0.45594000000E+02  0.51100000000E-03 0.  1.
    9900012    2    1    2    0    0 -0.29606850871E+02 -0.27856989322E+02 -0.76572165883E+00  0.50528882913E+02  0.30000070103E+02 0.  0.
         12    1    1    2    0    0  0.29606850871E+02  0.27856989322E+02  0.76572165883E+00  0.40659117087E+02  0.00000000000E+00 0. -1.
         11    1    3    3    0    0 -0.25161690150E+02 -0.90623425831E+01 -0.63249800273E+01  0.27481668015E+02  0.51100000000E-03 0. -1.
        -11    1    3    3    0    0 -0.53861708289E+01 -0.60953388910E+01  0.63045138401E+01  0.10291301541E+02  0.51100000000E-03 0.  1.
        -12    1    3    3    0    0  0.94101010755E+00 -0.12699307848E+02 -0.74525547160E+00  0.12755913357E+02  0.00000000000E+00 0.  1.
</event>
<event>
 7    1  0.3250765E-011  0.5052886E+02  0.7816164E-02  0.1300439E+00
        -11   -1    0    0    0    0  0.00000000000E+00  0.00000000000E+00  0.45593999997E+02  0.45594000000E+02  0.51100000000E-03 0. -1.
         11   -1    0    0    0    0 -0.00000000000E+00 -0.00000000000E+00 -0.45593999997E+02  0.45594000000E+02  0.51100000000E-03 0.  1.
    9900012    2    1    2    0    0 -0.13742731427E+02  0.37976943174E+02  0.46962597292E+01  0.50528859141E+02  0.29999997846E+02 0.  0.
         12    1    1    2    0    0  0.13742731427E+02 -0.37976943174E+02 -0.46962597292E+01  0.40659140859E+02  0.00000000000E+00 0. -1.
         11    1    3    3    0    0 -0.54199295060E+01  0.38980394557E+02  0.26805132900E+01  0.39446570795E+02  0.51100000000E-03 0.  1.
        -11    1    3    3    0    0 -0.29717179774E+01 -0.24218248510E+01 -0.19223655381E+01  0.42885700261E+01  0.51100000000E-03 0. -1.
        -12    1    3    3    0    0 -0.53510839441E+01  0.14183734675E+01  0.39381119773E+01  0.67937183204E+01  0.00000000000E+00 0.  1.
</event>
<event>
 7    1  0.3250765E-011  0.5052886E+02  0.7816164E-02  0.1300439E+00
        -11   -1    0    0    0    0  0.00000000000E+00  0.00000000000E+00  0.45593999997E+02  0.45594000000E+02  0.51100000000E-03 0.  1.
         11   -1    0    0    0    0 -0.00000000000E+00 -0.00000000000E+00 -0.45593999997E+02  0.45594000000E+02  0.51100000000E-03 0. -1.
    9900012    2    1    2    0    0 -0.10322961177E+02  0.46212088142E+01  0.39054404525E+02  0.50528860668E+02  0.30000002487E+02 0.  0.
         12    1    1    2    0    0  0.10322961177E+02 -0.46212088142E+01 -0.39054404525E+02  0.40659139332E+02  0.00000000000E+00 0. -1.
         11    1    3    3    0    0 -0.33873730161E+01  0.10920227634E+02  0.10613337136E+02  0.15600275413E+02  0.51100000000E-03 0. -1.
        -11    1    3    3    0    0  0.48456053354E+01 -0.34213642266E+01  0.27900622638E+01  0.65551561335E+01  0.51100000000E-03 0.  1.
        -12    1    3    3    0    0 -0.11781193497E+02 -0.28776545937E+01  0.25651005125E+02  0.28373429121E+02  0.00000000000E+00 0.  1.
</event>
<event>
 7    1  0.3250765E-011  0.5052886E+02  0.7816164E-02  0.1300439E+00
        -11   -1    0    0    0    0  0.00000000000E+00  0.00000000000E+00  0.45593999997E+02  0.45594000000E+02  0.51100000000E-03 0.  1.
         11   -1    0    0    0    0 -0.00000000000E+00 -0.00000000000E+00 -0.45593999997E+02  0.45594000000E+02  0.51100000000E-03 0. -1.
    9900012    2    1    2    0    0 -0.34117801333E+02  0.15881971734E+02  0.15391696686E+02  0.50528859320E+02  0.29999998388E+02 0.  0.
         12    1    1    2    0    0  0.34117801333E+02 -0.15881971734E+02 -0.15391696686E+02  0.40659140680E+02  0.00000000000E+00 0. -1.
         11    1    3    3    0    0 -0.20440614534E+01 -0.57655726563E+01  0.49525478066E+01  0.78706889990E+01  0.51100000000E-03 0.  1.
        -11    1    3    3    0    0 -0.10674975115E+01  0.67799719764E+01  0.58927848738E+00  0.68887459189E+01  0.51100000000E-03 0. -1.
        -12    1    3    3    0    0 -0.31006242368E+02  0.14867572414E+02  0.98498703922E+01  0.35769424402E+02  0.00000000000E+00 0.  1.
</event>
<event>
 7    1  0.3250765E-011  0.5052885E+02  0.7816164E-02  0.1300439E+00
        -11   -1    0    0    0    0  0.00000000000E+00  0.00000000000E+00  0.45593999997E+02  0.45594000000E+02  0.51100000000E-03 0. -1.
         11   -1    0    0    0    0 -0.00000000000E+00 -0.00000000000E+00 -0.45593999997E+02  0.45594000000E+02  0.51100000000E-03 0.  1.
    9900012    2    1    2    0    0 -0.18567455829E+02  0.34987249732E+02 -0.91819547333E+01  0.50528851552E+02  0.29999974777E+02 0.  0.
         12    1    1    2    0    0  0.18567455829E+02 -0.34987249732E+02  0.91819547333E+01  0.40659148448E+02  0.00000000000E+00 0. -1.
         11    1    3    3    0    0  0.56309637039E+01  0.45051107387E+01 -0.10377259150E+01  0.72856468717E+01  0.51100000000E-03 0. -1.
        -11    1    3    3    0    0 -0.62725221025E+01  0.25265354972E+01 -0.74017619136E+01  0.10025666802E+02  0.51100000000E-03 0.  1.
        -12    1    3    3    0    0 -0.17925897431E+02  0.27955603496E+02 -0.74246690467E+00  0.33217537878E+02  0.00000000000E+00 0.  1.
</event>
<event>
 7    1  0.3250765E-011  0.5052886E+02  0.7816164E-02  0.1300439E+00
        -11   -1    0    0    0    0  0.00000000000E+00  0.00000000000E+00  0.45593999997E+02  0.45594000000E+02  0.51100000000E-03 0. -1.
         11   -1    0    0    0    0 -0.00000000000E+00 -0.00000000000E+00 -0.45593999997E+02  0.45594000000E+02  0.51100000000E-03 0.  1.
    9900012    2    1    2    0    0  0.20439739421E+00 -0.18769772659E+02 -0.36066875050E+02  0.50528860562E+02  0.30000002165E+02 0.  0.
         12    1    1    2    0    0 -0.20439739421E+00  0.18769772659E+02  0.36066875050E+02  0.40659139438E+02  0.00000000000E+00 0. -1.
         11    1    3    3    0    0  0.62281968823E+01 -0.11172644285E+02 -0.34745208462E+01  0.13254837309E+02  0.51100000000E-03 0. -1.
        -11    1    3    3    0    0  0.36671211307E+01 -0.17425062566E+01 -0.19707933116E+02  0.20121797469E+02  0.51100000000E-03 0.  1.
         12    1    3    3    0    0 -0.96909206187E+01 -0.58546221175E+01 -0.12884421088E+02  0.17152225784E+02  0.00000000000E+00 0. -1.
</event>
<event>
 7    1  0.3250765E-011  0.5052885E+02  0.7816164E-02  0.1300439E+00
        -11   -1    0    0    0    0  0.00000000000E+00  0.00000000000E+00  0.45593999997E+02  0.45594000000E+02  0.51100000000E-03 0.  1.
         11   -1    0    0    0    0 -0.00000000000E+00 -0.00000000000E+00 -0.45593999997E+02  0.45594000000E+02  0.51100000000E-03 0. -1.
    9900012    2    1    2    0    0 -0.27860239998E+02 -0.25593827709E+02  0.14897303998E+02  0.50528847821E+02  0.29999963436E+02 0.  0.
         12    1    1    2    0    0  0.27860239998E+02  0.25593827709E+02 -0.14897303998E+02  0.40659152179E+02  0.00000000000E+00 0. -1.
         11    1    3    3    0    0 -0.69274171754E+01 -0.73917283765E+00 -0.43163742521E+01  0.81955214692E+01  0.51100000000E-03 0. -1.
        -11    1    3    3    0    0 -0.16229735013E+02 -0.62097873793E+01  0.14253337690E+02  0.22474950355E+02  0.51100000000E-03 0.  1.
        -12    1    3    3    0    0 -0.47030878092E+01 -0.18644867492E+02  0.49603405597E+01  0.19858375996E+02  0.00000000000E+00 0.  1.
</event>
<event>
 7    1  0.3250765E-011  0.5052886E+02  0.7816164E-02  0.1300439E+00
        -11   -1    0    0    0    0  0.00000000000E+00  0.00000000000E+00  0.45593999997E+02  0.45594000000E+02  0.51100000000E-03 0.  1.
         11   -1    0    0    0    0 -0.00000000000E+00 -0.00000000000E+00 -0.45593999997E+02  0.45594000000E+02  0.51100000000E-03 0. -1.
    9900012    2    1    2    0    0 -0.65942312795E+01  0.38103292331E+02 -0.12562671967E+02  0.50528862041E+02  0.30000006660E+02 0.  0.
         12    1    1    2    0    0  0.65942312795E+01 -0.38103292331E+02  0.12562671967E+02  0.40659137959E+02  0.00000000000E+00 0. -1.
         11    1    3    3    0    0  0.25546516493E+01  0.24660628154E+02 -0.86374302373E+01  0.26254104962E+02  0.51100000000E-03 0. -1.
        -11    1    3    3    0    0  0.30793793253E+01  0.72664495078E+01  0.35666313037E+01  0.86605268082E+01  0.51100000000E-03 0.  1.
        -12    1    3    3    0    0 -0.12228262254E+02  0.61762146690E+01 -0.74918730332E+01  0.15614230270E+02  0.00000000000E+00 0.  1.
</event>
<event>
 7    1  0.3250765E-011  0.5052886E+02  0.7816164E-02  0.1300439E+00
        -11   -1    0    0    0    0  0.00000000000E+00  0.00000000000E+00  0.45593999997E+02  0.45594000000E+02  0.51100000000E-03 0. -1.
         11   -1    0    0    0    0 -0.00000000000E+00 -0.00000000000E+00 -0.45593999997E+02  0.45594000000E+02  0.51100000000E-03 0.  1.
    9900012    2    1    2    0    0  0.19498113508E+02  0.24353890802E+02 -0.26074459498E+02  0.50528857539E+02  0.29999992974E+02 0.  0.
         12    1    1    2    0    0 -0.19498113508E+02 -0.24353890802E+02  0.26074459498E+02  0.40659142461E+02  0.00000000000E+00 0. -1.
         11    1    3    3    0    0 -0.46203750770E-01 -0.27518536077E+01 -0.55878137227E+00  0.28083927695E+01  0.51100000000E-03 0. -1.
        -11    1    3    3    0    0  0.11053684102E+01  0.68443763267E+00 -0.13143127946E+02  0.13207274763E+02  0.51100000000E-03 0.  1.
         12    1    3    3    0    0  0.18438948849E+02  0.26421306777E+02 -0.12372550180E+02  0.34513190006E+02  0.00000000000E+00 0. -1.
</event>
<event>
 7    1  0.3250765E-011  0.5052886E+02  0.7816164E-02  0.1300439E+00
        -11   -1    0    0    0    0  0.00000000000E+00  0.00000000000E+00  0.45593999997E+02  0.45594000000E+02  0.51100000000E-03 0.  1.
         11   -1    0    0    0    0 -0.00000000000E+00 -0.00000000000E+00 -0.45593999997E+02  0.45594000000E+02  0.51100000000E-03 0. -1.
    9900012    2    1    2    0    0  0.77490923257E+01 -0.13768091501E+02  0.37464069763E+02  0.50528864512E+02  0.30000014170E+02 0.  0.
         12    1    1    2    0    0 -0.77490923257E+01  0.13768091501E+02 -0.37464069763E+02  0.40659135488E+02  0.00000000000E+00 0. -1.
         11    1    3    3    0    0  0.59551948248E+01  0.25724227409E+01  0.10752773777E+02  0.12558019284E+02  0.51100000000E-03 0. -1.
        -11    1    3    3    0    0 -0.79569151350E+01 -0.32579738214E+01  0.16820172062E+02  0.18890343574E+02  0.51100000000E-03 0.  1.
        -12    1    3    3    0    0  0.97508126359E+01 -0.13082540420E+02  0.98911239235E+01  0.19080501654E+02  0.00000000000E+00 0.  1.
</event>
<event>
 7    1  0.3250765E-011  0.5052887E+02  0.7816164E-02  0.1300439E+00
        -11   -1    0    0    0    0  0.00000000000E+00  0.00000000000E+00  0.45593999997E+02  0.45594000000E+02  0.51100000000E-03 0.  1.
         11   -1    0    0    0    0 -0.00000000000E+00 -0.00000000000E+00 -0.45593999997E+02  0.45594000000E+02  0.51100000000E-03 0. -1.
    9900012    2    1    2    0    0 -0.29277922962E+02  0.27282300319E+02  0.71863847472E+01  0.50528870528E+02  0.30000032458E+02 0.  0.
         12    1    1    2    0    0  0.29277922962E+02 -0.27282300319E+02 -0.71863847472E+01  0.40659129472E+02  0.00000000000E+00 0. -1.
         11    1    3    3    0    0 -0.96678973048E+00  0.62616606006E+01 -0.76755211958E+01  0.99527233332E+01  0.51100000000E-03 0. -1.
        -11    1    3    3    0    0 -0.12593472512E+02  0.12995804605E+02  0.98043368555E+00  0.18123127150E+02  0.51100000000E-03 0.  1.
        -12    1    3    3    0    0 -0.15717660720E+02  0.80248351135E+01  0.13881472257E+02  0.22453020045E+02  0.00000000000E+00 0.  1.
</event>
<event>
 7    1  0.3250765E-011  0.5052885E+02  0.7816164E-02  0.1300439E+00
        -11   -1    0    0    0    0  0.00000000000E+00  0.00000000000E+00  0.45593999997E+02  0.45594000000E+02  0.51100000000E-03 0. -1.
         11   -1    0    0    0    0 -0.00000000000E+00 -0.00000000000E+00 -0.45593999997E+02  0.45594000000E+02  0.51100000000E-03 0.  1.
    9900012    2    1    2    0    0 -0.29051128953E+02  0.20386837911E+02 -0.19838721404E+02  0.50528854406E+02  0.29999983453E+02 0.  0.
         12    1    1    2    0    0  0.29051128953E+02 -0.20386837911E+02  0.19838721404E+02  0.40659145594E+02  0.00000000000E+00 0. -1.
         11    1    3    3    0    0 -0.13559453829E+02  0.13010275298E+02 -0.57437004750E+01  0.19649838342E+02  0.51100000000E-03 0.  1.
        -11    1    3    3    0    0 -0.18421399374E+02 -0.50537341238E+00 -0.64796100152E+01  0.19534295570E+02  0.51100000000E-03 0. -1.
         12    1    3    3    0    0  0.29297242505E+01  0.78819360257E+01 -0.76154109141E+01  0.11344720494E+02  0.00000000000E+00 0. -1.
</event>
<event>
 7    1  0.3250765E-011  0.5052886E+02  0.7816164E-02  0.1300439E+00
        -11   -1    0    0    0    0  0.00000000000E+00  0.00000000000E+00  0.45593999997E+02  0.45594000000E+02  0.51100000000E-03 0.  1.
         11   -1    0    0    0    0 -0.00000000000E+00 -0.00000000000E+00 -0.45593999997E+02  0.45594000000E+02  0.51100000000E-03 0. -1.
    9900012    2    1    2    0    0 -0.15620266816E+02 -0.82175416001E+01  0.36628472061E+02  0.50528859688E+02  0.29999999508E+02 0.  0.
         12    1    1    2    0    0  0.15620266816E+02  0.82175416001E+01 -0.36628472061E+02  0.40659140312E+02  0.00000000000E+00 0. -1.
         11    1    3    3    0    0 -0.33075961165E+01  0.62079465493E+01  0.76173392713E+01  0.10368348483E+02  0.51100000000E-03 0. -1.
        -11    1    3    3    0    0 -0.16893601464E+02 -0.61875014265E+01  0.15883104919E+02  0.23998999280E+02  0.51100000000E-03 0.  1.
        -12    1    3    3    0    0  0.45809307643E+01 -0.82379867229E+01  0.13128027872E+02  0.16161511925E+02  0.00000000000E+00 0.  1.
</event>
<event>
 7    1  0.3250765E-011  0.5052887E+02  0.7816164E-02  0.1300439E+00
        -11   -1    0    0    0    0  0.00000000000E+00  0.00000000000E+00  0.45593999997E+02  0.45594000000E+02  0.51100000000E-03 0. -1.
         11   -1    0    0    0    0 -0.00000000000E+00 -0.00000000000E+00 -0.45593999997E+02  0.45594000000E+02  0.51100000000E-03 0.  1.
    9900012    2    1    2    0    0  0.24559561014E+02 -0.30093463562E+02 -0.12015677854E+02  0.50528866947E+02  0.30000021572E+02 0.  0.
         12    1    1    2    0    0 -0.24559561014E+02  0.30093463562E+02  0.12015677854E+02  0.40659133053E+02  0.00000000000E+00 0. -1.
         11    1    3    3    0    0 -0.11056166576E+00 -0.67052058178E+01  0.66006437619E+01  0.94095965521E+01  0.51100000000E-03 0. -1.
        -11    1    3    3    0    0  0.10313484826E+02 -0.15295805769E+01 -0.40564137031E+01  0.11187585905E+02  0.51100000000E-03 0.  1.
        -12    1    3    3    0    0  0.14356637854E+02 -0.21858677167E+02 -0.14559907913E+02  0.29931684490E+02  0.00000000000E+00 0.  1.
</event>
<event>
 7    1  0.3250765E-011  0.5052886E+02  0.7816164E-02  0.1300439E+00
        -11   -1    0    0    0    0  0.00000000000E+00  0.00000000000E+00  0.45593999997E+02  0.45594000000E+02  0.51100000000E-03 0.  1.
         11   -1    0    0    0    0 -0.00000000000E+00 -0.00000000000E+00 -0.45593999997E+02  0.45594000000E+02  0.51100000000E-03 0. -1.
    9900012    2    1    2    0    0  0.11239077188E+02 -0.19291531013E+01  0.39027258926E+02  0.50528862934E+02  0.30000009374E+02 0.  0.
         12    1    1    2    0    0 -0.11239077188E+02  0.19291531013E+01 -0.39027258926E+02  0.40659137066E+02  0.00000000000E+00 0. -1.
         11    1    3    3    0    0  0.73699059398E+01  0.47542744616E+01  0.18394108851E+02  0.20377975363E+02  0.51100000000E-03 0.  1.
        -11    1    3    3    0    0  0.86921897510E+01 -0.16629009869E+01  0.51790066441E+00  0.88649660868E+01  0.51100000000E-03 0. -1.
         12    1    3    3    0    0 -0.48230185032E+01 -0.50205265760E+01  0.20115249410E+02  0.21285921484E+02  0.00000000000E+00 0. -1.
</event>
<event>
 7    1  0.3250765E-011  0.5052886E+02  0.7816164E-02  0.1300439E+00
        -11   -1    0    0    0    0  0.00000000000E+00  0.00000000000E+00  0.45593999997E+02  0.45594000000E+02  0.51100000000E-03 0. -1.
         11   -1    0    0    0    0 -0.00000000000E+00 -0.00000000000E+00 -0.45593999997E+02  0.45594000000E+02  0.51100000000E-03 0.  1.
    9900012    2    1    2    0    0  0.22540824410E+02  0.31897507879E+02 -0.11297153104E+02  0.50528862746E+02  0.30000008802E+02 0.  0.
         12    1    1    2    0    0 -0.22540824410E+02 -0.31897507879E+02  0.11297153104E+02  0.40659137254E+02  0.00000000000E+00 0. -1.
         11    1    3    3    0    0 -0.10438896701E+01  0.76138675063E+00 -0.19580462417E+00  0.13068110572E+01  0.51100000000E-03 0. -1.
        -11    1    3    3    0    0  0.24415965608E+02  0.10882495241E+02 -0.11118166237E+02  0.28951367843E+02  0.51100000000E-03 0.  1.
        -12    1    3    3    0    0 -0.83125152817E+00  0.20253625888E+02  0.16817757355E-01  0.20270683846E+02  0.00000000000E+00 0.  1.
</event>
<event>
 7    1  0.3250765E-011  0.5052884E+02  0.7816164E-02  0.1300439E+00
        -11   -1    0    0    0    0  0.00000000000E+00  0.00000000000E+00  0.45593999997E+02  0.45594000000E+02  0.51100000000E-03 0.  1.
         11   -1    0    0    0    0 -0.00000000000E+00 -0.00000000000E+00 -0.45593999997E+02  0.45594000000E+02  0.51100000000E-03 0. -1.
    9900012    2    1    2    0    0  0.25380484987E+00  0.30101353839E+02  0.27331501511E+02  0.50528844885E+02  0.29999954513E+02 0.  0.
         12    1    1    2    0    0 -0.25380484987E+00 -0.30101353839E+02 -0.27331501511E+02  0.40659155115E+02  0.00000000000E+00 0. -1.
         11    1    3    3    0    0  0.54152785502E+01  0.21226934777E+01 -0.27937369883E+01  0.64525991660E+01  0.51100000000E-03 0. -1.
        -11    1    3    3    0    0 -0.36537055863E+01  0.30510197528E+00  0.73129020289E+01  0.81805371506E+01  0.51100000000E-03 0.  1.
        -12    1    3    3    0    0 -0.15077681140E+01  0.27673558386E+02  0.22812336470E+02  0.35895708569E+02  0.00000000000E+00 0.  1.
</event>
<event>
 7    1  0.3250765E-011  0.5052884E+02  0.7816164E-02  0.1300439E+00
        -11   -1    0    0    0    0  0.00000000000E+00  0.00000000000E+00  0.45593999997E+02  0.45594000000E+02  0.51100000000E-03 0. -1.
         11   -1    0    0    0    0 -0.00000000000E+00 -0.00000000000E+00 -0.45593999997E+02  0.45594000000E+02  0.51100000000E-03 0.  1.
    9900012    2    1    2    0    0 -0.38060468599E+02 -0.10203013414E+02 -0.10023296653E+02  0.50528840780E+02  0.29999942033E+02 0.  0.
         12    1    1    2    0    0  0.38060468599E+02  0.10203013414E+02  0.10023296653E+02  0.40659159220E+02  0.00000000000E+00 0. -1.
         11    1    3    3    0    0 -0.52972777268E+01 -0.13139756553E+00  0.33732137893E+01  0.62814797750E+01  0.51100000000E-03 0. -1.
        -11    1    3    3    0    0 -0.35988543940E+02 -0.66630487762E+01 -0.87247644894E+01  0.37625696400E+02  0.51100000000E-03 0.  1.
         12    1    3    3    0    0  0.32253530672E+01 -0.34085670724E+01 -0.46717459525E+01  0.66216646049E+01  0.00000000000E+00 0. -1.
</event>
<event>
 7    1  0.3250765E-011  0.5052886E+02  0.7816164E-02  0.1300439E+00
        -11   -1    0    0    0    0  0.00000000000E+00  0.00000000000E+00  0.45593999997E+02  0.45594000000E+02  0.51100000000E-03 0.  1.
         11   -1    0    0    0    0 -0.00000000000E+00 -0.00000000000E+00 -0.45593999997E+02  0.45594000000E+02  0.51100000000E-03 0. -1.
    9900012    2    1    2    0    0 -0.29535483886E+02  0.26962449547E+02  0.73380613438E+01  0.50528860336E+02  0.30000001478E+02 0.  0.
         12    1    1    2    0    0  0.29535483886E+02 -0.26962449547E+02 -0.73380613438E+01  0.40659139664E+02  0.00000000000E+00 0. -1.
         11    1    3    3    0    0 -0.64239906099E+01 -0.13140071856E+01  0.14878087615E+01  0.67236779676E+01  0.51100000000E-03 0. -1.
        -11    1    3    3    0    0 -0.18267931939E+02  0.24529682643E+02  0.13979093271E+02  0.33627930606E+02  0.51100000000E-03 0.  1.
         12    1    3    3    0    0 -0.48435613370E+01  0.37467740891E+01 -0.81288406886E+01  0.10177251763E+02  0.00000000000E+00 0. -1.
</event>
<event>
 7    1  0.3250765E-011  0.5052884E+02  0.7816164E-02  0.1300439E+00
        -11   -1    0    0    0    0  0.00000000000E+00  0.00000000000E+00  0.45593999997E+02  0.45594000000E+02  0.51100000000E-03 0.  1.
         11   -1    0    0    0    0 -0.00000000000E+00 -0.00000000000E+00 -0.45593999997E+02  0.45594000000E+02  0.51100000000E-03 0. -1.
    9900012    2    1    2    0    0 -0.23061268951E+02 -0.80914709568E+01  0.32494207602E+02  0.50528836757E+02  0.29999929808E+02 0.  0.
         12    1    1    2    0    0  0.23061268951E+02  0.80914709568E+01 -0.32494207602E+02  0.40659163243E+02  0.00000000000E+00 0. -1.
         11    1    3    3    0    0 -0.60020762268E-01 -0.49867910522E+01  0.11181605342E+00  0.49884056151E+01  0.51100000000E-03 0. -1.
        -11    1    3    3    0    0  0.10378894386E+01 -0.41271246693E+01  0.15688457824E+02  0.16255401616E+02  0.51100000000E-03 0.  1.
        -12    1    3    3    0    0 -0.24039137627E+02  0.10224447647E+01  0.16693933725E+02  0.29285029526E+02  0.00000000000E+00 0.  1.
</event>
<event>
 7    1  0.3250765E-011  0.5052883E+02  0.7816164E-02  0.1300439E+00
        -11   -1    0    0    0    0  0.00000000000E+00  0.00000000000E+00  0.45593999997E+02  0.45594000000E+02  0.51100000000E-03 0.  1.
         11   -1    0    0    0    0 -0.00000000000E+00 -0.00000000000E+00 -0.45593999997E+02  0.45594000000E+02  0.51100000000E-03 0. -1.
    9900012    2    1    2    0    0 -0.22577609790E+02 -0.31501374883E+01 -0.33667431027E+02  0.50528834465E+02  0.29999922840E+02 0.  0.
         12    1    1    2    0    0  0.22577609790E+02  0.31501374883E+01  0.33667431027E+02  0.40659165535E+02  0.00000000000E+00 0. -1.
         11    1    3    3    0    0 -0.80085518263E+01 -0.58522183868E+01 -0.29708010019E+02  0.31320140835E+02  0.51100000000E-03 0. -1.
        -11    1    3    3    0    0 -0.15013690346E+00 -0.15227709923E+01  0.24379175598E+01  0.28783354346E+01  0.51100000000E-03 0.  1.
        -12    1    3    3    0    0 -0.14418921060E+02  0.42248518909E+01 -0.63973385681E+01  0.16330358195E+02  0.00000000000E+00 0.  1.
</event>
<event>
 7    1  0.3250765E-011  0.5052886E+02  0.7816164E-02  0.1300439E+00
        -11   -1    0    0    0    0  0.00000000000E+00  0.00000000000E+00  0.45593999997E+02  0.45594000000E+02  0.51100000000E-03 0. -1.
         11   -1    0    0    0    0 -0.00000000000E+00 -0.00000000000E+00 -0.45593999997E+02  0.45594000000E+02  0.51100000000E-03 0.  1.
    9900012    2    1    2    0    0  0.12126154163E+02  0.36692335800E+02 -0.12640996608E+02  0.50528856913E+02  0.29999991074E+02 0.  0.
         12    1    1    2    0    0 -0.12126154163E+02 -0.36692335800E+02  0.12640996608E+02  0.40659143087E+02  0.00000000000E+00 0. -1.
         11    1    3    3    0    0 -0.37873120576E+01  0.19193446314E+01 -0.92432680802E+01  0.10171805223E+02  0.51100000000E-03 0. -1.
        -11    1    3    3    0    0  0.45294368217E+01  0.96689186186E+01 -0.66845775745E+01  0.12597117241E+02  0.51100000000E-03 0.  1.
        -12    1    3    3    0    0  0.11384029399E+02  0.25104072550E+02  0.32868490463E+01  0.27759934449E+02  0.00000000000E+00 0.  1.
</event>
<event>
 7    1  0.3250765E-011  0.5052886E+02  0.7816164E-02  0.1300439E+00
        -11   -1    0    0    0    0  0.00000000000E+00  0.00000000000E+00  0.45593999997E+02  0.45594000000E+02  0.51100000000E-03 0.  1.
         11   -1    0    0    0    0 -0.00000000000E+00 -0.00000000000E+00 -0.45593999997E+02  0.45594000000E+02  0.51100000000E-03 0. -1.
    9900012    2    1    2    0    0 -0.16693765417E+01 -0.21102381507E+02  0.34714093406E+02  0.50528860753E+02  0.30000002746E+02 0.  0.
         12    1    1    2    0    0  0.16693765417E+01  0.21102381507E+02 -0.34714093406E+02  0.40659139247E+02  0.00000000000E+00 0. -1.
         11    1    3    3    0    0  0.55212315163E+00 -0.18914549763E+02  0.17677188805E+02  0.25894942306E+02  0.51100000000E-03 0. -1.
        -11    1    3    3    0    0 -0.38275966122E+00 -0.94320895917E+01  0.56136973070E+01  0.10982914765E+02  0.51100000000E-03 0.  1.
         12    1    3    3    0    0 -0.18387400321E+01  0.72442578475E+01  0.11423207294E+02  0.13651003683E+02  0.00000000000E+00 0. -1.
</event>
<event>
 7    1  0.3250765E-011  0.5052886E+02  0.7816164E-02  0.1300439E+00
        -11   -1    0    0    0    0  0.00000000000E+00  0.00000000000E+00  0.45593999997E+02  0.45594000000E+02  0.51100000000E-03 0. -1.
         11   -1    0    0    0    0 -0.00000000000E+00 -0.00000000000E+00 -0.45593999997E+02  0.45594000000E+02  0.51100000000E-03 0.  1.
    9900012    2    1    2    0    0  0.32729699716E+02  0.22916335867E+02  0.75348359996E+01  0.50528862692E+02  0.30000008640E+02 0.  0.
         12    1    1    2    0    0 -0.32729699716E+02 -0.22916335867E+02 -0.75348359996E+01  0.40659137308E+02  0.00000000000E+00 0. -1.
         11    1    3    3    0    0  0.15122743164E+02  0.22288376584E+02  0.78595919377E+01  0.28057838071E+02  0.51100000000E-03 0. -1.
        -11    1    3    3    0    0  0.12961620920E+02  0.14499183828E+01  0.61825424351E+01  0.14433631262E+02  0.51100000000E-03 0.  1.
        -12    1    3    3    0    0  0.46453356323E+01 -0.82195909944E+00 -0.65072983732E+01  0.80373933595E+01  0.00000000000E+00 0.  1.
</event>
<event>
 7    1  0.3250765E-011  0.5052886E+02  0.7816164E-02  0.1300439E+00
        -11   -1    0    0    0    0  0.00000000000E+00  0.00000000000E+00  0.45593999997E+02  0.45594000000E+02  0.51100000000E-03 0. -1.
         11   -1    0    0    0    0 -0.00000000000E+00 -0.00000000000E+00 -0.45593999997E+02  0.45594000000E+02  0.51100000000E-03 0.  1.
    9900012    2    1    2    0    0 -0.30689331653E+02  0.16021757963E+02 -0.21322140666E+02  0.50528862182E+02  0.30000007087E+02 0.  0.
         12    1    1    2    0    0  0.30689331653E+02 -0.16021757963E+02  0.21322140666E+02  0.40659137818E+02  0.00000000000E+00 0. -1.
         11    1    3    3    0    0 -0.17136851064E+00 -0.54997638809E+00 -0.30618537302E+01  0.31155721337E+01  0.51100000000E-03 0. -1.
        -11    1    3    3    0    0 -0.18069952709E+02  0.11894136462E+02  0.34970426457E+01  0.21913990522E+02  0.51100000000E-03 0.  1.
        -12    1    3    3    0    0 -0.12448010434E+02  0.46775978888E+01 -0.21757329582E+02  0.25499299526E+02  0.00000000000E+00 0.  1.
</event>
<event>
 7    1  0.3250765E-011  0.5052885E+02  0.7816164E-02  0.1300439E+00
        -11   -1    0    0    0    0  0.00000000000E+00  0.00000000000E+00  0.45593999997E+02  0.45594000000E+02  0.51100000000E-03 0.  1.
         11   -1    0    0    0    0 -0.00000000000E+00 -0.00000000000E+00 -0.45593999997E+02  0.45594000000E+02  0.51100000000E-03 0. -1.
    9900012    2    1    2    0    0  0.48717038233E+01  0.28975284232E+02  0.28104549653E+02  0.50528852128E+02  0.29999976529E+02 0.  0.
         12    1    1    2    0    0 -0.48717038233E+01 -0.28975284232E+02 -0.28104549653E+02  0.40659147872E+02  0.00000000000E+00 0. -1.
         11    1    3    3    0    0  0.20984607031E+01  0.12570081630E+02  0.24393363848E+02  0.27521749392E+02  0.51100000000E-03 0.  1.
        -11    1    3    3    0    0 -0.61822004124E+01  0.93951215835E+01  0.84333429919E+00  0.11278258931E+02  0.51100000000E-03 0. -1.
         12    1    3    3    0    0  0.89554435327E+01  0.70100810186E+01  0.28678515059E+01  0.11728843806E+02  0.00000000000E+00 0. -1.
</event>
<event>
 7    1  0.3250765E-011  0.5052884E+02  0.7816164E-02  0.1300439E+00
        -11   -1    0    0    0    0  0.00000000000E+00  0.00000000000E+00  0.45593999997E+02  0.45594000000E+02  0.51100000000E-03 0.  1.
         11   -1    0    0    0    0 -0.00000000000E+00 -0.00000000000E+00 -0.45593999997E+02  0.45594000000E+02  0.51100000000E-03 0. -1.
    9900012    2    1    2    0    0  0.26252676788E+02  0.31005569436E+02 -0.16182773637E+01  0.50528841177E+02  0.29999943242E+02 0.  0.
         12    1    1    2    0    0 -0.26252676788E+02 -0.31005569436E+02  0.16182773637E+01  0.40659158823E+02  0.00000000000E+00 0. -1.
         11    1    3    3    0    0  0.95077875878E+01  0.95668100720E+01 -0.80855564624E+01  0.15725714716E+02  0.51100000000E-03 0. -1.
        -11    1    3    3    0    0  0.21439683929E+02  0.19245900745E+02  0.68280813056E+01  0.29608908069E+02  0.51100000000E-03 0.  1.
         12    1    3    3    0    0 -0.46947947293E+01  0.21928586190E+01 -0.36080220690E+00  0.51942183922E+01  0.00000000000E+00 0. -1.
</event>
<event>
 7    1  0.3250765E-011  0.5052887E+02  0.7816164E-02  0.1300439E+00
        -11   -1    0    0    0    0  0.00000000000E+00  0.00000000000E+00  0.45593999997E+02  0.45594000000E+02  0.51100000000E-03 0.  1.
         11   -1    0    0    0    0 -0.00000000000E+00 -0.00000000000E+00 -0.45593999997E+02  0.45594000000E+02  0.51100000000E-03 0. -1.
    9900012    2    1    2    0    0  0.28319540059E+02 -0.47937801983E+01  0.28778265573E+02  0.50528865145E+02  0.30000016094E+02 0.  0.
         12    1    1    2    0    0 -0.28319540059E+02  0.47937801983E+01 -0.28778265573E+02  0.40659134855E+02  0.00000000000E+00 0. -1.
         11    1    3    3    0    0 -0.25370977362E+01 -0.79820049358E+00  0.12539408266E+02  0.12818375438E+02  0.51100000000E-03 0. -1.
        -11    1    3    3    0    0  0.35941190532E+01 -0.56764439280E+01  0.33729435020E+01  0.75177427174E+01  0.51100000000E-03 0.  1.
        -12    1    3    3    0    0  0.27262518742E+02  0.16808642232E+01  0.12865913805E+02  0.30192746989E+02  0.00000000000E+00 0.  1.
</event>
<event>
 7    1  0.3250765E-011  0.5052886E+02  0.7816164E-02  0.1300439E+00
        -11   -1    0    0    0    0  0.00000000000E+00  0.00000000000E+00  0.45593999997E+02  0.45594000000E+02  0.51100000000E-03 0.  1.
         11   -1    0    0    0    0 -0.00000000000E+00 -0.00000000000E+00 -0.45593999997E+02  0.45594000000E+02  0.51100000000E-03 0. -1.
    9900012    2    1    2    0    0  0.33751136376E+02  0.76466793920E+01  0.21343731267E+02  0.50528858632E+02  0.29999996298E+02 0.  0.
         12    1    1    2    0    0 -0.33751136376E+02 -0.76466793920E+01 -0.21343731267E+02  0.40659141368E+02  0.00000000000E+00 0. -1.
         11    1    3    3    0    0  0.14137130060E+01 -0.66285589163E+01 -0.53949182464E+00  0.67990756328E+01  0.51100000000E-03 0. -1.
        -11    1    3    3    0    0  0.19344552917E+02  0.82204814755E+01  0.50436929198E+01  0.21615431566E+02  0.51100000000E-03 0.  1.
        -12    1    3    3    0    0  0.12992870453E+02  0.60547568329E+01  0.16839530172E+02  0.22114351434E+02  0.00000000000E+00 0.  1.
</event>
<event>
 7    1  0.3250765E-011  0.5052886E+02  0.7816164E-02  0.1300439E+00
        -11   -1    0    0    0    0  0.00000000000E+00  0.00000000000E+00  0.45593999997E+02  0.45594000000E+02  0.51100000000E-03 0.  1.
         11   -1    0    0    0    0 -0.00000000000E+00 -0.00000000000E+00 -0.45593999997E+02  0.45594000000E+02  0.51100000000E-03 0. -1.
    9900012    2    1    2    0    0 -0.82200430244E+01  0.37457614355E+02 -0.13510125137E+02  0.50528862507E+02  0.30000008076E+02 0.  0.
         12    1    1    2    0    0  0.82200430244E+01 -0.37457614355E+02  0.13510125137E+02  0.40659137493E+02  0.00000000000E+00 0. -1.
         11    1    3    3    0    0 -0.50700144392E+01  0.23595478726E+01 -0.47503210023E+01  0.73374425015E+01  0.51100000000E-03 0. -1.
        -11    1    3    3    0    0 -0.24420634826E+01  0.18310197044E+02 -0.16428942700E+02  0.24721188247E+02  0.51100000000E-03 0.  1.
        -12    1    3    3    0    0 -0.70796510265E+00  0.16787869438E+02  0.76691385662E+01  0.18470231758E+02  0.00000000000E+00 0.  1.
</event>
<event>
 7    1  0.3288347E-011  0.5052887E+02  0.7816164E-02  0.1300439E+00
        -11   -1    0    0    0    0  0.00000000000E+00  0.00000000000E+00  0.45593999997E+02  0.45594000000E+02  0.51100000000E-03 0.  1.
         11   -1    0    0    0    0 -0.00000000000E+00 -0.00000000000E+00 -0.45593999997E+02  0.45594000000E+02  0.51100000000E-03 0. -1.
    9900012    2    1    2    0    0  0.68775983755E+01  0.25989797701E+02  0.30502359358E+02  0.50528869778E+02  0.30000030179E+02 0.  0.
         12    1    1    2    0    0 -0.68775983755E+01 -0.25989797701E+02 -0.30502359358E+02  0.40659130222E+02  0.00000000000E+00 0. -1.
         11    1    3    3    0    0 -0.43244311770E+01 -0.43050360715E+00  0.91883890758E+01  0.10164277270E+02  0.51100000000E-03 0. -1.
        -11    1    3    3    0    0  0.45332840790E+01  0.19791277564E+02  0.23141196393E+02  0.30785715891E+02  0.51100000000E-03 0.  1.
         12    1    3    3    0    0  0.66687454735E+01  0.66290237444E+01 -0.18272261103E+01  0.95788766174E+01  0.00000000000E+00 0. -1.
</event>
<event>
 7    1  0.3250765E-011  0.5052891E+02  0.7816164E-02  0.1300439E+00
        -11   -1    0    0    0    0  0.00000000000E+00  0.00000000000E+00  0.45593999997E+02  0.45594000000E+02  0.51100000000E-03 0.  1.
         11   -1    0    0    0    0 -0.00000000000E+00 -0.00000000000E+00 -0.45593999997E+02  0.45594000000E+02  0.51100000000E-03 0. -1.
    9900012    2    1    2    0    0  0.64874583302E+01 -0.37782369805E+02  0.13548690813E+02  0.50528909916E+02  0.30000152181E+02 0.  0.
         12    1    1    2    0    0 -0.64874583302E+01  0.37782369805E+02 -0.13548690813E+02  0.40659090084E+02  0.00000000000E+00 0. -1.
         11    1    3    3    0    0 -0.57557118088E+01 -0.18604643220E+02  0.47648937197E+01  0.20049069310E+02  0.51100000000E-03 0.  1.
        -11    1    3    3    0    0  0.36240739237E+00  0.10128791758E+01  0.68935074720E+01  0.69769412260E+01  0.51100000000E-03 0. -1.
        -12    1    3    3    0    0  0.11880762747E+02 -0.20190605761E+02  0.18902896209E+01  0.23502899380E+02  0.00000000000E+00 0.  1.
</event>
<event>
 7    1  0.3250765E-011  0.5052885E+02  0.7816164E-02  0.1300439E+00
        -11   -1    0    0    0    0  0.00000000000E+00  0.00000000000E+00  0.45593999997E+02  0.45594000000E+02  0.51100000000E-03 0. -1.
         11   -1    0    0    0    0 -0.00000000000E+00 -0.00000000000E+00 -0.45593999997E+02  0.45594000000E+02  0.51100000000E-03 0.  1.
    9900012    2    1    2    0    0  0.19116778008E+02  0.17459289485E+02 -0.31351049933E+02  0.50528851920E+02  0.29999975896E+02 0.  0.
         12    1    1    2    0    0 -0.19116778008E+02 -0.17459289485E+02  0.31351049933E+02  0.40659148080E+02  0.00000000000E+00 0. -1.
         11    1    3    3    0    0  0.11602168056E+02 -0.10073474048E+01 -0.68783127674E+01  0.13525392385E+02  0.51100000000E-03 0. -1.
        -11    1    3    3    0    0  0.78465380078E+01  0.78819237261E+01 -0.89620661026E+00  0.11157780554E+02  0.51100000000E-03 0.  1.
         12    1    3    3    0    0 -0.33192805572E+00  0.10584713164E+02 -0.23576530555E+02  0.25845678981E+02  0.00000000000E+00 0. -1.
</event>
<event>
 7    1  0.3250765E-011  0.5052884E+02  0.7816164E-02  0.1300439E+00
        -11   -1    0    0    0    0  0.00000000000E+00  0.00000000000E+00  0.45593999997E+02  0.45594000000E+02  0.51100000000E-03 0. -1.
         11   -1    0    0    0    0 -0.00000000000E+00 -0.00000000000E+00 -0.45593999997E+02  0.45594000000E+02  0.51100000000E-03 0.  1.
    9900012    2    1    2    0    0 -0.78251425001E+01  0.92999140816E+01  0.38800080389E+02  0.50528837499E+02  0.29999932062E+02 0.  0.
         12    1    1    2    0    0  0.78251425001E+01 -0.92999140816E+01 -0.38800080389E+02  0.40659162501E+02  0.00000000000E+00 0. -1.
         11    1    3    3    0    0 -0.69773133054E+00  0.30450867868E+01  0.16141870467E+02  0.16441391820E+02  0.51100000000E-03 0. -1.
        -11    1    3    3    0    0  0.70311337216E+00 -0.78933506751E+01  0.13079142242E+02  0.15292590210E+02  0.51100000000E-03 0.  1.
        -12    1    3    3    0    0 -0.78305245417E+01  0.14148177970E+02  0.95790676806E+01  0.18794855469E+02  0.00000000000E+00 0.  1.
</event>
<event>
 7    1  0.3250765E-011  0.5052881E+02  0.7816164E-02  0.1300439E+00
        -11   -1    0    0    0    0  0.00000000000E+00  0.00000000000E+00  0.45593999997E+02  0.45594000000E+02  0.51100000000E-03 0. -1.
         11   -1    0    0    0    0 -0.00000000000E+00 -0.00000000000E+00 -0.45593999997E+02  0.45594000000E+02  0.51100000000E-03 0.  1.
    9900012    2    1    2    0    0  0.15844371600E+02 -0.33702028336E+02 -0.16318665263E+02  0.50528810862E+02  0.29999851097E+02 0.  0.
         12    1    1    2    0    0 -0.15844371600E+02  0.33702028336E+02  0.16318665263E+02  0.40659189138E+02  0.00000000000E+00 0. -1.
         11    1    3    3    0    0  0.11678634054E+02 -0.10042631658E+01 -0.57715776224E+01  0.13065609300E+02  0.51100000000E-03 0. -1.
        -11    1    3    3    0    0  0.51353086283E+01 -0.79303944151E+01 -0.82988382784E+01  0.12575105062E+02  0.51100000000E-03 0.  1.
         12    1    3    3    0    0 -0.96957108206E+00 -0.24767370755E+02 -0.22482493620E+01  0.24888096500E+02  0.00000000000E+00 0. -1.
</event>
<event>
 7    1  0.3250765E-011  0.5052885E+02  0.7816164E-02  0.1300439E+00
        -11   -1    0    0    0    0  0.00000000000E+00  0.00000000000E+00  0.45593999997E+02  0.45594000000E+02  0.51100000000E-03 0.  1.
         11   -1    0    0    0    0 -0.00000000000E+00 -0.00000000000E+00 -0.45593999997E+02  0.45594000000E+02  0.51100000000E-03 0. -1.
    9900012    2    1    2    0    0 -0.85484887246E+01  0.39256437148E+02 -0.62467418793E+01  0.50528852184E+02  0.29999976698E+02 0.  0.
         12    1    1    2    0    0  0.85484887246E+01 -0.39256437148E+02  0.62467418793E+01  0.40659147816E+02  0.00000000000E+00 0. -1.
         11    1    3    3    0    0 -0.26137136128E+01 -0.17442828485E+01 -0.24804779702E+01  0.40033476900E+01  0.51100000000E-03 0. -1.
        -11    1    3    3    0    0 -0.37429865436E+01  0.16516661333E+02 -0.11826139434E+02  0.20655934354E+02  0.51100000000E-03 0.  1.
        -12    1    3    3    0    0 -0.21917885681E+01  0.24484058664E+02  0.80598755247E+01  0.25869570140E+02  0.00000000000E+00 0.  1.
</event>
<event>
 7    1  0.3250765E-011  0.5052883E+02  0.7816164E-02  0.1300439E+00
        -11   -1    0    0    0    0  0.00000000000E+00  0.00000000000E+00  0.45593999997E+02  0.45594000000E+02  0.51100000000E-03 0.  1.
         11   -1    0    0    0    0 -0.00000000000E+00 -0.00000000000E+00 -0.45593999997E+02  0.45594000000E+02  0.51100000000E-03 0. -1.
    9900012    2    1    2    0    0 -0.24538260589E+02  0.24051077785E+02  0.21739078740E+02  0.50528829820E+02  0.29999908720E+02 0.  0.
         12    1    1    2    0    0  0.24538260589E+02 -0.24051077785E+02 -0.21739078740E+02  0.40659170180E+02  0.00000000000E+00 0. -1.
         11    1    3    3    0    0 -0.14090609546E+02  0.15843089106E+02 -0.19179465241E+01  0.21289134997E+02  0.51100000000E-03 0. -1.
        -11    1    3    3    0    0 -0.10382519544E+02  0.94496108436E+01  0.15198370082E+02  0.20690150086E+02  0.51100000000E-03 0.  1.
        -12    1    3    3    0    0 -0.65131498868E-01 -0.12416221654E+01  0.84586551816E+01  0.85495447361E+01  0.00000000000E+00 0.  1.
</event>
<event>
 7    1  0.3250765E-011  0.5052886E+02  0.7816164E-02  0.1300439E+00
        -11   -1    0    0    0    0  0.00000000000E+00  0.00000000000E+00  0.45593999997E+02  0.45594000000E+02  0.51100000000E-03 0.  1.
         11   -1    0    0    0    0 -0.00000000000E+00 -0.00000000000E+00 -0.45593999997E+02  0.45594000000E+02  0.51100000000E-03 0. -1.
    9900012    2    1    2    0    0  0.11822749139E+02  0.28169275576E+02  0.26830576756E+02  0.50528864093E+02  0.30000012897E+02 0.  0.
         12    1    1    2    0    0 -0.11822749139E+02 -0.28169275576E+02 -0.26830576756E+02  0.40659135907E+02  0.00000000000E+00 0. -1.
         11    1    3    3    0    0  0.32574847939E+01 -0.85058845088E+00 -0.15864913552E+01  0.37217822312E+01  0.51100000000E-03 0. -1.
        -11    1    3    3    0    0  0.14447746569E+02  0.10794521313E+02  0.13308401143E+02  0.22413670216E+02  0.51100000000E-03 0.  1.
         12    1    3    3    0    0 -0.58824822248E+01  0.18225342714E+02  0.15108666968E+02  0.24393411646E+02  0.00000000000E+00 0. -1.
</event>
<event>
 7    1  0.3250765E-011  0.5052885E+02  0.7816164E-02  0.1300439E+00
        -11   -1    0    0    0    0  0.00000000000E+00  0.00000000000E+00  0.45593999997E+02  0.45594000000E+02  0.51100000000E-03 0. -1.
         11   -1    0    0    0    0 -0.00000000000E+00 -0.00000000000E+00 -0.45593999997E+02  0.45594000000E+02  0.51100000000E-03 0.  1.
    9900012    2    1    2    0    0  0.24940225195E+02  0.22677874634E+02 -0.22734673572E+02  0.50528853266E+02  0.29999979987E+02 0.  0.
         12    1    1    2    0    0 -0.24940225195E+02 -0.22677874634E+02  0.22734673572E+02  0.40659146734E+02  0.00000000000E+00 0. -1.
         11    1    3    3    0    0 -0.28463135174E+01  0.60696106749E+01 -0.32978451184E+01  0.74711081554E+01  0.51100000000E-03 0. -1.
        -11    1    3    3    0    0  0.21309794853E+02  0.13964816400E+02 -0.23757195707E+02  0.34835725942E+02  0.51100000000E-03 0.  1.
        -12    1    3    3    0    0  0.64767438593E+01  0.26434475593E+01  0.43203672526E+01  0.82220191690E+01  0.00000000000E+00 0.  1.
</event>
<event>
 7    1  0.3250765E-011  0.5052886E+02  0.7816164E-02  0.1300439E+00
        -11   -1    0    0    0    0  0.00000000000E+00  0.00000000000E+00  0.45593999997E+02  0.45594000000E+02  0.51100000000E-03 0.  1.
         11   -1    0    0    0    0 -0.00000000000E+00 -0.00000000000E+00 -0.45593999997E+02  0.45594000000E+02  0.51100000000E-03 0. -1.
    9900012    2    1    2    0    0 -0.22826676853E+02 -0.21936004236E+02  0.25513135727E+02  0.50528861389E+02  0.30000004678E+02 0.  0.
         12    1    1    2    0    0  0.22826676853E+02  0.21936004236E+02 -0.25513135727E+02  0.40659138611E+02  0.00000000000E+00 0. -1.
         11    1    3    3    0    0  0.16958108838E+01 -0.19012309542E+01 -0.19103195378E+01  0.31843012879E+01  0.51100000000E-03 0. -1.
        -11    1    3    3    0    0 -0.20691130746E+00 -0.48654876925E+01  0.15599494751E+02  0.16341971103E+02  0.51100000000E-03 0.  1.
         12    1    3    3    0    0 -0.24315576429E+02 -0.15169285589E+02  0.11823960513E+02  0.31002588998E+02  0.00000000000E+00 0. -1.
</event>
<event>
 7    1  0.3250765E-011  0.5052885E+02  0.7816164E-02  0.1300439E+00
        -11   -1    0    0    0    0  0.00000000000E+00  0.00000000000E+00  0.45593999997E+02  0.45594000000E+02  0.51100000000E-03 0.  1.
         11   -1    0    0    0    0 -0.00000000000E+00 -0.00000000000E+00 -0.45593999997E+02  0.45594000000E+02  0.51100000000E-03 0. -1.
    9900012    2    1    2    0    0 -0.15735130744E+02 -0.36219517235E+02  0.96808289044E+01  0.50528853224E+02  0.29999979860E+02 0.  0.
         12    1    1    2    0    0  0.15735130744E+02  0.36219517235E+02 -0.96808289044E+01  0.40659146776E+02  0.00000000000E+00 0. -1.
         11    1    3    3    0    0  0.96129166038E+00 -0.64835142941E+00  0.20068775888E+01  0.23177573535E+01  0.51100000000E-03 0. -1.
        -11    1    3    3    0    0 -0.78778391840E+01 -0.13997080664E+02 -0.10035740008E+02  0.18939236919E+02  0.51100000000E-03 0.  1.
        -12    1    3    3    0    0 -0.88185832203E+01 -0.21574085142E+02  0.17709691323E+02  0.29271858952E+02  0.00000000000E+00 0.  1.
</event>
<event>
 7    1  0.3250765E-011  0.5052886E+02  0.7816164E-02  0.1300439E+00
        -11   -1    0    0    0    0  0.00000000000E+00  0.00000000000E+00  0.45593999997E+02  0.45594000000E+02  0.51100000000E-03 0. -1.
         11   -1    0    0    0    0 -0.00000000000E+00 -0.00000000000E+00 -0.45593999997E+02  0.45594000000E+02  0.51100000000E-03 0.  1.
    9900012    2    1    2    0    0 -0.22733864307E+02 -0.13662719530E+02 -0.30816676297E+02  0.50528855527E+02  0.29999986859E+02 0.  0.
         12    1    1    2    0    0  0.22733864307E+02  0.13662719530E+02  0.30816676297E+02  0.40659144473E+02  0.00000000000E+00 0. -1.
         11    1    3    3    0    0 -0.16362643534E+02 -0.41200563583E+01 -0.19958149537E+02  0.26135009107E+02  0.51100000000E-03 0. -1.
        -11    1    3    3    0    0 -0.58037267807E+01 -0.13153808386E+02 -0.13626400238E+02  0.19808702716E+02  0.51100000000E-03 0.  1.
         12    1    3    3    0    0 -0.56749399277E+00  0.36111452145E+01  0.27678734778E+01  0.45851437035E+01  0.00000000000E+00 0. -1.
</event>
<event>
 7    1  0.3250765E-011  0.5052886E+02  0.7816164E-02  0.1300439E+00
        -11   -1    0    0    0    0  0.00000000000E+00  0.00000000000E+00  0.45593999997E+02  0.45594000000E+02  0.51100000000E-03 0.  1.
         11   -1    0    0    0    0 -0.00000000000E+00 -0.00000000000E+00 -0.45593999997E+02  0.45594000000E+02  0.51100000000E-03 0. -1.
    9900012    2    1    2    0    0 -0.33037269277E+02 -0.22114199584E+02  0.85244857659E+01  0.50528857829E+02  0.29999993858E+02 0.  0.
         12    1    1    2    0    0  0.33037269277E+02  0.22114199584E+02 -0.85244857659E+01  0.40659142171E+02  0.00000000000E+00 0. -1.
         11    1    3    3    0    0 -0.10689855168E+02 -0.55207709074E+01  0.16526232141E+01  0.12144261142E+02  0.51100000000E-03 0. -1.
        -11    1    3    3    0    0 -0.13184195247E+02 -0.28484670194E-01  0.12971712587E+02  0.18495652013E+02  0.51100000000E-03 0.  1.
         12    1    3    3    0    0 -0.91632188617E+01 -0.16564944006E+02 -0.60998500348E+01  0.19888944675E+02  0.00000000000E+00 0. -1.
</event>
<event>
 7    1  0.3250765E-011  0.5052886E+02  0.7816164E-02  0.1300439E+00
        -11   -1    0    0    0    0  0.00000000000E+00  0.00000000000E+00  0.45593999997E+02  0.45594000000E+02  0.51100000000E-03 0. -1.
         11   -1    0    0    0    0 -0.00000000000E+00 -0.00000000000E+00 -0.45593999997E+02  0.45594000000E+02  0.51100000000E-03 0.  1.
    9900012    2    1    2    0    0  0.40523422422E+02  0.29393295801E+01 -0.15422066568E+01  0.50528858045E+02  0.29999994514E+02 0.  0.
         12    1    1    2    0    0 -0.40523422422E+02 -0.29393295801E+01  0.15422066568E+01  0.40659141955E+02  0.00000000000E+00 0. -1.
         11    1    3    3    0    0  0.15530656022E+02  0.72482373236E+01  0.80921494921E+01  0.18953129146E+02  0.51100000000E-03 0. -1.
        -11    1    3    3    0    0  0.19490215173E+02  0.41964796777E+01 -0.65990211410E+01  0.21000619264E+02  0.51100000000E-03 0.  1.
        -12    1    3    3    0    0  0.55025512270E+01 -0.85053874213E+01 -0.30353350079E+01  0.10575109635E+02  0.00000000000E+00 0.  1.
</event>
<event>
 7    1  0.3250765E-011  0.5052887E+02  0.7816164E-02  0.1300439E+00
        -11   -1    0    0    0    0  0.00000000000E+00  0.00000000000E+00  0.45593999997E+02  0.45594000000E+02  0.51100000000E-03 0. -1.
         11   -1    0    0    0    0 -0.00000000000E+00 -0.00000000000E+00 -0.45593999997E+02  0.45594000000E+02  0.51100000000E-03 0.  1.
    9900012    2    1    2    0    0  0.29103465522E+02  0.18217398957E+02 -0.21777966161E+02  0.50528866460E+02  0.30000020092E+02 0.  0.
         12    1    1    2    0    0 -0.29103465522E+02 -0.18217398957E+02  0.21777966161E+02  0.40659133540E+02  0.00000000000E+00 0. -1.
         11    1    3    3    0    0 -0.26005828885E+00 -0.29320041163E+01 -0.81203433592E+01  0.86373754685E+01  0.51100000000E-03 0. -1.
        -11    1    3    3    0    0  0.55610667440E+01  0.88598219330E+01 -0.10662153740E+02  0.14936647236E+02  0.51100000000E-03 0.  1.
        -12    1    3    3    0    0  0.23802457067E+02  0.12289581140E+02 -0.29954690617E+01  0.26954843756E+02  0.00000000000E+00 0.  1.
</event>
<event>
 7    1  0.3250765E-011  0.5052886E+02  0.7816164E-02  0.1300439E+00
        -11   -1    0    0    0    0  0.00000000000E+00  0.00000000000E+00  0.45593999997E+02  0.45594000000E+02  0.51100000000E-03 0.  1.
         11   -1    0    0    0    0 -0.00000000000E+00 -0.00000000000E+00 -0.45593999997E+02  0.45594000000E+02  0.51100000000E-03 0. -1.
    9900012    2    1    2    0    0  0.22200681151E+02  0.24192764474E+02  0.23979271426E+02  0.50528861364E+02  0.30000004603E+02 0.  0.
         12    1    1    2    0    0 -0.22200681151E+02 -0.24192764474E+02 -0.23979271426E+02  0.40659138636E+02  0.00000000000E+00 0. -1.
         11    1    3    3    0    0  0.12108308982E+02  0.41842118873E+00  0.71756396635E+01  0.14081052075E+02  0.51100000000E-03 0. -1.
        -11    1    3    3    0    0  0.10112473540E+02  0.10177083397E+02  0.17743456422E+02  0.22818093558E+02  0.51100000000E-03 0.  1.
         12    1    3    3    0    0 -0.20101369959E-01  0.13597259888E+02 -0.93982465932E+00  0.13629715732E+02  0.00000000000E+00 0. -1.
</event>
<event>
 7    1  0.3250765E-011  0.5052886E+02  0.7816164E-02  0.1300439E+00
        -11   -1    0    0    0    0  0.00000000000E+00  0.00000000000E+00  0.45593999997E+02  0.45594000000E+02  0.51100000000E-03 0. -1.
         11   -1    0    0    0    0 -0.00000000000E+00 -0.00000000000E+00 -0.45593999997E+02  0.45594000000E+02  0.51100000000E-03 0.  1.
    9900012    2    1    2    0    0 -0.13881919999E+02 -0.32507110242E+02 -0.20093418623E+02  0.50528863375E+02  0.30000010715E+02 0.  0.
         12    1    1    2    0    0  0.13881919999E+02  0.32507110242E+02  0.20093418623E+02  0.40659136625E+02  0.00000000000E+00 0. -1.
         11    1    3    3    0    0 -0.25915623887E+01 -0.24765522127E+02 -0.86965179241E+01  0.26375683993E+02  0.51100000000E-03 0. -1.
        -11    1    3    3    0    0  0.39122369565E+01 -0.28809836784E+01 -0.49606170190E+01  0.69435859921E+01  0.51100000000E-03 0.  1.
        -12    1    3    3    0    0 -0.15202594566E+02 -0.48606044365E+01 -0.64362836802E+01  0.17209593390E+02  0.00000000000E+00 0.  1.
</event>
<event>
 7    1  0.3250765E-011  0.5052884E+02  0.7816164E-02  0.1300439E+00
        -11   -1    0    0    0    0  0.00000000000E+00  0.00000000000E+00  0.45593999997E+02  0.45594000000E+02  0.51100000000E-03 0.  1.
         11   -1    0    0    0    0 -0.00000000000E+00 -0.00000000000E+00 -0.45593999997E+02  0.45594000000E+02  0.51100000000E-03 0. -1.
    9900012    2    1    2    0    0  0.35275471837E+02 -0.16481090727E+02  0.11712480447E+02  0.50528837895E+02  0.29999933266E+02 0.  0.
         12    1    1    2    0    0 -0.35275471837E+02  0.16481090727E+02 -0.11712480447E+02  0.40659162105E+02  0.00000000000E+00 0. -1.
         11    1    3    3    0    0  0.20741162274E+00 -0.87918340211E+00 -0.25900462809E+01  0.27430499510E+01  0.51100000000E-03 0. -1.
        -11    1    3    3    0    0  0.17593124902E+02 -0.20845953138E+02  0.72440420881E+01  0.28223181112E+02  0.51100000000E-03 0.  1.
         12    1    3    3    0    0  0.17474935312E+02  0.52440458135E+01  0.70584846396E+01  0.19562606832E+02  0.00000000000E+00 0. -1.
</event>
<event>
 7    1  0.3250765E-011  0.5052889E+02  0.7816164E-02  0.1300439E+00
        -11   -1    0    0    0    0  0.00000000000E+00  0.00000000000E+00  0.45593999997E+02  0.45594000000E+02  0.51100000000E-03 0.  1.
         11   -1    0    0    0    0 -0.00000000000E+00 -0.00000000000E+00 -0.45593999997E+02  0.45594000000E+02  0.51100000000E-03 0. -1.
    9900012    2    1    2    0    0  0.22581361484E+02 -0.19100340745E+02  0.27900215797E+02  0.50528893461E+02  0.30000102163E+02 0.  0.
         12    1    1    2    0    0 -0.22581361484E+02  0.19100340745E+02 -0.27900215797E+02  0.40659106539E+02  0.00000000000E+00 0. -1.
         11    1    3    3    0    0  0.78524284903E+01 -0.17742991734E+02  0.18489298758E+02  0.26801652145E+02  0.51100000000E-03 0. -1.
        -11    1    3    3    0    0  0.50147049755E+01 -0.64185580648E+01 -0.14824075244E+01  0.82790510297E+01  0.51100000000E-03 0.  1.
        -12    1    3    3    0    0  0.97142280187E+01  0.50612090536E+01  0.10893324563E+02  0.15448190286E+02  0.00000000000E+00 0.  1.
</event>
<event>
 7    1  0.3250765E-011  0.5052885E+02  0.7816164E-02  0.1300439E+00
        -11   -1    0    0    0    0  0.00000000000E+00  0.00000000000E+00  0.45593999997E+02  0.45594000000E+02  0.51100000000E-03 0. -1.
         11   -1    0    0    0    0 -0.00000000000E+00 -0.00000000000E+00 -0.45593999997E+02  0.45594000000E+02  0.51100000000E-03 0.  1.
    9900012    2    1    2    0    0  0.12305988849E+02  0.24775913625E+02 -0.29797364773E+02  0.50528853367E+02  0.29999980294E+02 0.  0.
         12    1    1    2    0    0 -0.12305988849E+02 -0.24775913625E+02  0.29797364773E+02  0.40659146633E+02  0.00000000000E+00 0. -1.
         11    1    3    3    0    0  0.14452414457E+02  0.31322913098E+01 -0.66329006915E+01  0.16207371913E+02  0.51100000000E-03 0. -1.
        -11    1    3    3    0    0 -0.29673377846E+01  0.88225384052E+01 -0.19348380425E+01  0.95071486762E+01  0.51100000000E-03 0.  1.
        -12    1    3    3    0    0  0.82091217696E+00  0.12821083910E+02 -0.21229626039E+02  0.24814332778E+02  0.00000000000E+00 0.  1.
</event>
<event>
 7    1  0.3250765E-011  0.5052887E+02  0.7816164E-02  0.1300439E+00
        -11   -1    0    0    0    0  0.00000000000E+00  0.00000000000E+00  0.45593999997E+02  0.45594000000E+02  0.51100000000E-03 0.  1.
         11   -1    0    0    0    0 -0.00000000000E+00 -0.00000000000E+00 -0.45593999997E+02  0.45594000000E+02  0.51100000000E-03 0. -1.
    9900012    2    1    2    0    0 -0.38519772556E+01 -0.30478716440E+02  0.26634096217E+02  0.50528868603E+02  0.30000026607E+02 0.  0.
         12    1    1    2    0    0  0.38519772556E+01  0.30478716440E+02 -0.26634096217E+02  0.40659131397E+02  0.00000000000E+00 0. -1.
         11    1    3    3    0    0  0.55790932973E+00  0.19203584466E+01  0.56272856475E+00  0.20774270342E+01  0.51100000000E-03 0. -1.
        -11    1    3    3    0    0 -0.14026597832E+02 -0.18256717994E+02  0.10430310171E+02  0.25275374758E+02  0.51100000000E-03 0.  1.
        -12    1    3    3    0    0  0.96167112466E+01 -0.14142356893E+02  0.15641057481E+02  0.23176066811E+02  0.00000000000E+00 0.  1.
</event>
<event>
 7    1  0.3250765E-011  0.5052887E+02  0.7816164E-02  0.1300439E+00
        -11   -1    0    0    0    0  0.00000000000E+00  0.00000000000E+00  0.45593999997E+02  0.45594000000E+02  0.51100000000E-03 0.  1.
         11   -1    0    0    0    0 -0.00000000000E+00 -0.00000000000E+00 -0.45593999997E+02  0.45594000000E+02  0.51100000000E-03 0. -1.
    9900012    2    1    2    0    0  0.32158736407E+02 -0.96504546621E+01  0.22931404808E+02  0.50528869058E+02  0.30000027989E+02 0.  0.
         12    1    1    2    0    0 -0.32158736407E+02  0.96504546621E+01 -0.22931404808E+02  0.40659130942E+02  0.00000000000E+00 0. -1.
         11    1    3    3    0    0  0.10790781982E+02  0.52353293666E+01  0.98440572355E+01  0.15516285396E+02  0.51100000000E-03 0. -1.
        -11    1    3    3    0    0  0.21028755259E+02 -0.12027911640E+02  0.17400727740E+02  0.29827244799E+02  0.51100000000E-03 0.  1.
        -12    1    3    3    0    0  0.33919916524E+00 -0.28578723882E+01 -0.43133801669E+01  0.51853388631E+01  0.00000000000E+00 0.  1.
</event>
<event>
 7    1  0.3250765E-011  0.5052887E+02  0.7816164E-02  0.1300439E+00
        -11   -1    0    0    0    0  0.00000000000E+00  0.00000000000E+00  0.45593999997E+02  0.45594000000E+02  0.51100000000E-03 0.  1.
         11   -1    0    0    0    0 -0.00000000000E+00 -0.00000000000E+00 -0.45593999997E+02  0.45594000000E+02  0.51100000000E-03 0. -1.
    9900012    2    1    2    0    0 -0.68390092100E+00  0.19992195057E+01  0.40604191096E+02  0.50528869000E+02  0.30000027814E+02 0.  0.
         12    1    1    2    0    0  0.68390092100E+00 -0.19992195057E+01 -0.40604191096E+02  0.40659131000E+02  0.00000000000E+00 0. -1.
         11    1    3    3    0    0 -0.74423114578E+01  0.72651044460E+01  0.88949138933E+01  0.13685365756E+02  0.51100000000E-03 0. -1.
        -11    1    3    3    0    0  0.47303166945E+00  0.49267939262E+01  0.17869329911E+02  0.18542114472E+02  0.51100000000E-03 0.  1.
         12    1    3    3    0    0  0.62853788674E+01 -0.10192678866E+02  0.13839947291E+02  0.18301388773E+02  0.00000000000E+00 0. -1.
</event>
<event>
 7    1  0.3250765E-011  0.5052886E+02  0.7816164E-02  0.1300439E+00
        -11   -1    0    0    0    0  0.00000000000E+00  0.00000000000E+00  0.45593999997E+02  0.45594000000E+02  0.51100000000E-03 0.  1.
         11   -1    0    0    0    0 -0.00000000000E+00 -0.00000000000E+00 -0.45593999997E+02  0.45594000000E+02  0.51100000000E-03 0. -1.
    9900012    2    1    2    0    0  0.78018619361E+01  0.37230637762E+02  0.14358844391E+02  0.50528857730E+02  0.29999993557E+02 0.  0.
         12    1    1    2    0    0 -0.78018619361E+01 -0.37230637762E+02 -0.14358844391E+02  0.40659142270E+02  0.00000000000E+00 0. -1.
         11    1    3    3    0    0 -0.94943641916E+00  0.22736639391E+02 -0.19278263508E+01  0.22837966525E+02  0.51100000000E-03 0. -1.
        -11    1    3    3    0    0  0.71804709451E+01  0.17508564412E+02  0.12971831232E+02  0.22942916043E+02  0.51100000000E-03 0.  1.
        -12    1    3    3    0    0  0.15708274102E+01 -0.30145660409E+01  0.33148395093E+01  0.47479751621E+01  0.00000000000E+00 0.  1.
</event>
<event>
 7    1  0.3250765E-011  0.5052884E+02  0.7816164E-02  0.1300439E+00
        -11   -1    0    0    0    0  0.00000000000E+00  0.00000000000E+00  0.45593999997E+02  0.45594000000E+02  0.51100000000E-03 0. -1.
         11   -1    0    0    0    0 -0.00000000000E+00 -0.00000000000E+00 -0.45593999997E+02  0.45594000000E+02  0.51100000000E-03 0.  1.
    9900012    2    1    2    0    0 -0.32043196541E+02  0.25003440610E+02  0.11084842468E+01  0.50528840832E+02  0.29999942194E+02 0.  0.
         12    1    1    2    0    0  0.32043196541E+02 -0.25003440610E+02 -0.11084842468E+01  0.40659159168E+02  0.00000000000E+00 0. -1.
         11    1    3    3    0    0 -0.16574814131E+01  0.14168232465E+02 -0.25369572494E+01  0.14488692424E+02  0.51100000000E-03 0. -1.
        -11    1    3    3    0    0 -0.23157698745E+01  0.71018992640E+01 -0.13928014325E+00  0.74712222887E+01  0.51100000000E-03 0.  1.
        -12    1    3    3    0    0 -0.28069945253E+02  0.37333088812E+01  0.37847216395E+01  0.28568926119E+02  0.00000000000E+00 0.  1.
</event>
<event>
 7    1  0.5180321E-011  0.5052886E+02  0.7816164E-02  0.1300439E+00
        -11   -1    0    0    0    0  0.00000000000E+00  0.00000000000E+00  0.45593999997E+02  0.45594000000E+02  0.51100000000E-03 0. -1.
         11   -1    0    0    0    0 -0.00000000000E+00 -0.00000000000E+00 -0.45593999997E+02  0.45594000000E+02  0.51100000000E-03 0.  1.
    9900012    2    1    2    0    0 -0.35139058622E+02  0.20420429943E+02 -0.11910075254E+01  0.50528857131E+02  0.29999991736E+02 0.  0.
         12    1    1    2    0    0  0.35139058622E+02 -0.20420429943E+02  0.11910075254E+01  0.40659142869E+02  0.00000000000E+00 0. -1.
         11    1    3    3    0    0 -0.13241879442E+02  0.10625756062E+02 -0.10485147326E+02  0.19954758274E+02  0.51100000000E-03 0. -1.
        -11    1    3    3    0    0 -0.12914235788E+02  0.14137664039E+02  0.59698061478E+01  0.20057158726E+02  0.51100000000E-03 0.  1.
         12    1    3    3    0    0 -0.89829433920E+01 -0.43429901582E+01  0.33243336523E+01  0.10516940132E+02  0.00000000000E+00 0. -1.
</event>
<event>
 7    1  0.3250765E-011  0.5052886E+02  0.7816164E-02  0.1300439E+00
        -11   -1    0    0    0    0  0.00000000000E+00  0.00000000000E+00  0.45593999997E+02  0.45594000000E+02  0.51100000000E-03 0. -1.
         11   -1    0    0    0    0 -0.00000000000E+00 -0.00000000000E+00 -0.45593999997E+02  0.45594000000E+02  0.51100000000E-03 0.  1.
    9900012    2    1    2    0    0  0.14723956288E+02 -0.32243205180E+02  0.19918491221E+02  0.50528862508E+02  0.30000008080E+02 0.  0.
         12    1    1    2    0    0 -0.14723956288E+02  0.32243205180E+02 -0.19918491221E+02  0.40659137492E+02  0.00000000000E+00 0. -1.
         11    1    3    3    0    0  0.13197532434E+02 -0.71600608779E+01  0.13192043391E+01  0.15072545720E+02  0.51100000000E-03 0. -1.
        -11    1    3    3    0    0  0.25721612167E+01 -0.10475679381E+02 -0.11737757632E+01  0.10850512505E+02  0.51100000000E-03 0.  1.
         12    1    3    3    0    0 -0.10457373633E+01 -0.14607464921E+02  0.19773062645E+02  0.24605804283E+02  0.00000000000E+00 0. -1.
</event>
<event>
 7    1  0.3250765E-011  0.5052888E+02  0.7816164E-02  0.1300439E+00
        -11   -1    0    0    0    0  0.00000000000E+00  0.00000000000E+00  0.45593999997E+02  0.45594000000E+02  0.51100000000E-03 0. -1.
         11   -1    0    0    0    0 -0.00000000000E+00 -0.00000000000E+00 -0.45593999997E+02  0.45594000000E+02  0.51100000000E-03 0.  1.
    9900012    2    1    2    0    0  0.91624446053E+01 -0.30753448130E+02 -0.24968764466E+02  0.50528878490E+02  0.30000056658E+02 0.  0.
         12    1    1    2    0    0 -0.91624446053E+01  0.30753448130E+02  0.24968764466E+02  0.40659121510E+02  0.00000000000E+00 0. -1.
         11    1    3    3    0    0 -0.83230665294E-01 -0.10191006974E+02 -0.31220601238E+01  0.10658837186E+02  0.51100000000E-03 0. -1.
        -11    1    3    3    0    0 -0.72040251648E+01 -0.13701365550E+02 -0.90823592451E+01  0.17947552653E+02  0.51100000000E-03 0.  1.
         12    1    3    3    0    0  0.16449700435E+02 -0.68610756057E+01 -0.12764345097E+02  0.21922488651E+02  0.00000000000E+00 0. -1.
</event>
<event>
 7    1  0.3250765E-011  0.5052887E+02  0.7816164E-02  0.1300439E+00
        -11   -1    0    0    0    0  0.00000000000E+00  0.00000000000E+00  0.45593999997E+02  0.45594000000E+02  0.51100000000E-03 0.  1.
         11   -1    0    0    0    0 -0.00000000000E+00 -0.00000000000E+00 -0.45593999997E+02  0.45594000000E+02  0.51100000000E-03 0. -1.
    9900012    2    1    2    0    0  0.25536078249E+02  0.31583084308E+02  0.18927927664E+01  0.50528866079E+02  0.30000018934E+02 0.  0.
         12    1    1    2    0    0 -0.25536078249E+02 -0.31583084308E+02 -0.18927927664E+01  0.40659133921E+02  0.00000000000E+00 0. -1.
         11    1    3    3    0    0  0.10167930434E+02  0.44633083198E+01  0.48340128876E+01  0.12110970702E+02  0.51100000000E-03 0. -1.
        -11    1    3    3    0    0  0.49835928601E+01  0.13952817185E+02  0.94446665402E+01  0.17570402144E+02  0.51100000000E-03 0.  1.
         12    1    3    3    0    0  0.10384554955E+02  0.13166958803E+02 -0.12385886661E+02  0.20847493233E+02  0.00000000000E+00 0. -1.
</event>
<event>
 7    1  0.3250765E-011  0.5052886E+02  0.7816164E-02  0.1300439E+00
        -11   -1    0    0    0    0  0.00000000000E+00  0.00000000000E+00  0.45593999997E+02  0.45594000000E+02  0.51100000000E-03 0.  1.
         11   -1    0    0    0    0 -0.00000000000E+00 -0.00000000000E+00 -0.45593999997E+02  0.45594000000E+02  0.51100000000E-03 0. -1.
    9900012    2    1    2    0    0  0.18495185455E+02 -0.11819491474E+02  0.34225628116E+02  0.50528857318E+02  0.29999992303E+02 0.  0.
         12    1    1    2    0    0 -0.18495185455E+02  0.11819491474E+02 -0.34225628116E+02  0.40659142682E+02  0.00000000000E+00 0. -1.
         11    1    3    3    0    0  0.41961561585E+00  0.33149209823E+01  0.44635572341E+01  0.55756723206E+01  0.51100000000E-03 0. -1.
        -11    1    3    3    0    0  0.18538029729E+02 -0.15187071149E+01  0.10496875686E+02  0.21357654762E+02  0.51100000000E-03 0.  1.
        -12    1    3    3    0    0 -0.46245988976E+00 -0.13615705342E+02  0.19265195196E+02  0.23595530235E+02  0.00000000000E+00 0.  1.
</event>
<event>
 7    1  0.3733253E-011  0.5052886E+02  0.7816164E-02  0.1300439E+00
        -11   -1    0    0    0    0  0.00000000000E+00  0.00000000000E+00  0.45593999997E+02  0.45594000000E+02  0.51100000000E-03 0.  1.
         11   -1    0    0    0    0 -0.00000000000E+00 -0.00000000000E+00 -0.45593999997E+02  0.45594000000E+02  0.51100000000E-03 0. -1.
    9900012    2    1    2    0    0  0.26218812881E+02  0.15410427550E+02 -0.26986265806E+02  0.50528856277E+02  0.29999989139E+02 0.  0.
         12    1    1    2    0    0 -0.26218812881E+02 -0.15410427550E+02  0.26986265806E+02  0.40659143723E+02  0.00000000000E+00 0. -1.
         11    1    3    3    0    0  0.24874164507E+01  0.54074426625E+01 -0.85722010655E+01  0.10436010163E+02  0.51100000000E-03 0. -1.
        -11    1    3    3    0    0  0.26860109821E+02  0.12505791847E+02 -0.20039281819E+02  0.35769164729E+02  0.51100000000E-03 0.  1.
         12    1    3    3    0    0 -0.31287133912E+01 -0.25028069600E+01  0.16252170791E+01  0.43236813848E+01  0.00000000000E+00 0. -1.
</event>
<event>
 7    1  0.3250765E-011  0.5052887E+02  0.7816164E-02  0.1300439E+00
        -11   -1    0    0    0    0  0.00000000000E+00  0.00000000000E+00  0.45593999997E+02  0.45594000000E+02  0.51100000000E-03 0. -1.
         11   -1    0    0    0    0 -0.00000000000E+00 -0.00000000000E+00 -0.45593999997E+02  0.45594000000E+02  0.51100000000E-03 0.  1.
    9900012    2    1    2    0    0  0.31614795597E+02 -0.25099726318E+02  0.48655278685E+01  0.50528869128E+02  0.30000028201E+02 0.  0.
         12    1    1    2    0    0 -0.31614795597E+02  0.25099726318E+02 -0.48655278685E+01  0.40659130872E+02  0.00000000000E+00 0. -1.
         11    1    3    3    0    0  0.55096278486E+01 -0.13979122389E+02 -0.27398447952E+01  0.15273461021E+02  0.51100000000E-03 0. -1.
        -11    1    3    3    0    0 -0.25811986772E+01 -0.20748216543E+01 -0.17625897009E+01  0.37515589057E+01  0.51100000000E-03 0.  1.
        -12    1    3    3    0    0  0.28686366425E+02 -0.90457822747E+01  0.93679623646E+01  0.31503849201E+02  0.00000000000E+00 0.  1.
</event>
<event>
 7    1  0.3250765E-011  0.5052886E+02  0.7816164E-02  0.1300439E+00
        -11   -1    0    0    0    0  0.00000000000E+00  0.00000000000E+00  0.45593999997E+02  0.45594000000E+02  0.51100000000E-03 0.  1.
         11   -1    0    0    0    0 -0.00000000000E+00 -0.00000000000E+00 -0.45593999997E+02  0.45594000000E+02  0.51100000000E-03 0. -1.
    9900012    2    1    2    0    0 -0.25528252473E+02 -0.11107045982E+02  0.29632877064E+02  0.50528861447E+02  0.30000004854E+02 0.  0.
         12    1    1    2    0    0  0.25528252473E+02  0.11107045982E+02 -0.29632877064E+02  0.40659138553E+02  0.00000000000E+00 0. -1.
         11    1    3    3    0    0  0.23446385330E+01  0.16446219329E+01 -0.20230019874E+01  0.35063725494E+01  0.51100000000E-03 0. -1.
        -11    1    3    3    0    0 -0.76142599945E+01 -0.11831492489E+02  0.94441614092E+01  0.16945599865E+02  0.51100000000E-03 0.  1.
        -12    1    3    3    0    0 -0.20258631012E+02 -0.92017542544E+00  0.22211717642E+02  0.30076889033E+02  0.00000000000E+00 0.  1.
</event>
<event>
 7    1  0.3250765E-011  0.5052886E+02  0.7816164E-02  0.1300439E+00
        -11   -1    0    0    0    0  0.00000000000E+00  0.00000000000E+00  0.45593999997E+02  0.45594000000E+02  0.51100000000E-03 0.  1.
         11   -1    0    0    0    0 -0.00000000000E+00 -0.00000000000E+00 -0.45593999997E+02  0.45594000000E+02  0.51100000000E-03 0. -1.
    9900012    2    1    2    0    0 -0.33379851912E+02 -0.15668152726E+02  0.17130689893E+02  0.50528855153E+02  0.29999985723E+02 0.  0.
         12    1    1    2    0    0  0.33379851912E+02  0.15668152726E+02 -0.17130689893E+02  0.40659144847E+02  0.00000000000E+00 0. -1.
         11    1    3    3    0    0 -0.15834622823E+02  0.52143300482E+00  0.14626316237E+02  0.21562381577E+02  0.51100000000E-03 0. -1.
        -11    1    3    3    0    0 -0.93116193373E+01  0.85002433870E+00 -0.18874824250E+01  0.95389405190E+01  0.51100000000E-03 0.  1.
        -12    1    3    3    0    0 -0.82336097511E+01 -0.17039610070E+02  0.43918560807E+01  0.19427533057E+02  0.00000000000E+00 0.  1.
</event>
<event>
 7    1  0.3250765E-011  0.5052886E+02  0.7816164E-02  0.1300439E+00
        -11   -1    0    0    0    0  0.00000000000E+00  0.00000000000E+00  0.45593999997E+02  0.45594000000E+02  0.51100000000E-03 0. -1.
         11   -1    0    0    0    0 -0.00000000000E+00 -0.00000000000E+00 -0.45593999997E+02  0.45594000000E+02  0.51100000000E-03 0.  1.
    9900012    2    1    2    0    0 -0.33109159190E+02  0.19838357905E+02  0.12782357452E+02  0.50528861684E+02  0.30000005573E+02 0.  0.
         12    1    1    2    0    0  0.33109159190E+02 -0.19838357905E+02 -0.12782357452E+02  0.40659138316E+02  0.00000000000E+00 0. -1.
         11    1    3    3    0    0 -0.21175877506E+02  0.14499078769E+02  0.14004081647E+02  0.29236199759E+02  0.51100000000E-03 0. -1.
        -11    1    3    3    0    0 -0.12717448159E+02 -0.13081595976E+00  0.43537125064E+01  0.13442671362E+02  0.51100000000E-03 0.  1.
         12    1    3    3    0    0  0.78416647623E+00  0.54700950951E+01 -0.55754367014E+01  0.78499905620E+01  0.00000000000E+00 0. -1.
</event>
<event>
 7    1  0.3250765E-011  0.5052887E+02  0.7816164E-02  0.1300439E+00
        -11   -1    0    0    0    0  0.00000000000E+00  0.00000000000E+00  0.45593999997E+02  0.45594000000E+02  0.51100000000E-03 0.  1.
         11   -1    0    0    0    0 -0.00000000000E+00 -0.00000000000E+00 -0.45593999997E+02  0.45594000000E+02  0.51100000000E-03 0. -1.
    9900012    2    1    2    0    0 -0.28657219703E+02 -0.14080813577E+01  0.28808787103E+02  0.50528866358E+02  0.30000019781E+02 0.  0.
         12    1    1    2    0    0  0.28657219703E+02  0.14080813577E+01 -0.28808787103E+02  0.40659133642E+02  0.00000000000E+00 0. -1.
         11    1    3    3    0    0 -0.27146764529E+01 -0.67854128059E+01  0.10122964541E+01  0.73780783110E+01  0.51100000000E-03 0. -1.
        -11    1    3    3    0    0 -0.24464335366E+02 -0.27106828890E+01  0.18871701176E+02  0.31016005742E+02  0.51100000000E-03 0.  1.
         12    1    3    3    0    0 -0.14782078838E+01  0.80880143372E+01  0.89247894725E+01  0.12134782305E+02  0.00000000000E+00 0. -1.
</event>
<event>
 7    1  0.3250765E-011  0.5052886E+02  0.7816164E-02  0.1300439E+00
        -11   -1    0    0    0    0  0.00000000000E+00  0.00000000000E+00  0.45593999997E+02  0.45594000000E+02  0.51100000000E-03 0.  1.
         11   -1    0    0    0    0 -0.00000000000E+00 -0.00000000000E+00 -0.45593999997E+02  0.45594000000E+02  0.51100000000E-03 0. -1.
    9900012    2    1    2    0    0 -0.14280092366E+02  0.37128338108E+02 -0.84101737873E+01  0.50528861399E+02  0.30000004708E+02 0.  0.
         12    1    1    2    0    0  0.14280092366E+02 -0.37128338108E+02  0.84101737873E+01  0.40659138601E+02  0.00000000000E+00 0. -1.
         11    1    3    3    0    0 -0.17386226681E+02  0.13208306774E+02  0.10966654163E+01  0.21861905711E+02  0.51100000000E-03 0. -1.
        -11    1    3    3    0    0  0.92414346082E+00  0.98258218134E+01  0.23210151321E+01  0.10138438092E+02  0.51100000000E-03 0.  1.
         12    1    3    3    0    0  0.21819908535E+01  0.14094209521E+02 -0.11827854336E+02  0.18528517596E+02  0.00000000000E+00 0. -1.
</event>
<event>
 7    1  0.3276413E-011  0.5052886E+02  0.7816164E-02  0.1300439E+00
        -11   -1    0    0    0    0  0.00000000000E+00  0.00000000000E+00  0.45593999997E+02  0.45594000000E+02  0.51100000000E-03 0. -1.
         11   -1    0    0    0    0 -0.00000000000E+00 -0.00000000000E+00 -0.45593999997E+02  0.45594000000E+02  0.51100000000E-03 0.  1.
    9900012    2    1    2    0    0 -0.59836379649E+00 -0.24718104738E+02 -0.32277278010E+02  0.50528863058E+02  0.30000009752E+02 0.  0.
         12    1    1    2    0    0  0.59836379649E+00  0.24718104738E+02  0.32277278010E+02  0.40659136942E+02  0.00000000000E+00 0. -1.
         11    1    3    3    0    0 -0.54797473161E+01 -0.37540741009E+01 -0.24648130426E+01  0.70849140149E+01  0.51100000000E-03 0. -1.
        -11    1    3    3    0    0 -0.55387550121E+01 -0.15272793588E+02 -0.26557901625E+02  0.31132911365E+02  0.51100000000E-03 0.  1.
         12    1    3    3    0    0  0.10420138532E+02 -0.56912370497E+01 -0.32545633426E+01  0.12311037679E+02  0.00000000000E+00 0. -1.
</event>
<event>
 7    1  0.3250765E-011  0.5052885E+02  0.7816164E-02  0.1300439E+00
        -11   -1    0    0    0    0  0.00000000000E+00  0.00000000000E+00  0.45593999997E+02  0.45594000000E+02  0.51100000000E-03 0.  1.
         11   -1    0    0    0    0 -0.00000000000E+00 -0.00000000000E+00 -0.45593999997E+02  0.45594000000E+02  0.51100000000E-03 0. -1.
    9900012    2    1    2    0    0 -0.37026496749E+01  0.17807176105E+02  0.36364284046E+02  0.50528852326E+02  0.29999977130E+02 0.  0.
         12    1    1    2    0    0  0.37026496749E+01 -0.17807176105E+02 -0.36364284046E+02  0.40659147674E+02  0.00000000000E+00 0. -1.
         11    1    3    3    0    0 -0.37734209881E+00  0.30805948791E+01 -0.35785485126E+01  0.47369253305E+01  0.51100000000E-03 0. -1.
        -11    1    3    3    0    0  0.44918053946E+01 -0.11829986028E+01  0.91449245927E+01  0.10256970677E+02  0.51100000000E-03 0.  1.
        -12    1    3    3    0    0 -0.78171129707E+01  0.15909579828E+02  0.30797907965E+02  0.35534956319E+02  0.00000000000E+00 0.  1.
</event>
<event>
 7    1  0.3250765E-011  0.5052886E+02  0.7816164E-02  0.1300439E+00
        -11   -1    0    0    0    0  0.00000000000E+00  0.00000000000E+00  0.45593999997E+02  0.45594000000E+02  0.51100000000E-03 0. -1.
         11   -1    0    0    0    0 -0.00000000000E+00 -0.00000000000E+00 -0.45593999997E+02  0.45594000000E+02  0.51100000000E-03 0.  1.
    9900012    2    1    2    0    0 -0.23463746038E+02 -0.37262552672E+01 -0.32995962728E+02  0.50528856959E+02  0.29999991214E+02 0.  0.
         12    1    1    2    0    0  0.23463746038E+02  0.37262552672E+01  0.32995962728E+02  0.40659143041E+02  0.00000000000E+00 0. -1.
         11    1    3    3    0    0 -0.10078730546E+02 -0.35212972132E+01 -0.35922070506E+01  0.11264292932E+02  0.51100000000E-03 0. -1.
        -11    1    3    3    0    0  0.22929464659E+01 -0.78906419677E+01 -0.12523166415E+02  0.14978302023E+02  0.51100000000E-03 0.  1.
        -12    1    3    3    0    0 -0.15677961957E+02  0.76856839137E+01 -0.16880589262E+02  0.24286262005E+02  0.00000000000E+00 0.  1.
</event>
<event>
 7    1  0.3250765E-011  0.5052886E+02  0.7816164E-02  0.1300439E+00
        -11   -1    0    0    0    0  0.00000000000E+00  0.00000000000E+00  0.45593999997E+02  0.45594000000E+02  0.51100000000E-03 0.  1.
         11   -1    0    0    0    0 -0.00000000000E+00 -0.00000000000E+00 -0.45593999997E+02  0.45594000000E+02  0.51100000000E-03 0. -1.
    9900012    2    1    2    0    0  0.36798472273E+02 -0.10022325485E+02  0.14092229817E+02  0.50528861900E+02  0.30000006232E+02 0.  0.
         12    1    1    2    0    0 -0.36798472273E+02  0.10022325485E+02 -0.14092229817E+02  0.40659138100E+02  0.00000000000E+00 0. -1.
         11    1    3    3    0    0 -0.26159978706E+01  0.73292215014E+00  0.58568075406E+01  0.64562229334E+01  0.51100000000E-03 0. -1.
        -11    1    3    3    0    0  0.83037762620E+01 -0.79269434089E+01  0.54552209629E+01  0.12710175767E+02  0.51100000000E-03 0.  1.
         12    1    3    3    0    0  0.31110693882E+02 -0.28283042266E+01  0.27802013134E+01  0.31362463200E+02  0.00000000000E+00 0. -1.
</event>
<event>
 7    1  0.3250765E-011  0.5052886E+02  0.7816164E-02  0.1300439E+00
        -11   -1    0    0    0    0  0.00000000000E+00  0.00000000000E+00  0.45593999997E+02  0.45594000000E+02  0.51100000000E-03 0. -1.
         11   -1    0    0    0    0 -0.00000000000E+00 -0.00000000000E+00 -0.45593999997E+02  0.45594000000E+02  0.51100000000E-03 0.  1.
    9900012    2    1    2    0    0  0.29383147576E+02 -0.27877849145E+02 -0.35526815080E+01  0.50528863508E+02  0.30000011119E+02 0.  0.
         12    1    1    2    0    0 -0.29383147576E+02  0.27877849145E+02  0.35526815080E+01  0.40659136492E+02  0.00000000000E+00 0. -1.
         11    1    3    3    0    0  0.43756183672E+01 -0.32181889484E+01  0.62410553702E+01  0.82736659709E+01  0.51100000000E-03 0. -1.
        -11    1    3    3    0    0 -0.23365946389E+01 -0.97553718084E+00 -0.52075863084E+01  0.57905356158E+01  0.51100000000E-03 0.  1.
        -12    1    3    3    0    0  0.27344123847E+02 -0.23684123015E+02 -0.45861505698E+01  0.36464661921E+02  0.00000000000E+00 0.  1.
</event>
<event>
 7    1  0.3250765E-011  0.5052885E+02  0.7816164E-02  0.1300439E+00
        -11   -1    0    0    0    0  0.00000000000E+00  0.00000000000E+00  0.45593999997E+02  0.45594000000E+02  0.51100000000E-03 0.  1.
         11   -1    0    0    0    0 -0.00000000000E+00 -0.00000000000E+00 -0.45593999997E+02  0.45594000000E+02  0.51100000000E-03 0. -1.
    9900012    2    1    2    0    0 -0.75539363932E+01  0.27120917377E+02  0.29335304778E+02  0.50528853171E+02  0.29999979699E+02 0.  0.
         12    1    1    2    0    0  0.75539363932E+01 -0.27120917377E+02 -0.29335304778E+02  0.40659146829E+02  0.00000000000E+00 0. -1.
         11    1    3    3    0    0 -0.39176853031E+01 -0.11823050700E+01  0.11622382156E+01  0.42540452917E+01  0.51100000000E-03 0. -1.
        -11    1    3    3    0    0  0.73984160020E+01  0.65045586174E+01  0.12693842084E+01  0.99326320115E+01  0.51100000000E-03 0.  1.
        -12    1    3    3    0    0 -0.11034667092E+02  0.21798663830E+02  0.26903682354E+02  0.36342175868E+02  0.00000000000E+00 0.  1.
</event>
<event>
 7    1  0.3250765E-011  0.5052885E+02  0.7816164E-02  0.1300439E+00
        -11   -1    0    0    0    0  0.00000000000E+00  0.00000000000E+00  0.45593999997E+02  0.45594000000E+02  0.51100000000E-03 0.  1.
         11   -1    0    0    0    0 -0.00000000000E+00 -0.00000000000E+00 -0.45593999997E+02  0.45594000000E+02  0.51100000000E-03 0. -1.
    9900012    2    1    2    0    0  0.24932058620E+02 -0.14234457843E+02  0.28791301484E+02  0.50528851236E+02  0.29999973816E+02 0.  0.
         12    1    1    2    0    0 -0.24932058620E+02  0.14234457843E+02 -0.28791301484E+02  0.40659148764E+02  0.00000000000E+00 0. -1.
         11    1    3    3    0    0 -0.55360247684E+01 -0.28908230636E+01  0.13866028862E+01  0.63974288622E+01  0.51100000000E-03 0. -1.
        -11    1    3    3    0    0  0.96218618707E+01 -0.91223657745E+01  0.13813255987E+02  0.19146901170E+02  0.51100000000E-03 0.  1.
        -12    1    3    3    0    0  0.20846221517E+02 -0.22212690050E+01  0.13591442611E+02  0.24984521204E+02  0.00000000000E+00 0.  1.
</event>
<event>
 7    1  0.3250765E-011  0.5052886E+02  0.7816164E-02  0.1300439E+00
        -11   -1    0    0    0    0  0.00000000000E+00  0.00000000000E+00  0.45593999997E+02  0.45594000000E+02  0.51100000000E-03 0.  1.
         11   -1    0    0    0    0 -0.00000000000E+00 -0.00000000000E+00 -0.45593999997E+02  0.45594000000E+02  0.51100000000E-03 0. -1.
    9900012    2    1    2    0    0 -0.14297159504E+02 -0.32480631251E+02  0.19843520360E+02  0.50528862323E+02  0.30000007516E+02 0.  0.
         12    1    1    2    0    0  0.14297159504E+02  0.32480631251E+02 -0.19843520360E+02  0.40659137677E+02  0.00000000000E+00 0. -1.
         11    1    3    3    0    0  0.32134177392E+01 -0.46838700404E+01  0.85809314557E+01  0.10290630546E+02  0.51100000000E-03 0. -1.
        -11    1    3    3    0    0  0.78453439847E-01 -0.13178498493E+01  0.81966130580E+01  0.83022496380E+01  0.51100000000E-03 0.  1.
        -12    1    3    3    0    0 -0.17589030683E+02 -0.26478911362E+02  0.30659758460E+01  0.31935982139E+02  0.00000000000E+00 0.  1.
</event>
<event>
 7    1  0.3250765E-011  0.5052887E+02  0.7816164E-02  0.1300439E+00
        -11   -1    0    0    0    0  0.00000000000E+00  0.00000000000E+00  0.45593999997E+02  0.45594000000E+02  0.51100000000E-03 0. -1.
         11   -1    0    0    0    0 -0.00000000000E+00 -0.00000000000E+00 -0.45593999997E+02  0.45594000000E+02  0.51100000000E-03 0.  1.
    9900012    2    1    2    0    0 -0.20610820474E+02 -0.34582662484E+02 -0.56919858683E+01  0.50528866116E+02  0.30000019045E+02 0.  0.
         12    1    1    2    0    0  0.20610820474E+02  0.34582662484E+02  0.56919858683E+01  0.40659133884E+02  0.00000000000E+00 0. -1.
         11    1    3    3    0    0 -0.73223334603E+01 -0.10894080775E+00  0.90233797434E+00  0.73785262407E+01  0.51100000000E-03 0. -1.
        -11    1    3    3    0    0  0.22148769113E+01 -0.12910728984E+01 -0.59945151553E+01  0.65197209426E+01  0.51100000000E-03 0.  1.
        -12    1    3    3    0    0 -0.15503363925E+02 -0.33182648778E+02 -0.59980868733E+00  0.36630618932E+02  0.00000000000E+00 0.  1.
</event>
<event>
 7    1  0.3250765E-011  0.5052885E+02  0.7816164E-02  0.1300439E+00
        -11   -1    0    0    0    0  0.00000000000E+00  0.00000000000E+00  0.45593999997E+02  0.45594000000E+02  0.51100000000E-03 0. -1.
         11   -1    0    0    0    0 -0.00000000000E+00 -0.00000000000E+00 -0.45593999997E+02  0.45594000000E+02  0.51100000000E-03 0.  1.
    9900012    2    1    2    0    0 -0.33570312140E+02 -0.20184164619E+02 -0.10899535663E+02  0.50528852982E+02  0.29999979125E+02 0.  0.
         12    1    1    2    0    0  0.33570312140E+02  0.20184164619E+02  0.10899535663E+02  0.40659147018E+02  0.00000000000E+00 0. -1.
         11    1    3    3    0    0  0.25548074079E+01 -0.55084637492E+00 -0.40383224257E+01  0.48102516457E+01  0.51100000000E-03 0. -1.
        -11    1    3    3    0    0 -0.58113169744E+01  0.26357093650E+01  0.26673607634E+01  0.69161537387E+01  0.51100000000E-03 0.  1.
        -12    1    3    3    0    0 -0.30313802574E+02 -0.22269027609E+02 -0.95285740008E+01  0.38802447598E+02  0.00000000000E+00 0.  1.
</event>
<event>
 7    1  0.3250765E-011  0.5052886E+02  0.7816164E-02  0.1300439E+00
        -11   -1    0    0    0    0  0.00000000000E+00  0.00000000000E+00  0.45593999997E+02  0.45594000000E+02  0.51100000000E-03 0.  1.
         11   -1    0    0    0    0 -0.00000000000E+00 -0.00000000000E+00 -0.45593999997E+02  0.45594000000E+02  0.51100000000E-03 0. -1.
    9900012    2    1    2    0    0 -0.22834383797E+02 -0.99685975054E+01  0.32130730099E+02  0.50528857900E+02  0.29999994072E+02 0.  0.
         12    1    1    2    0    0  0.22834383797E+02  0.99685975054E+01 -0.32130730099E+02  0.40659142100E+02  0.00000000000E+00 0. -1.
         11    1    3    3    0    0  0.11881025433E+01 -0.28137191450E+01 -0.20211598045E-01  0.30543431127E+01  0.51100000000E-03 0. -1.
        -11    1    3    3    0    0 -0.18534913787E+02 -0.12273565211E+02  0.10548925569E+02  0.24606163110E+02  0.51100000000E-03 0.  1.
         12    1    3    3    0    0 -0.54875725532E+01  0.51186868511E+01  0.21602016128E+02  0.22868351677E+02  0.00000000000E+00 0. -1.
</event>
<event>
 7    1  0.3250765E-011  0.5052885E+02  0.7816164E-02  0.1300439E+00
        -11   -1    0    0    0    0  0.00000000000E+00  0.00000000000E+00  0.45593999997E+02  0.45594000000E+02  0.51100000000E-03 0.  1.
         11   -1    0    0    0    0 -0.00000000000E+00 -0.00000000000E+00 -0.45593999997E+02  0.45594000000E+02  0.51100000000E-03 0. -1.
    9900012    2    1    2    0    0 -0.75880508094E+00 -0.36134089328E+02  0.18625732715E+02  0.50528854462E+02  0.29999983623E+02 0.  0.
         12    1    1    2    0    0  0.75880508094E+00  0.36134089328E+02 -0.18625732715E+02  0.40659145538E+02  0.00000000000E+00 0. -1.
         11    1    3    3    0    0  0.10062366532E+02 -0.24964642357E+01  0.47234628990E+00  0.10378182172E+02  0.51100000000E-03 0. -1.
        -11    1    3    3    0    0 -0.18765579145E+00 -0.84024674328E+01  0.36482676626E+01  0.91622339445E+01  0.51100000000E-03 0.  1.
         12    1    3    3    0    0 -0.10633515822E+02 -0.25235157659E+02  0.14505118763E+02  0.30988438346E+02  0.00000000000E+00 0. -1.
</event>
<event>
 7    1  0.3250765E-011  0.5052885E+02  0.7816164E-02  0.1300439E+00
        -11   -1    0    0    0    0  0.00000000000E+00  0.00000000000E+00  0.45593999997E+02  0.45594000000E+02  0.51100000000E-03 0.  1.
         11   -1    0    0    0    0 -0.00000000000E+00 -0.00000000000E+00 -0.45593999997E+02  0.45594000000E+02  0.51100000000E-03 0. -1.
    9900012    2    1    2    0    0  0.23134785971E+02  0.33116831690E+02  0.46069168000E+01  0.50528849178E+02  0.29999967563E+02 0.  0.
         12    1    1    2    0    0 -0.23134785971E+02 -0.33116831690E+02 -0.46069168000E+01  0.40659150822E+02  0.00000000000E+00 0. -1.
         11    1    3    3    0    0  0.12942156486E+02  0.16773560059E+02 -0.71075281096E+01  0.22346558743E+02  0.51100000000E-03 0. -1.
        -11    1    3    3    0    0 -0.41801339040E+01  0.46135567571E+00  0.16829849985E+01  0.45297690097E+01  0.51100000000E-03 0.  1.
        -12    1    3    3    0    0  0.14372763388E+02  0.15881915956E+02  0.10031459911E+02  0.23652521426E+02  0.00000000000E+00 0.  1.
</event>
<event>
 7    1  0.3250765E-011  0.5052886E+02  0.7816164E-02  0.1300439E+00
        -11   -1    0    0    0    0  0.00000000000E+00  0.00000000000E+00  0.45593999997E+02  0.45594000000E+02  0.51100000000E-03 0.  1.
         11   -1    0    0    0    0 -0.00000000000E+00 -0.00000000000E+00 -0.45593999997E+02  0.45594000000E+02  0.51100000000E-03 0. -1.
    9900012    2    1    2    0    0 -0.13356186355E+01  0.24063920839E+02  0.32746142690E+02  0.50528855587E+02  0.29999987043E+02 0.  0.
         12    1    1    2    0    0  0.13356186355E+01 -0.24063920839E+02 -0.32746142690E+02  0.40659144413E+02  0.00000000000E+00 0. -1.
         11    1    3    3    0    0  0.76882050961E+01  0.27031640775E+01  0.90178431102E+01  0.12154714651E+02  0.51100000000E-03 0. -1.
        -11    1    3    3    0    0 -0.45113591156E+01 -0.13548217688E+01 -0.64279033288E+00  0.47540596093E+01  0.51100000000E-03 0.  1.
        -12    1    3    3    0    0 -0.45124646160E+01  0.22715578531E+02  0.24371089913E+02  0.33620081327E+02  0.00000000000E+00 0.  1.
</event>
<event>
 7    1  0.3250765E-011  0.5052886E+02  0.7816164E-02  0.1300439E+00
        -11   -1    0    0    0    0  0.00000000000E+00  0.00000000000E+00  0.45593999997E+02  0.45594000000E+02  0.51100000000E-03 0.  1.
         11   -1    0    0    0    0 -0.00000000000E+00 -0.00000000000E+00 -0.45593999997E+02  0.45594000000E+02  0.51100000000E-03 0. -1.
    9900012    2    1    2    0    0  0.39895052562E+02  0.64125218036E+01  0.45199853652E+01  0.50528856840E+02  0.29999990852E+02 0.  0.
         12    1    1    2    0    0 -0.39895052562E+02 -0.64125218036E+01 -0.45199853652E+01  0.40659143160E+02  0.00000000000E+00 0. -1.
         11    1    3    3    0    0  0.39405203534E+01  0.56316983816E+01 -0.29751344895E+01  0.74896697396E+01  0.51100000000E-03 0. -1.
        -11    1    3    3    0    0  0.21201067544E+02 -0.28179787293E+01 -0.65354432867E+01  0.22363771782E+02  0.51100000000E-03 0.  1.
        -12    1    3    3    0    0  0.14753464664E+02  0.35988021512E+01  0.14030563141E+02  0.20675415319E+02  0.00000000000E+00 0.  1.
</event>
<event>
 7    1  0.3250765E-011  0.5052890E+02  0.7816164E-02  0.1300439E+00
        -11   -1    0    0    0    0  0.00000000000E+00  0.00000000000E+00  0.45593999997E+02  0.45594000000E+02  0.51100000000E-03 0. -1.
         11   -1    0    0    0    0 -0.00000000000E+00 -0.00000000000E+00 -0.45593999997E+02  0.45594000000E+02  0.51100000000E-03 0.  1.
    9900012    2    1    2    0    0 -0.31660990475E+02  0.20748914107E+02 -0.14840031647E+02  0.50528901464E+02  0.30000126490E+02 0.  0.
         12    1    1    2    0    0  0.31660990475E+02 -0.20748914107E+02  0.14840031647E+02  0.40659098536E+02  0.00000000000E+00 0. -1.
         11    1    3    3    0    0 -0.69189953854E+01  0.15644511149E+02 -0.78633245848E+00  0.17124296927E+02  0.51100000000E-03 0. -1.
        -11    1    3    3    0    0 -0.40869376320E+01  0.60970860534E+01  0.15464824158E+01  0.75012749366E+01  0.51100000000E-03 0.  1.
        -12    1    3    3    0    0 -0.20655057458E+02 -0.99268309570E+00 -0.15600181605E+02  0.25903329601E+02  0.00000000000E+00 0.  1.
</event>
<event>
 7    1  0.3250765E-011  0.5052887E+02  0.7816164E-02  0.1300439E+00
        -11   -1    0    0    0    0  0.00000000000E+00  0.00000000000E+00  0.45593999997E+02  0.45594000000E+02  0.51100000000E-03 0.  1.
         11   -1    0    0    0    0 -0.00000000000E+00 -0.00000000000E+00 -0.45593999997E+02  0.45594000000E+02  0.51100000000E-03 0. -1.
    9900012    2    1    2    0    0  0.61835030458E+01 -0.23992907935E+00  0.40185469123E+02  0.50528865670E+02  0.30000017689E+02 0.  0.
         12    1    1    2    0    0 -0.61835030458E+01  0.23992907935E+00 -0.40185469123E+02  0.40659134330E+02  0.00000000000E+00 0. -1.
         11    1    3    3    0    0  0.88718937472E+00 -0.60070607583E+01  0.40663599843E+01  0.73080207802E+01  0.51100000000E-03 0. -1.
        -11    1    3    3    0    0 -0.81785372808E+01 -0.12773996428E+01  0.98282004971E+01  0.12849659419E+02  0.51100000000E-03 0.  1.
         12    1    3    3    0    0  0.13474850952E+02  0.70445313218E+01  0.26290908641E+02  0.30371185471E+02  0.00000000000E+00 0. -1.
</event>
<event>
 7    1  0.3250765E-011  0.5052886E+02  0.7816164E-02  0.1300439E+00
        -11   -1    0    0    0    0  0.00000000000E+00  0.00000000000E+00  0.45593999997E+02  0.45594000000E+02  0.51100000000E-03 0.  1.
         11   -1    0    0    0    0 -0.00000000000E+00 -0.00000000000E+00 -0.45593999997E+02  0.45594000000E+02  0.51100000000E-03 0. -1.
    9900012    2    1    2    0    0  0.59377687812E+01 -0.26967773962E+02  0.29843719990E+02  0.50528861379E+02  0.30000004648E+02 0.  0.
         12    1    1    2    0    0 -0.59377687812E+01  0.26967773962E+02 -0.29843719990E+02  0.40659138621E+02  0.00000000000E+00 0. -1.
         11    1    3    3    0    0  0.17954381245E+01 -0.13392146714E+01 -0.24901463008E+01  0.33493167744E+01  0.51100000000E-03 0. -1.
        -11    1    3    3    0    0 -0.57734748442E+01 -0.12946868571E+02  0.26506675343E+02  0.30059245759E+02  0.51100000000E-03 0.  1.
         12    1    3    3    0    0  0.99158055009E+01 -0.12681690719E+02  0.58271909479E+01  0.17120298846E+02  0.00000000000E+00 0. -1.
</event>
<event>
 7    1  0.3250765E-011  0.5052886E+02  0.7816164E-02  0.1300439E+00
        -11   -1    0    0    0    0  0.00000000000E+00  0.00000000000E+00  0.45593999997E+02  0.45594000000E+02  0.51100000000E-03 0. -1.
         11   -1    0    0    0    0 -0.00000000000E+00 -0.00000000000E+00 -0.45593999997E+02  0.45594000000E+02  0.51100000000E-03 0.  1.
    9900012    2    1    2    0    0  0.13209020458E+01 -0.26128790286E+02 -0.31124065570E+02  0.50528856851E+02  0.29999990883E+02 0.  0.
         12    1    1    2    0    0 -0.13209020458E+01  0.26128790286E+02  0.31124065570E+02  0.40659143149E+02  0.00000000000E+00 0. -1.
         11    1    3    3    0    0  0.45931576377E+01 -0.16200581448E+02 -0.12398655875E+02  0.20911303262E+02  0.51100000000E-03 0. -1.
        -11    1    3    3    0    0  0.55026160473E+01 -0.11276512307E+02 -0.55262442782E+01  0.13710502881E+02  0.51100000000E-03 0.  1.
        -12    1    3    3    0    0 -0.87748716393E+01  0.13483034685E+01 -0.13199165417E+02  0.15907050708E+02  0.00000000000E+00 0.  1.
</event>
<event>
 7    1  0.3586594E-011  0.5052887E+02  0.7816164E-02  0.1300439E+00
        -11   -1    0    0    0    0  0.00000000000E+00  0.00000000000E+00  0.45593999997E+02  0.45594000000E+02  0.51100000000E-03 0.  1.
         11   -1    0    0    0    0 -0.00000000000E+00 -0.00000000000E+00 -0.45593999997E+02  0.45594000000E+02  0.51100000000E-03 0. -1.
    9900012    2    1    2    0    0 -0.34635388497E+02  0.20281781153E+02 -0.64964819168E+01  0.50528867442E+02  0.30000023077E+02 0.  0.
         12    1    1    2    0    0  0.34635388497E+02 -0.20281781153E+02  0.64964819168E+01  0.40659132558E+02  0.00000000000E+00 0. -1.
         11    1    3    3    0    0  0.27522125841E+01 -0.10132357786E+01  0.88857673932E+00  0.30644558626E+01  0.51100000000E-03 0. -1.
        -11    1    3    3    0    0 -0.21136077910E+02  0.68026425115E+01  0.45029624919E+01  0.22655824991E+02  0.51100000000E-03 0.  1.
         12    1    3    3    0    0 -0.16251523170E+02  0.14492374420E+02 -0.11888021148E+02  0.24808586588E+02  0.00000000000E+00 0. -1.
</event>
<event>
 7    1  0.3910413E-011  0.5052886E+02  0.7816164E-02  0.1300439E+00
        -11   -1    0    0    0    0  0.00000000000E+00  0.00000000000E+00  0.45593999997E+02  0.45594000000E+02  0.51100000000E-03 0.  1.
         11   -1    0    0    0    0 -0.00000000000E+00 -0.00000000000E+00 -0.45593999997E+02  0.45594000000E+02  0.51100000000E-03 0. -1.
    9900012    2    1    2    0    0  0.14528086838E+02  0.36536358707E+02  0.10353507786E+02  0.50528856646E+02  0.29999990262E+02 0.  0.
         12    1    1    2    0    0 -0.14528086838E+02 -0.36536358707E+02 -0.10353507786E+02  0.40659143354E+02  0.00000000000E+00 0. -1.
         11    1    3    3    0    0  0.38767204961E+01  0.15335286618E+02 -0.44119125108E+01  0.16421478306E+02  0.51100000000E-03 0. -1.
        -11    1    3    3    0    0  0.15671092909E+02  0.14884999300E+02  0.14515816428E+02  0.26035654091E+02  0.51100000000E-03 0.  1.
         12    1    3    3    0    0 -0.50197265663E+01  0.63160727888E+01  0.24960386942E+00  0.80717242498E+01  0.00000000000E+00 0. -1.
</event>
<event>
 7    1  0.3250765E-011  0.5052886E+02  0.7816164E-02  0.1300439E+00
        -11   -1    0    0    0    0  0.00000000000E+00  0.00000000000E+00  0.45593999997E+02  0.45594000000E+02  0.51100000000E-03 0. -1.
         11   -1    0    0    0    0 -0.00000000000E+00 -0.00000000000E+00 -0.45593999997E+02  0.45594000000E+02  0.51100000000E-03 0.  1.
    9900012    2    1    2    0    0  0.15307069505E+02 -0.35103193762E+02  0.13661076644E+02  0.50528860754E+02  0.30000002748E+02 0.  0.
         12    1    1    2    0    0 -0.15307069505E+02  0.35103193762E+02 -0.13661076644E+02  0.40659139246E+02  0.00000000000E+00 0. -1.
         11    1    3    3    0    0  0.15570638777E+02 -0.13588826190E+02  0.13525393424E+02  0.24698932298E+02  0.51100000000E-03 0. -1.
        -11    1    3    3    0    0  0.29375103092E+01 -0.16506220800E+02  0.56801108594E+01  0.17701636974E+02  0.51100000000E-03 0.  1.
         12    1    3    3    0    0 -0.32010795810E+01 -0.50081467717E+01 -0.55444276385E+01  0.81282914816E+01  0.00000000000E+00 0. -1.
</event>
<event>
 7    1  0.5563076E-011  0.5052886E+02  0.7816164E-02  0.1300439E+00
        -11   -1    0    0    0    0  0.00000000000E+00  0.00000000000E+00  0.45593999997E+02  0.45594000000E+02  0.51100000000E-03 0. -1.
         11   -1    0    0    0    0 -0.00000000000E+00 -0.00000000000E+00 -0.45593999997E+02  0.45594000000E+02  0.51100000000E-03 0.  1.
    9900012    2    1    2    0    0  0.23074002886E+02  0.24708116956E+01 -0.33386396502E+02  0.50528855998E+02  0.29999988291E+02 0.  0.
         12    1    1    2    0    0 -0.23074002886E+02 -0.24708116956E+01  0.33386396502E+02  0.40659144002E+02  0.00000000000E+00 0. -1.
         11    1    3    3    0    0  0.95319887150E+01  0.10413277719E+02 -0.15248622781E+02  0.20780174655E+02  0.51100000000E-03 0.  1.
        -11    1    3    3    0    0  0.13529852637E+02 -0.11180747526E+00 -0.17166995812E+02  0.21858068505E+02  0.51100000000E-03 0. -1.
         12    1    3    3    0    0  0.12161533678E-01 -0.78306585483E+01 -0.97077790822E+00  0.78906128374E+01  0.00000000000E+00 0. -1.
</event>
<event>
 7    1  0.3250765E-011  0.5052886E+02  0.7816164E-02  0.1300439E+00
        -11   -1    0    0    0    0  0.00000000000E+00  0.00000000000E+00  0.45593999997E+02  0.45594000000E+02  0.51100000000E-03 0. -1.
         11   -1    0    0    0    0 -0.00000000000E+00 -0.00000000000E+00 -0.45593999997E+02  0.45594000000E+02  0.51100000000E-03 0.  1.
    9900012    2    1    2    0    0 -0.39172476736E+02 -0.93986353111E+01 -0.55089496830E+01  0.50528858273E+02  0.29999995207E+02 0.  0.
         12    1    1    2    0    0  0.39172476736E+02  0.93986353111E+01  0.55089496830E+01  0.40659141727E+02  0.00000000000E+00 0. -1.
         11    1    3    3    0    0  0.24504283785E+01 -0.36268955240E+01  0.24722490831E+01  0.50270255788E+01  0.51100000000E-03 0. -1.
        -11    1    3    3    0    0 -0.18983337329E+02 -0.10373720581E+02 -0.26739397290E+01  0.21797502810E+02  0.51100000000E-03 0.  1.
        -12    1    3    3    0    0 -0.22639567786E+02  0.46019807939E+01 -0.53072590371E+01  0.23704329884E+02  0.00000000000E+00 0.  1.
</event>
<event>
 7    1  0.3250765E-011  0.5052887E+02  0.7816164E-02  0.1300439E+00
        -11   -1    0    0    0    0  0.00000000000E+00  0.00000000000E+00  0.45593999997E+02  0.45594000000E+02  0.51100000000E-03 0. -1.
         11   -1    0    0    0    0 -0.00000000000E+00 -0.00000000000E+00 -0.45593999997E+02  0.45594000000E+02  0.51100000000E-03 0.  1.
    9900012    2    1    2    0    0  0.27450653346E+02 -0.13046416497E+02 -0.27007736762E+02  0.50528865756E+02  0.30000017952E+02 0.  0.
         12    1    1    2    0    0 -0.27450653346E+02  0.13046416497E+02  0.27007736762E+02  0.40659134244E+02  0.00000000000E+00 0. -1.
         11    1    3    3    0    0  0.20545297607E+02 -0.18393168958E+01 -0.12301711776E+02  0.24017169968E+02  0.51100000000E-03 0. -1.
        -11    1    3    3    0    0  0.41154276734E+01 -0.12630796313E+01  0.35213455940E+01  0.55616535439E+01  0.51100000000E-03 0.  1.
         12    1    3    3    0    0  0.27899280649E+01 -0.99440199695E+01 -0.18227370580E+02  0.20950042244E+02  0.00000000000E+00 0. -1.
</event>
<event>
 7    1  0.3250765E-011  0.5052886E+02  0.7816164E-02  0.1300439E+00
        -11   -1    0    0    0    0  0.00000000000E+00  0.00000000000E+00  0.45593999997E+02  0.45594000000E+02  0.51100000000E-03 0. -1.
         11   -1    0    0    0    0 -0.00000000000E+00 -0.00000000000E+00 -0.45593999997E+02  0.45594000000E+02  0.51100000000E-03 0.  1.
    9900012    2    1    2    0    0  0.31876967182E+02 -0.24861005930E+02 -0.43537482900E+01  0.50528858632E+02  0.29999996298E+02 0.  0.
         12    1    1    2    0    0 -0.31876967182E+02  0.24861005930E+02  0.43537482900E+01  0.40659141368E+02  0.00000000000E+00 0. -1.
         11    1    3    3    0    0  0.98637434696E+00 -0.47976463717E+01  0.34259963377E+01  0.59772733104E+01  0.51100000000E-03 0. -1.
        -11    1    3    3    0    0  0.19663235553E+02 -0.24440811814E+02 -0.84357564585E+01  0.32483197223E+02  0.51100000000E-03 0.  1.
        -12    1    3    3    0    0  0.11227357282E+02  0.43774522552E+01  0.65601183079E+00  0.12068388099E+02  0.00000000000E+00 0.  1.
</event>
<event>
 7    1  0.3250765E-011  0.5052886E+02  0.7816164E-02  0.1300439E+00
        -11   -1    0    0    0    0  0.00000000000E+00  0.00000000000E+00  0.45593999997E+02  0.45594000000E+02  0.51100000000E-03 0.  1.
         11   -1    0    0    0    0 -0.00000000000E+00 -0.00000000000E+00 -0.45593999997E+02  0.45594000000E+02  0.51100000000E-03 0. -1.
    9900012    2    1    2    0    0  0.11994592565E+02  0.29714076635E+02  0.25027361713E+02  0.50528862830E+02  0.30000009059E+02 0.  0.
         12    1    1    2    0    0 -0.11994592565E+02 -0.29714076635E+02 -0.25027361713E+02  0.40659137170E+02  0.00000000000E+00 0. -1.
         11    1    3    3    0    0  0.10109561250E+02  0.14743466202E+01  0.62589899763E+01  0.11981313885E+02  0.51100000000E-03 0. -1.
        -11    1    3    3    0    0  0.83304060092E+01  0.12456719700E+02  0.29133980157E+01  0.15266087194E+02  0.51100000000E-03 0.  1.
        -12    1    3    3    0    0 -0.64453746948E+01  0.15783010315E+02  0.15854973721E+02  0.23281461751E+02  0.00000000000E+00 0.  1.
</event>
<event>
 7    1  0.3250765E-011  0.5052886E+02  0.7816164E-02  0.1300439E+00
        -11   -1    0    0    0    0  0.00000000000E+00  0.00000000000E+00  0.45593999997E+02  0.45594000000E+02  0.51100000000E-03 0.  1.
         11   -1    0    0    0    0 -0.00000000000E+00 -0.00000000000E+00 -0.45593999997E+02  0.45594000000E+02  0.51100000000E-03 0. -1.
    9900012    2    1    2    0    0  0.35137290185E+02  0.20102229558E+02  0.37995929238E+01  0.50528859563E+02  0.29999999127E+02 0.  0.
         12    1    1    2    0    0 -0.35137290185E+02 -0.20102229558E+02 -0.37995929238E+01  0.40659140437E+02  0.00000000000E+00 0. -1.
         11    1    3    3    0    0  0.20392439543E+01 -0.94574629274E+00  0.53951446784E+01  0.58447017304E+01  0.51100000000E-03 0. -1.
        -11    1    3    3    0    0 -0.18911245617E+01  0.36161905867E+01 -0.37385385234E+01  0.55344247234E+01  0.51100000000E-03 0.  1.
        -12    1    3    3    0    0  0.34989170792E+02  0.17431785264E+02  0.21429867687E+01  0.39149733109E+02  0.00000000000E+00 0.  1.
</event>
<event>
 7    1  0.3250765E-011  0.5052885E+02  0.7816164E-02  0.1300439E+00
        -11   -1    0    0    0    0  0.00000000000E+00  0.00000000000E+00  0.45593999997E+02  0.45594000000E+02  0.51100000000E-03 0.  1.
         11   -1    0    0    0    0 -0.00000000000E+00 -0.00000000000E+00 -0.45593999997E+02  0.45594000000E+02  0.51100000000E-03 0. -1.
    9900012    2    1    2    0    0  0.20773390857E+02 -0.33917204360E+02  0.84413124001E+01  0.50528852514E+02  0.29999977700E+02 0.  0.
         12    1    1    2    0    0 -0.20773390857E+02  0.33917204360E+02 -0.84413124001E+01  0.40659147486E+02  0.00000000000E+00 0. -1.
         11    1    3    3    0    0  0.65698261327E+00 -0.54841435140E+01 -0.68424552917E-01  0.55237793599E+01  0.51100000000E-03 0. -1.
        -11    1    3    3    0    0  0.16979859260E+02 -0.44290028635E+01 -0.36362991270E+01  0.17920780074E+02  0.51100000000E-03 0.  1.
        -12    1    3    3    0    0  0.31365489831E+01 -0.24004057983E+02  0.12146036080E+02  0.27084293079E+02  0.00000000000E+00 0.  1.
</event>
<event>
 7    1  0.3250765E-011  0.5052886E+02  0.7816164E-02  0.1300439E+00
        -11   -1    0    0    0    0  0.00000000000E+00  0.00000000000E+00  0.45593999997E+02  0.45594000000E+02  0.51100000000E-03 0.  1.
         11   -1    0    0    0    0 -0.00000000000E+00 -0.00000000000E+00 -0.45593999997E+02  0.45594000000E+02  0.51100000000E-03 0. -1.
    9900012    2    1    2    0    0 -0.85486231568E+01 -0.31660618338E+02 -0.24035222455E+02  0.50528860439E+02  0.30000001790E+02 0.  0.
         12    1    1    2    0    0  0.85486231568E+01  0.31660618338E+02  0.24035222455E+02  0.40659139561E+02  0.00000000000E+00 0. -1.
         11    1    3    3    0    0  0.24444190485E+01  0.23494735335E+01 -0.10717775469E+02  0.11241259789E+02  0.51100000000E-03 0. -1.
        -11    1    3    3    0    0 -0.28387802139E+01 -0.19729362815E+02 -0.38136644932E+01  0.20294099323E+02  0.51100000000E-03 0.  1.
        -12    1    3    3    0    0 -0.81542619914E+01 -0.14280729056E+02 -0.95037824927E+01  0.18993501327E+02  0.00000000000E+00 0.  1.
</event>
<event>
 7    1  0.3250765E-011  0.5052887E+02  0.7816164E-02  0.1300439E+00
        -11   -1    0    0    0    0  0.00000000000E+00  0.00000000000E+00  0.45593999997E+02  0.45594000000E+02  0.51100000000E-03 0. -1.
         11   -1    0    0    0    0 -0.00000000000E+00 -0.00000000000E+00 -0.45593999997E+02  0.45594000000E+02  0.51100000000E-03 0.  1.
    9900012    2    1    2    0    0  0.38984518314E+02  0.88060631698E+01  0.74716176018E+01  0.50528874501E+02  0.30000044534E+02 0.  0.
         12    1    1    2    0    0 -0.38984518314E+02 -0.88060631698E+01 -0.74716176018E+01  0.40659125499E+02  0.00000000000E+00 0. -1.
         11    1    3    3    0    0  0.39290333486E+01 -0.74098621389E+01 -0.10878528487E+01  0.84573508886E+01  0.51100000000E-03 0.  1.
        -11    1    3    3    0    0  0.13825508523E+02  0.43891280737E+01  0.10171227987E+02  0.17716179334E+02  0.51100000000E-03 0. -1.
        -12    1    3    3    0    0  0.21229976443E+02  0.11826797235E+02 -0.16117575365E+01  0.24355344279E+02  0.00000000000E+00 0.  1.
</event>
<event>
 7    1  0.3250765E-011  0.5052888E+02  0.7816164E-02  0.1300439E+00
        -11   -1    0    0    0    0  0.00000000000E+00  0.00000000000E+00  0.45593999997E+02  0.45594000000E+02  0.51100000000E-03 0. -1.
         11   -1    0    0    0    0 -0.00000000000E+00 -0.00000000000E+00 -0.45593999997E+02  0.45594000000E+02  0.51100000000E-03 0.  1.
    9900012    2    1    2    0    0 -0.21986641124E+02 -0.18104566601E+02 -0.29016826280E+02  0.50528881379E+02  0.30000065438E+02 0.  0.
         12    1    1    2    0    0  0.21986641124E+02  0.18104566601E+02  0.29016826280E+02  0.40659118621E+02  0.00000000000E+00 0. -1.
         11    1    3    3    0    0 -0.86959793134E+00 -0.28818690452E-01 -0.61404551533E+01  0.62017917435E+01  0.51100000000E-03 0. -1.
        -11    1    3    3    0    0 -0.15276785671E+02 -0.21165395753E+02 -0.26154436820E+02  0.36951437366E+02  0.51100000000E-03 0.  1.
         12    1    3    3    0    0 -0.58402575215E+01  0.30896478419E+01  0.32780656932E+01  0.73756522690E+01  0.00000000000E+00 0. -1.
</event>
<event>
 7    1  0.3250765E-011  0.5052886E+02  0.7816164E-02  0.1300439E+00
        -11   -1    0    0    0    0  0.00000000000E+00  0.00000000000E+00  0.45593999997E+02  0.45594000000E+02  0.51100000000E-03 0.  1.
         11   -1    0    0    0    0 -0.00000000000E+00 -0.00000000000E+00 -0.45593999997E+02  0.45594000000E+02  0.51100000000E-03 0. -1.
    9900012    2    1    2    0    0  0.23908528789E+02  0.30838735158E+02  0.11424539454E+02  0.50528862813E+02  0.30000009007E+02 0.  0.
         12    1    1    2    0    0 -0.23908528789E+02 -0.30838735158E+02 -0.11424539454E+02  0.40659137187E+02  0.00000000000E+00 0. -1.
         11    1    3    3    0    0 -0.33454387230E+01  0.11182161541E+02 -0.37527531080E+01  0.12260336583E+02  0.51100000000E-03 0. -1.
        -11    1    3    3    0    0  0.55172513519E+01  0.29906672799E+01 -0.11511118605E+01  0.63803771076E+01  0.51100000000E-03 0.  1.
        -12    1    3    3    0    0  0.21736716160E+02  0.16665906338E+02  0.16328404423E+02  0.31888149123E+02  0.00000000000E+00 0.  1.
</event>
<event>
 7    1  0.3250765E-011  0.5052886E+02  0.7816164E-02  0.1300439E+00
        -11   -1    0    0    0    0  0.00000000000E+00  0.00000000000E+00  0.45593999997E+02  0.45594000000E+02  0.51100000000E-03 0.  1.
         11   -1    0    0    0    0 -0.00000000000E+00 -0.00000000000E+00 -0.45593999997E+02  0.45594000000E+02  0.51100000000E-03 0. -1.
    9900012    2    1    2    0    0  0.39964029411E+02  0.67687251404E+01  0.31978801205E+01  0.50528859280E+02  0.29999998268E+02 0.  0.
         12    1    1    2    0    0 -0.39964029411E+02 -0.67687251404E+01 -0.31978801205E+01  0.40659140720E+02  0.00000000000E+00 0. -1.
         11    1    3    3    0    0  0.79699412146E+01  0.57278981605E+01 -0.60022318181E+01  0.11504588970E+02  0.51100000000E-03 0. -1.
        -11    1    3    3    0    0  0.16574928580E+02  0.10700411475E+02  0.46912645961E+01  0.20278930616E+02  0.51100000000E-03 0.  1.
         12    1    3    3    0    0  0.15419159616E+02 -0.96595844951E+01  0.45088473425E+01  0.18745339694E+02  0.00000000000E+00 0. -1.
</event>
<event>
 7    1  0.3250765E-011  0.5052884E+02  0.7816164E-02  0.1300439E+00
        -11   -1    0    0    0    0  0.00000000000E+00  0.00000000000E+00  0.45593999997E+02  0.45594000000E+02  0.51100000000E-03 0.  1.
         11   -1    0    0    0    0 -0.00000000000E+00 -0.00000000000E+00 -0.45593999997E+02  0.45594000000E+02  0.51100000000E-03 0. -1.
    9900012    2    1    2    0    0  0.34291788591E+02  0.14717624470E+02  0.16144095250E+02  0.50528843021E+02  0.29999948847E+02 0.  0.
         12    1    1    2    0    0 -0.34291788591E+02 -0.14717624470E+02 -0.16144095250E+02  0.40659156979E+02  0.00000000000E+00 0. -1.
         11    1    3    3    0    0  0.38541513566E+01 -0.67093872384E+01  0.65831887539E+01  0.10159169958E+02  0.51100000000E-03 0. -1.
        -11    1    3    3    0    0  0.11619551259E+02  0.14730480277E+01  0.40559552899E+01  0.12394943144E+02  0.51100000000E-03 0.  1.
         12    1    3    3    0    0  0.18818085975E+02  0.19953963680E+02  0.55049512064E+01  0.27974729920E+02  0.00000000000E+00 0. -1.
</event>
<event>
 7    1  0.3250765E-011  0.5052886E+02  0.7816164E-02  0.1300439E+00
        -11   -1    0    0    0    0  0.00000000000E+00  0.00000000000E+00  0.45593999997E+02  0.45594000000E+02  0.51100000000E-03 0. -1.
         11   -1    0    0    0    0 -0.00000000000E+00 -0.00000000000E+00 -0.45593999997E+02  0.45594000000E+02  0.51100000000E-03 0.  1.
    9900012    2    1    2    0    0  0.14596043496E+02  0.78423942170E+01 -0.37129745126E+02  0.50528860734E+02  0.30000002686E+02 0.  0.
         12    1    1    2    0    0 -0.14596043496E+02 -0.78423942170E+01  0.37129745126E+02  0.40659139266E+02  0.00000000000E+00 0. -1.
         11    1    3    3    0    0  0.12471413783E+02  0.77743606079E+01 -0.83630779310E+01  0.16909107527E+02  0.51100000000E-03 0. -1.
        -11    1    3    3    0    0 -0.29739634248E+00  0.12276709134E+01  0.22000109541E+01  0.25368620214E+01  0.51100000000E-03 0.  1.
        -12    1    3    3    0    0  0.24220260555E+01 -0.11596373043E+01 -0.30966678149E+02  0.31082891186E+02  0.00000000000E+00 0.  1.
</event>
<event>
 7    1  0.6603645E-011  0.5052887E+02  0.7816164E-02  0.1300439E+00
        -11   -1    0    0    0    0  0.00000000000E+00  0.00000000000E+00  0.45593999997E+02  0.45594000000E+02  0.51100000000E-03 0. -1.
         11   -1    0    0    0    0 -0.00000000000E+00 -0.00000000000E+00 -0.45593999997E+02  0.45594000000E+02  0.51100000000E-03 0.  1.
    9900012    2    1    2    0    0 -0.89300500154E+01  0.13005882124E+01 -0.39645024070E+02  0.50528865031E+02  0.30000015747E+02 0.  0.
         12    1    1    2    0    0  0.89300500154E+01 -0.13005882124E+01  0.39645024070E+02  0.40659134969E+02  0.00000000000E+00 0. -1.
         11    1    3    3    0    0  0.74789178411E+01 -0.36508723426E+01 -0.82751759927E+01  0.11736337542E+02  0.51100000000E-03 0. -1.
        -11    1    3    3    0    0 -0.21026416581E+01  0.34527096463E+01 -0.20144920104E+02  0.20546535282E+02  0.51100000000E-03 0.  1.
         12    1    3    3    0    0 -0.14306326198E+02  0.14987509088E+01 -0.11224927973E+02  0.18245992206E+02  0.00000000000E+00 0. -1.
</event>
<event>
 7    1  0.3250765E-011  0.5052888E+02  0.7816164E-02  0.1300439E+00
        -11   -1    0    0    0    0  0.00000000000E+00  0.00000000000E+00  0.45593999997E+02  0.45594000000E+02  0.51100000000E-03 0. -1.
         11   -1    0    0    0    0 -0.00000000000E+00 -0.00000000000E+00 -0.45593999997E+02  0.45594000000E+02  0.51100000000E-03 0.  1.
    9900012    2    1    2    0    0  0.55877123221E+01 -0.29967540100E+02 -0.26905170292E+02  0.50528878304E+02  0.30000056091E+02 0.  0.
         12    1    1    2    0    0 -0.55877123221E+01  0.29967540100E+02  0.26905170292E+02  0.40659121696E+02  0.00000000000E+00 0. -1.
         11    1    3    3    0    0  0.19215262005E+00 -0.10473519978E+02 -0.28700026415E+01  0.10861328592E+02  0.51100000000E-03 0. -1.
        -11    1    3    3    0    0  0.14641397136E+02 -0.15904571428E+02 -0.15800979493E+02  0.26776796963E+02  0.51100000000E-03 0.  1.
        -12    1    3    3    0    0 -0.92458374344E+01 -0.35894486941E+01 -0.82341881578E+01  0.12890752748E+02  0.00000000000E+00 0.  1.
</event>
<event>
 7    1  0.3250765E-011  0.5052886E+02  0.7816164E-02  0.1300439E+00
        -11   -1    0    0    0    0  0.00000000000E+00  0.00000000000E+00  0.45593999997E+02  0.45594000000E+02  0.51100000000E-03 0. -1.
         11   -1    0    0    0    0 -0.00000000000E+00 -0.00000000000E+00 -0.45593999997E+02  0.45594000000E+02  0.51100000000E-03 0.  1.
    9900012    2    1    2    0    0 -0.64098454985E+01 -0.26342208547E+02 -0.30301284249E+02  0.50528857147E+02  0.29999991784E+02 0.  0.
         12    1    1    2    0    0  0.64098454985E+01  0.26342208547E+02  0.30301284249E+02  0.40659142853E+02  0.00000000000E+00 0. -1.
         11    1    3    3    0    0  0.29264471114E+01 -0.13391173897E+02 -0.13483197324E+01  0.13773365507E+02  0.51100000000E-03 0. -1.
        -11    1    3    3    0    0 -0.10695106638E+02 -0.13906470243E+02 -0.16150216068E+02  0.23845433523E+02  0.51100000000E-03 0.  1.
         12    1    3    3    0    0  0.13588140285E+01  0.95543559263E+00 -0.12802748449E+02  0.12910058117E+02  0.00000000000E+00 0. -1.
</event>
<event>
 7    1  0.3250765E-011  0.5052885E+02  0.7816164E-02  0.1300439E+00
        -11   -1    0    0    0    0  0.00000000000E+00  0.00000000000E+00  0.45593999997E+02  0.45594000000E+02  0.51100000000E-03 0.  1.
         11   -1    0    0    0    0 -0.00000000000E+00 -0.00000000000E+00 -0.45593999997E+02  0.45594000000E+02  0.51100000000E-03 0. -1.
    9900012    2    1    2    0    0 -0.50827649835E+01 -0.34244375277E+02  0.21322629097E+02  0.50528852818E+02  0.29999978624E+02 0.  0.
         12    1    1    2    0    0  0.50827649835E+01  0.34244375277E+02 -0.21322629097E+02  0.40659147182E+02  0.00000000000E+00 0. -1.
         11    1    3    3    0    0 -0.21390579164E+01 -0.18386358878E+01  0.50133307725E+01  0.57523592024E+01  0.51100000000E-03 0. -1.
        -11    1    3    3    0    0 -0.22283859424E+01 -0.33792967230E+02  0.20989219427E+02  0.39843163410E+02  0.51100000000E-03 0.  1.
         12    1    3    3    0    0 -0.71532112470E+00  0.13872278406E+01 -0.46799211020E+01  0.49333302053E+01  0.00000000000E+00 0. -1.
</event>
<event>
 7    1  0.3250765E-011  0.5052885E+02  0.7816164E-02  0.1300439E+00
        -11   -1    0    0    0    0  0.00000000000E+00  0.00000000000E+00  0.45593999997E+02  0.45594000000E+02  0.51100000000E-03 0. -1.
         11   -1    0    0    0    0 -0.00000000000E+00 -0.00000000000E+00 -0.45593999997E+02  0.45594000000E+02  0.51100000000E-03 0.  1.
    9900012    2    1    2    0    0 -0.21826783101E+02 -0.34156997600E+02 -0.31713548703E+01  0.50528850509E+02  0.29999971607E+02 0.  0.
         12    1    1    2    0    0  0.21826783101E+02  0.34156997600E+02  0.31713548703E+01  0.40659149491E+02  0.00000000000E+00 0. -1.
         11    1    3    3    0    0  0.13114769115E+01  0.28683388707E+01 -0.48383314462E+01  0.57755338291E+01  0.51100000000E-03 0. -1.
        -11    1    3    3    0    0 -0.49474588256E+01 -0.16192366926E+02 -0.10448074351E+01  0.16963540855E+02  0.51100000000E-03 0.  1.
        -12    1    3    3    0    0 -0.18190801187E+02 -0.20832969545E+02  0.27117840110E+01  0.27789775825E+02  0.00000000000E+00 0.  1.
</event>
<event>
 7    1  0.3250765E-011  0.5052888E+02  0.7816164E-02  0.1300439E+00
        -11   -1    0    0    0    0  0.00000000000E+00  0.00000000000E+00  0.45593999997E+02  0.45594000000E+02  0.51100000000E-03 0.  1.
         11   -1    0    0    0    0 -0.00000000000E+00 -0.00000000000E+00 -0.45593999997E+02  0.45594000000E+02  0.51100000000E-03 0. -1.
    9900012    2    1    2    0    0  0.25052372817E+02 -0.23137516907E+02  0.22140407684E+02  0.50528883867E+02  0.30000073001E+02 0.  0.
         12    1    1    2    0    0 -0.25052372817E+02  0.23137516907E+02 -0.22140407684E+02  0.40659116133E+02  0.00000000000E+00 0. -1.
         11    1    3    3    0    0  0.90855616981E+01  0.13633515646E+01  0.79090228006E+01  0.12122656507E+02  0.51100000000E-03 0. -1.
        -11    1    3    3    0    0  0.35254807283E+01 -0.69830784440E+01  0.14988065070E+02  0.16906640522E+02  0.51100000000E-03 0.  1.
        -12    1    3    3    0    0  0.12441330390E+02 -0.17517790027E+02 -0.75668018692E+00  0.21499586838E+02  0.00000000000E+00 0.  1.
</event>
<event>
 7    1  0.4840053E-011  0.5052886E+02  0.7816164E-02  0.1300439E+00
        -11   -1    0    0    0    0  0.00000000000E+00  0.00000000000E+00  0.45593999997E+02  0.45594000000E+02  0.51100000000E-03 0.  1.
         11   -1    0    0    0    0 -0.00000000000E+00 -0.00000000000E+00 -0.45593999997E+02  0.45594000000E+02  0.51100000000E-03 0. -1.
    9900012    2    1    2    0    0  0.18053809905E+02  0.35133427847E+02 -0.96368051729E+01  0.50528858122E+02  0.29999994746E+02 0.  0.
         12    1    1    2    0    0 -0.18053809905E+02 -0.35133427847E+02  0.96368051729E+01  0.40659141878E+02  0.00000000000E+00 0. -1.
         11    1    3    3    0    0  0.34269961167E+01  0.20790312849E+02 -0.88898987642E+00  0.21089611518E+02  0.51100000000E-03 0. -1.
        -11    1    3    3    0    0  0.11895986537E+02  0.18913785447E+02 -0.90484606972E+01  0.24106439324E+02  0.51100000000E-03 0.  1.
         12    1    3    3    0    0  0.27308272508E+01 -0.45706704486E+01  0.30064540072E+00  0.53328072795E+01  0.00000000000E+00 0. -1.
</event>
<event>
 7    1  0.3257682E-011  0.5052885E+02  0.7816164E-02  0.1300439E+00
        -11   -1    0    0    0    0  0.00000000000E+00  0.00000000000E+00  0.45593999997E+02  0.45594000000E+02  0.51100000000E-03 0.  1.
         11   -1    0    0    0    0 -0.00000000000E+00 -0.00000000000E+00 -0.45593999997E+02  0.45594000000E+02  0.51100000000E-03 0. -1.
    9900012    2    1    2    0    0 -0.33947031869E+02  0.17320620176E+02  0.14169044452E+02  0.50528847566E+02  0.29999962661E+02 0.  0.
         12    1    1    2    0    0  0.33947031869E+02 -0.17320620176E+02 -0.14169044452E+02  0.40659152434E+02  0.00000000000E+00 0. -1.
         11    1    3    3    0    0 -0.26599823768E+01  0.97722695000E+01 -0.68969676228E+00  0.10151277718E+02  0.51100000000E-03 0. -1.
        -11    1    3    3    0    0 -0.20129029102E+02  0.12883173815E+02  0.14602969643E+02  0.28007154493E+02  0.51100000000E-03 0.  1.
         12    1    3    3    0    0 -0.11158020390E+02 -0.53348231391E+01  0.25577157057E+00  0.12370415355E+02  0.00000000000E+00 0. -1.
</event>
<event>
 7    1  0.3250765E-011  0.5052886E+02  0.7816164E-02  0.1300439E+00
        -11   -1    0    0    0    0  0.00000000000E+00  0.00000000000E+00  0.45593999997E+02  0.45594000000E+02  0.51100000000E-03 0. -1.
         11   -1    0    0    0    0 -0.00000000000E+00 -0.00000000000E+00 -0.45593999997E+02  0.45594000000E+02  0.51100000000E-03 0.  1.
    9900012    2    1    2    0    0  0.20036291540E+02 -0.10493453732E+02 -0.33787570280E+02  0.50528862586E+02  0.30000008315E+02 0.  0.
         12    1    1    2    0    0 -0.20036291540E+02  0.10493453732E+02  0.33787570280E+02  0.40659137414E+02  0.00000000000E+00 0. -1.
         11    1    3    3    0    0  0.11001596997E+02  0.63487788520E+01 -0.22148562901E+02  0.25532351404E+02  0.51100000000E-03 0. -1.
        -11    1    3    3    0    0  0.52165396505E+01 -0.75122885295E+00 -0.10935676104E+01  0.53826128502E+01  0.51100000000E-03 0.  1.
        -12    1    3    3    0    0  0.38181548924E+01 -0.16091003731E+02 -0.10545439769E+02  0.19613898332E+02  0.00000000000E+00 0.  1.
</event>
<event>
 7    1  0.3250765E-011  0.5052886E+02  0.7816164E-02  0.1300439E+00
        -11   -1    0    0    0    0  0.00000000000E+00  0.00000000000E+00  0.45593999997E+02  0.45594000000E+02  0.51100000000E-03 0.  1.
         11   -1    0    0    0    0 -0.00000000000E+00 -0.00000000000E+00 -0.45593999997E+02  0.45594000000E+02  0.51100000000E-03 0. -1.
    9900012    2    1    2    0    0 -0.15791313827E+02 -0.37259307422E+02  0.39425813116E+01  0.50528861675E+02  0.30000005548E+02 0.  0.
         12    1    1    2    0    0  0.15791313827E+02  0.37259307422E+02 -0.39425813116E+01  0.40659138325E+02  0.00000000000E+00 0. -1.
         11    1    3    3    0    0 -0.58785774228E+01 -0.67395780072E+00 -0.28519877546E+01  0.65685406329E+01  0.51100000000E-03 0. -1.
        -11    1    3    3    0    0 -0.91532251999E+01 -0.35600092726E+01 -0.14119906963E+01  0.99221426904E+01  0.51100000000E-03 0.  1.
        -12    1    3    3    0    0 -0.75951120397E+00 -0.33025340348E+02  0.82065597625E+01  0.34038178352E+02  0.00000000000E+00 0.  1.
</event>
<event>
 7    1  0.3250765E-011  0.5052888E+02  0.7816164E-02  0.1300439E+00
        -11   -1    0    0    0    0  0.00000000000E+00  0.00000000000E+00  0.45593999997E+02  0.45594000000E+02  0.51100000000E-03 0. -1.
         11   -1    0    0    0    0 -0.00000000000E+00 -0.00000000000E+00 -0.45593999997E+02  0.45594000000E+02  0.51100000000E-03 0.  1.
    9900012    2    1    2    0    0  0.10809852431E+02  0.38961540756E+02 -0.42789969165E+01  0.50528875780E+02  0.30000048422E+02 0.  0.
         12    1    1    2    0    0 -0.10809852431E+02 -0.38961540756E+02  0.42789969165E+01  0.40659124220E+02  0.00000000000E+00 0. -1.
         11    1    3    3    0    0  0.47137667234E+01  0.19530276411E+01  0.30127062256E+01  0.59253955778E+01  0.51100000000E-03 0. -1.
        -11    1    3    3    0    0  0.13010422721E+02  0.15037790805E+02 -0.83019848687E+01  0.21548299346E+02  0.51100000000E-03 0.  1.
        -12    1    3    3    0    0 -0.69143370136E+01  0.21970722310E+02  0.10102817265E+01  0.23055180857E+02  0.00000000000E+00 0.  1.
</event>
<event>
 7    1  0.3250765E-011  0.5052887E+02  0.7816164E-02  0.1300439E+00
        -11   -1    0    0    0    0  0.00000000000E+00  0.00000000000E+00  0.45593999997E+02  0.45594000000E+02  0.51100000000E-03 0.  1.
         11   -1    0    0    0    0 -0.00000000000E+00 -0.00000000000E+00 -0.45593999997E+02  0.45594000000E+02  0.51100000000E-03 0. -1.
    9900012    2    1    2    0    0 -0.18611373409E+02  0.20895525080E+02  0.29498457119E+02  0.50528866205E+02  0.30000019316E+02 0.  0.
         12    1    1    2    0    0  0.18611373409E+02 -0.20895525080E+02 -0.29498457119E+02  0.40659133795E+02  0.00000000000E+00 0. -1.
         11    1    3    3    0    0 -0.35615023153E+01  0.10668526045E+02  0.90868558942E+01  0.14459346355E+02  0.51100000000E-03 0. -1.
        -11    1    3    3    0    0 -0.10237104549E+02 -0.62727735153E+01  0.11844683952E+02  0.16865424255E+02  0.51100000000E-03 0.  1.
         12    1    3    3    0    0 -0.48127665446E+01  0.16499772551E+02  0.85669172732E+01  0.19204095595E+02  0.00000000000E+00 0. -1.
</event>
<event>
 7    1  0.3250765E-011  0.5052886E+02  0.7816164E-02  0.1300439E+00
        -11   -1    0    0    0    0  0.00000000000E+00  0.00000000000E+00  0.45593999997E+02  0.45594000000E+02  0.51100000000E-03 0.  1.
         11   -1    0    0    0    0 -0.00000000000E+00 -0.00000000000E+00 -0.45593999997E+02  0.45594000000E+02  0.51100000000E-03 0. -1.
    9900012    2    1    2    0    0  0.13659133824E+02  0.33061808359E+02  0.19326419904E+02  0.50528860620E+02  0.30000002340E+02 0.  0.
         12    1    1    2    0    0 -0.13659133824E+02 -0.33061808359E+02 -0.19326419904E+02  0.40659139380E+02  0.00000000000E+00 0. -1.
         11    1    3    3    0    0  0.17415506620E+01 -0.24267049437E+00 -0.13140848760E+01  0.21951553475E+01  0.51100000000E-03 0. -1.
        -11    1    3    3    0    0  0.54724610227E+01  0.35938262334E+02  0.14814644606E+02  0.39255320968E+02  0.51100000000E-03 0.  1.
         12    1    3    3    0    0  0.64451221394E+01 -0.26337834801E+01  0.58258601741E+01  0.90783843045E+01  0.00000000000E+00 0. -1.
</event>
<event>
 7    1  0.3250765E-011  0.5052885E+02  0.7816164E-02  0.1300439E+00
        -11   -1    0    0    0    0  0.00000000000E+00  0.00000000000E+00  0.45593999997E+02  0.45594000000E+02  0.51100000000E-03 0.  1.
         11   -1    0    0    0    0 -0.00000000000E+00 -0.00000000000E+00 -0.45593999997E+02  0.45594000000E+02  0.51100000000E-03 0. -1.
    9900012    2    1    2    0    0 -0.54445443948E+01 -0.36775385866E+02 -0.16464954831E+02  0.50528845964E+02  0.29999957794E+02 0.  0.
         12    1    1    2    0    0  0.54445443948E+01  0.36775385866E+02  0.16464954831E+02  0.40659154036E+02  0.00000000000E+00 0. -1.
         11    1    3    3    0    0 -0.11858350979E+02 -0.28306568818E+02 -0.21880339373E+02  0.37691266595E+02  0.51100000000E-03 0. -1.
        -11    1    3    3    0    0  0.12895881618E+01 -0.39741645008E+01  0.75514704662E-01  0.41788424041E+01  0.51100000000E-03 0.  1.
         12    1    3    3    0    0  0.51242184225E+01 -0.44946525479E+01  0.53398698369E+01  0.86587369658E+01  0.00000000000E+00 0. -1.
</event>
<event>
 7    1  0.3250765E-011  0.5052886E+02  0.7816164E-02  0.1300439E+00
        -11   -1    0    0    0    0  0.00000000000E+00  0.00000000000E+00  0.45593999997E+02  0.45594000000E+02  0.51100000000E-03 0.  1.
         11   -1    0    0    0    0 -0.00000000000E+00 -0.00000000000E+00 -0.45593999997E+02  0.45594000000E+02  0.51100000000E-03 0. -1.
    9900012    2    1    2    0    0 -0.13606906587E+02 -0.36100841013E+02 -0.12835370242E+02  0.50528863783E+02  0.30000011954E+02 0.  0.
         12    1    1    2    0    0  0.13606906587E+02  0.36100841013E+02  0.12835370242E+02  0.40659136217E+02  0.00000000000E+00 0. -1.
         11    1    3    3    0    0 -0.10453470128E+02 -0.22077876749E+02  0.53561150191E+01  0.25007911704E+02  0.51100000000E-03 0. -1.
        -11    1    3    3    0    0 -0.34585856791E+01  0.10472822311E-02 -0.16483786889E+01  0.38313142079E+01  0.51100000000E-03 0.  1.
         12    1    3    3    0    0  0.30514922078E+00 -0.14024011546E+02 -0.16543106572E+02  0.21689637870E+02  0.00000000000E+00 0. -1.
</event>
<event>
 7    1  0.3250765E-011  0.5052886E+02  0.7816164E-02  0.1300439E+00
        -11   -1    0    0    0    0  0.00000000000E+00  0.00000000000E+00  0.45593999997E+02  0.45594000000E+02  0.51100000000E-03 0.  1.
         11   -1    0    0    0    0 -0.00000000000E+00 -0.00000000000E+00 -0.45593999997E+02  0.45594000000E+02  0.51100000000E-03 0. -1.
    9900012    2    1    2    0    0  0.82918745061E+01  0.26429975079E+02  0.29763510665E+02  0.50528864094E+02  0.30000012901E+02 0.  0.
         12    1    1    2    0    0 -0.82918745061E+01 -0.26429975079E+02 -0.29763510665E+02  0.40659135906E+02  0.00000000000E+00 0. -1.
         11    1    3    3    0    0 -0.52785680363E+01  0.10044937460E+02  0.10364491045E+02  0.15368367642E+02  0.51100000000E-03 0.  1.
        -11    1    3    3    0    0  0.14903704928E+02  0.13367968374E+02  0.22854498800E+02  0.30383401960E+02  0.51100000000E-03 0. -1.
         12    1    3    3    0    0 -0.13332623854E+01  0.30170692443E+01 -0.34554791805E+01  0.47770944914E+01  0.00000000000E+00 0. -1.
</event>
<event>
 7    1  0.3250765E-011  0.5052887E+02  0.7816164E-02  0.1300439E+00
        -11   -1    0    0    0    0  0.00000000000E+00  0.00000000000E+00  0.45593999997E+02  0.45594000000E+02  0.51100000000E-03 0.  1.
         11   -1    0    0    0    0 -0.00000000000E+00 -0.00000000000E+00 -0.45593999997E+02  0.45594000000E+02  0.51100000000E-03 0. -1.
    9900012    2    1    2    0    0  0.15981481271E+02 -0.17262214942E+02  0.33162831427E+02  0.50528865767E+02  0.30000017986E+02 0.  0.
         12    1    1    2    0    0 -0.15981481271E+02  0.17262214942E+02 -0.33162831427E+02  0.40659134233E+02  0.00000000000E+00 0. -1.
         11    1    3    3    0    0  0.17374222524E-01 -0.13851740305E+01 -0.25747053039E+01  0.29237162348E+01  0.51100000000E-03 0. -1.
        -11    1    3    3    0    0  0.66898118726E+00  0.47587421449E+01  0.10726076871E+02  0.11753377725E+02  0.51100000000E-03 0.  1.
         12    1    3    3    0    0  0.15295125861E+02 -0.20635783056E+02  0.25011459859E+02  0.35851771808E+02  0.00000000000E+00 0. -1.
</event>
<event>
 7    1  0.3250765E-011  0.5052886E+02  0.7816164E-02  0.1300439E+00
        -11   -1    0    0    0    0  0.00000000000E+00  0.00000000000E+00  0.45593999997E+02  0.45594000000E+02  0.51100000000E-03 0.  1.
         11   -1    0    0    0    0 -0.00000000000E+00 -0.00000000000E+00 -0.45593999997E+02  0.45594000000E+02  0.51100000000E-03 0. -1.
    9900012    2    1    2    0    0  0.29952028333E+02  0.20185846374E+02 -0.18670110915E+02  0.50528862814E+02  0.30000009010E+02 0.  0.
         12    1    1    2    0    0 -0.29952028333E+02 -0.20185846374E+02  0.18670110915E+02  0.40659137186E+02  0.00000000000E+00 0. -1.
         11    1    3    3    0    0  0.76372264509E+01 -0.42485085976E+00 -0.11491293933E+02  0.13804258859E+02  0.51100000000E-03 0. -1.
        -11    1    3    3    0    0  0.18184677987E+02  0.12861108995E+02 -0.13372064643E+02  0.25978890491E+02  0.51100000000E-03 0.  1.
        -12    1    3    3    0    0  0.41301238955E+01  0.77495882391E+01  0.61932476611E+01  0.10745713464E+02  0.00000000000E+00 0.  1.
</event>
<event>
 7    1  0.3250765E-011  0.5052886E+02  0.7816164E-02  0.1300439E+00
        -11   -1    0    0    0    0  0.00000000000E+00  0.00000000000E+00  0.45593999997E+02  0.45594000000E+02  0.51100000000E-03 0.  1.
         11   -1    0    0    0    0 -0.00000000000E+00 -0.00000000000E+00 -0.45593999997E+02  0.45594000000E+02  0.51100000000E-03 0. -1.
    9900012    2    1    2    0    0  0.18597928654E+02  0.69674259700E+01  0.35478692608E+02  0.50528860757E+02  0.30000002756E+02 0.  0.
         12    1    1    2    0    0 -0.18597928654E+02 -0.69674259700E+01 -0.35478692608E+02  0.40659139243E+02  0.00000000000E+00 0. -1.
         11    1    3    3    0    0  0.82193809763E+01  0.22865335845E+01  0.15607924700E+01  0.86730924624E+01  0.51100000000E-03 0. -1.
        -11    1    3    3    0    0  0.17077508079E+02  0.16169060616E+01  0.24105995298E+02  0.29586393443E+02  0.51100000000E-03 0.  1.
        -12    1    3    3    0    0 -0.66989604017E+01  0.30639863238E+01  0.98119048393E+01  0.12269374851E+02  0.00000000000E+00 0.  1.
</event>
<event>
 7    1  0.3250765E-011  0.5052886E+02  0.7816164E-02  0.1300439E+00
        -11   -1    0    0    0    0  0.00000000000E+00  0.00000000000E+00  0.45593999997E+02  0.45594000000E+02  0.51100000000E-03 0.  1.
         11   -1    0    0    0    0 -0.00000000000E+00 -0.00000000000E+00 -0.45593999997E+02  0.45594000000E+02  0.51100000000E-03 0. -1.
    9900012    2    1    2    0    0  0.15019227305E+01  0.16717202534E+02  0.37033022929E+02  0.50528863023E+02  0.30000009644E+02 0.  0.
         12    1    1    2    0    0 -0.15019227305E+01 -0.16717202534E+02 -0.37033022929E+02  0.40659136977E+02  0.00000000000E+00 0. -1.
         11    1    3    3    0    0 -0.44487400899E+01 -0.33426069656E+01  0.71701993940E+01  0.90761263391E+01  0.51100000000E-03 0. -1.
        -11    1    3    3    0    0  0.74988337024E+01  0.27268474953E+00  0.14598929977E+02  0.16414494224E+02  0.51100000000E-03 0.  1.
        -12    1    3    3    0    0 -0.15481708820E+01  0.19787124750E+02  0.15263893558E+02  0.25038242460E+02  0.00000000000E+00 0.  1.
</event>
<event>
 7    1  0.3250765E-011  0.5052886E+02  0.7816164E-02  0.1300439E+00
        -11   -1    0    0    0    0  0.00000000000E+00  0.00000000000E+00  0.45593999997E+02  0.45594000000E+02  0.51100000000E-03 0.  1.
         11   -1    0    0    0    0 -0.00000000000E+00 -0.00000000000E+00 -0.45593999997E+02  0.45594000000E+02  0.51100000000E-03 0. -1.
    9900012    2    1    2    0    0  0.14678083069E+02 -0.20154546992E+02  0.32117185948E+02  0.50528861786E+02  0.30000005885E+02 0.  0.
         12    1    1    2    0    0 -0.14678083069E+02  0.20154546992E+02 -0.32117185948E+02  0.40659138214E+02  0.00000000000E+00 0. -1.
         11    1    3    3    0    0  0.19613944227E+02 -0.12893480539E+02  0.21797828690E+02  0.32032701797E+02  0.51100000000E-03 0. -1.
        -11    1    3    3    0    0  0.92339576178E+00 -0.30413131082E+00  0.92920098848E+01  0.93427299836E+01  0.51100000000E-03 0.  1.
        -12    1    3    3    0    0 -0.58592569202E+01 -0.69569351425E+01  0.10273473733E+01  0.91534300051E+01  0.00000000000E+00 0.  1.
</event>
<event>
 7    1  0.3250765E-011  0.5052885E+02  0.7816164E-02  0.1300439E+00
        -11   -1    0    0    0    0  0.00000000000E+00  0.00000000000E+00  0.45593999997E+02  0.45594000000E+02  0.51100000000E-03 0. -1.
         11   -1    0    0    0    0 -0.00000000000E+00 -0.00000000000E+00 -0.45593999997E+02  0.45594000000E+02  0.51100000000E-03 0.  1.
    9900012    2    1    2    0    0 -0.91530085043E-01 -0.14887906455E+02 -0.37835273952E+02  0.50528854763E+02  0.29999984539E+02 0.  0.
         12    1    1    2    0    0  0.91530085043E-01  0.14887906455E+02  0.37835273952E+02  0.40659145237E+02  0.00000000000E+00 0. -1.
         11    1    3    3    0    0 -0.46666425776E+01 -0.10150249667E+02 -0.73266837417E+01  0.13359843418E+02  0.51100000000E-03 0. -1.
        -11    1    3    3    0    0 -0.76530106392E+01 -0.39102933181E+01 -0.92182807624E+01  0.12603002267E+02  0.51100000000E-03 0.  1.
        -12    1    3    3    0    0  0.12228123132E+02 -0.82736346994E+00 -0.21290309447E+02  0.24566009078E+02  0.00000000000E+00 0.  1.
</event>
<event>
 7    1  0.3250765E-011  0.5052886E+02  0.7816164E-02  0.1300439E+00
        -11   -1    0    0    0    0  0.00000000000E+00  0.00000000000E+00  0.45593999997E+02  0.45594000000E+02  0.51100000000E-03 0.  1.
         11   -1    0    0    0    0 -0.00000000000E+00 -0.00000000000E+00 -0.45593999997E+02  0.45594000000E+02  0.51100000000E-03 0. -1.
    9900012    2    1    2    0    0  0.34376670877E+02 -0.38306647459E+01  0.21371392695E+02  0.50528856887E+02  0.29999990993E+02 0.  0.
         12    1    1    2    0    0 -0.34376670877E+02  0.38306647459E+01 -0.21371392695E+02  0.40659143113E+02  0.00000000000E+00 0. -1.
         11    1    3    3    0    0  0.20579791497E+02 -0.63510887980E+01  0.43727835162E+01  0.21976928424E+02  0.51100000000E-03 0. -1.
        -11    1    3    3    0    0  0.15994859397E+02 -0.32979780586E+01  0.14532794843E+02  0.21861251396E+02  0.51100000000E-03 0.  1.
        -12    1    3    3    0    0 -0.21979800172E+01  0.58184021108E+01  0.24658143358E+01  0.66906770671E+01  0.00000000000E+00 0.  1.
</event>
<event>
 7    1  0.3250765E-011  0.5052886E+02  0.7816164E-02  0.1300439E+00
        -11   -1    0    0    0    0  0.00000000000E+00  0.00000000000E+00  0.45593999997E+02  0.45594000000E+02  0.51100000000E-03 0.  1.
         11   -1    0    0    0    0 -0.00000000000E+00 -0.00000000000E+00 -0.45593999997E+02  0.45594000000E+02  0.51100000000E-03 0. -1.
    9900012    2    1    2    0    0 -0.20896796718E+02 -0.29025898435E+02 -0.19338747017E+02  0.50528855528E+02  0.29999986861E+02 0.  0.
         12    1    1    2    0    0  0.20896796718E+02  0.29025898435E+02  0.19338747017E+02  0.40659144472E+02  0.00000000000E+00 0. -1.
         11    1    3    3    0    0 -0.63602182728E+01 -0.18865064472E+01 -0.11912688080E+02  0.13635373871E+02  0.51100000000E-03 0. -1.
        -11    1    3    3    0    0  0.44606179201E+01 -0.54269977917E+01  0.28523488912E+00  0.70307024161E+01  0.51100000000E-03 0.  1.
        -12    1    3    3    0    0 -0.18997196365E+02 -0.21712394196E+02 -0.77112938261E+01  0.29862779240E+02  0.00000000000E+00 0.  1.
</event>
<event>
 7    1  0.3250765E-011  0.5052888E+02  0.7816164E-02  0.1300439E+00
        -11   -1    0    0    0    0  0.00000000000E+00  0.00000000000E+00  0.45593999997E+02  0.45594000000E+02  0.51100000000E-03 0.  1.
         11   -1    0    0    0    0 -0.00000000000E+00 -0.00000000000E+00 -0.45593999997E+02  0.45594000000E+02  0.51100000000E-03 0. -1.
    9900012    2    1    2    0    0 -0.17278519036E+02 -0.17559615964E+02  0.32346207050E+02  0.50528875029E+02  0.30000046139E+02 0.  0.
         12    1    1    2    0    0  0.17278519036E+02  0.17559615964E+02 -0.32346207050E+02  0.40659124971E+02  0.00000000000E+00 0. -1.
         11    1    3    3    0    0 -0.36984101188E+00  0.56846829528E+01  0.41109453161E+01  0.70251173870E+01  0.51100000000E-03 0.  1.
        -11    1    3    3    0    0 -0.61673402035E+01 -0.54647106672E+01 -0.25605926373E+00  0.82440714741E+01  0.51100000000E-03 0. -1.
         12    1    3    3    0    0 -0.10741337821E+02 -0.17779588249E+02  0.28491320997E+02  0.35259686168E+02  0.00000000000E+00 0. -1.
</event>
<event>
 7    1  0.3250765E-011  0.5052887E+02  0.7816164E-02  0.1300439E+00
        -11   -1    0    0    0    0  0.00000000000E+00  0.00000000000E+00  0.45593999997E+02  0.45594000000E+02  0.51100000000E-03 0.  1.
         11   -1    0    0    0    0 -0.00000000000E+00 -0.00000000000E+00 -0.45593999997E+02  0.45594000000E+02  0.51100000000E-03 0. -1.
    9900012    2    1    2    0    0 -0.27986383894E+01  0.62185115716E+01  0.40083200843E+02  0.50528865076E+02  0.30000015884E+02 0.  0.
         12    1    1    2    0    0  0.27986383894E+01 -0.62185115716E+01 -0.40083200843E+02  0.40659134924E+02  0.00000000000E+00 0. -1.
         11    1    3    3    0    0 -0.28731421192E+01 -0.39426382498E+01  0.20125054738E+02  0.20707901160E+02  0.51100000000E-03 0. -1.
        -11    1    3    3    0    0  0.57985271912E+01  0.53553082484E+01  0.20849901987E+02  0.22293960105E+02  0.51100000000E-03 0.  1.
         12    1    3    3    0    0 -0.57240234614E+01  0.48058415730E+01 -0.89175588188E+00  0.75270038106E+01  0.00000000000E+00 0. -1.
</event>
<event>
 7    1  0.3250765E-011  0.5052885E+02  0.7816164E-02  0.1300439E+00
        -11   -1    0    0    0    0  0.00000000000E+00  0.00000000000E+00  0.45593999997E+02  0.45594000000E+02  0.51100000000E-03 0. -1.
         11   -1    0    0    0    0 -0.00000000000E+00 -0.00000000000E+00 -0.45593999997E+02  0.45594000000E+02  0.51100000000E-03 0.  1.
    9900012    2    1    2    0    0  0.18512807396E+02 -0.35315190715E+02 -0.79548319143E+01  0.50528854858E+02  0.29999984826E+02 0.  0.
         12    1    1    2    0    0 -0.18512807396E+02  0.35315190715E+02  0.79548319143E+01  0.40659145142E+02  0.00000000000E+00 0. -1.
         11    1    3    3    0    0 -0.28594633730E+01 -0.10071116989E+02 -0.89044943624E+01  0.13743869481E+02  0.51100000000E-03 0. -1.
        -11    1    3    3    0    0  0.61804284828E+01 -0.16535924654E+02 -0.49042126906E+01  0.18321730344E+02  0.51100000000E-03 0.  1.
         12    1    3    3    0    0  0.15191842286E+02 -0.87081490708E+01  0.58538751386E+01  0.18463255034E+02  0.00000000000E+00 0. -1.
</event>
<event>
 7    1  0.3250765E-011  0.5052891E+02  0.7816164E-02  0.1300439E+00
        -11   -1    0    0    0    0  0.00000000000E+00  0.00000000000E+00  0.45593999997E+02  0.45594000000E+02  0.51100000000E-03 0. -1.
         11   -1    0    0    0    0 -0.00000000000E+00 -0.00000000000E+00 -0.45593999997E+02  0.45594000000E+02  0.51100000000E-03 0.  1.
    9900012    2    1    2    0    0 -0.23936105215E+02 -0.17035181843E+02 -0.28107419605E+02  0.50528910116E+02  0.30000152789E+02 0.  0.
         12    1    1    2    0    0  0.23936105215E+02  0.17035181843E+02  0.28107419605E+02  0.40659089884E+02  0.00000000000E+00 0. -1.
         11    1    3    3    0    0  0.48101034213E+01 -0.17350072961E+01 -0.10901303900E+01  0.52283582288E+01  0.51100000000E-03 0. -1.
        -11    1    3    3    0    0 -0.47070313971E+01  0.24386404649E+01 -0.89047882512E+01  0.10363318289E+02  0.51100000000E-03 0.  1.
        -12    1    3    3    0    0 -0.24039177239E+02 -0.17738815012E+02 -0.18112500964E+02  0.34937233599E+02  0.00000000000E+00 0.  1.
</event>
<event>
 7    1  0.3250765E-011  0.5052885E+02  0.7816164E-02  0.1300439E+00
        -11   -1    0    0    0    0  0.00000000000E+00  0.00000000000E+00  0.45593999997E+02  0.45594000000E+02  0.51100000000E-03 0. -1.
         11   -1    0    0    0    0 -0.00000000000E+00 -0.00000000000E+00 -0.45593999997E+02  0.45594000000E+02  0.51100000000E-03 0.  1.
    9900012    2    1    2    0    0  0.37638015607E+02  0.17843668498E+01 -0.15276196099E+02  0.50528851568E+02  0.29999974827E+02 0.  0.
         12    1    1    2    0    0 -0.37638015607E+02 -0.17843668498E+01  0.15276196099E+02  0.40659148432E+02  0.00000000000E+00 0. -1.
         11    1    3    3    0    0  0.81818554953E+01  0.54521152607E+01  0.25871498453E+01  0.10166693895E+02  0.51100000000E-03 0. -1.
        -11    1    3    3    0    0  0.31175048238E+02 -0.16495851562E+01 -0.11159619812E+02  0.33153308710E+02  0.51100000000E-03 0.  1.
        -12    1    3    3    0    0 -0.17188881261E+01 -0.20181632547E+01 -0.67037261329E+01  0.72088489634E+01  0.00000000000E+00 0.  1.
</event>
<event>
 7    1  0.3250765E-011  0.5052880E+02  0.7816164E-02  0.1300439E+00
        -11   -1    0    0    0    0  0.00000000000E+00  0.00000000000E+00  0.45593999997E+02  0.45594000000E+02  0.51100000000E-03 0. -1.
         11   -1    0    0    0    0 -0.00000000000E+00 -0.00000000000E+00 -0.45593999997E+02  0.45594000000E+02  0.51100000000E-03 0.  1.
    9900012    2    1    2    0    0 -0.17856387746E+02 -0.45479831199E+01 -0.36244117776E+02  0.50528796772E+02  0.29999808267E+02 0.  0.
         12    1    1    2    0    0  0.17856387746E+02  0.45479831199E+01  0.36244117776E+02  0.40659203228E+02  0.00000000000E+00 0. -1.
         11    1    3    3    0    0 -0.23156655251E+01 -0.49632991687E+00  0.37233007487E+01  0.44126657404E+01  0.51100000000E-03 0. -1.
        -11    1    3    3    0    0 -0.11505223697E+02  0.12079406620E+01 -0.95982858225E+01  0.15031845660E+02  0.51100000000E-03 0.  1.
         12    1    3    3    0    0 -0.40354985239E+01 -0.52595938651E+01 -0.30369132702E+02  0.31084285371E+02  0.00000000000E+00 0. -1.
</event>
<event>
 7    1  0.3250765E-011  0.5052887E+02  0.7816164E-02  0.1300439E+00
        -11   -1    0    0    0    0  0.00000000000E+00  0.00000000000E+00  0.45593999997E+02  0.45594000000E+02  0.51100000000E-03 0.  1.
         11   -1    0    0    0    0 -0.00000000000E+00 -0.00000000000E+00 -0.45593999997E+02  0.45594000000E+02  0.51100000000E-03 0. -1.
    9900012    2    1    2    0    0  0.32987366317E+02 -0.15480915427E+02  0.18037185799E+02  0.50528866333E+02  0.30000019707E+02 0.  0.
         12    1    1    2    0    0 -0.32987366317E+02  0.15480915427E+02 -0.18037185799E+02  0.40659133667E+02  0.00000000000E+00 0. -1.
         11    1    3    3    0    0  0.26092866132E+01  0.24247683116E+01 -0.18321470506E+01  0.40055762471E+01  0.51100000000E-03 0. -1.
        -11    1    3    3    0    0  0.20624977318E+02 -0.17089292786E+02  0.29101215894E+01  0.26942576440E+02  0.51100000000E-03 0.  1.
         12    1    3    3    0    0  0.97531023857E+01 -0.81639095262E+00  0.16959211260E+02  0.19580713646E+02  0.00000000000E+00 0. -1.
</event>
<event>
 7    1  0.3250765E-011  0.5052886E+02  0.7816164E-02  0.1300439E+00
        -11   -1    0    0    0    0  0.00000000000E+00  0.00000000000E+00  0.45593999997E+02  0.45594000000E+02  0.51100000000E-03 0. -1.
         11   -1    0    0    0    0 -0.00000000000E+00 -0.00000000000E+00 -0.45593999997E+02  0.45594000000E+02  0.51100000000E-03 0.  1.
    9900012    2    1    2    0    0  0.39792439490E+02 -0.81307486191E+01 -0.19022578146E+01  0.50528857136E+02  0.29999991751E+02 0.  0.
         12    1    1    2    0    0 -0.39792439490E+02  0.81307486191E+01  0.19022578146E+01  0.40659142864E+02  0.00000000000E+00 0. -1.
         11    1    3    3    0    0  0.29946776292E+02 -0.15024208786E+02 -0.16324077458E+01  0.33544016087E+02  0.51100000000E-03 0.  1.
        -11    1    3    3    0    0 -0.13548291586E+01  0.23530220825E+00 -0.33278502462E+01  0.36007661269E+01  0.51100000000E-03 0. -1.
        -12    1    3    3    0    0  0.11200492357E+02  0.66581579591E+01  0.30580001774E+01  0.13384074922E+02  0.00000000000E+00 0.  1.
</event>
<event>
 7    1  0.3250765E-011  0.5052885E+02  0.7816164E-02  0.1300439E+00
        -11   -1    0    0    0    0  0.00000000000E+00  0.00000000000E+00  0.45593999997E+02  0.45594000000E+02  0.51100000000E-03 0.  1.
         11   -1    0    0    0    0 -0.00000000000E+00 -0.00000000000E+00 -0.45593999997E+02  0.45594000000E+02  0.51100000000E-03 0. -1.
    9900012    2    1    2    0    0  0.10893904929E+02 -0.36225892359E+02 -0.14905496638E+02  0.50528852545E+02  0.29999977795E+02 0.  0.
         12    1    1    2    0    0 -0.10893904929E+02  0.36225892359E+02  0.14905496638E+02  0.40659147455E+02  0.00000000000E+00 0. -1.
         11    1    3    3    0    0  0.69982304759E+01 -0.21678116825E+02  0.10885333394E+01  0.22805720422E+02  0.51100000000E-03 0. -1.
        -11    1    3    3    0    0  0.79494644249E+01 -0.15043801240E+01 -0.23683877679E+01  0.84300892688E+01  0.51100000000E-03 0.  1.
         12    1    3    3    0    0 -0.40537899721E+01 -0.13043395410E+02 -0.13625642209E+02  0.19293042854E+02  0.00000000000E+00 0. -1.
</event>
<event>
 7    1  0.3250765E-011  0.5052886E+02  0.7816164E-02  0.1300439E+00
        -11   -1    0    0    0    0  0.00000000000E+00  0.00000000000E+00  0.45593999997E+02  0.45594000000E+02  0.51100000000E-03 0.  1.
         11   -1    0    0    0    0 -0.00000000000E+00 -0.00000000000E+00 -0.45593999997E+02  0.45594000000E+02  0.51100000000E-03 0. -1.
    9900012    2    1    2    0    0 -0.10771825431E+02  0.38136744448E+02  0.90951552204E+01  0.50528863896E+02  0.30000012300E+02 0.  0.
         12    1    1    2    0    0  0.10771825431E+02 -0.38136744448E+02 -0.90951552204E+01  0.40659136104E+02  0.00000000000E+00 0. -1.
         11    1    3    3    0    0 -0.38823141948E+00  0.27064118307E+01 -0.41358950753E+01  0.49579246633E+01  0.51100000000E-03 0. -1.
        -11    1    3    3    0    0 -0.73831900661E+01  0.13017525522E+02 -0.57655975979E+01  0.16037754899E+02  0.51100000000E-03 0.  1.
        -12    1    3    3    0    0 -0.30004039450E+01  0.22412807095E+02  0.18996647894E+02  0.29533184334E+02  0.00000000000E+00 0.  1.
</event>
<event>
 7    1  0.3250765E-011  0.5052886E+02  0.7816164E-02  0.1300439E+00
        -11   -1    0    0    0    0  0.00000000000E+00  0.00000000000E+00  0.45593999997E+02  0.45594000000E+02  0.51100000000E-03 0.  1.
         11   -1    0    0    0    0 -0.00000000000E+00 -0.00000000000E+00 -0.45593999997E+02  0.45594000000E+02  0.51100000000E-03 0. -1.
    9900012    2    1    2    0    0  0.23913101288E+02  0.18534638120E+02  0.27162406980E+02  0.50528861096E+02  0.30000003789E+02 0.  0.
         12    1    1    2    0    0 -0.23913101288E+02 -0.18534638120E+02 -0.27162406980E+02  0.40659138904E+02  0.00000000000E+00 0. -1.
         11    1    3    3    0    0  0.15879959518E+02  0.61857378146E+01  0.20703314739E+02  0.26815363284E+02  0.51100000000E-03 0. -1.
        -11    1    3    3    0    0  0.99972392728E+01  0.26886686315E+00  0.28318836485E+00  0.10004862737E+02  0.51100000000E-03 0.  1.
         12    1    3    3    0    0 -0.19640975030E+01  0.12080033442E+02  0.61759038762E+01  0.13708635076E+02  0.00000000000E+00 0. -1.
</event>
<event>
 7    1  0.3250765E-011  0.5052885E+02  0.7816164E-02  0.1300439E+00
        -11   -1    0    0    0    0  0.00000000000E+00  0.00000000000E+00  0.45593999997E+02  0.45594000000E+02  0.51100000000E-03 0.  1.
         11   -1    0    0    0    0 -0.00000000000E+00 -0.00000000000E+00 -0.45593999997E+02  0.45594000000E+02  0.51100000000E-03 0. -1.
    9900012    2    1    2    0    0  0.30468641625E+02  0.89647100346E+01 -0.25386257768E+02  0.50528853035E+02  0.29999979284E+02 0.  0.
         12    1    1    2    0    0 -0.30468641625E+02 -0.89647100346E+01  0.25386257768E+02  0.40659146965E+02  0.00000000000E+00 0. -1.
         11    1    3    3    0    0  0.26573601516E+02  0.70646490553E+01 -0.79743757430E+01  0.28629639057E+02  0.51100000000E-03 0.  1.
        -11    1    3    3    0    0  0.53575815868E+01  0.60732327458E+01 -0.14488161608E+02  0.16598031916E+02  0.51100000000E-03 0. -1.
        -12    1    3    3    0    0 -0.14625414779E+01 -0.41731717666E+01 -0.29237204169E+01  0.53011820610E+01  0.00000000000E+00 0.  1.
</event>
<event>
 7    1  0.3250765E-011  0.5052886E+02  0.7816164E-02  0.1300439E+00
        -11   -1    0    0    0    0  0.00000000000E+00  0.00000000000E+00  0.45593999997E+02  0.45594000000E+02  0.51100000000E-03 0. -1.
         11   -1    0    0    0    0 -0.00000000000E+00 -0.00000000000E+00 -0.45593999997E+02  0.45594000000E+02  0.51100000000E-03 0.  1.
    9900012    2    1    2    0    0  0.37344924700E+02 -0.49065314777E+01 -0.15311705143E+02  0.50528858760E+02  0.29999996687E+02 0.  0.
         12    1    1    2    0    0 -0.37344924700E+02  0.49065314777E+01  0.15311705143E+02  0.40659141240E+02  0.00000000000E+00 0. -1.
         11    1    3    3    0    0  0.32943494757E+01  0.52546039171E-01  0.67249611513E+01  0.74886983049E+01  0.51100000000E-03 0. -1.
        -11    1    3    3    0    0  0.15108856801E+01  0.26549000564E+01 -0.40980989454E+01  0.51113290909E+01  0.51100000000E-03 0.  1.
        -12    1    3    3    0    0  0.32539689544E+02 -0.76139775733E+01 -0.17938567349E+02  0.37928831364E+02  0.00000000000E+00 0.  1.
</event>
<event>
 7    1  0.3250765E-011  0.5052886E+02  0.7816164E-02  0.1300439E+00
        -11   -1    0    0    0    0  0.00000000000E+00  0.00000000000E+00  0.45593999997E+02  0.45594000000E+02  0.51100000000E-03 0.  1.
         11   -1    0    0    0    0 -0.00000000000E+00 -0.00000000000E+00 -0.45593999997E+02  0.45594000000E+02  0.51100000000E-03 0. -1.
    9900012    2    1    2    0    0 -0.20687111508E+01 -0.31291009408E+01  0.40485732600E+02  0.50528863479E+02  0.30000011030E+02 0.  0.
         12    1    1    2    0    0  0.20687111508E+01  0.31291009408E+01 -0.40485732600E+02  0.40659136521E+02  0.00000000000E+00 0. -1.
         11    1    3    3    0    0 -0.72268160730E+01 -0.99809644733E+01  0.23238654514E+02  0.26303642072E+02  0.51100000000E-03 0.  1.
        -11    1    3    3    0    0 -0.91666182521E-02 -0.20221204789E+01 -0.17213486312E+01  0.26555783982E+01  0.51100000000E-03 0. -1.
        -12    1    3    3    0    0  0.51672715405E+01  0.88739840113E+01  0.18968426717E+02  0.21569643008E+02  0.00000000000E+00 0.  1.
</event>
<event>
 7    1  0.3250765E-011  0.5052886E+02  0.7816164E-02  0.1300439E+00
        -11   -1    0    0    0    0  0.00000000000E+00  0.00000000000E+00  0.45593999997E+02  0.45594000000E+02  0.51100000000E-03 0. -1.
         11   -1    0    0    0    0 -0.00000000000E+00 -0.00000000000E+00 -0.45593999997E+02  0.45594000000E+02  0.51100000000E-03 0.  1.
    9900012    2    1    2    0    0 -0.22931474059E+02 -0.21262659522E+02 -0.25984850606E+02  0.50528860148E+02  0.30000000905E+02 0.  0.
         12    1    1    2    0    0  0.22931474059E+02  0.21262659522E+02  0.25984850606E+02  0.40659139852E+02  0.00000000000E+00 0. -1.
         11    1    3    3    0    0 -0.58023686891E+01  0.15507735676E+01  0.19947747541E+01  0.63286260470E+01  0.51100000000E-03 0. -1.
        -11    1    3    3    0    0 -0.15596270260E+02 -0.19588977877E+02 -0.30768712998E+02  0.39669703807E+02  0.51100000000E-03 0.  1.
         12    1    3    3    0    0 -0.15328351105E+01 -0.32244552123E+01  0.27890876377E+01  0.45305302938E+01  0.00000000000E+00 0. -1.
</event>
<event>
 7    1  0.3250765E-011  0.5052886E+02  0.7816164E-02  0.1300439E+00
        -11   -1    0    0    0    0  0.00000000000E+00  0.00000000000E+00  0.45593999997E+02  0.45594000000E+02  0.51100000000E-03 0.  1.
         11   -1    0    0    0    0 -0.00000000000E+00 -0.00000000000E+00 -0.45593999997E+02  0.45594000000E+02  0.51100000000E-03 0. -1.
    9900012    2    1    2    0    0  0.23109977976E+01  0.27417383569E+02  0.29935123739E+02  0.50528864915E+02  0.30000015395E+02 0.  0.
         12    1    1    2    0    0 -0.23109977976E+01 -0.27417383569E+02 -0.29935123739E+02  0.40659135085E+02  0.00000000000E+00 0. -1.
         11    1    3    3    0    0  0.30711958765E+01  0.16382422588E+01 -0.13991298233E+01  0.37514858835E+01  0.51100000000E-03 0. -1.
        -11    1    3    3    0    0 -0.74235026480E+01  0.23116358940E+02  0.14022887370E+02  0.28037756912E+02  0.51100000000E-03 0.  1.
        -12    1    3    3    0    0  0.66633045691E+01  0.26627823705E+01  0.17311366192E+02  0.18739622120E+02  0.00000000000E+00 0.  1.
</event>
<event>
 7    1  0.3250765E-011  0.5052887E+02  0.7816164E-02  0.1300439E+00
        -11   -1    0    0    0    0  0.00000000000E+00  0.00000000000E+00  0.45593999997E+02  0.45594000000E+02  0.51100000000E-03 0.  1.
         11   -1    0    0    0    0 -0.00000000000E+00 -0.00000000000E+00 -0.45593999997E+02  0.45594000000E+02  0.51100000000E-03 0. -1.
    9900012    2    1    2    0    0  0.17205524436E+02 -0.10980780861E+01  0.36822944558E+02  0.50528867047E+02  0.30000021876E+02 0.  0.
         12    1    1    2    0    0 -0.17205524436E+02  0.10980780861E+01 -0.36822944558E+02  0.40659132953E+02  0.00000000000E+00 0. -1.
         11    1    3    3    0    0 -0.28360226106E+01  0.27388571293E+00  0.44540243175E+00  0.28838205941E+01  0.51100000000E-03 0. -1.
        -11    1    3    3    0    0  0.31959454188E+01 -0.10488388745E+02  0.18145535008E+02  0.21200962397E+02  0.51100000000E-03 0.  1.
         12    1    3    3    0    0  0.16845601628E+02  0.91164249456E+01  0.18232007118E+02  0.26444084056E+02  0.00000000000E+00 0. -1.
</event>
<event>
 7    1  0.3250765E-011  0.5052886E+02  0.7816164E-02  0.1300439E+00
        -11   -1    0    0    0    0  0.00000000000E+00  0.00000000000E+00  0.45593999997E+02  0.45594000000E+02  0.51100000000E-03 0.  1.
         11   -1    0    0    0    0 -0.00000000000E+00 -0.00000000000E+00 -0.45593999997E+02  0.45594000000E+02  0.51100000000E-03 0. -1.
    9900012    2    1    2    0    0  0.40406692680E+02 -0.14060379124E+00  0.45216255463E+01  0.50528859818E+02  0.29999999902E+02 0.  0.
         12    1    1    2    0    0 -0.40406692680E+02  0.14060379124E+00 -0.45216255463E+01  0.40659140182E+02  0.00000000000E+00 0. -1.
         11    1    3    3    0    0  0.30981935648E+01 -0.51568856234E+01 -0.15548285662E+01  0.62136756296E+01  0.51100000000E-03 0. -1.
        -11    1    3    3    0    0  0.27999907610E+02 -0.55373238205E+01 -0.10085422667E+01  0.28560005936E+02  0.51100000000E-03 0.  1.
        -12    1    3    3    0    0  0.93085915051E+01  0.10553605653E+02  0.70849963792E+01  0.15755178253E+02  0.00000000000E+00 0.  1.
</event>
<event>
 7    1  0.3250765E-011  0.5052883E+02  0.7816164E-02  0.1300439E+00
        -11   -1    0    0    0    0  0.00000000000E+00  0.00000000000E+00  0.45593999997E+02  0.45594000000E+02  0.51100000000E-03 0.  1.
         11   -1    0    0    0    0 -0.00000000000E+00 -0.00000000000E+00 -0.45593999997E+02  0.45594000000E+02  0.51100000000E-03 0. -1.
    9900012    2    1    2    0    0  0.39780668663E+02 -0.32106612597E+01  0.77690547225E+01  0.50528829370E+02  0.29999907354E+02 0.  0.
         12    1    1    2    0    0 -0.39780668663E+02  0.32106612597E+01 -0.77690547225E+01  0.40659170630E+02  0.00000000000E+00 0. -1.
         11    1    3    3    0    0 -0.17479717094E+01 -0.29654210716E+00  0.17132029274E+01  0.24654425261E+01  0.51100000000E-03 0. -1.
        -11    1    3    3    0    0  0.21676835810E+02  0.91755684848E+01  0.76887068237E+01  0.24762723611E+02  0.51100000000E-03 0.  1.
         12    1    3    3    0    0  0.19851804562E+02 -0.12089687637E+02 -0.16328550285E+01  0.23300663233E+02  0.00000000000E+00 0. -1.
</event>
<event>
 7    1  0.3250765E-011  0.5052886E+02  0.7816164E-02  0.1300439E+00
        -11   -1    0    0    0    0  0.00000000000E+00  0.00000000000E+00  0.45593999997E+02  0.45594000000E+02  0.51100000000E-03 0.  1.
         11   -1    0    0    0    0 -0.00000000000E+00 -0.00000000000E+00 -0.45593999997E+02  0.45594000000E+02  0.51100000000E-03 0. -1.
    9900012    2    1    2    0    0  0.13428118556E+02  0.19983333202E+02  0.32764577823E+02  0.50528861621E+02  0.30000005383E+02 0.  0.
         12    1    1    2    0    0 -0.13428118556E+02 -0.19983333202E+02 -0.32764577823E+02  0.40659138379E+02  0.00000000000E+00 0. -1.
         11    1    3    3    0    0  0.21753414734E+01  0.71269851487E+01  0.18568646902E+02  0.20008015291E+02  0.51100000000E-03 0. -1.
        -11    1    3    3    0    0  0.13999479796E+02  0.68298824819E+01  0.17237586175E+02  0.23232888470E+02  0.51100000000E-03 0.  1.
         12    1    3    3    0    0 -0.27467027138E+01  0.60264655718E+01 -0.30416552540E+01  0.72879578600E+01  0.00000000000E+00 0. -1.
</event>
<event>
 7    1  0.3250765E-011  0.5052886E+02  0.7816164E-02  0.1300439E+00
        -11   -1    0    0    0    0  0.00000000000E+00  0.00000000000E+00  0.45593999997E+02  0.45594000000E+02  0.51100000000E-03 0.  1.
         11   -1    0    0    0    0 -0.00000000000E+00 -0.00000000000E+00 -0.45593999997E+02  0.45594000000E+02  0.51100000000E-03 0. -1.
    9900012    2    1    2    0    0  0.63546518154E+01 -0.23335020385E+02  0.32684255587E+02  0.50528864011E+02  0.30000012648E+02 0.  0.
         12    1    1    2    0    0 -0.63546518154E+01  0.23335020385E+02 -0.32684255587E+02  0.40659135989E+02  0.00000000000E+00 0. -1.
         11    1    3    3    0    0  0.14296715393E+02 -0.10203174400E+02  0.10571260834E+02  0.20500058408E+02  0.51100000000E-03 0.  1.
        -11    1    3    3    0    0 -0.30786217215E+01 -0.96772507242E+01  0.39246539119E+01  0.10887148473E+02  0.51100000000E-03 0. -1.
         12    1    3    3    0    0 -0.48634418559E+01 -0.34545952606E+01  0.18188340842E+02  0.19141657130E+02  0.00000000000E+00 0. -1.
</event>
<event>
 7    1  0.3330713E-011  0.5052886E+02  0.7816164E-02  0.1300439E+00
        -11   -1    0    0    0    0  0.00000000000E+00  0.00000000000E+00  0.45593999997E+02  0.45594000000E+02  0.51100000000E-03 0.  1.
         11   -1    0    0    0    0 -0.00000000000E+00 -0.00000000000E+00 -0.45593999997E+02  0.45594000000E+02  0.51100000000E-03 0. -1.
    9900012    2    1    2    0    0  0.39030701672E+02 -0.89809747907E+01 -0.70080178179E+01  0.50528857179E+02  0.29999991881E+02 0.  0.
         12    1    1    2    0    0 -0.39030701672E+02  0.89809747907E+01  0.70080178179E+01  0.40659142821E+02  0.00000000000E+00 0. -1.
         11    1    3    3    0    0  0.99539232669E+00  0.36714296990E+01  0.46789639080E+01  0.60301662856E+01  0.51100000000E-03 0. -1.
        -11    1    3    3    0    0  0.14986942476E+02 -0.83396364338E+00  0.20997560551E+01  0.15156283050E+02  0.51100000000E-03 0.  1.
         12    1    3    3    0    0  0.23048366869E+02 -0.11818440846E+02 -0.13786737781E+02  0.29342407843E+02  0.00000000000E+00 0. -1.
</event>
<event>
 7    1  0.4562470E-011  0.5052886E+02  0.7816164E-02  0.1300439E+00
        -11   -1    0    0    0    0  0.00000000000E+00  0.00000000000E+00  0.45593999997E+02  0.45594000000E+02  0.51100000000E-03 0.  1.
         11   -1    0    0    0    0 -0.00000000000E+00 -0.00000000000E+00 -0.45593999997E+02  0.45594000000E+02  0.51100000000E-03 0. -1.
    9900012    2    1    2    0    0 -0.14844846446E+02  0.27893117773E+02  0.25588478193E+02  0.50528859560E+02  0.29999999118E+02 0.  0.
         12    1    1    2    0    0  0.14844846446E+02 -0.27893117773E+02 -0.25588478193E+02  0.40659140440E+02  0.00000000000E+00 0. -1.
         11    1    3    3    0    0  0.70411766243E+00  0.19999959942E+01  0.14030800599E+02  0.14190106813E+02  0.51100000000E-03 0. -1.
        -11    1    3    3    0    0 -0.14200028372E+01  0.14042716839E+02  0.10991582332E+02  0.17889359594E+02  0.51100000000E-03 0.  1.
         12    1    3    3    0    0 -0.14128961272E+02  0.11850404940E+02  0.56609526189E+00  0.18449393153E+02  0.00000000000E+00 0. -1.
</event>
<event>
 7    1  0.3250765E-011  0.5052886E+02  0.7816164E-02  0.1300439E+00
        -11   -1    0    0    0    0  0.00000000000E+00  0.00000000000E+00  0.45593999997E+02  0.45594000000E+02  0.51100000000E-03 0.  1.
         11   -1    0    0    0    0 -0.00000000000E+00 -0.00000000000E+00 -0.45593999997E+02  0.45594000000E+02  0.51100000000E-03 0. -1.
    9900012    2    1    2    0    0  0.81538295237E+00  0.39028109849E+02  0.11371327811E+02  0.50528864447E+02  0.30000013974E+02 0.  0.
         12    1    1    2    0    0 -0.81538295237E+00 -0.39028109849E+02 -0.11371327811E+02  0.40659135553E+02  0.00000000000E+00 0. -1.
         11    1    3    3    0    0  0.10607444414E+01  0.21405883820E+00 -0.43843459375E+01  0.45159151361E+01  0.51100000000E-03 0. -1.
        -11    1    3    3    0    0  0.52794905686E+01  0.39432524282E+01  0.70491663641E+01  0.96495081256E+01  0.51100000000E-03 0.  1.
        -12    1    3    3    0    0 -0.55248520576E+01  0.34870798582E+02  0.87065073845E+01  0.36363441186E+02  0.00000000000E+00 0.  1.
</event>
<event>
 7    1  0.3250765E-011  0.5052885E+02  0.7816164E-02  0.1300439E+00
        -11   -1    0    0    0    0  0.00000000000E+00  0.00000000000E+00  0.45593999997E+02  0.45594000000E+02  0.51100000000E-03 0.  1.
         11   -1    0    0    0    0 -0.00000000000E+00 -0.00000000000E+00 -0.45593999997E+02  0.45594000000E+02  0.51100000000E-03 0. -1.
    9900012    2    1    2    0    0  0.57789020655E+01  0.38743065115E+02  0.10897044473E+02  0.50528851192E+02  0.29999973683E+02 0.  0.
         12    1    1    2    0    0 -0.57789020655E+01 -0.38743065115E+02 -0.10897044473E+02  0.40659148808E+02  0.00000000000E+00 0. -1.
         11    1    3    3    0    0 -0.32857266168E+01  0.11752301587E+02  0.34022578713E+01  0.12668383910E+02  0.51100000000E-03 0.  1.
        -11    1    3    3    0    0  0.10511145993E+02  0.70310376746E+00  0.18164519391E+00  0.10536201414E+02  0.51100000000E-03 0. -1.
         12    1    3    3    0    0 -0.14465173112E+01  0.26287659760E+02  0.73131414075E+01  0.27324265868E+02  0.00000000000E+00 0. -1.
</event>
<event>
 7    1  0.3250765E-011  0.5052886E+02  0.7816164E-02  0.1300439E+00
        -11   -1    0    0    0    0  0.00000000000E+00  0.00000000000E+00  0.45593999997E+02  0.45594000000E+02  0.51100000000E-03 0.  1.
         11   -1    0    0    0    0 -0.00000000000E+00 -0.00000000000E+00 -0.45593999997E+02  0.45594000000E+02  0.51100000000E-03 0. -1.
    9900012    2    1    2    0    0  0.22651230886E+02 -0.25700674232E+02  0.21898925277E+02  0.50528857794E+02  0.29999993751E+02 0.  0.
         12    1    1    2    0    0 -0.22651230886E+02  0.25700674232E+02 -0.21898925277E+02  0.40659142206E+02  0.00000000000E+00 0. -1.
         11    1    3    3    0    0  0.45156731758E+01 -0.74978008145E+01 -0.95782367854E+00  0.88048706830E+01  0.51100000000E-03 0. -1.
        -11    1    3    3    0    0  0.12745927654E+02 -0.16949524165E+02  0.27340997400E+02  0.34601664415E+02  0.51100000000E-03 0.  1.
         12    1    3    3    0    0  0.53896300557E+01 -0.12533492522E+01 -0.44842484441E+01  0.71223226965E+01  0.00000000000E+00 0. -1.
</event>
<event>
 7    1  0.3250765E-011  0.5052885E+02  0.7816164E-02  0.1300439E+00
        -11   -1    0    0    0    0  0.00000000000E+00  0.00000000000E+00  0.45593999997E+02  0.45594000000E+02  0.51100000000E-03 0. -1.
         11   -1    0    0    0    0 -0.00000000000E+00 -0.00000000000E+00 -0.45593999997E+02  0.45594000000E+02  0.51100000000E-03 0.  1.
    9900012    2    1    2    0    0  0.31376481574E+02  0.11579627091E+02 -0.23121314019E+02  0.50528849474E+02  0.29999968462E+02 0.  0.
         12    1    1    2    0    0 -0.31376481574E+02 -0.11579627091E+02  0.23121314019E+02  0.40659150526E+02  0.00000000000E+00 0. -1.
         11    1    3    3    0    0  0.74596808352E+01  0.11607904594E+02 -0.71690747039E+01  0.15549466859E+02  0.51100000000E-03 0. -1.
        -11    1    3    3    0    0  0.16689234013E+01  0.60780041444E+01 -0.88021772570E+01  0.10826161112E+02  0.51100000000E-03 0.  1.
        -12    1    3    3    0    0  0.22247877337E+02 -0.61062816471E+01 -0.71500620583E+01  0.24153221503E+02  0.00000000000E+00 0.  1.
</event>
<event>
 7    1  0.3250765E-011  0.5052886E+02  0.7816164E-02  0.1300439E+00
        -11   -1    0    0    0    0  0.00000000000E+00  0.00000000000E+00  0.45593999997E+02  0.45594000000E+02  0.51100000000E-03 0. -1.
         11   -1    0    0    0    0 -0.00000000000E+00 -0.00000000000E+00 -0.45593999997E+02  0.45594000000E+02  0.51100000000E-03 0.  1.
    9900012    2    1    2    0    0 -0.22120544766E+02 -0.10856062043E+02 -0.32341815449E+02  0.50528860679E+02  0.30000002519E+02 0.  0.
         12    1    1    2    0    0  0.22120544766E+02  0.10856062043E+02  0.32341815449E+02  0.40659139321E+02  0.00000000000E+00 0. -1.
         11    1    3    3    0    0  0.33120554082E+00  0.12166398829E+01 -0.47030957434E+00  0.13457715526E+01  0.51100000000E-03 0. -1.
        -11    1    3    3    0    0 -0.11378081493E+02 -0.20147488705E+02 -0.15585586974E+02  0.27897895282E+02  0.51100000000E-03 0.  1.
         12    1    3    3    0    0 -0.11073668813E+02  0.80747867796E+01 -0.16285918901E+02  0.21285193844E+02  0.00000000000E+00 0. -1.
</event>
<event>
 7    1  0.3250765E-011  0.5052886E+02  0.7816164E-02  0.1300439E+00
        -11   -1    0    0    0    0  0.00000000000E+00  0.00000000000E+00  0.45593999997E+02  0.45594000000E+02  0.51100000000E-03 0.  1.
         11   -1    0    0    0    0 -0.00000000000E+00 -0.00000000000E+00 -0.45593999997E+02  0.45594000000E+02  0.51100000000E-03 0. -1.
    9900012    2    1    2    0    0 -0.37346992499E+02 -0.57505849195E+01  0.15009943371E+02  0.50528862336E+02  0.30000007556E+02 0.  0.
         12    1    1    2    0    0  0.37346992499E+02  0.57505849195E+01 -0.15009943371E+02  0.40659137664E+02  0.00000000000E+00 0. -1.
         11    1    3    3    0    0 -0.12517495056E+02 -0.50222205648E+01  0.80989626937E+01  0.15732246465E+02  0.51100000000E-03 0. -1.
        -11    1    3    3    0    0 -0.25416595761E+01 -0.79582212232E+00  0.11700561152E+02  0.11999854073E+02  0.51100000000E-03 0.  1.
         12    1    3    3    0    0 -0.22287837867E+02  0.67457767711E-01 -0.47895804745E+01  0.22796761797E+02  0.00000000000E+00 0. -1.
</event>
<event>
 7    1  0.3250765E-011  0.5052884E+02  0.7816164E-02  0.1300439E+00
        -11   -1    0    0    0    0  0.00000000000E+00  0.00000000000E+00  0.45593999997E+02  0.45594000000E+02  0.51100000000E-03 0.  1.
         11   -1    0    0    0    0 -0.00000000000E+00 -0.00000000000E+00 -0.45593999997E+02  0.45594000000E+02  0.51100000000E-03 0. -1.
    9900012    2    1    2    0    0  0.37534552557E+02 -0.39536970564E+01  0.15122590203E+02  0.50528842477E+02  0.29999947192E+02 0.  0.
         12    1    1    2    0    0 -0.37534552557E+02  0.39536970564E+01 -0.15122590203E+02  0.40659157523E+02  0.00000000000E+00 0. -1.
         11    1    3    3    0    0  0.10224365409E+02  0.38474505055E+01  0.12288696862E+02  0.16442402326E+02  0.51100000000E-03 0. -1.
        -11    1    3    3    0    0  0.21104217335E+02 -0.12584101915E+02  0.65285621107E+01  0.25423802505E+02  0.51100000000E-03 0.  1.
         12    1    3    3    0    0  0.62059698128E+01  0.47829543536E+01 -0.36946687695E+01  0.86626376458E+01  0.00000000000E+00 0. -1.
</event>
<event>
 7    1  0.3250765E-011  0.5052886E+02  0.7816164E-02  0.1300439E+00
        -11   -1    0    0    0    0  0.00000000000E+00  0.00000000000E+00  0.45593999997E+02  0.45594000000E+02  0.51100000000E-03 0.  1.
         11   -1    0    0    0    0 -0.00000000000E+00 -0.00000000000E+00 -0.45593999997E+02  0.45594000000E+02  0.51100000000E-03 0. -1.
    9900012    2    1    2    0    0 -0.36325977582E+02 -0.16236941730E+02 -0.83636481098E+01  0.50528861621E+02  0.30000005384E+02 0.  0.
         12    1    1    2    0    0  0.36325977582E+02  0.16236941730E+02  0.83636481098E+01  0.40659138379E+02  0.00000000000E+00 0. -1.
         11    1    3    3    0    0 -0.20822930228E+02 -0.73678634632E+01  0.84701000740E+01  0.23656340182E+02  0.51100000000E-03 0. -1.
        -11    1    3    3    0    0 -0.69800818472E+01 -0.17598658814E+01 -0.62168761572E+00  0.72253142677E+01  0.51100000000E-03 0.  1.
         12    1    3    3    0    0 -0.85229655065E+01 -0.71092123851E+01 -0.16212060568E+02  0.19647207171E+02  0.00000000000E+00 0. -1.
</event>
<event>
 7    1  0.3250765E-011  0.5052886E+02  0.7816164E-02  0.1300439E+00
        -11   -1    0    0    0    0  0.00000000000E+00  0.00000000000E+00  0.45593999997E+02  0.45594000000E+02  0.51100000000E-03 0.  1.
         11   -1    0    0    0    0 -0.00000000000E+00 -0.00000000000E+00 -0.45593999997E+02  0.45594000000E+02  0.51100000000E-03 0. -1.
    9900012    2    1    2    0    0 -0.30602071989E+02  0.18555683769E+02  0.19296773968E+02  0.50528859629E+02  0.29999999329E+02 0.  0.
         12    1    1    2    0    0  0.30602071989E+02 -0.18555683769E+02 -0.19296773968E+02  0.40659140371E+02  0.00000000000E+00 0. -1.
         11    1    3    3    0    0 -0.13178009595E+02  0.63983245004E+01  0.73774426506E+01  0.16401986271E+02  0.51100000000E-03 0.  1.
        -11    1    3    3    0    0 -0.12024795965E+02 -0.27256866003E+01  0.13419464975E+02  0.18223806570E+02  0.51100000000E-03 0. -1.
         12    1    3    3    0    0 -0.53992664292E+01  0.14883045869E+02 -0.15001336575E+01  0.15903066789E+02  0.00000000000E+00 0. -1.
</event>
<event>
 7    1  0.3250765E-011  0.5052886E+02  0.7816164E-02  0.1300439E+00
        -11   -1    0    0    0    0  0.00000000000E+00  0.00000000000E+00  0.45593999997E+02  0.45594000000E+02  0.51100000000E-03 0. -1.
         11   -1    0    0    0    0 -0.00000000000E+00 -0.00000000000E+00 -0.45593999997E+02  0.45594000000E+02  0.51100000000E-03 0.  1.
    9900012    2    1    2    0    0 -0.25316008998E+02  0.20126249287E+02 -0.24641414688E+02  0.50528861547E+02  0.30000005159E+02 0.  0.
         12    1    1    2    0    0  0.25316008998E+02 -0.20126249287E+02  0.24641414688E+02  0.40659138453E+02  0.00000000000E+00 0. -1.
         11    1    3    3    0    0 -0.96747747676E+01  0.19714148431E+01 -0.16129634833E+02  0.18911712334E+02  0.51100000000E-03 0. -1.
        -11    1    3    3    0    0 -0.16951129266E+02  0.78757187823E+01 -0.99183154077E+01  0.21159884464E+02  0.51100000000E-03 0.  1.
         12    1    3    3    0    0  0.13098950358E+01  0.10279115661E+02  0.14065355530E+01  0.10457264750E+02  0.00000000000E+00 0. -1.
</event>
<event>
 7    1  0.3250765E-011  0.5052887E+02  0.7816164E-02  0.1300439E+00
        -11   -1    0    0    0    0  0.00000000000E+00  0.00000000000E+00  0.45593999997E+02  0.45594000000E+02  0.51100000000E-03 0.  1.
         11   -1    0    0    0    0 -0.00000000000E+00 -0.00000000000E+00 -0.45593999997E+02  0.45594000000E+02  0.51100000000E-03 0. -1.
    9900012    2    1    2    0    0  0.16955592166E+01 -0.13412278620E+02  0.38345800612E+02  0.50528873553E+02  0.30000041651E+02 0.  0.
         12    1    1    2    0    0 -0.16955592166E+01  0.13412278620E+02 -0.38345800612E+02  0.40659126447E+02  0.00000000000E+00 0. -1.
         11    1    3    3    0    0  0.79560162199E+01 -0.84183917356E+00  0.14216019135E+02  0.16312635826E+02  0.51100000000E-03 0. -1.
        -11    1    3    3    0    0  0.46843701051E+01 -0.12425200017E+02  0.14130541383E+02  0.19390748278E+02  0.51100000000E-03 0.  1.
         12    1    3    3    0    0 -0.10944827108E+02 -0.14523942944E+00  0.99992400943E+01  0.14825489449E+02  0.00000000000E+00 0. -1.
</event>
<event>
 7    1  0.3250765E-011  0.5052886E+02  0.7816164E-02  0.1300439E+00
        -11   -1    0    0    0    0  0.00000000000E+00  0.00000000000E+00  0.45593999997E+02  0.45594000000E+02  0.51100000000E-03 0.  1.
         11   -1    0    0    0    0 -0.00000000000E+00 -0.00000000000E+00 -0.45593999997E+02  0.45594000000E+02  0.51100000000E-03 0. -1.
    9900012    2    1    2    0    0 -0.19265983391E+02  0.85954888024E+01  0.34757804023E+02  0.50528862229E+02  0.30000007231E+02 0.  0.
         12    1    1    2    0    0  0.19265983391E+02 -0.85954888024E+01 -0.34757804023E+02  0.40659137771E+02  0.00000000000E+00 0. -1.
         11    1    3    3    0    0 -0.47884450076E+01  0.55411101767E+01  0.12981751019E+02  0.14904998066E+02  0.51100000000E-03 0. -1.
        -11    1    3    3    0    0 -0.20681214369E+02  0.56929402292E+01  0.16418119268E+02  0.27012531107E+02  0.51100000000E-03 0.  1.
         12    1    3    3    0    0  0.62036759859E+01 -0.26385616035E+01  0.53579337365E+01  0.86113330558E+01  0.00000000000E+00 0. -1.
</event>
<event>
 7    1  0.3250765E-011  0.5052886E+02  0.7816164E-02  0.1300439E+00
        -11   -1    0    0    0    0  0.00000000000E+00  0.00000000000E+00  0.45593999997E+02  0.45594000000E+02  0.51100000000E-03 0.  1.
         11   -1    0    0    0    0 -0.00000000000E+00 -0.00000000000E+00 -0.45593999997E+02  0.45594000000E+02  0.51100000000E-03 0. -1.
    9900012    2    1    2    0    0  0.19574735716E+02 -0.15802105622E+01  0.35601941569E+02  0.50528860962E+02  0.30000003382E+02 0.  0.
         12    1    1    2    0    0 -0.19574735716E+02  0.15802105622E+01 -0.35601941569E+02  0.40659139038E+02  0.00000000000E+00 0. -1.
         11    1    3    3    0    0  0.37539244311E+01  0.50743817563E+01  0.82204942425E+01  0.10364257074E+02  0.51100000000E-03 0. -1.
        -11    1    3    3    0    0  0.87536433871E+01 -0.43553094130E+01  0.30556771094E+02  0.32082880990E+02  0.51100000000E-03 0.  1.
         12    1    3    3    0    0  0.70671678982E+01 -0.22992829056E+01 -0.31753237678E+01  0.80817228987E+01  0.00000000000E+00 0. -1.
</event>
<event>
 7    1  0.3250765E-011  0.5052889E+02  0.7816164E-02  0.1300439E+00
        -11   -1    0    0    0    0  0.00000000000E+00  0.00000000000E+00  0.45593999997E+02  0.45594000000E+02  0.51100000000E-03 0. -1.
         11   -1    0    0    0    0 -0.00000000000E+00 -0.00000000000E+00 -0.45593999997E+02  0.45594000000E+02  0.51100000000E-03 0.  1.
    9900012    2    1    2    0    0 -0.17207926315E+02  0.21677965207E+02 -0.29784497832E+02  0.50528890139E+02  0.30000092067E+02 0.  0.
         12    1    1    2    0    0  0.17207926315E+02 -0.21677965207E+02  0.29784497832E+02  0.40659109861E+02  0.00000000000E+00 0. -1.
         11    1    3    3    0    0 -0.19405212864E+01  0.19481148462E+02 -0.81020792000E+01  0.21187837452E+02  0.51100000000E-03 0. -1.
        -11    1    3    3    0    0 -0.62447119201E+00 -0.24376724973E+01 -0.92346288963E+01  0.95713417339E+01  0.51100000000E-03 0.  1.
        -12    1    3    3    0    0 -0.14642933836E+02  0.46344892424E+01 -0.12447789735E+02  0.19769710953E+02  0.00000000000E+00 0.  1.
</event>
<event>
 7    1  0.3250765E-011  0.5052885E+02  0.7816164E-02  0.1300439E+00
        -11   -1    0    0    0    0  0.00000000000E+00  0.00000000000E+00  0.45593999997E+02  0.45594000000E+02  0.51100000000E-03 0.  1.
         11   -1    0    0    0    0 -0.00000000000E+00 -0.00000000000E+00 -0.45593999997E+02  0.45594000000E+02  0.51100000000E-03 0. -1.
    9900012    2    1    2    0    0  0.14063344307E+02 -0.82164936039E+01  0.37254238517E+02  0.50528847184E+02  0.29999961501E+02 0.  0.
         12    1    1    2    0    0 -0.14063344307E+02  0.82164936039E+01 -0.37254238517E+02  0.40659152816E+02  0.00000000000E+00 0. -1.
         11    1    3    3    0    0  0.78683001696E+01  0.35880440481E+01  0.29092646743E+01  0.91240357768E+01  0.51100000000E-03 0. -1.
        -11    1    3    3    0    0  0.18638259945E+01  0.52266587745E+01  0.85291222414E+01  0.10175349417E+02  0.51100000000E-03 0.  1.
         12    1    3    3    0    0  0.43312181427E+01 -0.17031196426E+02  0.25815851601E+02  0.31229461990E+02  0.00000000000E+00 0. -1.
</event>
<event>
 7    1  0.3250765E-011  0.5052884E+02  0.7816164E-02  0.1300439E+00
        -11   -1    0    0    0    0  0.00000000000E+00  0.00000000000E+00  0.45593999997E+02  0.45594000000E+02  0.51100000000E-03 0.  1.
         11   -1    0    0    0    0 -0.00000000000E+00 -0.00000000000E+00 -0.45593999997E+02  0.45594000000E+02  0.51100000000E-03 0. -1.
    9900012    2    1    2    0    0 -0.13926189897E+02  0.19959035192E+02  0.32570925871E+02  0.50528842816E+02  0.29999948223E+02 0.  0.
         12    1    1    2    0    0  0.13926189897E+02 -0.19959035192E+02 -0.32570925871E+02  0.40659157184E+02  0.00000000000E+00 0. -1.
         11    1    3    3    0    0 -0.38481188384E+00  0.90804186827E+01  0.43245089772E+01  0.10064962086E+02  0.51100000000E-03 0. -1.
        -11    1    3    3    0    0 -0.30959988679E+01  0.16655717818E+02  0.18175272771E+02  0.24846301245E+02  0.51100000000E-03 0.  1.
         12    1    3    3    0    0 -0.10445379145E+02 -0.57771013083E+01  0.10071144123E+02  0.15617579485E+02  0.00000000000E+00 0. -1.
</event>
<event>
 7    1  0.3250765E-011  0.5052886E+02  0.7816164E-02  0.1300439E+00
        -11   -1    0    0    0    0  0.00000000000E+00  0.00000000000E+00  0.45593999997E+02  0.45594000000E+02  0.51100000000E-03 0.  1.
         11   -1    0    0    0    0 -0.00000000000E+00 -0.00000000000E+00 -0.45593999997E+02  0.45594000000E+02  0.51100000000E-03 0. -1.
    9900012    2    1    2    0    0 -0.29469184331E+02  0.52080527068E+01  0.27524700571E+02  0.50528858597E+02  0.29999996190E+02 0.  0.
         12    1    1    2    0    0  0.29469184331E+02 -0.52080527068E+01 -0.27524700571E+02  0.40659141403E+02  0.00000000000E+00 0. -1.
         11    1    3    3    0    0  0.20913734469E+01 -0.48065122801E+01  0.64258873030E+01  0.82926733376E+01  0.51100000000E-03 0. -1.
        -11    1    3    3    0    0 -0.75018348354E+01  0.88402353661E+01  0.26443231809E+01  0.11892002883E+02  0.51100000000E-03 0.  1.
        -12    1    3    3    0    0 -0.24058722942E+02  0.11743296209E+01  0.18454490087E+02  0.30344182376E+02  0.00000000000E+00 0.  1.
</event>
<event>
 7    1  0.3250765E-011  0.5052886E+02  0.7816164E-02  0.1300439E+00
        -11   -1    0    0    0    0  0.00000000000E+00  0.00000000000E+00  0.45593999997E+02  0.45594000000E+02  0.51100000000E-03 0.  1.
         11   -1    0    0    0    0 -0.00000000000E+00 -0.00000000000E+00 -0.45593999997E+02  0.45594000000E+02  0.51100000000E-03 0. -1.
    9900012    2    1    2    0    0  0.99327246558E+01  0.12731088191E+02  0.37315221028E+02  0.50528863930E+02  0.30000012402E+02 0.  0.
         12    1    1    2    0    0 -0.99327246558E+01 -0.12731088191E+02 -0.37315221028E+02  0.40659136070E+02  0.00000000000E+00 0. -1.
         11    1    3    3    0    0  0.11309633422E+02  0.41535712435E+00  0.57968561462E+01  0.12715497282E+02  0.51100000000E-03 0. -1.
        -11    1    3    3    0    0  0.32173903644E+00  0.11113336895E+02  0.68530325760E+01  0.13060391598E+02  0.51100000000E-03 0.  1.
         12    1    3    3    0    0 -0.16986478027E+01  0.12023941719E+01  0.24665332305E+02  0.24752975050E+02  0.00000000000E+00 0. -1.
</event>
<event>
 7    1  0.3250765E-011  0.5052886E+02  0.7816164E-02  0.1300439E+00
        -11   -1    0    0    0    0  0.00000000000E+00  0.00000000000E+00  0.45593999997E+02  0.45594000000E+02  0.51100000000E-03 0. -1.
         11   -1    0    0    0    0 -0.00000000000E+00 -0.00000000000E+00 -0.45593999997E+02  0.45594000000E+02  0.51100000000E-03 0.  1.
    9900012    2    1    2    0    0  0.82163807065E+01 -0.39350412146E+02 -0.60993457718E+01  0.50528857525E+02  0.29999992932E+02 0.  0.
         12    1    1    2    0    0 -0.82163807065E+01  0.39350412146E+02  0.60993457718E+01  0.40659142475E+02  0.00000000000E+00 0. -1.
         11    1    3    3    0    0  0.45817344263E+01 -0.24844215079E+02 -0.98604158760E+01  0.27119275705E+02  0.51100000000E-03 0. -1.
        -11    1    3    3    0    0  0.93169091111E+01 -0.10264714316E+02 -0.23360264588E+01  0.14057957720E+02  0.51100000000E-03 0.  1.
         12    1    3    3    0    0 -0.56822628310E+01 -0.42414827509E+01  0.60970965630E+01  0.93516240998E+01  0.00000000000E+00 0. -1.
</event>
<event>
 7    1  0.3250765E-011  0.5052885E+02  0.7816164E-02  0.1300439E+00
        -11   -1    0    0    0    0  0.00000000000E+00  0.00000000000E+00  0.45593999997E+02  0.45594000000E+02  0.51100000000E-03 0. -1.
         11   -1    0    0    0    0 -0.00000000000E+00 -0.00000000000E+00 -0.45593999997E+02  0.45594000000E+02  0.51100000000E-03 0.  1.
    9900012    2    1    2    0    0  0.23861161849E+02 -0.32353857821E+02 -0.60859662154E+01  0.50528854098E+02  0.29999982517E+02 0.  0.
         12    1    1    2    0    0 -0.23861161849E+02  0.32353857821E+02  0.60859662154E+01  0.40659145902E+02  0.00000000000E+00 0. -1.
         11    1    3    3    0    0 -0.18853363478E+01 -0.88631456463E+01 -0.79719506166E+01  0.12069044734E+02  0.51100000000E-03 0. -1.
        -11    1    3    3    0    0  0.10750146368E+02 -0.15312777952E+02 -0.59971917350E+01  0.19647216712E+02  0.51100000000E-03 0.  1.
         12    1    3    3    0    0  0.14996351829E+02 -0.81779342224E+01  0.78831761361E+01  0.18812592653E+02  0.00000000000E+00 0. -1.
</event>
<event>
 7    1  0.3250765E-011  0.5052886E+02  0.7816164E-02  0.1300439E+00
        -11   -1    0    0    0    0  0.00000000000E+00  0.00000000000E+00  0.45593999997E+02  0.45594000000E+02  0.51100000000E-03 0.  1.
         11   -1    0    0    0    0 -0.00000000000E+00 -0.00000000000E+00 -0.45593999997E+02  0.45594000000E+02  0.51100000000E-03 0. -1.
    9900012    2    1    2    0    0 -0.17232480999E+02 -0.36523301894E+02  0.47175607407E+01  0.50528863733E+02  0.30000011802E+02 0.  0.
         12    1    1    2    0    0  0.17232480999E+02  0.36523301894E+02 -0.47175607407E+01  0.40659136267E+02  0.00000000000E+00 0. -1.
         11    1    3    3    0    0 -0.71634773610E+01 -0.57730276997E+01  0.74569554382E+01  0.11842695698E+02  0.51100000000E-03 0. -1.
        -11    1    3    3    0    0 -0.43052814418E+01 -0.23720885340E+02  0.72547564561E+01  0.25176325012E+02  0.51100000000E-03 0.  1.
         12    1    3    3    0    0 -0.57637221965E+01 -0.70293888542E+01 -0.99941511536E+01  0.13509843023E+02  0.00000000000E+00 0. -1.
</event>
<event>
 7    1  0.3250765E-011  0.5052886E+02  0.7816164E-02  0.1300439E+00
        -11   -1    0    0    0    0  0.00000000000E+00  0.00000000000E+00  0.45593999997E+02  0.45594000000E+02  0.51100000000E-03 0.  1.
         11   -1    0    0    0    0 -0.00000000000E+00 -0.00000000000E+00 -0.45593999997E+02  0.45594000000E+02  0.51100000000E-03 0. -1.
    9900012    2    1    2    0    0 -0.12235261089E+02 -0.11958220163E+02  0.36884481076E+02  0.50528860958E+02  0.30000003369E+02 0.  0.
         12    1    1    2    0    0  0.12235261089E+02  0.11958220163E+02 -0.36884481076E+02  0.40659139042E+02  0.00000000000E+00 0. -1.
         11    1    3    3    0    0 -0.36374729782E+01  0.19332156019E+01  0.16364945057E+02  0.16875424712E+02  0.51100000000E-03 0.  1.
        -11    1    3    3    0    0  0.38472222818E+01 -0.13207189315E+02  0.13836296034E+02  0.19510870228E+02  0.51100000000E-03 0. -1.
         12    1    3    3    0    0 -0.12445010392E+02 -0.68424645033E+00  0.66832399848E+01  0.14142566018E+02  0.00000000000E+00 0. -1.
</event>
<event>
 7    1  0.3250765E-011  0.5052889E+02  0.7816164E-02  0.1300439E+00
        -11   -1    0    0    0    0  0.00000000000E+00  0.00000000000E+00  0.45593999997E+02  0.45594000000E+02  0.51100000000E-03 0.  1.
         11   -1    0    0    0    0 -0.00000000000E+00 -0.00000000000E+00 -0.45593999997E+02  0.45594000000E+02  0.51100000000E-03 0. -1.
    9900012    2    1    2    0    0  0.35910406825E+02 -0.12710394535E+02 -0.14214487814E+02  0.50528891410E+02  0.30000095929E+02 0.  0.
         12    1    1    2    0    0 -0.35910406825E+02  0.12710394535E+02  0.14214487814E+02  0.40659108590E+02  0.00000000000E+00 0. -1.
         11    1    3    3    0    0 -0.26335681696E+01 -0.82699432709E+00 -0.10457268611E+01  0.29518038299E+01  0.51100000000E-03 0. -1.
        -11    1    3    3    0    0  0.13654583469E+02 -0.13289224013E+02  0.66767820583E+00  0.19065595166E+02  0.51100000000E-03 0.  1.
        -12    1    3    3    0    0  0.24889391526E+02  0.14058238051E+01 -0.13836439159E+02  0.28511492414E+02  0.00000000000E+00 0.  1.
</event>
<event>
 7    1  0.4493746E-011  0.5052886E+02  0.7816164E-02  0.1300439E+00
        -11   -1    0    0    0    0  0.00000000000E+00  0.00000000000E+00  0.45593999997E+02  0.45594000000E+02  0.51100000000E-03 0. -1.
         11   -1    0    0    0    0 -0.00000000000E+00 -0.00000000000E+00 -0.45593999997E+02  0.45594000000E+02  0.51100000000E-03 0.  1.
    9900012    2    1    2    0    0  0.50384781120E+01 -0.21356165057E+02 -0.34230006906E+02  0.50528863015E+02  0.30000009620E+02 0.  0.
         12    1    1    2    0    0 -0.50384781120E+01  0.21356165057E+02  0.34230006906E+02  0.40659136985E+02  0.00000000000E+00 0. -1.
         11    1    3    3    0    0 -0.71497200851E+01 -0.76740346196E+01 -0.12722642160E+02  0.16488630278E+02  0.51100000000E-03 0.  1.
        -11    1    3    3    0    0  0.96370849719E+01 -0.18541176589E+02 -0.16920820417E+02  0.26887967567E+02  0.51100000000E-03 0. -1.
         12    1    3    3    0    0  0.25511132252E+01  0.48590461510E+01 -0.45865443283E+01  0.71522651699E+01  0.00000000000E+00 0. -1.
</event>
<event>
 7    1  0.3250765E-011  0.5052886E+02  0.7816164E-02  0.1300439E+00
        -11   -1    0    0    0    0  0.00000000000E+00  0.00000000000E+00  0.45593999997E+02  0.45594000000E+02  0.51100000000E-03 0. -1.
         11   -1    0    0    0    0 -0.00000000000E+00 -0.00000000000E+00 -0.45593999997E+02  0.45594000000E+02  0.51100000000E-03 0.  1.
    9900012    2    1    2    0    0  0.16792036204E+02 -0.37020874910E+02 -0.80496843831E+00  0.50528860398E+02  0.30000001667E+02 0.  0.
         12    1    1    2    0    0 -0.16792036204E+02  0.37020874910E+02  0.80496843831E+00  0.40659139602E+02  0.00000000000E+00 0. -1.
         11    1    3    3    0    0  0.20941733972E+01 -0.13905542980E+01 -0.56908846875E+01  0.62213641800E+01  0.51100000000E-03 0. -1.
        -11    1    3    3    0    0 -0.46387822243E+01 -0.43757303658E+01  0.40325194717E+01  0.75449672172E+01  0.51100000000E-03 0.  1.
        -12    1    3    3    0    0  0.19336645031E+02 -0.31254590246E+02  0.85339677747E+00  0.36762529001E+02  0.00000000000E+00 0.  1.
</event>
<event>
 7    1  0.3250765E-011  0.5052887E+02  0.7816164E-02  0.1300439E+00
        -11   -1    0    0    0    0  0.00000000000E+00  0.00000000000E+00  0.45593999997E+02  0.45594000000E+02  0.51100000000E-03 0.  1.
         11   -1    0    0    0    0 -0.00000000000E+00 -0.00000000000E+00 -0.45593999997E+02  0.45594000000E+02  0.51100000000E-03 0. -1.
    9900012    2    1    2    0    0  0.26399247352E+02 -0.25069870941E+02  0.18103763379E+02  0.50528868944E+02  0.30000027643E+02 0.  0.
         12    1    1    2    0    0 -0.26399247352E+02  0.25069870941E+02 -0.18103763379E+02  0.40659131056E+02  0.00000000000E+00 0. -1.
         11    1    3    3    0    0  0.22253785484E+02 -0.14667555060E+02  0.10147106701E+02  0.28518974639E+02  0.51100000000E-03 0.  1.
        -11    1    3    3    0    0  0.16962490448E+01 -0.68760256577E+01 -0.47964147798E+01  0.85535130016E+01  0.51100000000E-03 0. -1.
         12    1    3    3    0    0  0.24492128232E+01 -0.35262902225E+01  0.12753071457E+02  0.13456381303E+02  0.00000000000E+00 0. -1.
</event>
<event>
 7    1  0.3250765E-011  0.5052886E+02  0.7816164E-02  0.1300439E+00
        -11   -1    0    0    0    0  0.00000000000E+00  0.00000000000E+00  0.45593999997E+02  0.45594000000E+02  0.51100000000E-03 0.  1.
         11   -1    0    0    0    0 -0.00000000000E+00 -0.00000000000E+00 -0.45593999997E+02  0.45594000000E+02  0.51100000000E-03 0. -1.
    9900012    2    1    2    0    0 -0.87530832070E+01 -0.18936787294E+02  0.34899101120E+02  0.50528860343E+02  0.30000001499E+02 0.  0.
         12    1    1    2    0    0  0.87530832070E+01  0.18936787294E+02 -0.34899101120E+02  0.40659139657E+02  0.00000000000E+00 0. -1.
         11    1    3    3    0    0 -0.39634146827E+01 -0.90801140807E+00  0.12872194266E+02  0.13499130571E+02  0.51100000000E-03 0. -1.
        -11    1    3    3    0    0 -0.81453550047E+01 -0.15050406784E+02  0.25939889736E+02  0.31076348439E+02  0.51100000000E-03 0.  1.
         12    1    3    3    0    0  0.33556864803E+01 -0.29783691024E+01 -0.39129828825E+01  0.59533813336E+01  0.00000000000E+00 0. -1.
</event>
<event>
 7    1  0.3250765E-011  0.5052888E+02  0.7816164E-02  0.1300439E+00
        -11   -1    0    0    0    0  0.00000000000E+00  0.00000000000E+00  0.45593999997E+02  0.45594000000E+02  0.51100000000E-03 0.  1.
         11   -1    0    0    0    0 -0.00000000000E+00 -0.00000000000E+00 -0.45593999997E+02  0.45594000000E+02  0.51100000000E-03 0. -1.
    9900012    2    1    2    0    0  0.10258415084E+02 -0.78629073807E+01  0.38550010171E+02  0.50528884458E+02  0.30000074798E+02 0.  0.
         12    1    1    2    0    0 -0.10258415084E+02  0.78629073807E+01 -0.38550010171E+02  0.40659115542E+02  0.00000000000E+00 0. -1.
         11    1    3    3    0    0  0.60461574935E+01 -0.56353335130E+01  0.54645067070E+01  0.99082711939E+01  0.51100000000E-03 0. -1.
        -11    1    3    3    0    0  0.12509179361E+02  0.38315262558E-01  0.27904005549E+02  0.30579642939E+02  0.51100000000E-03 0.  1.
         12    1    3    3    0    0 -0.82969217709E+01 -0.22658891302E+01  0.51814979151E+01  0.10040970325E+02  0.00000000000E+00 0. -1.
</event>
<event>
 7    1  0.3250765E-011  0.5052885E+02  0.7816164E-02  0.1300439E+00
        -11   -1    0    0    0    0  0.00000000000E+00  0.00000000000E+00  0.45593999997E+02  0.45594000000E+02  0.51100000000E-03 0.  1.
         11   -1    0    0    0    0 -0.00000000000E+00 -0.00000000000E+00 -0.45593999997E+02  0.45594000000E+02  0.51100000000E-03 0. -1.
    9900012    2    1    2    0    0  0.11046753630E+02  0.87097960017E+01  0.38148064257E+02  0.50528854427E+02  0.29999983518E+02 0.  0.
         12    1    1    2    0    0 -0.11046753630E+02 -0.87097960017E+01 -0.38148064257E+02  0.40659145573E+02  0.00000000000E+00 0. -1.
         11    1    3    3    0    0  0.10409631038E+02 -0.17546246867E+01  0.19084832469E+02  0.21809859165E+02  0.51100000000E-03 0. -1.
        -11    1    3    3    0    0  0.10400652526E+01  0.41480366998E+01  0.21511722073E+02  0.21932672683E+02  0.51100000000E-03 0.  1.
         12    1    3    3    0    0 -0.40294266128E+00  0.63163839886E+01 -0.24484902856E+01  0.67863225799E+01  0.00000000000E+00 0. -1.
</event>
<event>
 7    1  0.3250765E-011  0.5052886E+02  0.7816164E-02  0.1300439E+00
        -11   -1    0    0    0    0  0.00000000000E+00  0.00000000000E+00  0.45593999997E+02  0.45594000000E+02  0.51100000000E-03 0. -1.
         11   -1    0    0    0    0 -0.00000000000E+00 -0.00000000000E+00 -0.45593999997E+02  0.45594000000E+02  0.51100000000E-03 0.  1.
    9900012    2    1    2    0    0  0.12936079170E+02  0.35746801039E+02  0.14421851333E+02  0.50528859273E+02  0.29999998246E+02 0.  0.
         12    1    1    2    0    0 -0.12936079170E+02 -0.35746801039E+02 -0.14421851333E+02  0.40659140727E+02  0.00000000000E+00 0. -1.
         11    1    3    3    0    0 -0.74262471343E+01  0.55424316420E+01 -0.16779882833E+01  0.94171832279E+01  0.51100000000E-03 0. -1.
        -11    1    3    3    0    0  0.33120888408E+01  0.22155982722E+01 -0.10523164475E+01  0.41214291647E+01  0.51100000000E-03 0.  1.
         12    1    3    3    0    0  0.17050237463E+02  0.27988771124E+02  0.17152156064E+02  0.36990246880E+02  0.00000000000E+00 0. -1.
</event>
<event>
 7    1  0.3250765E-011  0.5052886E+02  0.7816164E-02  0.1300439E+00
        -11   -1    0    0    0    0  0.00000000000E+00  0.00000000000E+00  0.45593999997E+02  0.45594000000E+02  0.51100000000E-03 0.  1.
         11   -1    0    0    0    0 -0.00000000000E+00 -0.00000000000E+00 -0.45593999997E+02  0.45594000000E+02  0.51100000000E-03 0. -1.
    9900012    2    1    2    0    0 -0.41275093372E+01 -0.13082794354E+02  0.38274925257E+02  0.50528859024E+02  0.29999997490E+02 0.  0.
         12    1    1    2    0    0  0.41275093372E+01  0.13082794354E+02 -0.38274925257E+02  0.40659140976E+02  0.00000000000E+00 0. -1.
         11    1    3    3    0    0 -0.55388623472E+01 -0.18345092784E+02  0.28459767119E+02  0.34310053484E+02  0.51100000000E-03 0. -1.
        -11    1    3    3    0    0 -0.19359181612E+01 -0.27156484982E+01  0.57782496530E+01  0.66716336235E+01  0.51100000000E-03 0.  1.
         12    1    3    3    0    0  0.33472711712E+01  0.79779469285E+01  0.40369084854E+01  0.95471719167E+01  0.00000000000E+00 0. -1.
</event>
<event>
 7    1  0.3250765E-011  0.5052888E+02  0.7816164E-02  0.1300439E+00
        -11   -1    0    0    0    0  0.00000000000E+00  0.00000000000E+00  0.45593999997E+02  0.45594000000E+02  0.51100000000E-03 0.  1.
         11   -1    0    0    0    0 -0.00000000000E+00 -0.00000000000E+00 -0.45593999997E+02  0.45594000000E+02  0.51100000000E-03 0. -1.
    9900012    2    1    2    0    0  0.29746996427E+02  0.23121039327E+02  0.15287167121E+02  0.50528883746E+02  0.30000072634E+02 0.  0.
         12    1    1    2    0    0 -0.29746996427E+02 -0.23121039327E+02 -0.15287167121E+02  0.40659116254E+02  0.00000000000E+00 0. -1.
         11    1    3    3    0    0  0.70977185642E+01  0.31160023845E+01  0.66157984493E+01  0.10190969976E+02  0.51100000000E-03 0. -1.
        -11    1    3    3    0    0  0.16609344650E+02  0.16950125009E+02  0.17302553159E+02  0.29369293720E+02  0.51100000000E-03 0.  1.
         12    1    3    3    0    0  0.60399332132E+01  0.30549119330E+01 -0.86311844875E+01  0.10968620050E+02  0.00000000000E+00 0. -1.
</event>
<event>
 7    1  0.3250765E-011  0.5052886E+02  0.7816164E-02  0.1300439E+00
        -11   -1    0    0    0    0  0.00000000000E+00  0.00000000000E+00  0.45593999997E+02  0.45594000000E+02  0.51100000000E-03 0. -1.
         11   -1    0    0    0    0 -0.00000000000E+00 -0.00000000000E+00 -0.45593999997E+02  0.45594000000E+02  0.51100000000E-03 0.  1.
    9900012    2    1    2    0    0  0.32709821239E+02  0.18051058857E+02  0.16043450669E+02  0.50528862765E+02  0.30000008860E+02 0.  0.
         12    1    1    2    0    0 -0.32709821239E+02 -0.18051058857E+02 -0.16043450669E+02  0.40659137235E+02  0.00000000000E+00 0. -1.
         11    1    3    3    0    0  0.21581063627E+02  0.12600154974E+02  0.10638843206E+02  0.27160471234E+02  0.51100000000E-03 0. -1.
        -11    1    3    3    0    0  0.45224095500E+01  0.81257713298E+01 -0.51518234199E+01  0.10631163278E+02  0.51100000000E-03 0.  1.
         12    1    3    3    0    0  0.66063480618E+01 -0.26748674460E+01  0.10556430883E+02  0.12737228252E+02  0.00000000000E+00 0. -1.
</event>
<event>
 7    1  0.3250765E-011  0.5052886E+02  0.7816164E-02  0.1300439E+00
        -11   -1    0    0    0    0  0.00000000000E+00  0.00000000000E+00  0.45593999997E+02  0.45594000000E+02  0.51100000000E-03 0.  1.
         11   -1    0    0    0    0 -0.00000000000E+00 -0.00000000000E+00 -0.45593999997E+02  0.45594000000E+02  0.51100000000E-03 0. -1.
    9900012    2    1    2    0    0  0.69627461713E+01 -0.27651056823E+02  0.28984560313E+02  0.50528861861E+02  0.30000006113E+02 0.  0.
         12    1    1    2    0    0 -0.69627461713E+01  0.27651056823E+02 -0.28984560313E+02  0.40659138139E+02  0.00000000000E+00 0. -1.
         11    1    3    3    0    0 -0.23848256562E+01 -0.15727144891E+00 -0.22565838056E+01  0.32869892686E+01  0.51100000000E-03 0. -1.
        -11    1    3    3    0    0  0.32302349166E+01 -0.28812903065E+02  0.23737286779E+02  0.37471009922E+02  0.51100000000E-03 0.  1.
         12    1    3    3    0    0  0.61173369109E+01  0.13191176907E+01  0.75038573392E+01  0.97708626708E+01  0.00000000000E+00 0. -1.
</event>
<event>
 7    1  0.3250765E-011  0.5052886E+02  0.7816164E-02  0.1300439E+00
        -11   -1    0    0    0    0  0.00000000000E+00  0.00000000000E+00  0.45593999997E+02  0.45594000000E+02  0.51100000000E-03 0.  1.
         11   -1    0    0    0    0 -0.00000000000E+00 -0.00000000000E+00 -0.45593999997E+02  0.45594000000E+02  0.51100000000E-03 0. -1.
    9900012    2    1    2    0    0  0.92766382700E+01 -0.47107798485E+01  0.39305444395E+02  0.50528862977E+02  0.30000009505E+02 0.  0.
         12    1    1    2    0    0 -0.92766382700E+01  0.47107798485E+01 -0.39305444395E+02  0.40659137023E+02  0.00000000000E+00 0. -1.
         11    1    3    3    0    0  0.74150089433E+01 -0.10142629635E+02  0.86144047241E+01  0.15233622765E+02  0.51100000000E-03 0. -1.
        -11    1    3    3    0    0 -0.21931342593E+01  0.84354178875E+01  0.73088778528E+01  0.11374788286E+02  0.51100000000E-03 0.  1.
         12    1    3    3    0    0  0.40547635861E+01 -0.30035681008E+01  0.23382161818E+02  0.23920451926E+02  0.00000000000E+00 0. -1.
</event>
<event>
 7    1  0.3250765E-011  0.5052887E+02  0.7816164E-02  0.1300439E+00
        -11   -1    0    0    0    0  0.00000000000E+00  0.00000000000E+00  0.45593999997E+02  0.45594000000E+02  0.51100000000E-03 0.  1.
         11   -1    0    0    0    0 -0.00000000000E+00 -0.00000000000E+00 -0.45593999997E+02  0.45594000000E+02  0.51100000000E-03 0. -1.
    9900012    2    1    2    0    0  0.11711860113E+02  0.24585148801E+02  0.30192184068E+02  0.50528865876E+02  0.30000018317E+02 0.  0.
         12    1    1    2    0    0 -0.11711860113E+02 -0.24585148801E+02 -0.30192184068E+02  0.40659134124E+02  0.00000000000E+00 0. -1.
         11    1    3    3    0    0  0.14631088656E+02  0.10057418999E+02  0.45159744612E+01  0.18319783235E+02  0.51100000000E-03 0. -1.
        -11    1    3    3    0    0 -0.17699621920E+01 -0.18319503452E+01  0.64713157020E+01  0.69546197168E+01  0.51100000000E-03 0.  1.
        -12    1    3    3    0    0 -0.11492663514E+01  0.16359680147E+02  0.19204893905E+02  0.25254462924E+02  0.00000000000E+00 0.  1.
</event>
<event>
 7    1  0.3250765E-011  0.5052886E+02  0.7816164E-02  0.1300439E+00
        -11   -1    0    0    0    0  0.00000000000E+00  0.00000000000E+00  0.45593999997E+02  0.45594000000E+02  0.51100000000E-03 0.  1.
         11   -1    0    0    0    0 -0.00000000000E+00 -0.00000000000E+00 -0.45593999997E+02  0.45594000000E+02  0.51100000000E-03 0. -1.
    9900012    2    1    2    0    0  0.31677228167E+02  0.96181162910E+01  0.23605312236E+02  0.50528859440E+02  0.29999998753E+02 0.  0.
         12    1    1    2    0    0 -0.31677228167E+02 -0.96181162910E+01 -0.23605312236E+02  0.40659140560E+02  0.00000000000E+00 0. -1.
         11    1    3    3    0    0  0.29064209477E+00 -0.51479187676E+01  0.12497445495E-01  0.51561319719E+01  0.51100000000E-03 0. -1.
        -11    1    3    3    0    0  0.19525054127E+02  0.11501379536E+00  0.88295634264E+01  0.21429002716E+02  0.51100000000E-03 0.  1.
         12    1    3    3    0    0  0.11861531946E+02  0.14651021263E+02  0.14763251364E+02  0.23943724752E+02  0.00000000000E+00 0. -1.
</event>
<event>
 7    1  0.3250765E-011  0.5052886E+02  0.7816164E-02  0.1300439E+00
        -11   -1    0    0    0    0  0.00000000000E+00  0.00000000000E+00  0.45593999997E+02  0.45594000000E+02  0.51100000000E-03 0.  1.
         11   -1    0    0    0    0 -0.00000000000E+00 -0.00000000000E+00 -0.45593999997E+02  0.45594000000E+02  0.51100000000E-03 0. -1.
    9900012    2    1    2    0    0  0.35936566857E+02  0.74048914816E+01  0.17518458724E+02  0.50528860174E+02  0.30000000986E+02 0.  0.
         12    1    1    2    0    0 -0.35936566857E+02 -0.74048914816E+01 -0.17518458724E+02  0.40659139826E+02  0.00000000000E+00 0. -1.
         11    1    3    3    0    0  0.21383423334E+01  0.16366104652E+00 -0.36548346748E+01  0.42375829944E+01  0.51100000000E-03 0. -1.
        -11    1    3    3    0    0  0.81946229441E+01 -0.79244741982E+01  0.54679616237E+01  0.12643090646E+02  0.51100000000E-03 0.  1.
         12    1    3    3    0    0  0.25603601579E+02  0.15165704633E+02  0.15705331775E+02  0.33648186534E+02  0.00000000000E+00 0. -1.
</event>
<event>
 7    1  0.3250765E-011  0.5052889E+02  0.7816164E-02  0.1300439E+00
        -11   -1    0    0    0    0  0.00000000000E+00  0.00000000000E+00  0.45593999997E+02  0.45594000000E+02  0.51100000000E-03 0.  1.
         11   -1    0    0    0    0 -0.00000000000E+00 -0.00000000000E+00 -0.45593999997E+02  0.45594000000E+02  0.51100000000E-03 0. -1.
    9900012    2    1    2    0    0 -0.13033784840E+02  0.14719210770E+02  0.35589723730E+02  0.50528890958E+02  0.30000094555E+02 0.  0.
         12    1    1    2    0    0  0.13033784840E+02 -0.14719210770E+02 -0.35589723730E+02  0.40659109042E+02  0.00000000000E+00 0. -1.
         11    1    3    3    0    0  0.14333559046E+00  0.48226593325E+01 -0.16626000964E+01  0.51032173646E+01  0.51100000000E-03 0.  1.
        -11    1    3    3    0    0 -0.73604483717E+01  0.10377932416E+02  0.68141343351E+01  0.14432952174E+02  0.51100000000E-03 0. -1.
         12    1    3    3    0    0 -0.58166720593E+01 -0.48138097840E+00  0.30438189491E+02  0.30992721419E+02  0.00000000000E+00 0. -1.
</event>
<event>
 7    1  0.3250765E-011  0.5052886E+02  0.7816164E-02  0.1300439E+00
        -11   -1    0    0    0    0  0.00000000000E+00  0.00000000000E+00  0.45593999997E+02  0.45594000000E+02  0.51100000000E-03 0. -1.
         11   -1    0    0    0    0 -0.00000000000E+00 -0.00000000000E+00 -0.45593999997E+02  0.45594000000E+02  0.51100000000E-03 0.  1.
    9900012    2    1    2    0    0  0.22569438874E+02  0.81788365651E+01 -0.32816040102E+02  0.50528862938E+02  0.30000009386E+02 0.  0.
         12    1    1    2    0    0 -0.22569438874E+02 -0.81788365651E+01  0.32816040102E+02  0.40659137062E+02  0.00000000000E+00 0. -1.
         11    1    3    3    0    0  0.10341393476E+02  0.14327261858E+01 -0.12565702021E+02  0.16336890490E+02  0.51100000000E-03 0. -1.
        -11    1    3    3    0    0  0.19013607350E+02  0.24640907906E+01 -0.16667808011E+02  0.25404819071E+02  0.51100000000E-03 0.  1.
         12    1    3    3    0    0 -0.67855619521E+01  0.42820195887E+01 -0.35825300704E+01  0.87871533769E+01  0.00000000000E+00 0. -1.
</event>
<event>
 7    1  0.3250765E-011  0.5052886E+02  0.7816164E-02  0.1300439E+00
        -11   -1    0    0    0    0  0.00000000000E+00  0.00000000000E+00  0.45593999997E+02  0.45594000000E+02  0.51100000000E-03 0. -1.
         11   -1    0    0    0    0 -0.00000000000E+00 -0.00000000000E+00 -0.45593999997E+02  0.45594000000E+02  0.51100000000E-03 0.  1.
    9900012    2    1    2    0    0 -0.36061829918E+02  0.79311812756E+01 -0.17023707539E+02  0.50528857955E+02  0.29999994240E+02 0.  0.
         12    1    1    2    0    0  0.36061829918E+02 -0.79311812756E+01  0.17023707539E+02  0.40659142045E+02  0.00000000000E+00 0. -1.
         11    1    3    3    0    0 -0.22377805166E+02 -0.47966172841E+01 -0.13846844586E+02  0.26748996367E+02  0.51100000000E-03 0. -1.
        -11    1    3    3    0    0  0.17182496986E+01 -0.11062251382E+01  0.15248722374E+01  0.25497748302E+01  0.51100000000E-03 0.  1.
        -12    1    3    3    0    0 -0.15402274451E+02  0.13834023698E+02 -0.47017351908E+01  0.21230086758E+02  0.00000000000E+00 0.  1.
</event>
<event>
 7    1  0.3250765E-011  0.5052885E+02  0.7816164E-02  0.1300439E+00
        -11   -1    0    0    0    0  0.00000000000E+00  0.00000000000E+00  0.45593999997E+02  0.45594000000E+02  0.51100000000E-03 0.  1.
         11   -1    0    0    0    0 -0.00000000000E+00 -0.00000000000E+00 -0.45593999997E+02  0.45594000000E+02  0.51100000000E-03 0. -1.
    9900012    2    1    2    0    0 -0.97703239008E+01 -0.34507163546E+02  0.19156268077E+02  0.50528853775E+02  0.29999981534E+02 0.  0.
         12    1    1    2    0    0  0.97703239008E+01  0.34507163546E+02 -0.19156268077E+02  0.40659146225E+02  0.00000000000E+00 0. -1.
         11    1    3    3    0    0 -0.88358576282E+01 -0.57133139254E+00 -0.31345852856E+00  0.88598564376E+01  0.51100000000E-03 0. -1.
        -11    1    3    3    0    0 -0.54037314975E+01 -0.80701949263E+01  0.95132216240E+01  0.13595210413E+02  0.51100000000E-03 0.  1.
         12    1    3    3    0    0  0.44692652248E+01 -0.25865637227E+02  0.99565049817E+01  0.28073786924E+02  0.00000000000E+00 0. -1.
</event>
<event>
 7    1  0.3250765E-011  0.5052886E+02  0.7816164E-02  0.1300439E+00
        -11   -1    0    0    0    0  0.00000000000E+00  0.00000000000E+00  0.45593999997E+02  0.45594000000E+02  0.51100000000E-03 0.  1.
         11   -1    0    0    0    0 -0.00000000000E+00 -0.00000000000E+00 -0.45593999997E+02  0.45594000000E+02  0.51100000000E-03 0. -1.
    9900012    2    1    2    0    0  0.30512648528E+02  0.19978820193E+02  0.17971951366E+02  0.50528855735E+02  0.29999987492E+02 0.  0.
         12    1    1    2    0    0 -0.30512648528E+02 -0.19978820193E+02 -0.17971951366E+02  0.40659144265E+02  0.00000000000E+00 0. -1.
         11    1    3    3    0    0  0.54411025808E+01  0.15020335399E+02  0.22727165905E+01  0.16136335202E+02  0.51100000000E-03 0. -1.
        -11    1    3    3    0    0  0.21608803106E+01  0.44098618672E+01  0.94318745568E+01  0.10633745498E+02  0.51100000000E-03 0.  1.
        -12    1    3    3    0    0  0.22910665636E+02  0.54862292644E+00  0.62673602185E+01  0.23758775034E+02  0.00000000000E+00 0.  1.
</event>
